default_name
 44106
  38.3641133  29.9479186  23.9844812  38.8532300  30.3932294  24.7477400
  38.0811295  30.6565921  23.3228149  38.9035861  29.1528707  23.6730852
  37.0716935  29.3675314  24.5275527  36.2303154  29.8279508  24.0096764
  36.9957492  27.8513438  24.3323893  36.9124689  27.6718183  23.2605058
  37.9346604  27.4355805  24.6980214  35.8144217  27.1733050  25.0609836
  36.0791221  27.1554264  26.1182040  34.9524826  27.8240587  24.9137328
  35.3795540  25.4445186  24.5080581  34.4625424  25.7906940  22.9989895
  35.1041568  26.3240416  22.2975836  34.1341008  24.8534760  22.5497131
  33.5931073  26.4045562  23.2342705  36.9380648  29.6631278  26.0450949
  35.8335065  29.8777891  26.5481809  37.7436320  32.1390624  27.5687280
  38.5273435  31.7471385  28.0710141  37.4252332  33.5601508  27.7725366
  37.5775809  33.8333510  28.8166875  38.3560554  34.4407814  26.8866603
  38.3917290  34.0320644  25.8768202  37.9697310  35.4594450  26.8523390
  39.6252677  34.4489916  27.4236947  40.1998731  34.9914399  26.8785541
  36.0091441  33.9120081  27.3705156  35.5896805  35.0706316  27.4621946
  35.2852590  32.9295316  26.8197241  35.6234328  31.9782403  26.8477014
  33.9849594  33.1857747  26.1983866  33.8217541  34.2599566  26.1112288
  33.9303105  32.5601194  24.7819071  34.6780174  33.0999756  24.2008833
  34.2495043  31.5261272  24.9125799  32.5687300  32.5910398  24.0304762
  32.6682524  31.9578532  23.1488465  31.8197543  32.1668065  24.6991770
  32.1391511  33.9788107  23.6083224  32.9238161  34.9282307  23.7912225
  31.0086087  34.0865741  23.0941308  32.9018275  32.5156530  27.0744255
  32.8112128  31.2535901  27.1427416  32.1310888  33.3176035  27.7893181
  32.3293114  34.3048629  27.8675868  30.9604512  32.7675432  28.5408300
  31.3061541  32.0570360  29.2916749  30.1884159  33.9012173  29.2522909
  29.8888140  34.5953922  28.4671418  29.2999034  33.4783162  29.7211196
  31.0206549  34.6522922  30.3122167  31.8832383  35.1146816  29.8323762
  30.1441818  35.7595351  30.9882922  29.2815895  35.2978309  31.4687737
  30.7368832  36.2867295  31.7358695  29.8030074  36.4659986  30.2315823
  31.5534948  33.6940007  31.3686422  32.1873507  32.9450163  30.8939332
  32.1363590  34.2497332  32.1031706  30.7187701  33.2002485  31.8661785
  29.9868501  32.0020258  27.6395365  29.6977777  32.4371123  26.5217683
  29.4917105  30.8678464  28.1579409  29.9208334  30.4661938  28.9792984
  28.3559726  30.1479650  27.5354628  28.4808443  30.1167276  26.4530901
  28.2176428  28.6901574  28.0623858  27.4297463  28.1875182  27.5014283
  29.5555344  27.9083157  27.8927815  30.3438574  28.4101328  28.4538751
  29.4333581  26.8923469  28.2682536  29.8262215  27.8749999  26.8374525
  27.8368441  28.6905740  29.4436530  27.7557337  27.7855736  29.7534847
  27.0539660  30.8953835  27.7827286  26.9926084  31.7675105  28.6728886
  26.0149359  30.6199912  26.9679590  25.9409296  29.8575949  25.7012266
  25.7760891  28.8010416  25.9124685  26.8690779  29.9752678  25.1419478
  24.7495909  30.5085918  24.9973849  24.2931384  29.8205247  24.2858276
  25.0526897  31.4182996  24.4790566  23.8009765  30.8286288  26.1507197
  23.2319882  29.9556068  26.4703818  23.1141751  31.6346484  25.8923869
  24.7428464  31.2830083  27.2823244  24.8999373  32.3577427  27.1908556
  24.2198575  30.9582882  28.7002671  23.7160238  31.8708496  29.3566453
  24.4319442  29.7385872  29.2118115  24.8424869  29.0101587  28.6452905
  24.0338302  29.4094778  30.5921778  22.9915916  29.6950907  30.7345262
  24.1787320  27.9237766  30.9031128  25.1396837  27.5935576  30.5086177
  24.1725909  27.8086384  31.9869973  23.0545868  27.0728507  30.2915414
  22.1203141  27.3088839  30.8009761  22.9864554  27.3800818  29.2479580
  23.3073913  25.5675969  30.3635272  24.1488483  25.1215865  31.1782578
  22.6192515  24.8148403  29.6111296  24.8466391  30.1947290  31.6259608
  24.3138163  30.6560142  32.6499846  26.1469059  30.3274152  31.3751205
  26.5974907  29.8987193  30.5793238  26.9670490  31.0870428  32.3053098
  26.7922354  30.7310743  33.3206058  28.4610123  30.9275089  31.9791693
  28.5733174  31.0968085  30.9082704  28.9917900  31.7059999  32.5271901
  29.0450372  29.5577569  32.3436365  29.1632377  29.4973780  33.4255255
  28.3408644  28.7945082  32.0124397  30.4047962  29.3278184  31.6666706
  30.7841229  30.1021544  30.7498065  31.1077633  28.3934857  32.0450219
  26.5451447  32.5648997  32.2266420  26.4358607  33.2151915  33.2570204
  26.2835125  33.1081541  31.0320119  26.2888793  32.5698177  30.1774567
  25.9518469  34.5324297  30.9532840  26.7686352  35.0864138  31.4159478
  25.7376574  35.0723875  29.5220121  24.9386811  34.4828091  29.0724197
  25.4151627  36.1094470  29.6147749  26.9357048  35.0058248  28.6691153
  27.7214425  35.6237591  29.1037120  27.2778916  33.9726458  28.6095217
  26.6028296  35.5184019  27.2553361  25.7143820  35.0293980  26.8557925
  26.4558631  36.5984355  27.2500772  27.7406053  35.1965176  26.3965918
  27.7198100  34.3074253  25.9178623  28.7906381  35.9947030  26.2096472
  28.8533109  37.2184845  26.8035243  28.0954391  37.5290015  27.3945484
  29.6573853  37.8101706  26.6503199  29.7839798  35.5618703  25.4211543
  29.7208889  34.6514898  24.9883414  30.5912137  36.1480010  25.2632843
  24.6729439  34.8224031  31.6734253  24.5553622  35.8616268  32.3158384
  23.7004575  33.9071807  31.5717388  23.8007182  33.1040292  30.9675909
  22.4343662  34.0950791  32.2658505  22.0232169  35.0765947  32.0298789
  21.4290491  33.0263592  31.8310293  21.1971831  33.1372099  30.7717609
  21.8365417  32.0315547  32.0110679  20.2493606  33.1969171  32.5917960
  19.6038543  32.5347344  32.3340448  22.5869245  34.0969518  33.7880188
  22.0250086  34.9525753  34.4868414  23.3245255  33.1224428  34.2834186
  23.6427462  32.3972133  33.6566196  23.6576494  33.0133224  35.6752735
  22.7509757  32.9515562  36.2771264  24.4664312  31.7740849  35.9002548
  23.8154529  30.9283813  35.6786427  25.2865566  31.7984493  35.1826890
  25.0193567  31.6288700  37.2855934  25.8824744  30.9659759  37.2247660
  25.3445835  32.6198480  37.6022784  24.0297924  31.0776272  38.2906089
  22.8556790  30.7574474  37.9260976  24.4619101  30.9655627  39.4627445
  24.4297632  34.2236625  36.2237871  24.2306234  34.5507726  37.3880741
  25.3060458  34.8278009  35.4086462  25.4214708  34.4649149  34.4731836
  26.1796535  35.9280014  35.8422063  26.2449106  35.9311750  36.9302461
  27.6109158  35.7750244  35.2597191  27.3923363  35.7074456  34.1940009
  28.2592159  36.6317797  35.4435051  28.3234933  34.4796352  35.7236266
  27.6169299  33.6527568  35.6519238  29.5511751  34.1760027  34.8657580
  30.2584492  35.0022838  34.9373240  30.0253813  33.2607843  35.2201653
  29.2466050  34.0480617  33.8270239  28.6234615  34.4822601  37.2255028
  27.6907657  34.5702366  37.7826727  29.1228190  33.5526069  37.4984284
  29.2705906  35.3258079  37.4658150  25.6838077  37.3455197  35.5409359
  26.3567292  38.3152530  35.9404318  24.5172346  37.4598005  34.9004695
  23.9734993  36.6291129  34.7149719  23.9778663  38.7505585  34.4753581
  24.5704117  39.1706199  33.6626236  22.5475428  38.5326163  33.9758693
  22.5031318  37.5551648  33.4955408  21.8831656  38.5427864  34.8399292
  22.1159313  39.5887933  33.0009377  21.9435197  40.5359504  33.5120820
  22.8695267  39.7268556  32.2256088  20.8160023  39.1107937  32.3658707
  21.0245106  38.7457244  31.3602129  20.4028363  38.3011121  32.9673763
  19.8029451  40.2612755  32.2922795  18.9059892  39.8930354  31.7943136
  19.5552812  40.5617441  33.3103563  20.3408706  41.4367711  31.5433988
  20.5700217  41.1586654  30.5998699  19.6444603  42.1678838  31.5191740
  21.1717723  41.7784082  32.0049024  23.9355967  39.7371428  35.6439443
  24.4096530  40.8732460  35.5485397  23.3734234  39.2656960  36.7763316
  22.8674173  38.3916561  36.7868896  23.2741507  40.1421809  37.9511448
  22.9749159  41.1361888  37.6187201  22.2465256  39.6390185  38.9931013
  22.4740192  38.6058671  39.2556731  22.3249631  40.2649762  39.8819908
  20.8182050  39.7057606  38.4763820  20.5130862  40.4318799  37.5262397
  19.9112007  38.9196367  39.1038358  18.9476572  38.9249217  38.8010886
  20.2024582  38.3316626  39.8716614  24.5988070  40.5193898  38.5673495
  24.7690801  41.6782288  38.9515633  25.5359036  39.5708333  38.6738367
  25.3126280  38.6073463  38.4690439  26.8754010  39.8823760  39.1521222
  26.8086103  40.3581156  40.1305444  27.7311577  38.6151580  39.2804421
  27.8491493  38.1485653  38.3024500  28.7120455  38.8708895  39.6811423
  27.0816859  37.7100043  40.1611623  27.6100913  36.9132203  40.2478969
  27.6069371  40.8852505  38.2774922  28.3627910  41.6949961  38.7614405
  27.3905563  40.7995054  36.9675670  26.8344689  40.0508087  36.5798565
  28.0430376  41.7180535  36.0513991  29.1025532  41.8295980  36.2817980
  27.8819228  41.2086319  34.5965951  26.8661246  40.8337700  34.4711640
  28.1517509  42.3660123  33.5453395  29.1675827  42.7410882  33.6698569
  28.0305266  41.9753716  32.5349904  27.4427752  43.1778064  33.7079524
  28.8451142  40.0216056  34.3746921  29.8570120  40.4267018  34.3669054
  28.7293077  39.3510167  35.2261607  28.5947778  39.2434642  33.0720038
  28.7108699  39.9133340  32.2200079  29.3126177  38.4271143  32.9921418
  27.5831641  38.8376506  33.0792624  27.5031110  43.1502455  36.2495389
  28.2863977  44.1247001  36.2862564  26.1900554  43.2548750  36.4379554
  25.6031347  42.4393410  36.3353509  25.5418402  44.5557129  36.6912103
  25.8637653  45.2719875  35.9352909  23.9963380  44.3983114  36.6008970
  23.6578009  43.6908755  37.3578825  23.5216876  45.3649360  36.7695510
  23.7254225  44.0287117  35.6119076  26.0087551  45.1178116  38.0378225
  26.2875757  46.3233767  38.1811607  26.1851809  44.2310371  39.0216996
  26.1169745  43.2358004  38.8637405  26.4688975  44.6955581  40.3644379
  25.8212624  45.5335238  40.6222779  26.2096809  43.5403863  41.3696119
  25.1620506  43.2532426  41.2795092  26.8420868  42.7015878  41.0787855
  26.5117972  43.9289346  42.8304332  27.5553198  44.2383043  42.8891862
  25.8684335  44.7745874  43.0734425  26.2574042  42.7836227  43.8348902
  26.0861673  41.5995233  43.4092278  26.2441304  43.0776160  45.0619394
  27.9361299  45.1640602  40.4853168  28.1899188  46.2258962  41.0681346
  28.8839077  44.3378062  39.9870611  28.5979315  43.5483946  39.4256823
  30.3326076  44.5141916  40.2688108  30.4785949  45.2829684  41.0276053
  30.9167723  43.2018755  40.7852980  30.5885201  42.3596148  40.1762441
  32.0055146  43.2534726  40.7764769  30.5157814  42.8958538  42.1876571
  31.0083298  43.6693316  43.2536989  31.6919531  44.4933077  43.0491931
  30.6286176  43.3888180  44.5628134  31.0124933  43.9976042  45.3814216
  29.7634993  42.3370334  44.8271020  29.4706699  42.1211599  45.8545987
  29.2688365  41.5570403  43.7827646  28.5995518  40.7204954  43.9836397
  29.6416930  41.8586118  42.4576949  29.2403025  41.2716637  41.6315729
  31.1616658  44.9682438  39.0929276  32.2481211  45.5274428  39.2718053
  30.6413128  44.7808055  37.8961015  29.6894236  44.4646738  37.7774966
  31.4893230  44.9389246  36.6818849  32.4577565  45.3679087  36.9391949
  31.7166690  43.5468490  36.0608573  30.7877343  43.0824064  35.7299908
  32.3930836  43.6499001  35.2123623  32.3675418  42.5773443  37.0165431
  33.6807158  42.6982781  37.4064355  33.9796536  41.7216548  38.2662198
  34.9590618  41.6879412  38.7434220  32.9301284  40.9177856  38.3756245
  32.8819757  40.0626384  38.9108856  31.8919461  41.4454440  37.6266417
  30.9218609  40.9485848  37.6137242  30.9325720  45.8984214  35.6708555
  31.3665815  45.8833454  34.4752647  30.0665481  46.8017577  36.1222112
  29.7623162  46.7993201  37.0852981  29.5151217  47.8582661  35.2021455
  29.9764552  47.7088120  34.2259622  27.9729078  47.7094752  35.0515244
  27.5058633  47.9423124  36.0084760  27.4119949  48.6783440  33.9447200
  27.8782668  48.4457912  32.9873229  26.3325290  48.5511972  33.8629500
  27.6362726  49.7098256  34.2164656  27.7080686  46.3784781  34.6162336
  26.7611684  46.2575416  34.5144763  29.8468561  49.1953463  35.8140858
  29.8276154  49.3232560  37.0169145  30.1100524  50.2088146  34.9888375
  29.9079698  50.1518511  34.0009018  30.6896436  51.4547192  35.5108890
  30.6138983  51.4761395  36.5980426  32.1804758  51.5464378  35.1181423
  32.3334661  51.5334358  34.0390110  32.5093342  52.5049343  35.5196851
  32.9806864  50.4335118  35.7533088  33.4358730  50.5595696  37.0553813
  33.2392196  51.4927605  37.5831895  34.1235592  49.5400559  37.6867556
  34.5153788  49.6655266  38.6961298  34.3602746  48.3427578  36.9830183
  35.0289769  47.3367092  37.6383781  35.2699593  47.5703615  38.5377856
  33.8917437  48.1697729  35.7017732  34.0629885  47.2349619  35.1680090
  33.1844308  49.2158132  35.0799973  32.7915714  49.0842261  34.0718077
  30.0084711  52.6675703  34.9544493  29.6623002  52.6961502  33.7647503
  29.8554531  53.6636846  35.8158598  29.9435134  53.5224896  36.8120569
  29.5560646  55.0115172  35.3298045  28.8694224  54.9549817  34.4851594
  28.9101967  55.8421589  36.4257693  28.0916204  55.2528458  36.8389788
  29.6644450  56.0053091  37.1955690  28.3742120  57.1909174  35.9437589
  27.9731666  57.0928332  34.9349760  27.5787729  57.4997733  36.6219822
  29.4438284  58.2578982  35.9364403  30.2800052  58.3284238  36.8482108
  29.4441877  59.0851446  34.8936785  30.1362858  59.8183887  34.8349014
  28.7523622  58.9758175  34.1659928  30.8956950  55.5827497  34.9324256
  31.8319251  55.6281814  35.7649519  31.0230003  55.9676199  33.6658020
  30.2599193  55.8630156  33.0124532  32.2971380  56.4946033  33.1677170
  33.0344861  56.4593866  33.9697001  32.8264876  55.6875135  31.9813599
  32.0240410  55.8008234  31.2524295  33.7282378  56.1716533  31.6064532
  33.1049528  54.1904576  32.2090131  32.2606666  53.7622969  32.7493462
  33.2937404  53.4532268  30.9056333  34.1381996  53.8805516  30.3649105
  33.4881009  52.3999962  31.1081924  32.3914557  53.5459515  30.3011625
  34.3050495  53.9921113  33.1239938  34.1091075  54.4615265  34.0880247
  34.4801684  52.9260157  33.2684749  35.1865079  54.4465506  32.6716500
  32.1600273  57.9545864  32.7744906  31.2723930  58.3419263  32.0208128
  33.0632937  58.7417575  33.3232459  33.5094312  58.4571817  34.1835233
  33.3395759  60.0545983  32.8159125  32.4195273  60.5525783  32.5099293
  33.9973485  60.8810149  33.9334759  34.9005256  60.3643904  34.2582365
  34.2649091  61.8514288  33.5153752  33.0582415  61.0829076  35.1411482
  31.8094624  61.0564242  34.9700832  33.5681268  61.2619311  36.2759612
  34.1660038  60.0473356  31.4988073  34.8022534  59.0266766  31.1267809
  34.1296618  61.1856851  30.7523592  33.1903022  62.3207748  30.9140906
  33.5074415  62.9305260  31.7600968  32.1888807  61.9332356  31.1013533
  33.2850690  63.0521273  29.6103142  33.1311518  64.1193541  29.7697993
  32.5323471  62.6765968  28.9171418  34.6809521  62.7651878  29.0996281
  35.4455256  63.3972131  29.5513695  34.7290593  62.8568321  28.0145536
  34.9026567  61.2987738  29.5132633  34.4395146  60.6160441  28.8008885
  36.4073060  60.9770150  29.6292753  36.9953079  60.5295467  28.6713526
  37.0567359  61.1802190  30.7592314  36.6686719  61.5539298  31.6135417
  38.4917437  60.8150067  30.7408304  38.8580352  61.1013459  29.7549605
  38.9660731  61.4379719  31.4991346  38.8572489  59.3388406  31.0030909
  40.0298015  59.0342220  31.1792527  37.8828230  58.4321576  31.0253209
  36.9153031  58.6791592  30.8736805  38.1917686  57.0649634  31.4921203
  39.2418874  56.8439220  31.3010956  37.9282544  56.9226599  32.9856744
  38.1456427  55.8981001  33.2875331  38.5815112  57.6068114  33.5272391
  36.5908077  57.2224993  33.2802569  36.4420781  57.1280540  34.2239515
  37.5480781  55.9608620  30.6659995  36.7485428  56.2184862  29.7671964
  37.9564174  54.7120437  30.9230441  38.5946651  54.5178950  31.6813617
  37.5020910  53.6030427  30.1054218  36.4906106  53.8103251  29.7560788
  38.4124877  53.3764303  28.8765208  38.0084269  52.5681386  28.2670140
  38.4590191  54.2897175  28.2833586  40.1572107  52.9163009  29.2431305
  40.5467548  52.8263903  27.9746394  37.5035023  52.3512264  30.9951533
  38.1279556  52.3544313  32.0644834  36.7907281  51.3347698  30.5497369
  36.2636360  51.4158621  29.6920088  36.6690605  50.0862378  31.3316639
  37.5769890  49.9399283  31.9167781  35.4623591  50.1308231  32.2955296
  35.4780626  49.2280901  32.9062061  35.5688451  51.0051393  32.9376605
  34.2149353  50.2071108  31.5858848  33.4900862  50.2330103  32.2147908
  36.5805623  48.8891540  30.4221062  36.2364040  49.0041227  29.2121854
  36.8801136  47.7163978  30.9891133  37.1448313  47.6792043  31.9630951
  36.7395254  46.4393280  30.2498314  35.9926710  46.5525560  29.4640280
  38.0693296  46.0291198  29.6064147  38.8519941  46.2478596  30.3328364
  38.0201412  44.9531781  29.4389935  38.3657936  46.6903302  28.3727835
  39.2099466  46.3792196  28.0377974  36.4143259  45.3751614  31.2815628
  36.8071298  45.5153962  32.4509649  35.7148115  44.3416587  30.8178541
  35.3633508  44.3998553  29.8727679  35.3927241  43.1694692  31.5970001
  35.8188694  43.2545540  32.5966300  33.8591738  43.0302547  31.7242354
  33.6595928  43.7795868  32.4902433  33.3780972  43.3270709  30.7922668
  33.3027452  41.6766759  32.1772141  33.6531711  40.8982932  31.4994067
  33.7934166  41.3576782  33.6423585  33.4429601  42.1354362  34.3208654
  33.3940731  40.3938513  33.9580533  34.8826925  41.3230469  33.6618287
  31.7660928  41.5916735  32.0262869  31.4948026  41.7340689  30.9802349
  31.4212296  40.6131990  32.3605897  31.2975654  42.3677521  32.6315001
  36.0095679  41.9181992  30.9300789  35.8652445  41.7323672  29.7062312
  36.6598451  41.0633317  31.7329676  36.8263100  41.2946607  32.7019236
  37.1806522  39.7734776  31.2185298  36.8593521  39.6248179  30.1876245
  38.7148089  39.7746716  31.2587280  39.0035898  39.9900524  32.2874728
  39.1872539  38.8469366  30.9359225  39.2934121  40.8662098  30.4141526
  39.3482776  40.7715161  29.0444330  39.8046129  41.9159389  28.5508942
  39.8954026  42.0579716  27.4740085  40.0813124  42.7241605  29.5575467
  40.4707394  43.6534418  29.4876712  39.7513592  42.0933780  30.7346658
  39.8861840  42.6088232  31.6855811  36.6721997  38.5696319  32.0115310
  36.5010870  38.6931785  33.1982094  36.3869652  37.4558177  31.3029259
  36.4841777  37.4631454  30.2976422  35.9419218  36.2101392  31.9528001
  35.7619200  36.3404199  33.0199109  34.6518077  35.7019605  31.2964991
  34.8189075  35.5579450  30.2290548  34.3621468  34.7538374  31.7495549
  33.8564029  36.4325099  31.4439029  37.0202355  35.1818809  31.7891257
  37.7612799  35.1566536  30.7830830  37.1054857  34.2752361  32.7580641
  36.5636005  34.3201285  33.6092071  38.0248012  33.1891997  32.5949143
  38.1941636  32.9869876  31.5373105  39.3869466  33.5733776  33.2537218
  39.8194355  34.3784578  32.6596692  39.1705686  33.9390627  34.2574922
  40.4092318  32.3770023  33.3398682  41.1999471  32.6507645  34.0383842
  39.8874588  31.4945596  33.7102056  41.0324413  32.0451715  32.0165288
  41.5597234  32.9330573  31.3022792  40.9870735  30.7471201  31.6404740
  41.3911704  30.4655763  30.7586915  40.5492967  30.0649655  32.2430665
  37.4392089  31.9437531  33.2550328  37.2211625  31.9500354  34.4575956
  37.2478993  30.8709479  32.4688753  37.4315846  30.9512773  31.4789732
  36.7605385  29.5700267  32.9906930  36.0034070  29.7365228  33.7569371
  36.1292482  28.7341592  31.8418187  35.5093735  29.4023325  31.2439901
  36.9406660  28.3448621  31.2268805  35.2429528  27.5258981  32.3766857
  35.9127338  26.7777509  32.8006787  34.5860197  27.9089337  33.1575983
  34.3932460  26.8816725  31.2599612  35.0498209  26.4781076  30.4891540
  33.7891659  26.0772632  31.6796187  33.5050108  27.8632147  30.6498536
  32.6424538  28.0667640  31.1342731  33.7329778  28.4582617  29.4834946
  34.8354602  28.1650335  28.7869792  35.4938161  27.4904761  29.1498012
  35.0051340  28.6193606  27.9010349  32.8853609  29.3778643  29.0591709
  32.0806505  29.6162665  29.6210477  33.0457666  29.8384829  28.1747506
  37.9481570  28.8370103  33.5945898  39.0612505  28.8328467  33.0157354
  37.7363902  28.2304357  34.7699859  36.8282847  28.2893725  35.2081302
  38.7818632  27.4843075  35.4493068  39.6004866  27.2941408  34.7551947
  39.3236620  28.2604281  36.6933470  38.5154639  28.3865159  37.4137761
  40.4692068  27.4880048  37.3439762  41.2780295  27.3619171  36.6242482
  40.8359700  28.0409709  38.2087386  40.1124085  26.5090308  37.6639825
  39.8050453  29.6597996  36.2132163  40.4921512  29.5185432  35.3789305
  38.9358564  30.2243835  35.8757918  40.5380622  30.4599466  37.3725195
  41.4076850  29.8961628  37.7101639  40.8589884  31.4316977  36.9972789
  39.8513903  30.6020011  38.2070267  38.1864099  26.1535487  35.8977779
  37.1320154  26.1119133  36.5583078  38.8886341  25.0712744  35.5406819
  39.7375313  25.1865872  35.0057279  38.4061223  23.6991381  35.8019657
  37.3212905  23.6986834  35.9079803  38.7874149  22.7720772  34.6280632
  39.8440689  22.9853007  34.4664545  38.6478082  21.6973249  34.7443272
  38.0714906  23.1647064  33.3658486  36.7202323  22.9700510  33.2164218
  36.3148824  23.4971853  32.0689760  35.2723657  23.4339462  31.7571126
  37.3635560  24.0453096  31.4815098  37.3641815  24.5173303  30.5885955
  38.4678710  23.8719830  32.2830802  39.4309018  24.2832129  31.9804865
  38.9665249  23.2755530  37.1570873  39.8401805  22.4255404  37.2477208
  38.4702571  23.9480745  38.1868494  37.7914372  24.6698810  37.9911502
  38.8891577  23.7465617  39.5769720  39.0208745  22.6841646  39.7820633
  40.1903499  24.4605665  39.8704633  40.0715676  25.5269333  39.6784930
  40.4615212  24.3079749  40.9151078  40.9767290  24.0619238  39.2295333
  37.7689243  24.2355986  40.4813812  36.9121877  24.9948909  40.0352304
  37.7330161  23.7624503  41.7583755  38.6873178  22.8230480  42.3994094
  39.5192058  23.3706944  42.8422931  39.0698297  22.1122684  41.6668960
  37.8149370  22.1691201  43.4292007  38.4110751  21.7430745  44.2361725
  37.1980699  21.3890670  42.9830016  36.9355206  23.3528379  43.9348974
  37.5635602  23.9202629  44.6216972  35.9925103  23.1080275  44.4236704
  36.6695990  24.1791081  42.6661278  35.7019081  24.0198405  42.1904109
  36.8345410  25.6582831  42.9984534  37.9804080  26.1266591  43.1216226
  35.7073698  26.3617243  43.1839408  34.3128606  25.9576094  42.9049492
  34.1188206  24.9865548  43.3604728  34.1639878  25.8891042  41.8273394
  33.5178954  27.0367305  43.5139007  33.3327538  26.8152877  44.5649881
  32.5666426  27.1385902  42.9915558  34.3674782  28.2960322  43.3502911
  34.1673123  28.9619331  44.1897008  34.1799990  28.8242334  42.4154356
  35.8197838  27.8209296  43.3987249  36.4094035  28.2437371  42.5852873
  36.4883046  28.1458259  44.7336726  37.1437806  29.1839650  44.8407300
  36.3606592  27.2591335  45.7442093  35.7162248  26.4819365  45.7164901
  37.0663540  27.5260802  46.9883939  36.8622315  28.5488742  47.3051360
  36.6158456  26.5505429  48.1267626  37.1780318  26.8077033  49.0244900
  35.5533185  26.7171448  48.3039066  36.8545868  25.0525168  47.7767307
  37.7522335  25.0265535  47.1589467  37.0428380  24.5262444  48.7125181
  35.6887571  24.3638488  47.0226083  34.8831852  25.0429868  46.3400056
  35.5775330  23.1030252  47.1380807  38.5700610  27.5313684  46.7600887
  39.2975466  28.3331218  47.3826240  39.0741128  26.6513186  45.8981432
  38.5097743  25.9223098  45.4856294  40.5032716  26.6790323  45.5910746
  41.0814623  26.7175278  46.5142825  40.9011540  25.4215397  44.8174242
  40.6165420  24.6193999  45.4983551  40.2403570  25.4131790  43.9506038
  42.3324031  25.2143108  44.3632754  42.4966772  25.8402317  43.4861563
  43.3663105  25.5730773  45.4519236  43.2029516  24.9472024  46.3292452
  44.3723876  25.4041985  45.0680100  43.2546949  26.6215251  45.7283284
  42.4826775  23.7466924  43.9729321  41.7895582  23.5122648  43.1650159
  43.5039346  23.5614673  43.6400254  42.2620266  23.1165952  44.8345525
  40.9236394  27.9478069  44.8040994  41.9346129  28.6034037  45.1243983
  40.1640606  28.2851160  43.7719891  39.4072177  27.7013914  43.4455632
  40.4607834  29.5374660  43.0263680  41.4534869  29.5160866  42.5767218
  39.4176217  29.7768473  41.9099610  38.4177760  29.7034855  42.3377761
  39.6074025  31.1765371  41.2814058  40.6069283  31.2504996  40.8529448
  38.8647421  31.3272954  40.4979340  39.4845298  31.9400440  42.0495602
  39.5041015  28.6779519  40.8123162  39.3161019  27.7017099  41.2592051
  38.7584907  28.8738959  40.0417514  40.4983971  28.6871595  40.3657826
  40.4928004  30.7352359  43.9935661  41.4189031  31.5777109  43.9501652
  39.4730646  30.8227768  44.8393992  38.6883702  30.1975145  44.7236361
  39.3581907  31.9203275  45.8335261  39.4220515  32.8810509  45.3226135
  38.0006335  31.8506770  46.5951180  37.1435493  31.9681533  45.9320153
  37.9348046  30.8903115  47.1064542  37.8737086  32.9149596  47.6573772
  37.8127074  32.7156235  49.0079463  37.8259395  31.6771774  49.3389365
  37.7456660  33.9088757  49.6775608  37.7037676  34.0225846  50.6802643
  37.7515905  34.9309629  48.7575023  37.6930406  36.3027231  48.9696971
  37.6351914  36.6691853  49.9946155  37.7124423  37.1330970  47.8400238
  37.6724134  38.2152874  47.9639655  37.7842529  36.5871896  46.5160119
  37.7912045  37.2301648  45.6358790  37.8483784  35.1897362  46.3171504
  37.8780073  34.8052107  45.2976589  37.8389639  34.3470311  47.4629852
  40.5884959  32.0120370  46.7884828  41.1088806  33.0841684  47.0818085
  41.0323628  30.8477321  47.2891527  40.5288592  29.9940660  47.0946337
  42.2117243  30.7771250  48.1615804  42.0337180  31.3107381  49.0952131
  42.4956104  29.2927654  48.4873326  43.0094341  29.2257220  49.4462850
  41.5526972  28.7486954  48.5421289  43.3186693  28.7196414  47.4636310
  43.4918390  27.7983693  47.6706811  43.4484888  31.4288296  47.5260842
  44.3239712  31.9225371  48.2246832  43.5274101  31.4622751  46.1877278
  42.8087126  31.0342273  45.6217345  44.6453881  32.0914339  45.5169832
  45.5621553  32.0761775  46.1063933  44.9078577  31.4188755  44.1258398
  43.9799895  31.4315552  43.5540005  46.0081077  32.1655611  43.3383555
  46.9364683  32.1529007  43.9093956  46.1658544  31.6738195  42.3784561
  45.6991399  33.1973692  43.1709929  45.2294619  29.9271467  44.3264440
  46.2854848  29.8658174  44.5894179  44.6257507  29.5857057  45.1673068
  44.9505089  29.0268688  43.0888920  45.5542533  29.3674345  42.2476980
  45.2070122  27.9941267  43.3250046  43.8945190  29.0873248  42.8255855
  44.3944726  33.5920325  45.2932615  45.2650177  34.4472986  45.5861919
  43.2341425  33.8809113  44.7053075  42.6285891  33.1198707  44.4328710
  42.8039363  35.2791742  44.3869590  43.4861419  35.8241146  43.7344754
  41.4171543  35.2567141  43.7361034  40.8438848  34.4597487  44.2097145
  40.6435381  36.6140545  43.8809005  41.2160115  37.4114741  43.4070892
  39.6694972  36.5309246  43.3987863  40.5069095  36.8440548  44.9375623
  41.5771996  34.8366255  42.2895955  42.0261069  33.8442942  42.2464354
  40.6001126  34.8141312  41.8070039  42.2207140  35.5487291  41.7729732
  42.7795595  36.1673643  45.6505844  43.0557404  37.3786888  45.5805992
  42.4541002  35.5815099  46.7979500  42.1819283  34.6091533  46.8212797
  42.3123637  36.3841235  48.0436210  41.8675338  37.3518894  47.8119861
  41.4087603  35.6569810  49.0476099  41.0885343  36.3619381  49.8148060
  40.5349964  35.2683223  48.5245600  42.1743560  34.4891631  49.7090006
  42.4629100  33.7724969  48.9400878  43.0685274  34.8800104  50.1945909
  41.2781549  33.7828834  50.7651713  40.3741216  33.4002869  50.2914177
  41.8230561  32.9587854  51.2256545  40.8938530  34.7329779  51.8101925
  40.0100027  35.2038115  51.6789526  41.6095618  35.0198302  52.8891970
  42.7928453  34.4203664  53.0912843  43.1370923  33.7497650  52.4190583
  43.3339065  34.6424591  53.9147084  41.1365979  35.8983390  53.7661482
  40.2414859  36.3372034  53.6040596  41.6742717  36.1234009  54.5909831
  43.6217249  36.8401946  48.6972129  43.6211406  37.7268722  49.5617235
  44.7250595  36.2131045  48.2953201  44.6261810  35.4748555  47.6131832
  46.0494621  36.4717273  48.8466921  45.9940108  36.5949188  49.9282873
  46.9634454  35.2870307  48.5363801  46.9230813  35.0949485  47.4641981
  47.9811969  35.5565029  48.8186328  46.5447855  34.0415149  49.2878855
  45.4797185  33.8633571  49.1395853  47.1103453  33.1843128  48.9225790
  46.8228677  34.2375575  50.7640015  46.3650854  35.1623507  51.1151309
  46.4300242  33.3978163  51.3372450  48.2690294  34.3180672  50.9807865
  48.8635291  34.0912610  50.1964215  48.8392002  34.6717307  52.1263939
  48.0770231  34.9974681  53.1702268  47.0709898  34.9734975  53.0840734
  48.5090112  35.2667742  54.0425571  50.1691364  34.6932601  52.2299756
  50.7386639  34.4400265  51.4352359  50.6003365  34.9626918  53.1026564
  46.6246304  37.8035770  48.3158054  47.5209327  37.8337585  47.4662871
  46.1313192  38.8864442  48.8940350  45.3837807  38.7906153  49.5664206
  46.5667694  40.2383426  48.5259822  46.4115215  40.4132118  47.4613611
  45.7458692  41.2573684  49.3125764  44.6848536  41.1480932  49.0880681
  45.9082092  41.1072536  50.3799148  46.1031976  42.6925959  49.0195652
  45.6399929  43.3043978  47.8494653  45.0214881  42.7406172  47.1511079
  45.9729941  44.6531185  47.5713798  45.6060207  45.1200661  46.6573824
  46.7622118  45.3804796  48.4550988  47.0248971  46.4151822  48.2349011
  47.2175834  44.7806233  49.6265932  47.8319161  45.3399500  50.3321775
  46.8743639  43.4244602  49.8995602  47.2220374  42.9482044  50.8162955
  48.0749941  40.4454271  48.7335472  48.7145254  41.1387474  47.9579593
  48.6677469  39.7727765  49.7305699  48.1162987  39.2304550  50.3801017
  50.1087128  39.8722937  49.9590047  50.4319853  40.9018453  49.8053241
  50.4727016  39.4495563  51.4047181  51.5616906  39.4550148  51.4513279
  50.0751965  40.1661699  52.1234354  49.9604618  38.0639277  51.7379338
  48.8234850  37.6840394  51.3140107  50.6704220  37.3617555  52.4759065
  50.9891574  39.0911727  49.0049746  52.2045527  39.2884909  49.0245702
  50.4116487  38.2183401  48.1865805  49.4061426  38.1233176  48.1813357
  51.1921896  37.3901484  47.2646220  52.2156528  37.7586336  47.1950460
  51.2248430  35.9464792  47.7875656  50.1929564  35.6263963  47.9319829
  51.6918987  35.3298230  47.0196501  51.9807192  35.7969105  49.0780726
  51.8425689  36.6876413  49.6909460  51.6158892  34.9239462  49.6193068
  53.4725949  35.6178701  48.7653163  53.7620083  36.3274117  47.9901455
  54.0518156  35.8107699  49.6683072  53.7488359  34.1750581  48.2734247
  54.0445798  33.5911572  49.1450300  52.8102104  33.7867664  47.8780627
  54.8179268  34.0757110  47.2165023  55.6878666  34.4350631  47.5827955
  54.9386820  33.1091234  46.9496194  54.5438823  34.6163513  46.4085997
  50.6189197  37.3332161  45.8537562  50.3478018  36.2548865  45.3543271
  50.4140772  38.4970119  45.2121037  50.9142644  39.8197649  45.6179945
  51.9296122  39.7249798  46.0029426  50.2693222  40.2329384  46.3935177
  50.8521967  40.6150090  44.3316188  51.8378141  40.6035254  43.8662958
  50.5749795  41.6421002  44.5689701  49.8593315  39.9955792  43.4812397
  50.1326516  40.1313748  42.4348389  48.8581693  40.3925285  43.6491834
  49.8987884  38.4918244  43.8443039  48.9137041  38.0260031  43.8710949
  50.7919002  37.7409680  42.8477462  50.2919359  37.2068598  41.8659672
  52.0874180  37.6788272  43.1061397  52.4684957  38.1893304  43.8898907
  53.0201931  37.0508264  42.1663123  52.8187955  37.4040369  41.1549861
  54.4829051  37.4069634  42.5330563  55.1136657  37.1017496  41.6981402
  54.5367587  38.4891369  42.6518013  54.9711127  36.7280571  43.8160670
  54.4486439  35.7751594  43.9004067  56.0422954  36.5477529  43.7257336
  54.7191129  37.5335987  45.0798885  53.6998306  38.2089407  45.2379638
  55.6770527  37.4707685  45.9936678  55.5787004  37.9807864  46.8598722
  56.5009910  36.9131590  45.8196023  52.7541330  35.5310916  41.9920627
  53.2235861  34.9163875  41.0177271  51.9435215  34.9331200  42.8679759
  51.5519979  35.4127731  43.6659368  51.6051702  33.5069968  42.6718440
  52.5284218  32.9278846  42.6535504  50.6937561  32.9258123  43.7183329
  50.4367162  31.9076622  43.4260981  51.3517190  32.9080333  45.0746155
  51.6086465  33.9259526  45.3677505  50.6653764  32.4820187  45.8064246
  52.2575353  32.3032566  45.0316894  49.4919593  33.7125545  43.7620953
  48.8987695  33.3539620  44.4262771  50.9049892  33.3178911  41.3232018
  51.0044161  32.2397039  40.7383235  50.2467144  34.3556273  40.8027685
  50.0003715  35.1530640  41.3715471  49.7096855  34.2836792  39.4236378
  50.2492699  33.5225058  38.8601107  48.2344140  33.9239015  39.4356061
  47.9593131  33.5453277  38.4511770  48.1444564  33.1236701  40.1702063
  47.3253477  35.0445078  39.8083862  46.6789980  35.7756054  38.8249771
  46.8651960  35.5349300  37.7783133  45.8225145  36.7811884  39.1496459
  45.2985045  37.3339444  38.3699175  45.6064729  37.0974669  40.5003786
  44.7766280  38.1333216  40.8222161  44.4021150  38.5671340  40.0520561
  46.2251265  36.3894261  41.5057492  46.0596214  36.6370962  42.5542567
  47.0603820  35.3586123  41.1696880  47.5340186  34.7640911  41.9509133
  49.9295502  35.4822126  38.4613265  49.6965656  35.3808788  37.2339804
  50.3681156  36.6004378  38.9873387  50.4380003  36.7329787  39.9861622
  50.6952187  37.7135901  38.1232312  50.1794077  37.6239910  37.1671924
  50.2433282  39.0137262  38.8047641  50.9253592  39.1912468  39.6362804
  50.3506997  39.8122309  38.0706241  48.8093107  38.9879723  39.3208914
  48.1111790  38.8249515  38.4998327  48.6854471  38.2004392  40.0642294
  48.5269209  40.3559200  39.9706422  49.0443278  40.3531999  40.9300074
  48.9761799  41.1046874  39.3182519  47.0985719  40.6794633  40.1818886
  46.5130266  40.3699113  39.3162011  46.7275228  40.1707168  41.0716069
  46.9664814  42.2389555  40.3749920  47.3098522  42.7105475  39.5504938
  45.9963519  42.4791459  40.5207906  47.5086443  42.5259392  41.1773628
  52.1853315  37.7413789  37.7893186  53.0445634  38.1906033  38.6385701
  52.5041695  37.4201138  36.5287913  51.7929118  37.3451461  35.8156352
  53.9061272  37.0918260  36.1626127  54.4075862  36.6471443  37.0222034
  53.9672159  36.0873106  34.9772540  53.1549114  36.1868193  34.2572828
  54.9150386  36.3122769  34.4882527  54.0191404  34.6370691  35.3692990
  54.8209802  34.1572944  36.3862583  54.6956019  32.8433323  36.4679524
  55.2351446  32.2798286  37.2291726  53.8635054  32.4450124  35.5207958
  53.5697178  31.4944854  35.3467641  53.4530386  33.5451975  34.7968008
  52.7913383  33.4178885  33.9400357  54.7969561  38.3046194  35.7986840
  56.0261971  38.1180378  35.5065951  54.1864735  39.5010345  35.8195638
  53.1916277  39.5435530  35.9886001  54.9119094  40.7552653  35.6366713
  55.7298241  40.6194156  34.9290982  53.9604006  41.8194242  35.0856985
  53.0243247  41.9182883  35.6353230  54.4997956  42.7661668  35.1145330
  53.5863033  41.5744592  33.6270100  54.5956927  41.5999690  32.6302250
  55.6244233  41.8194862  32.9159266  54.2782806  41.3447882  31.2812971
  55.0457230  41.4050327  30.5096084  52.9737702  41.0140416  30.9388760
  52.7345342  40.8035608  29.8964922  51.9528321  40.9480715  31.9319739
  50.9305253  40.6867593  31.6586520  52.2740131  41.2238090  33.2751379
  51.5027093  41.1649809  34.0430764  55.4512747  41.2560433  36.9746984
  56.0433930  42.3081874  37.0196619  55.1678667  40.5403834  38.0689963
  54.5825273  39.7185965  38.0226994  55.6525313  40.9804837  39.3914973
  55.9747393  42.0217176  39.4021349  54.5602707  40.7661152  40.4735333
  54.2125389  39.7347887  40.4139627  55.1286562  41.0552055  41.9492818
  55.4761747  42.0865509  42.0097666  54.3373774  40.8954276  42.6817090
  55.9583412  40.3799270  42.1583771  53.3513080  41.6319998  40.1138975
  53.6886906  42.6682181  40.1368190  53.0655025  41.3659212  39.0962448
  52.1323318  41.4661745  41.0514630  52.4172614  41.7325361  42.0692874
  51.3254209  42.1187229  40.7180345  51.7940747  40.4302380  41.0287148
  56.9325692  40.2638705  39.7938809  56.9800993  39.0144276  39.8925735
  57.9521768  41.0428565  40.1103633  57.8792999  42.0455909  40.0138642
  59.2017174  40.4892175  40.5724738  59.4054520  39.5401251  40.0766766
  60.3226264  41.4565127  40.2464629  60.2881714  41.6693893  39.1780081
  60.1513102  42.3764746  40.8054091  61.7224407  40.8773812  40.6158105
  61.7682894  40.8404643  41.7042203  61.7566785  39.8636780  40.2166415
  62.9171510  41.6780565  40.0807392  63.8174462  41.1562578  40.4052290
  62.8538517  41.6502637  38.9929340  62.9728048  43.1063035  40.5423529
  62.1699117  43.6462878  40.0404763  62.7967919  43.1119895  41.6180324
  64.2987254  43.7801635  40.2436939  64.4618110  43.7753835  39.2469593
  64.2742953  44.7335165  40.5762917  65.0427898  43.2802066  40.7090005
  59.1571076  40.2246002  42.0895683  59.5742126  39.1625303  42.5594842
  58.6532519  41.1856332  42.8433348  58.3877558  42.0731163  42.4408613
  58.5131838  41.0079643  44.3128197  58.2753936  39.9698834  44.5450760
  59.8459572  41.3804573  45.0150178  59.7962124  41.0772002  46.0607997
  60.6670393  40.8577948  44.5243569  60.0666116  42.7967184  44.9378364
  60.8927825  43.0161219  45.3747616  57.3637382  41.8651092  44.8206067
  56.8895883  42.7986687  44.1522569  56.8765525  41.5501893  46.0172371
  57.2424228  40.7886380  46.5706609  55.7841383  42.3267368  46.5576659
  55.7935384  43.3346360  46.1427562  54.4561478  41.6587029  46.1902658
  54.2975207  41.6715853  45.1119473  54.4237157  40.6301097  46.5494932
  53.0221616  42.4903570  46.9186675  52.1099182  41.6703051  46.4046393
  55.9619725  42.3608129  48.0692951  56.2598544  41.3297357  48.6696385
  55.8688772  43.5247009  48.6605200  55.8641017  44.4116870  48.1774753
  55.9477772  43.5309033  50.1190824  55.8246980  42.5182342  50.5030772
  57.2918838  44.0559697  50.5646974  57.4755721  43.7507343  51.5948378
  58.0708527  43.6475468  49.9208820  57.3046608  45.4567529  50.4828920
  58.1605024  45.7860743  50.7669384  54.7729368  44.2550528  50.7679841
  54.1894342  45.2075835  50.2106438  54.4156423  43.7623063  51.9550795
  54.8901383  42.9404924  52.3008752  53.3784909  44.3437034  52.7666233
  53.0362716  45.2743128  52.3139079  52.1897943  43.3736142  52.8533958
  52.5379478  42.3982821  53.1934188  51.2185614  43.8916103  53.7902275
  50.8695768  44.8667881  53.4506116  50.3735597  43.2060983  53.8546153
  51.6790988  43.9931237  54.7729289  51.5020068  43.2181322  51.4842633
  52.2174979  42.8292686  50.7597223  50.6644743  42.5263700  51.5742859
  51.1365623  44.1885582  51.1483696  53.9610183  44.6077366  54.1714483
  55.0505716  44.1572574  54.4919215  53.2115349  45.3163264  54.9937232
  52.4368199  45.8295499  54.5981002  53.4905871  45.4699659  56.4455485
  54.3790631  46.0786661  56.6134583  52.2907337  46.1731363  57.0770081
  51.3889677  45.6982463  56.6904892  52.3480547  46.0199286  58.1546638
  52.2454782  47.6756591  56.7765448  52.8868394  47.8939691  55.9226729
  51.2137822  47.9250303  56.5285193  52.6919544  48.5003118  57.9672159
  51.9922757  49.4946929  58.3098788  53.7341519  48.1289758  58.5721251
  53.8135558  44.1757785  57.2226677  53.1149222  43.1599136  57.0660292
  50.6568217  42.0625789  59.8954264  50.9541465  41.2993288  60.4863127
  49.2324148  42.4211162  59.8849819  48.8371314  42.3303041  60.8967147
  48.9976210  43.8677788  59.3906092  49.4753472  43.9923503  58.4188279
  47.9306835  44.0711900  59.2991306  49.5692840  44.9447158  60.2972541
  49.8339756  44.6919610  61.6537935  49.6252618  43.7047625  62.0660770
  50.3676959  45.7076583  62.4839464  50.5764468  45.4972221  63.5328698
  50.6292155  46.9896127  61.9560437  51.0393762  47.7710123  62.5957959
  50.3603881  47.2580535  60.6046853  50.5588401  48.2434801  60.1831981
  49.8253769  46.2317708  59.7862492  49.6033967  46.4308291  58.7378215
  48.4421236  41.4515408  59.0062685  48.9542415  40.9919717  57.9767344
  47.2059542  41.1370728  59.4102651  46.8905689  41.3704419  60.3409478
  46.3017695  40.3774384  58.5394308  46.8491698  39.5876204  58.0249994
  45.1480285  39.7386731  59.3353941  45.5539421  39.0415891  60.0684747
  44.5849623  40.5180603  59.8488258  44.2335804  38.9977998  58.3893540
  43.8268909  39.6943653  57.6562094  44.7958691  38.2178931  57.8758600
  43.0898418  38.3645754  59.1784146  42.0482755  39.0554920  59.3377102
  43.2686313  37.1959873  59.6143462  45.7934621  41.3418297  57.4488007
  45.5113913  42.5121981  57.7211349  45.6989101  40.8692577  56.2121469
  46.0125101  39.9427174  55.9605970  45.3264160  41.7862318  55.1432276
  45.8069359  42.7500330  55.3114153  45.7641362  41.2500466  53.7576149
  45.4251175  40.2159730  53.6955079  45.2458556  41.8474496  53.0075516
  47.3351875  41.3107699  53.4922463  47.7832203  40.6948436  54.2719912
  47.4825086  40.8335022  52.5234253  48.1485493  42.9618158  53.4832932
  48.9758733  43.0787068  55.1084379  49.7008567  42.2707086  55.2066055
  49.4882303  44.0375069  55.1877680  48.2327236  42.9977282  55.9017048
  43.8381542  42.1574465  55.2750392  42.9530046  41.2881672  55.3313385
  43.5901799  43.4599352  55.4081338  44.3685137  44.1013751  55.3547438
  42.2557486  44.0082563  55.6212257  41.4561806  43.2847340  55.4621479
  42.1523771  44.5471123  57.0585477  42.2620155  43.7238968  57.7645186
  42.9410729  45.2796628  57.2300956  40.7927290  45.2086781  57.2568204
  40.6825402  46.0323422  56.5514576  40.0034822  44.4765769  57.0858835
  40.6902637  45.7428119  58.6815404  40.7999039  44.9195976  59.3875122
  41.4789586  46.4753634  58.8530865  39.3808446  46.3932454  58.9112340
  38.7168910  46.4217821  58.1506745  39.0385105  46.9418958  60.0734261
  39.8584314  46.9437491  61.1206256  40.7715078  46.5188789  61.0439661
  39.5642333  47.3700162  61.9877148  37.8352547  47.5002479  60.1699625
  37.2150380  47.4971298  59.3728292  37.5472503  47.9248133  61.0399604
  42.0536592  45.1559486  54.6008898  43.0293963  45.7272442  54.1259241
  40.8024682  45.4769142  54.2725119  40.0558699  44.8211148  54.4531153
  40.4958172  46.6871590  53.4828881  40.8947266  46.6138533  52.4711585
  38.9512086  46.9730929  53.3948015  38.5520898  46.9617270  54.4090373
  38.6324598  48.3172726  52.7366276  39.0308906  48.3292190  51.7221272
  37.5522483  48.4592980  52.7038802  39.0868716  49.1221381  53.3143845
  38.2393579  45.8486085  52.6429554  38.3947708  44.9054216  53.1667373
  37.1720147  46.0637454  52.5920223  38.6429527  45.7736523  51.6332061
  41.3061404  47.8845594  53.9696391  41.3319040  48.2204897  55.1908263
  41.9872367  48.5167531  53.0110297  41.9816937  48.1107029  52.0862638
  42.7365347  49.7554519  53.2200050  42.6084376  50.4131110  52.3602522
  42.3756674  50.2574206  54.1177252  44.2139499  49.4434971  53.3880476
  45.0240170  50.3626770  53.3301526  44.5982644  48.1740954  53.6104494
  43.9303597  47.4268006  53.7351617  46.0443162  47.8358620  53.6259182
  46.5441327  48.4532222  54.3723424  46.2868108  46.3859999  53.9593299
  45.6606497  45.7342153  53.3500694  47.3342764  46.1211143  53.8152762
  45.8949385  45.9807867  55.7061362  46.2152561  44.6924746  55.6252235
  46.6351686  48.0608168  52.2326014  45.9076642  47.9855561  51.2238883
  47.9358588  48.2963018  52.1835016  48.4871983  48.4022869  53.0230796
  48.5958167  48.5287398  50.8740325  47.9163313  48.3150882  50.0489556
  49.1153676  50.0022267  50.7270866  49.6783728  50.0742045  49.7965252
  47.9479157  51.0323001  50.7079576  47.3846951  50.9612313  51.6384582
  48.3526619  52.0390996  50.6048341  47.2879535  50.8186945  49.8671705
  50.0219838  50.2853722  51.8037178  50.3450320  51.1856500  51.7216204
  49.7292594  47.5252773  50.6132861  50.3105370  46.9200561  51.5691677
  50.0657999  47.3108171  49.3311175  49.5343003  47.7099766  48.5706709
  51.2163791  46.4602122  49.0045843  51.7504694  46.1967787  49.9175189
  50.7579926  45.1768148  48.3206759  51.6464629  44.5599502  48.1857762
  50.0741293  44.6821097  49.0103845  50.0637792  45.3756383  46.9675218
  49.2402072  46.0803570  47.0824196  50.7802840  45.7693521  46.2466110
  49.5089101  44.0039678  46.4555086  50.3337835  43.3507717  46.1708727
  48.9197406  43.5246904  47.2373474  48.6507091  44.2162311  45.2830018
  48.7523700  45.0903814  44.7873955  47.7389514  43.3380749  44.8485208
  47.5618464  42.1686771  45.4851947  48.1204477  41.9499062  46.2977240
  46.8708822  41.5134625  45.1485022  46.9983916  43.6195376  43.7426171
  47.1394017  44.4913937  43.2526344  46.3108922  42.9553855  43.4165107
  52.1693125  47.2184904  48.0869907  51.6978091  48.0781500  47.3100049
  53.4722671  46.9611471  48.2005716  53.8265611  46.3737865  48.9419101
  54.4235708  47.5837190  47.3040057  53.9088507  48.3447429  46.7174862
  55.5887898  48.2475656  48.0557780  56.0109522  47.4429371  48.6578172
  56.3407347  48.6085645  47.3540953  55.1546141  49.3905897  48.9679014
  54.2635828  50.1966174  48.6408501  55.7938266  49.5230461  50.0269254
  54.9415665  46.5664502  46.3197102  55.6993035  45.6860045  46.6652980
  54.5861907  46.7556308  45.0492852  54.0698536  47.5810490  44.7806216
  54.9485183  45.7880337  44.0020758  55.2336367  44.8069896  44.3820222
  53.7473574  45.6133370  43.0224668  53.3678030  46.6046886  42.7749596
  54.1477520  44.8750416  41.7221495  54.5269969  43.8833654  41.9688326
  53.2759911  44.7794287  41.0748539  54.9226085  45.4417230  41.2058442
  52.5371419  44.8882891  43.7010549  52.1961997  45.4720209  44.5561091
  51.7236182  44.7881078  42.9825547  52.8477827  43.8991959  44.0376523
  56.1503924  46.3599603  43.2523381  56.1955953  47.5950130  42.9896378
  57.1203702  45.5037126  42.9442521  57.1077919  44.5746596  43.3402340
  58.2279098  45.8658162  42.0607858  58.1457859  46.9028367  41.7352964
  59.6209231  45.6320613  42.6890132  59.6661049  44.6163271  43.0818784
  60.7540544  45.8291258  41.6118921  60.7097992  46.8448427  41.2188763
  61.7273678  45.6604752  42.0726727  60.6099335  45.1185708  40.7979880
  59.8353177  46.5455068  43.9229849  59.9976148  47.5536206  43.5415834
  58.9087052  46.5193394  44.4963994  61.0345344  46.1376277  44.8487921
  61.9616211  46.1640144  44.2761546  61.1035894  46.8353644  45.6833543
  60.8727124  45.1297316  45.2309689  58.0513708  44.9905638  40.8033569
  57.8819228  43.7830435  40.9003161  58.0252344  45.6152202  39.6290114
  58.0582925  46.6175470  39.5092300  57.7579650  44.7832248  38.4523034
  57.2947560  43.8396665  38.7408071  56.8680101  45.4656849  37.3927373
  56.7630287  44.8185223  36.5219568  55.4445213  45.7296959  38.0272345
  55.5486462  46.3772082  38.8978589  54.8018024  46.2122855  37.2909464
  55.0001246  44.7819048  38.3310526  57.5006163  46.7089937  36.8995653
  58.4649318  46.4728710  36.4496278  56.8562186  47.1739121  36.1534405
  57.6473959  47.3974274  37.7318006  59.0444110  44.2318940  37.8247765
  60.1399431  44.6969572  38.1202606  58.8760528  43.2619703  36.9481224
  57.9549627  42.8871773  36.7714230  59.9988124  42.6955186  36.2262552
  60.8249302  42.4764646  36.9027490  59.6089955  41.3936621  35.4373778
  60.4785227  41.0236934  34.8941044  59.1231826  40.3094417  36.4350036
  58.2533332  40.6785322  36.9783587  58.8527922  39.4064038  35.8877265
  59.9216051  40.0805361  37.1408527  58.5370671  41.6681381  34.3492522
  57.6408169  42.0519202  34.8366408  58.9267356  42.4196733  33.6626280
  58.1656662  40.3107290  33.5172499  57.7754701  39.5588394  34.2031864
  57.4121649  40.5404435  32.7638800  59.0613900  39.9265911  33.0291752
  60.5413592  43.7051268  35.2355791  59.8473934  44.6796727  34.9003541
  61.7537318  43.4617818  34.7648862  62.2918147  42.6712058  35.0897796
  62.3696617  44.3688407  33.7697880  62.3499860  45.3946944  34.1376688
  63.8259571  43.9657745  33.5218659  64.2666703  44.6716215  32.8178409
  64.3651721  44.0125163  34.4679961  63.9145835  42.6440935  32.9886702
  64.8364117  42.4187166  32.8436258  61.6532496  44.3952577  32.4263920
  60.9531206  43.4370039  32.0561189  61.8841220  45.4752777  31.6712796
  62.3720242  46.2817505  32.0341190  61.4266685  45.5085959  30.2834449
  62.1825434  46.0362762  29.7018043  61.3563927  44.4776124  29.9366976
  60.0894509  46.1873041  30.0839299  59.6399108  46.3597587  28.9291004
  59.4432283  46.5855491  31.1866712  59.8579534  46.4559233  32.0984275
  58.1173024  47.1982018  31.1087217  57.6446875  46.9644458  30.1547340
  57.2324151  46.6390789  32.2493308  57.8149353  46.7587803  33.1628082
  56.3813628  47.3198037  32.2699157  56.7287698  45.1949128  32.1505506
  57.5624805  44.5284288  31.9295839  56.0843547  44.7876448  33.5132255
  55.2502176  45.4534375  33.7346621  55.7229532  43.7611004  33.4524269
  56.8293978  44.8636855  34.3052033  55.6953330  45.0522544  31.1136426
  56.1081240  45.3394779  30.1465823  55.3620584  44.0152766  31.0723351
  54.8489020  45.6961422  31.3525193  58.2045275  48.7257452  31.2291002
  59.2351363  49.2449972  31.7061043  57.1255993  49.4386355  30.8495209
  55.9667192  48.9413384  30.0820612  55.4828795  48.1329730  30.6302809
  56.2997050  48.5731492  29.1116715  55.0509035  50.2241605  29.9581497
  54.3426234  50.2719172  30.7852879  54.5062218  50.2171616  29.0140236
  56.0284932  51.3663044  30.0055266  55.4877747  52.2372553  30.3758872
  56.5143213  51.6150676  29.0620290  57.0682330  50.9316131  31.0253297
  58.0542808  51.3549027  30.8339295  56.6336727  51.2740948  32.4616074
  55.7575910  52.1284693  32.6935946  57.3224169  50.6324594  33.4137557
  58.0785603  50.0149259  33.1549142  56.9877414  50.7632342  34.8338093
  56.9216790  51.8126115  35.1211108  55.6703417  50.0941745  35.1442305
  55.7239536  49.0404920  34.8704075  55.4600167  50.1817911  36.2101512
  54.8746157  50.5765298  34.5765575  58.1042045  50.1510428  35.6387142
  58.8218781  49.2777344  35.1559814  58.2540153  50.6483245  36.8672510
  57.7725298  51.4994682  37.1198880  59.1651633  50.0581712  37.8352786
  59.6311212  49.1764459  37.3953435  60.2867020  51.0548191  38.2602936
  59.7826332  51.9226166  38.6856658  60.9292863  50.6021833  39.0154799
  61.1600598  51.5207085  37.0891462  61.5854271  50.7039420  36.2570998
  61.4645789  52.7885535  37.0484252  62.0376825  53.1432126  36.2961825
  61.1258123  53.4095466  37.7693312  58.4634480  49.5274839  39.0692120
  58.8435018  48.4847238  39.5707561  57.4763783  50.2682534  39.5627208
  57.1023845  51.0376732  39.0258586  56.8613211  49.9621520  40.8683657
  57.0497511  48.9176212  41.1164558  57.4395566  50.8482399  41.9924996
  56.9167805  50.6063365  42.9178579  58.9526833  50.6294528  42.1854918
  59.4762115  50.8716153  41.2606269  59.3142774  51.2741360  42.9865739
  59.1393712  49.5876297  42.4459772  57.2240600  52.2288825  41.6614883
  57.5820113  52.7844989  42.3577365  55.3887160  50.2678483  40.7902769
  54.9478680  51.0894631  39.9599354  54.6216972  49.7001412  41.7020055
  55.0022483  48.9781017  42.2969333  53.2366678  50.0468028  41.8531356
  53.0836213  51.0785789  41.5367277  52.3317860  49.1249001  40.9930046
  52.5736396  49.2748990  39.9408134  52.5246934  48.0872301  41.2652685
  50.9221366  49.4323872  41.2166415  50.3788114  48.8532298  40.6772211
  52.8442676  49.9447416  43.3342813  53.2686036  49.0036372  44.0212228
  52.0750472  50.9235780  43.8196198  51.8065502  51.7017488  43.2344200
  51.5353487  50.8612413  45.1922336  52.0216985  50.0454466  45.7270626
  51.7784143  52.1802095  45.9725508  51.2082432  52.9847149  45.5080335
  51.3213873  52.0084013  47.4586697  51.8914829  51.2043226  47.9240169
  51.4941812  52.9372912  48.0021814  50.2595827  51.7636998  47.4868270
  53.1741978  52.4736623  45.9251895  53.3463543  53.2880917  46.4033812
  50.0635342  50.6996206  45.0779764  49.3969721  51.4978810  44.4010418
  49.5358391  49.6755245  45.7433733  50.1073144  49.1520737  46.3910728
  48.1573305  49.2684639  45.5594149  47.6084603  50.0151096  44.9855152
  48.1355243  47.9520596  44.7923907  48.6567347  47.1793280  45.3574791
  47.1070418  47.6388501  44.6128812  48.8568082  48.1733051  43.4277596
  48.2388434  48.8849908  42.8802892  49.8152569  48.6339583  43.6670793
  49.0897527  46.9301385  42.5643857  48.8572883  45.7655608  43.0036968
  49.5260307  47.1847110  41.4115798  47.4305481  49.0853694  46.9012367
  48.0174717  48.5844432  47.8774572  46.1805000  49.5043689  46.9119665
  45.8016685  49.8901939  46.0588984  45.3035206  49.4543198  48.1147962
  45.8932036  49.2380501  49.0056388  44.6170428  50.8129081  48.2995100
  45.4115476  51.5217252  48.5328331  44.1803172  51.0627855  47.3325912
  43.5216665  50.8853558  49.3954645  42.8188499  50.0688754  49.2296047
  44.0015409  50.7594827  50.3660203  42.7530153  52.2491432  49.3666333
  43.4600724  53.0777549  49.3269881  42.0956738  52.2912378  48.4981693
  41.9317023  52.3849057  50.5898416  42.3631648  52.8955233  51.3469473
  40.6967436  51.9152746  50.7622093  40.0729205  51.2216547  49.8135970
  40.5385472  51.0405548  48.9358188  39.1365934  50.8793917  49.9756072
  40.0646799  52.1316542  51.9362282  40.5311553  52.6451956  52.6702418
  39.1284661  51.7789216  52.0747279  44.2449333  48.3623822  47.9632862
  43.5463840  48.2685332  46.9523206  44.1488698  47.4934134  48.9613944
  44.8493964  47.4655121  49.6884317  43.0751593  46.5116244  48.9997385
  42.9728862  46.0038781  48.0406592  43.4337841  45.4561029  50.0854289
  44.3564604  44.9736530  49.7629235  43.6104697  45.9892707  51.0195671
  42.3462565  44.3894611  50.3018911  41.4247317  44.8954637  50.5897353
  42.0995568  43.5601941  49.0416640  43.0205794  43.0534904  48.7534497
  41.3246015  42.8196096  49.2393501  41.7773291  44.2153283  48.2323007
  42.8647974  43.4827426  51.4636768  43.0099774  44.0865925  52.3594376
  42.1342416  42.7000802  51.6681983  43.8124696  43.0280464  51.1751151
  41.6932212  47.1637027  49.2726596  41.5282665  47.8015866  50.3060076
  40.7562771  47.0981444  48.3231230  40.9331604  46.5106903  47.5208081
  39.4702375  47.8241497  48.3902985  39.5873136  48.7150886  49.0072427
  39.0011888  48.2559229  46.9841043  39.0969593  47.3595472  46.3713745
  37.9600326  48.5783722  46.9950714  39.8679278  49.3619480  46.4026827
  40.4358696  50.1731534  47.2004476  39.9370387  49.4933196  45.1427560
  38.3579726  46.9632042  48.9775546  37.4569088  47.4539865  49.6997781
  38.4297949  45.6714216  48.7048254  39.1459010  45.2996026  48.0973371
  37.3913408  44.7177503  49.2582601  37.1299594  44.9644234  50.2873040
  36.0918678  44.7020354  48.3781675  35.6159055  45.6791576  48.4605844
  36.3870662  44.4061046  46.9234435  36.8626503  43.4288704  46.8401744
  35.4564195  44.4062270  46.3559953  37.0550179  45.1697986  46.5250579
  35.0648489  43.7142357  48.9074054  35.4862740  42.7182211  48.7715502
  34.9510748  43.9179173  49.9721442  33.7622402  43.7827699  48.2582463
  33.8751517  43.5787247  47.1934851  33.0957422  43.0425092  48.7008450
  33.3399534  44.7784223  48.3940774  37.9883685  43.3471594  49.3443979
  38.7554940  42.9798208  48.4437811  37.6865402  42.5987717  50.4449076
  37.1828487  43.0018100  51.2220526  38.1209462  41.2158854  50.5482796
  38.2876660  40.8201873  49.5464179  39.4426105  41.0761406  51.3658993
  40.1200452  41.8156546  50.9389327  39.2013223  41.3546732  52.3917159
  40.1180143  39.6980349  51.3557318  39.3985441  38.9629862  51.7165181
  40.5992070  39.2966557  49.9336846  41.3191025  40.0310380  49.5723927
  41.0710702  38.3148659  49.9728594  39.7454470  39.2621271  49.2569261
  41.3418340  39.6937944  52.3088064  41.0140652  39.9225200  53.3228831
  41.8122115  38.7106444  52.2926107  42.0604253  40.4452354  51.9816029
  36.9730184  40.4490320  51.2062877  36.9626072  40.2408228  52.4502035
  35.9851844  40.0766128  50.4030406  36.0839390  40.1797810  49.4031891
  34.7444137  39.5268030  50.9190865  34.6089475  39.8461171  51.9524240
  33.5428852  40.0014224  50.0991537  33.6513717  41.0851806  50.0567513
  33.5875597  39.5925525  49.0897333  32.1959158  39.6485225  50.7327507
  32.0845348  38.5473091  51.3266315  31.2176500  40.4483894  50.5751313
  34.8622716  38.0136582  50.8477958  34.5708285  37.4215945  49.8163165
  35.2462642  37.3939126  51.9615368  35.5858860  37.9071153  52.7623984
  35.3448508  35.9284069  51.9805796  35.8720731  35.5934147  51.0873181
  36.1123486  35.4201918  53.2289708  35.7098799  35.9480736  54.0935279
  35.9287286  34.3513835  53.3386635  37.5923759  35.6670763  53.1358452
  38.1920924  35.4436078  52.0595679  38.1943941  36.0774557  54.1473257
  34.0241995  35.1780680  51.8180356  34.0351922  33.9650440  51.4590343
  32.8905954  35.8346152  52.0392241  32.8707261  36.8051886  52.3179566
  31.6338139  35.1294013  51.9213273  31.7739124  34.0876137  52.2096849
  30.5668489  35.7465049  52.8238942  30.9390024  35.6533329  53.8441490
  30.5105543  36.8008289  52.5530953  29.1749602  35.1218530  52.7306108
  28.5101879  35.6659836  53.4015060  28.8453408  35.2617148  51.7011018
  29.1417549  33.6098053  53.0835544  30.0396749  33.1173768  53.8364521
  28.2021134  32.9600449  52.6162736  31.1444521  35.1315657  50.4985025
  30.6832128  34.0980471  49.9764502  31.2640938  36.2629237  49.8419555
  31.6407487  37.0890410  50.2844037  30.7680134  36.3757083  48.4614038
  30.0050099  35.6215048  48.2687849  30.1583241  37.7393045  48.2622317
  30.9558586  38.4743154  48.3708457  29.7653773  37.7777671  47.2462526
  29.0160882  38.0594231  49.2731141  28.3584309  37.1925690  49.3375479
  29.4617827  38.2500639  50.2493899  28.2159877  39.2678082  48.8398499
  27.5889631  39.5852112  49.6730331  28.9093896  40.0683350  48.5820709
  27.3529807  38.9972138  47.6754935  26.9044588  38.0937289  47.6240882
  27.1218350  39.8819505  46.6971466  27.7283221  41.0611482  46.7240569
  28.3592902  41.2839206  47.4805962  27.5564101  41.7309250  45.9878878
  26.2969412  39.6023035  45.6716839  25.8352401  38.7050144  45.6292050
  26.1431588  40.2909358  44.9490255  31.8680371  36.1013923  47.3947340
  31.5365274  35.9291813  46.2160832  33.1180595  36.0180572  47.8394363
  33.2579787  36.1976683  48.8234392  34.3056301  35.7447575  47.0005415
  35.1919443  35.7413284  47.6349977  34.2125139  34.3828451  46.2744183
  33.2765721  34.3548820  45.7164485  35.0504107  34.3055176  45.5815624
  34.2542369  33.2247314  47.2469314  35.2030447  33.2382307  47.7832917
  33.4339703  33.3213852  47.9582140  34.1187727  31.9206379  46.4968577
  33.1730748  31.9112954  45.9549470  34.9428384  31.8221998  45.7902283
  34.1464472  30.7764593  47.4130729  34.8200665  30.7799532  48.1656181
  33.3522766  29.7146780  47.2751794  32.4263741  29.6671585  46.3062860
  32.3257369  30.4447209  45.6696001  31.8338740  28.8540241  46.2176534
  33.4530161  28.7132139  48.1322501  34.1282217  28.7601172  48.8819150
  32.8543119  27.9058195  48.0334259  34.4386465  36.8816092  46.0199622
  34.3823543  36.6861642  44.7777539  34.6019463  38.0710928  46.6001691
  34.6386968  38.1333952  47.6075753  34.7984943  39.3104328  45.8120421
  34.9566381  39.1284110  44.7490473  33.6217141  40.2726731  45.9730759
  33.4977480  40.5184479  47.0277448  33.8941936  41.5816897  45.1616127
  34.0178176  41.3367559  44.1067073  33.0528035  42.2645526  45.2793470
  34.8021266  42.0573264  45.5324617  32.3041545  39.5978565  45.5839688
  32.1365637  38.7311263  46.2233389  31.4832000  40.3041347  45.7076801
  32.3530816  39.2770586  44.5433941  36.0298312  39.9915246  46.3866223
  36.1659974  40.1789454  47.6234675  36.9577201  40.3876890  45.4951886
  36.9362711  40.0411654  44.5467369  38.0846899  41.1794326  45.9060351
  37.7987083  41.7202752  46.8081454  39.3948954  40.3437133  46.2109628
  39.1283915  39.4998293  46.8473085  40.0437811  39.8215883  44.9079177
  40.3109981  40.6649795  44.2712183  40.9407630  39.2519981  45.1510015
  39.3375838  39.1792569  44.3818034  40.3607540  41.1480475  46.8868427
  41.1462376  40.6248642  47.0626126  38.3278583  42.3005077  44.8804929
  37.6703377  42.3524176  43.8431458  39.1951062  43.2322867  45.2201663
  39.7318332  43.1830192  46.0743303  39.4003381  44.3998477  44.3262406
  39.7252185  44.0716392  43.3389052  38.4790988  44.9748531  44.2325063
  40.4653195  45.2761903  44.9255797  40.6983770  45.2518349  46.1557943
  41.1732817  46.0232996  44.0836520  41.0177179  45.9501054  43.0883923
  42.2026836  46.9338901  44.5547640  41.9598348  47.2702937  45.5627106
  43.5937293  46.2324035  44.5855760  44.3289014  46.8403095  45.1129009
  43.4875345  45.2722739  45.0905254  44.1724582  45.9413443  43.2210280
  45.1081988  46.8201018  42.6549114  45.3999620  47.7063377  43.2184361
  45.6700736  46.5757868  41.3818616  46.3994188  47.2559719  40.9419703
  45.2655533  45.4157205  40.6740604  45.6700158  45.2217029  39.6806485
  44.3349102  44.5053306  41.2550903  44.0289161  43.6023100  40.7268653
  43.8073050  44.7881469  42.5364012  43.1037335  44.0971606  43.0007556
  42.2841346  48.1586429  43.6731817  41.7561432  48.1614105  42.5301736
  42.9514055  49.1815900  44.2197333  43.3295361  49.1082287  45.1534006
  43.1685998  50.4231548  43.4797599  42.7437361  50.3564672  42.4781898
  42.4716013  51.5668262  44.2337830  42.6534719  51.4451685  45.3015947
  42.8926066  52.5151337  43.8997660  41.0639882  51.5574307  43.9864896
  40.6499966  52.2785540  44.4662729  44.6602582  50.6863325  43.4127924
  45.3714002  50.5159109  44.4126467  45.1420740  51.1876892  42.2640936
  44.5541976  51.3032456  41.4509839  46.5224699  51.5383826  42.1569933
  47.0514065  50.8615596  42.8279895  47.0233938  51.3171223  40.6933065
  46.4096213  51.9042134  40.0101464  48.4549575  51.7468189  40.5733475
  49.0694597  51.1598103  41.2559225  48.7974940  51.5897919  39.5505514
  48.5400397  52.8036552  40.8262448  47.0003581  49.8078753  40.3902426
  47.7119206  49.3074344  41.0470064  45.9977384  49.4266019  40.5838500
  47.4072384  49.5147370  38.8089234  48.4099869  49.8953437  38.6146712
  47.3836436  48.4414764  38.6201004  46.6958055  50.0145135  38.1515145
  46.6380123  52.9919845  42.5807722  46.0669231  53.8767270  41.8957892
  47.2945790  53.2310870  43.7028948  47.7307850  52.4743711  44.2100483
  47.3129138  54.5867110  44.3080710  46.5671940  55.2192745  43.8265476
  47.0348561  54.5258501  45.8153951  46.9953353  55.5345720  46.2265138
  45.6637811  53.8188007  46.0414556  45.7026842  52.8097915  45.6309832
  45.4522854  53.7680813  47.1095370  44.8764765  54.3835187  45.5421118
  48.1192046  53.7909331  46.5840637  48.0913876  52.7429208  46.2857396
  49.0804919  54.2222599  46.3048086  47.9234813  53.9010375  48.1944066
  46.9625468  53.4694631  48.4744929  48.7248488  53.3587662  48.6962542
  47.9516489  54.9488031  48.4935616  48.5867402  55.3757505  44.0531948
  48.6528460  56.5532977  44.3983680  49.6060024  54.6980593  43.5293251
  49.5166095  53.7031540  43.3800878  50.8412390  55.3330400  43.1640417
  50.6239638  56.1322880  42.4554563  51.2920918  55.7565004  44.0615452
  51.8214397  54.3631540  42.5293508  51.4700604  53.2321242  42.1474069
  53.0470060  54.8419459  42.3835134  53.2525236  55.7920728  42.6575950
  54.1378800  54.0245072  41.8268818  54.9380642  53.9492514  42.5631841
  53.7572719  53.0282740  41.6015901  54.6909391  54.6381977  40.5599818
  54.1258464  55.5999059  40.0281533  55.7875641  54.0554327  40.0669832
  56.2208587  53.2832407  40.5528583  56.4268675  54.5532532  38.8342894
  56.2051798  55.6122108  38.7017658  57.9330641  54.3796343  38.9183927
  58.1361958  53.3220182  39.0865737  58.3558916  54.6824399  37.9604649
  58.5770988  55.2171576  40.0558284  58.4417836  56.2716050  39.8151391
  58.0113871  54.9748681  40.9554757  60.0609123  54.9358113  40.2959278
  60.7632980  54.3508036  39.4448378  60.5501969  55.3437297  41.3729070
  55.8626422  53.8186715  37.6326470  56.3533707  52.7591103  37.2906084
  54.8073109  54.3727993  37.0374670  54.4699814  55.2521338  37.4022671
  54.1245388  53.7944062  35.8807446  54.8677958  53.5486442  35.1222795
  53.3378407  52.5125071  36.2347640  52.8026783  52.0775083  35.3906807
  54.0601689  51.7912418  36.6170182  52.3399103  52.7207267  37.3066504
  51.0913624  53.2738135  37.0807363  50.4586410  53.3796906  38.2467687
  49.4375937  53.7588917  38.2888148  51.2712698  52.9654808  39.2058587
  51.0737130  52.9747972  40.1963052  52.4363939  52.5164861  38.6408643
  53.2192417  52.0927834  39.2699323  53.1419447  54.8514462  35.3853778
  52.9597169  55.9059628  36.0277427  52.4771919  54.5769168  34.2719114
  52.6560921  53.7240877  33.7612486  51.6110082  55.5854861  33.6574135
  51.8450947  56.5714063  34.0589905  51.8287286  55.6122299  32.1048519
  51.4458246  54.6809082  31.6875706  51.2684038  56.4516778  31.6931925
  53.2576314  55.7565015  31.7573704  53.6718623  56.6056379  32.3009520
  53.7871011  54.8482436  32.0451750  53.4217934  55.9890299  30.2336738
  54.4869144  56.1062797  30.0340025  53.0533762  55.0978046  29.7256524
  52.7143728  57.1562073  29.7051975  52.9263554  58.0377299  30.1502600
  51.8309184  57.1428339  28.7173779  51.4531240  56.0038192  28.1385673
  51.8436129  55.1271780  28.4533986  50.7779754  56.0222322  27.3876113
  51.3042239  58.3052596  28.2738223  51.5862240  59.1779044  28.6969855
  50.6308710  58.2963370  27.5210840  50.1116225  55.5737833  33.9800011
  49.3636977  56.4591098  33.5164901  49.6383914  54.6142546  34.7811690
  50.2796218  53.9415873  35.1766960  48.2068753  54.4497897  35.0481557
  47.6502302  54.7743281  34.1689969  47.8190806  52.9940749  35.3663278
  48.3741788  52.8187315  36.2878592  46.7502990  52.9187087  35.5666423
  48.2219025  51.9350942  34.3125406  49.2825757  52.0454916  34.0869623
  47.9510612  50.4895379  34.8542831  46.8904424  50.3782249  35.0796630
  48.2403573  49.7580590  34.0997322  48.5337572  50.3255771  35.7607502
  47.5483191  52.1844173  32.9725468  47.8370944  53.1661746  32.5972325
  47.8581927  51.4186161  32.2614714  46.4660639  52.1474660  33.0968738
  47.7046794  55.3300494  36.1639802  48.2753208  55.3705861  37.2466002
  46.6235251  56.0252811  35.9059542  46.2371669  56.0839623  34.9746202
  46.0317212  56.8473318  36.9518064  46.5380728  56.6153982  37.8887771
  46.1537721  58.4383914  36.6778160  45.7035264  58.9677045  37.5175819
  47.5976233  58.8698382  36.5251164  48.0484359  58.3412538  35.6851960
  47.6391345  59.9436252  36.3424760  48.1458280  58.6355602  37.4376327
  45.4675948  58.7435781  35.4927372  45.5325382  59.6854664  35.3188717
  44.5974769  56.4383445  37.1962682  43.8182585  56.1453600  36.2598047
  44.2566810  56.3852148  38.4756994  44.9739189  56.5270649  39.1725119
  42.9244358  55.9786918  38.9242079  42.9280081  55.7878624  39.9973671
  41.9070019  57.1186587  38.6249592  41.9788300  57.3341868  37.5588975
  40.8816632  56.8425472  38.8710142  42.2716679  58.3762121  39.4010824
  42.6706283  59.4230313  38.8125297  42.2167113  58.2803789  40.7121723
  42.4471414  59.0803675  41.2840289  41.9443487  57.4072706  41.1406597
  42.4612576  54.6375232  38.3913046  41.2581746  54.4300520  38.1391701
  43.4211499  53.7181537  38.2840268  44.3884716  53.9697501  38.4292416
  43.1034558  52.3131669  37.9805611  42.4305507  52.2508941  37.1253301
  44.4135720  51.5576787  37.6364288  44.9223122  52.1041048  36.8422618
  45.0410186  51.5450378  38.5276364  44.1522505  50.1375923  37.1837681
  44.0384163  49.8223376  35.8092249  44.1534125  50.6175693  35.0726912
  43.7768788  48.4855080  35.3814892  43.7112340  48.2439986  34.3206095
  43.6538910  47.4703642  36.3403292  43.3922285  46.1427011  35.9387844
  43.3170948  46.0467109  34.9865552  43.7413016  47.7764625  37.7180274
  43.5937239  46.9880411  38.4560741  44.0163408  49.0867699  38.1368593
  44.1277749  49.3075438  39.1984342  42.4612669  51.6208066  39.2019864
  42.9780805  51.6882832  40.3208531  41.3408722  50.9452663  38.9577879
  40.9310134  50.9582665  38.0347786  40.6565947  50.1791636  40.0158620
  41.3692857  49.9044613  40.7934927  39.5261670  51.0308057  40.6568182
  39.9843403  51.9529510  41.0143439  38.8131944  51.2629248  39.8656857
  38.8112203  50.3540960  41.7922764  38.4505877  49.3881133  41.4388329
  39.5263126  50.2007970  42.6005118  37.5984196  51.2048526  42.3201710
  37.9155220  52.2396365  42.4496599  36.7870915  51.1622354  41.5935144
  37.0935881  50.6282186  43.7112118  37.9920095  50.4738656  44.3088025
  36.4928690  51.4208394  44.1572926  36.2830599  49.3386353  43.6709127
  36.8396714  48.6039386  43.2579914  36.0219628  49.0756203  44.6104612
  35.4503030  49.4815715  43.1175733  40.0939847  48.9390886  39.3771930
  39.4519892  49.0274819  38.3253568  40.2985244  47.7739030  40.0046689
  40.9061585  47.6936868  40.8074425  39.7216078  46.5514859  39.4470339
  38.9843973  46.8303950  38.6941529  40.7831882  45.6170096  38.7839969
  40.2707290  44.7864728  38.2985143  41.3398563  46.1852793  38.0388190
  41.6746398  45.1159070  39.7548600  42.3198098  44.5443258  39.3321894
  38.9192605  45.7989989  40.5047428  39.1570921  45.9574332  41.7298439
  37.9931485  44.9730864  40.0268619  37.7998450  44.9286461  39.0365296
  37.2281299  44.1154603  40.9177346  37.6681472  44.0455615  41.9125201
  35.7813054  44.6627639  41.0524892  35.4333661  44.9054036  40.0484157
  34.7864392  43.6645151  41.7198974  35.1334913  43.4217464  42.7242475
  33.7978977  44.1200680  41.7778440  34.7315363  42.7529674  41.1247772
  35.7934487  45.9549230  41.8381089  36.4096814  46.6898546  41.3201950
  34.7758375  46.3346280  41.9297129  36.2035957  45.7729505  42.8314700
  37.2404347  42.7172663  40.2763642  37.0228535  42.5720171  39.0829028
  37.4656428  41.6988231  41.1110681  37.5267049  41.8875902  42.1013902
  37.5551937  40.3213033  40.6669859  37.3984195  40.2444546  39.5910606
  38.9416419  39.7713445  40.9989128  39.1293593  39.9007858  42.0647962
  39.0296298  38.2176929  40.6270810  38.8424678  38.0874981  39.5611920
  40.0233969  37.8412412  40.8695890  38.2830513  37.6643742  41.1967822
  39.8950159  40.5149749  40.2580343  40.7764360  40.1868501  40.4504741
  36.5061024  39.4875653  41.4857541  36.5073626  39.5369939  42.7402784
  35.6455658  38.7575247  40.7994951  35.6578218  38.8084834  39.7908562
  34.6107623  37.9571969  41.4374191  34.7785755  37.9690941  42.5143575
  33.2088950  38.4761458  41.1583091  32.4896660  37.8308786  41.6627298
  33.0458629  39.9142565  41.6623517  33.7644983  40.5602435  41.1580069
  32.0346431  40.2616170  41.4505162  33.2223331  39.9451760  42.7375274
  32.9339637  38.4684071  39.7447845  32.0460676  38.7988400  39.5896881
  34.7389478  36.5106592  41.0335599  35.0638944  36.2217698  39.8813908
  34.5026067  35.6032231  41.9927259  34.2557854  35.8983398  42.9265807
  34.6759204  34.1383326  41.7335305  35.0118264  33.9515892  40.7135338
  35.7157468  33.5471372  42.7118914  35.3599116  33.7150485  43.7283983
  35.9282020  32.0620503  42.4898854  36.2845062  31.8933796  41.4736676
  36.6669386  31.6900490  43.1998035  34.9860761  31.5338116  42.6363921
  37.0538264  34.2821175  42.5517260  36.9154383  35.3412806  42.7688074
  37.7844950  33.8624839  43.2431960  37.4130484  34.1652323  41.5292788
  33.3246768  33.4182164  41.8379934  32.5947895  33.6124781  42.8391472
  32.9666477  32.6411010  40.8179661  33.6221321  32.4896179  40.0646452
  31.6476789  32.0256577  40.7212352  31.0635969  32.2160844  41.6216157
  30.9127846  32.6420878  39.5192392  31.4793959  32.3718779  38.6281514
  29.8764355  32.3261241  39.3998762  30.9001301  34.1299623  39.5811674
  29.9339536  34.8226939  40.2966217  30.2033312  36.1217323  40.2308796
  29.5577078  36.8445875  40.7296277  31.3065639  36.2910072  39.5035367
  31.7376170  37.1765779  39.2798010  31.7729211  35.0635599  39.1002502
  32.6858234  34.9948936  38.5086459  31.6829458  30.5272772  40.5665314
  32.4271606  29.9897842  39.7269603  30.8684784  29.8446358  41.3888243
  30.3949621  30.3527599  42.1220989  30.6297578  28.3721422  41.2782758
  31.5573655  27.8507459  41.0420789  30.1021943  27.8501838  42.6211310
  30.7930122  28.1842462  43.3952578  29.1250194  28.3039334  42.7864806
  29.9750619  26.3551767  42.6755375  29.2052048  26.0217263  41.9796700
  30.9260827  25.8911935  42.4140396  29.5919984  25.9582463  44.0738703
  30.2587249  26.4465663  44.7845871  28.5648601  26.2662443  44.2693788
  29.6897849  24.5164231  44.2570091  30.5577502  24.1623852  44.6330314
  28.7257638  23.6536051  43.9719646  27.5687099  24.0746882  43.4667713
  27.4232181  25.0599513  43.2988763  26.8414463  23.4070448  43.2536056
  28.9258275  22.3561291  44.1894146  29.8072993  22.0407733  44.5684375
  28.1952871  21.6926581  43.9744365  29.6237511  27.9761506  40.2113033
  28.5413408  28.6083873  40.0534375  29.9841209  26.9378659  39.4452494
  30.9374013  26.6061763  39.4818269  29.0590791  26.2871719  38.5193883
  28.0469039  26.6462948  38.7054834  29.4245145  26.5896152  37.0713016
  30.4914063  26.4837613  36.8747410  28.8678133  25.9071383  36.4291109
  29.0454534  27.9827355  36.6497313  27.8161189  28.2182295  36.0712356
  27.1360787  27.3830872  35.9033589  27.4385673  29.5124186  35.7010203
  26.4780493  29.7035458  35.2225055  28.3262959  30.5827565  35.9569802
  28.0247813  31.6003629  35.7086536  29.5772465  30.3452176  36.5216713
  30.2867983  31.1592539  36.6699325  29.9136857  29.0602087  36.8949683
  30.8662338  28.8678306  37.3886714  29.0673555  24.7750698  38.7587305
  30.1029922  24.2110103  39.0694822  27.9063816  24.1550450  38.6242286
  27.0693204  24.6849323  38.4276392  27.7900433  22.6994829  38.7706817
  28.7394941  22.2341428  38.5059159  27.4356956  22.3053138  40.2077027
  28.2700158  22.6246150  40.8322472  26.5444129  22.8730535  40.4748857
  27.1672174  20.7681227  40.4354524  26.2036367  20.5182172  39.9914251
  27.9564740  20.2182353  39.9228152  27.1598537  20.3831718  41.9304660
  26.9428228  21.2799954  42.7866127  27.3612816  19.1765429  42.2543817
  26.7184640  22.2207211  37.8328577  25.6452520  22.8333540  37.7490195
  27.0192640  21.1453966  37.1190387  27.9223570  20.7155122  37.2594728
  26.1223533  20.5652513  36.1168852  25.0958843  20.5734950  36.4834814
  26.1870247  21.3868208  34.8178155  25.9554618  22.4122083  35.1060138
  27.2230397  21.3289257  34.4840175  25.2659923  20.9584074  33.6869586
  25.5170713  19.9440525  33.3768873  24.2313520  20.9877242  34.0286634
  25.4384977  21.9103375  32.5029497  25.1042485  22.8985278  32.8189500
  26.4999033  21.9475722  32.2577332  24.6501495  21.4770155  31.2767001
  25.0681348  20.5472262  30.8908494  23.6087891  21.3180178  31.5566776
  24.7265505  22.5351590  30.2192006  25.6913815  22.6823373  29.9593172
  24.2008867  22.2398742  29.4089015  24.3388953  23.3966905  30.5763924
  26.6135974  19.1302091  35.9300104  27.7739802  18.9135100  35.5722292
  25.7301561  18.1568269  36.2049913  24.7615787  18.4299622  36.2907491
  26.0760266  16.7319389  36.3945742  25.1534460  16.1523689  36.3622798
  27.0397219  16.1799244  35.3339163  27.9463041  16.7820882  35.3939730
  27.2659696  15.1536909  35.6233240  26.5099782  16.1995489  33.9018480
  25.4915227  15.8114556  33.9171078  26.4989802  17.2338993  33.5581950
  27.3668153  15.3518510  32.9473721  28.6245357  15.3091762  33.1257315
  26.7707538  14.7343208  32.0184995  26.7234879  16.6085544  37.7481732
  26.2844906  17.2289957  38.7203789  27.7731706  15.8080972  37.8258158
  28.0054446  15.1413538  37.1035960  28.5698923  15.8186227  39.0292167
  28.0237766  16.3398721  39.8154456  28.8711729  14.3841416  39.5065855
  27.9348897  13.8625945  39.7052351  29.4257614  13.8523321  38.7334683
  29.7022995  14.3941823  40.7815811  30.0442225  15.4571987  41.2949288
  30.0272560  13.2044765  41.2926854  30.5778610  13.1547517  42.1379435
  29.7210094  12.3595699  40.8317661  29.8523937  16.6285784  38.7758432
  30.8711913  16.4072827  39.4484379  29.7938828  17.5841265  37.8336346
  28.9966608  17.6449357  37.2165132  31.0019055  18.3657169  37.4966707
  31.8260782  18.0385689  38.1305576  31.4109200  18.1853381  36.0284699
  32.4946466  18.3021080  36.0277098  31.1572988  17.1509287  35.7965786
  30.8015666  19.1037472  34.9799866  29.8144123  18.7425819  34.6915652
  30.7169135  20.1175138  35.3714111  31.7397449  19.1046968  33.7326268
  31.7897563  18.1102214  33.2892121  31.3863439  19.8170065  32.9870920
  33.0916141  19.4995628  34.1582516  33.5697942  18.8679902  34.7847970
  33.7164092  20.6200507  33.7826721  33.1187115  21.4435933  32.9152841
  32.2045433  21.2133238  32.5528307  33.5841303  22.2921749  32.6265036
  34.9381107  20.9066500  34.2733252  35.3788327  20.2728170  34.9245700
  35.4076375  21.7540188  33.9876516  30.9582682  19.8334548  37.9937777
  30.0022727  20.5461935  37.7710758  31.9926624  20.2298937  38.7222905
  32.7926811  19.6228261  38.8297077  32.0247803  21.5396850  39.3701092
  31.0926032  22.0978630  39.2830333  32.3772974  21.3623626  40.8513309
  33.2782404  20.7538602  40.9296052  32.6200575  22.7208676  41.5149872
  31.7193373  23.3298027  41.4375160  32.8688690  22.5731573  42.5658798
  33.4450098  23.2280166  41.0146346  31.2709657  20.5321767  41.5598043
  30.3823078  21.1592039  41.6320868  31.0545238  19.6669557  40.9331904
  31.6903974  20.0447750  43.0039015  31.9065616  20.9095179  43.6312711
  30.8754756  19.4709814  43.4452206  32.5787795  19.4172712  42.9323747
  33.1073259  22.3707097  38.6721485  34.2157024  21.8985522  38.5282257
  32.8013644  23.5895176  38.2225133  31.8563404  23.9396516  38.1559157
  33.8988371  24.4282664  37.6935452  34.8491750  24.0802357  38.0983065
  33.9628268  24.3569074  36.1579755  34.8788589  24.8113008  35.7804692
  33.9463222  23.2997308  35.8930128  32.8172302  25.0081694  35.4126419
  32.8156719  26.2635954  34.8282036  33.7200664  26.8584096  34.9561352
  31.6192184  26.4980084  34.1840751  31.3710133  27.3439424  33.6912369
  30.8148847  25.4063527  34.3396645  29.5063522  25.1847090  33.8833645
  29.0127188  25.9679817  33.3081180  28.9228456  23.9728185  34.1974719
  27.9080979  23.7601307  33.8610927  29.6108896  23.0009574  34.9454229
  29.1351241  22.0510529  35.1892019  30.9141975  23.2163264  35.3974413
  31.4110451  22.4138255  35.9426343  31.5326219  24.4434318  35.1118514
  33.7192649  25.8630227  38.2173153  32.7577296  26.1627987  38.9646346
  34.6718505  26.7190364  37.8632034  35.4167076  26.4132980  37.2534401
  34.6646463  28.1087279  38.3020060  33.7769680  28.3171709  38.8992312
  35.9106375  28.3837519  39.1609226  36.7938554  28.1526640  38.5654188
  35.9730912  29.7991835  39.6105978  35.0903688  30.0308953  40.2065930
  36.8681627  29.9500788  40.2140683  36.0066017  30.4559714  38.7413410
  35.9152821  27.5418618  40.3400241  36.6989007  27.7274365  40.8626179
  34.7130474  29.0500543  37.0703348  35.3557335  28.7467385  36.0581747
  34.0308616  30.1885951  37.2007008  33.3326908  30.2756878  37.9253191
  34.2294774  31.3235975  36.2817517  35.0001367  31.0594209  35.5576011
  32.9471780  31.6965551  35.5204187  32.1415862  31.8423180  36.2400535
  33.1523022  33.0175198  34.6879200  33.9574845  32.8723677  33.9677024
  32.2311657  33.2605187  34.1582412  33.4104352  33.8352683  35.3607917
  32.5667472  30.5482961  34.5484713  32.3979351  29.6327137  35.1153163
  31.6574426  30.8141462  34.0094087  33.3772584  30.3902999  33.8369871
  34.7236672  32.4735387  37.1425459  34.1589688  32.7895204  38.2189516
  35.8274529  33.0629440  36.7111071  36.3620298  32.6826763  35.9431726
  36.2844006  34.2813100  37.3222774  35.8000695  34.4294490  38.2874600
  37.7956608  34.2464187  37.5350896  38.2762147  34.0238568  36.5823916
  38.3288712  35.6315334  38.0834917  37.8490790  35.8545701  39.0364633
  39.4082023  35.5756560  38.2249930  38.0971717  36.4199132  37.3673393
  38.1695355  33.1262276  38.5411604  37.8422342  32.1625594  38.1508790
  39.2499779  33.1116162  38.6844450  37.6794488  33.3163403  39.4960285
  35.9385957  35.4540890  36.3704799  36.1681682  35.3513212  35.1333962
  35.4348031  36.5446897  36.9454947  35.2196283  36.5374778  37.9322810
  35.2164508  37.8066926  36.1841098  35.4364535  37.6360592  35.1302682
  33.7837472  38.2847720  36.3084907  33.6699675  38.4237780  37.3835864
  33.6720436  39.2448781  35.8046865  32.7176242  37.3215179  35.8061520
  32.8613078  36.3529560  36.2850505  31.2954618  37.8589402  36.1397033
  31.1508583  38.8273300  35.6607360  30.5461421  37.1573506  35.7731072
  31.1920300  37.9690324  37.2191855  32.9116487  37.0648978  34.2825114
  33.8971347  36.6327123  34.1089242  32.1454698  36.3747373  33.9293123
  32.8283445  38.0073650  33.7412952  36.1138338  38.8548761  36.7945172
  36.1623549  38.9716941  38.0147619  36.8421767  39.6075126  35.9523178
  36.8729485  39.3898223  34.9665372  37.6510797  40.7152135  36.4400632
  37.3332448  40.9686944  37.4514126  39.1558729  40.3667151  36.4682630
  39.3036646  39.5286667  37.1493883  39.4619880  40.0758659  35.4633748
  39.9863276  41.5393370  36.9268228  40.0150834  42.2908663  36.1378503
  39.4860253  41.9519903  37.8029016  41.4164605  41.1351310  37.2989710
  41.5695784  40.0780402  37.8912717  42.3741020  41.8460063  36.9773906
  37.3767362  41.9042481  35.5482075  37.4236570  41.7751565  34.3145014
  37.0167697  43.0429826  36.1502075  36.7858878  43.0893594  37.1323694
  36.8840185  44.2696437  35.3419993  37.2343158  44.0919005  34.3252405
  35.4063256  44.6908945  35.2859848  35.3190580  45.5607087  34.6349034
  34.8272051  43.8665857  34.8697705  34.9130830  45.0115952  36.5663042
  33.9909779  45.2699082  36.4985079  37.7623510  45.3717179  35.9251694
  38.1635797  45.2953843  37.0823996  38.0418983  46.4118728  35.1431585
  37.7517560  46.4284485  34.1758726  38.7538290  47.5690116  35.6709451
  38.6432581  47.5743967  36.7553086  40.2834766  47.5713701  35.3230217
  40.6909023  48.4901367  35.7448883  40.7601454  46.7125632  35.7956079
  40.5532744  47.5387813  33.8125502  40.5691869  48.7280878  33.0500446
  40.4233928  49.6804955  33.5597141  40.7631982  48.6994334  31.6947212
  40.7334772  49.6275135  31.1238572  40.9487502  47.5026125  31.0494482
  41.1639786  47.5255053  29.6879833  41.1607566  48.4132417  29.3225884
  40.9657905  46.3026411  31.7628480  41.1426822  45.3537849  31.2564078
  40.7537119  46.3283401  33.1345066  40.7411784  45.3975494  33.7015795
  38.1531729  48.8282437  35.0568867  37.4652748  48.7561023  34.0130224
  38.4563527  49.9438147  35.7192978  38.7782424  49.8757173  36.6742057
  38.2746677  51.2773689  35.1411339  38.1086046  51.2327745  34.0647819
  37.0738176  52.0388670  35.8023069  36.1545299  51.4812468  35.6232281
  37.3034091  52.1766007  37.3205147  38.2223406  52.7345510  37.5003962
  36.4632855  52.7069093  37.7689182  37.3871648  51.1858619  37.7671948
  36.8740357  53.4409838  35.1289290  36.6669544  53.3084394  34.0670197
  36.0365218  53.9550773  35.6004987  37.7795758  54.0353771  35.2505617
  39.5862325  51.9985601  35.3173103  40.3052771  51.7742022  36.3022506
  39.9545621  52.8521315  34.3519300  39.3844736  53.0124661  33.5337667
  41.2238912  53.5777515  34.4680521  41.4340294  53.9681018  35.4638270
  42.4270025  52.6600076  34.0221258  42.4579892  51.7866866  34.6736236
  42.2686630  52.2015052  32.5526067  42.2380615  53.0743238  31.9004164
  43.1132536  51.5707646  32.2752379  41.3429847  51.6360177  32.4456241
  43.7594426  53.3150570  34.2604190  43.8740623  53.5307396  35.3227021
  44.5568783  52.6455338  33.9380300  43.8145847  54.2443917  33.6934999
  41.1301780  54.8094445  33.5620906  40.3635924  54.8050848  32.6099700
  41.8985356  55.8328624  33.8872031  42.4328441  55.8067373  34.7439010
  42.0385452  57.0000855  33.0184749  41.0558938  57.3670419  32.7220994
  42.7723360  58.1152817  33.7622984  43.7642665  57.7368811  34.0092519
  42.8658179  58.9600898  33.0799053  42.0703911  58.5670801  35.0355626
  40.8538696  58.3301474  35.1819020  42.7891284  59.1771993  35.8844556
  42.8778475  56.6857749  31.7649848  43.8023050  55.8730362  31.7908508
  42.6120915  57.3610442  30.6425699  41.8129341  57.9723027  30.5541959
  43.5164469  57.2353146  29.5037199  43.8259402  56.1954888  29.3984808
  42.8226056  57.6845547  28.1825092  42.3348391  58.6365004  28.3922291
  43.6139285  57.8363123  27.4484263  41.7917199  56.6937920  27.6254018
  41.7203521  56.9100987  26.5594661  42.2268153  55.7044060  27.7665024
  40.1333499  56.7236572  28.3510727  39.4754457  58.2699436  27.6076023
  39.4788206  58.1814177  26.5212088  38.4556184  58.4354381  27.9549703
  40.1010883  59.1115100  27.9049887  44.6931369  58.1496201  29.7922247
  44.4630737  59.3554466  30.0680134  45.9418448  57.6224806  29.7372461
  46.3726367  56.2170764  29.5972873  45.9416534  55.7922930  28.6906933
  46.0359003  55.6448177  30.4617105  47.8760953  56.3246762  29.5288141
  48.1731488  56.1841684  28.4895280  48.2960010  55.5239578  30.1376085
  48.2938079  57.6430556  30.0338151  49.0656029  58.0090467  29.3567021
  48.6823144  57.6271483  31.0521025  47.0668723  58.5470518  29.9588360
  46.8743263  59.1183886  30.8669102  47.2367852  59.5129273  28.7720340
  46.6809644  59.2774906  27.6960722  48.0087712  60.5657046  29.0022789
  48.4974027  60.6170470  29.8847201  48.1711942  61.6911651  28.0377773
  47.2052464  62.1388637  27.8040895  49.0714084  62.7673587  28.6758509
  48.6386227  62.9754265  29.6543720  50.0483699  62.3010016  28.8029622
  49.2325433  64.1088580  27.8800166  49.1345567  63.9048053  26.8137793
  48.4275812  64.7713982  28.1980977  50.5973858  64.7879256  28.1519432
  50.9893951  64.9692463  29.3356744  51.2943529  65.1233090  27.1710233
  48.7781603  61.1428158  26.7741025  49.7504363  60.3954704  26.8368346
  48.1864497  61.4678235  25.6142661  47.3671941  62.0580728  25.5913461
  48.7147740  60.9742915  24.3550085  48.5029018  61.7277099  23.5963452
  49.7934839  60.8718143  24.4732564  48.1408302  59.6491098  23.9062800
  48.4120702  59.2163801  22.7996912  47.3302538  58.9970237  24.7439754
  47.1156672  59.3763698  25.6551002  46.7852487  57.6944337  24.3933549
  47.1316252  57.3976732  23.4033773  47.2474219  56.6465341  25.4073821
  47.0303053  57.0342366  26.4026942  46.7148987  55.7069814  25.2598702
  48.6963394  56.3877963  25.3079891  49.4434171  56.8046253  26.1762140
  49.1307875  55.7230974  24.2167767  50.1152261  55.5248643  24.1086845
  48.4695182  55.4268842  23.5131564  45.2720362  57.6819074  24.3061363
  44.5619815  58.3419934  25.0934576  44.7777344  56.8981352  23.3628909
  45.4138082  56.4061253  22.7517970  43.3715569  56.7347189  23.1522513
  42.8477246  57.6789025  23.3013022  43.1431448  56.2731432  21.7227620
  42.0710345  56.2490402  21.5275751  43.6196937  56.9804149  21.0439632
  43.6980830  54.9608100  21.5151610  43.5436064  54.6879409  20.6078135
  42.7398450  55.7210889  24.1153881  43.4806492  54.9856450  24.8376239
  41.3986891  55.6697363  24.1203545  40.8477522  56.3862979  23.6696802
  40.6864462  54.5648845  24.8130576  40.9434212  54.6196111  25.8709177
  39.1632463  54.5969561  24.6778050  38.9130068  54.6409975  23.6178334
  38.7604618  53.6799530  25.1078864  38.5695674  55.7814158  25.3809719
  38.9439287  55.7720341  26.4046254  38.9480221  56.6634265  24.8643208
  37.0539876  55.8174721  25.3978116  36.4010695  54.7344353  25.4157928
  36.5271458  56.9646793  25.4064931  41.1485922  53.2228547  24.2841082
  41.4351198  52.3195494  25.0714394  41.2384955  53.0945676  22.9601034
  40.9234997  53.8185139  22.3301996  41.7109866  51.8360208  22.3879732
  41.0819456  51.0121349  22.7250469  41.6515983  51.9034752  20.8476369
  42.0244973  52.8902582  20.5732196  42.3051550  51.1389269  20.4276016
  40.2102702  51.7191198  20.2868959  39.2884949  51.1961170  20.9926319
  40.0113335  52.0789199  19.0804851  43.1186451  51.4480446  22.8655942
  43.3697567  50.2478184  23.2115221  44.0372614  52.4145677  22.8849628
  43.7937150  53.3718364  22.6741999  45.4186576  52.1231994  23.3247526
  45.8692282  51.4100186  22.6344929  46.2744554  53.3675502  23.3599843
  45.6802203  54.1154460  23.8849945  47.1800794  53.1585855  23.9294393
  46.6583145  53.9041736  21.9591551  46.5669704  53.1593122  20.9410629
  47.0918899  55.0908173  21.9642689  45.3736808  51.6390072  24.7752081
  46.0964127  50.6809385  25.1595555  44.5402997  52.3208505  25.5690259
  43.9349613  53.0344355  25.1889453  44.5317817  52.0970100  27.0528543
  45.5649143  52.1167222  27.3997661  43.7611356  53.2450945  27.7347279
  42.7109244  53.2031348  27.4459442  43.8801743  53.0965059  29.2761014
  44.9301433  53.1388380  29.5657092  43.3366415  53.9063411  29.7627618
  43.4574029  52.1399049  29.5831508  44.4107649  54.4921106  27.3498817
  43.9537995  55.2305410  27.7591536  43.9379278  50.7662965  27.3829936
  44.5485000  49.9660850  28.1780566  42.7839723  50.4887751  26.7741794
  42.2259128  51.2004998  26.3246053  42.2182692  49.1418652  26.9063863
  42.1625980  48.8855946  27.9643680  40.8109848  49.0364125  26.3012788
  40.8628394  49.3763481  25.2669412  40.5122345  47.9884038  26.3242120
  39.7695173  49.8874167  27.0730809  39.6884628  49.4681036  28.0759307
  40.1627822  50.9021266  27.1347952  38.3737383  49.9159571  26.4131147
  37.7573411  50.6769152  26.8917546  38.4743974  50.1450868  25.3522345
  37.7168906  48.6332659  26.5502833  38.1502309  47.9664489  27.1729154
  36.6010122  48.2799226  25.9192390  36.0092429  49.1163445  25.0666151
  36.4107488  50.0274626  24.8970369  35.1620561  48.8351634  24.5940568
  36.0719919  47.0824227  26.1450676  36.5196905  46.4499619  26.7928788
  35.2245326  46.8099732  25.6679065  43.1454641  48.0509751  26.3780128
  43.2392750  46.9827354  26.9800796  43.8401536  48.2751668  25.2683054
  43.7624694  49.1289433  24.7343296  44.7348630  47.2242641  24.7728212
  44.1622720  46.3081026  24.6282984  45.3928141  47.6112671  23.4317359
  45.7646924  48.6311481  23.5299628  46.2308762  46.9336181  23.2688132
  44.4367649  47.5310982  22.2461833  43.8592409  46.6068062  22.2620296
  43.7573051  48.3831249  22.2241142  45.4769859  47.5590639  20.7597368
  47.1445311  47.8704374  21.4328443  47.4156186  47.0680375  22.1189675
  47.8653381  47.9084175  20.6160852  47.1499951  48.8210922  21.9660673
  45.8464038  46.8911105  25.7542614  46.2004344  45.7247527  25.9263659
  46.4639164  47.9364038  26.3096308  46.2129852  48.8663462  26.0057559
  47.5241725  47.7950408  27.3199190  48.3546603  47.2256421  26.9025771
  48.0549075  49.1979528  27.7686510  48.4903809  49.6749781  26.8906368
  47.2798367  49.8417645  28.1844294  49.1575158  49.1163847  28.8108279
  50.4760997  48.9808093  28.4223170  50.7073787  48.9733052  27.3571627
  51.5180389  48.8531186  29.3746608  52.5530032  48.7581458  29.0461339
  51.2195685  48.8493082  30.7174809  52.0206187  48.7723685  31.4526672
  49.8847132  48.9443950  31.1412752  49.6479586  48.9009519  32.2043651
  48.8512788  49.0958276  30.1946752  47.8181639  49.1969389  30.5271660
  46.9863563  47.0123654  28.5524136  47.5158180  45.9373438  28.8873880
  45.9241237  47.5204302  29.1965348  45.5090987  48.3965057  28.9130825
  45.3955340  46.8519666  30.4117806  46.2303141  46.7346698  31.1027819
  44.2983825  47.7255393  31.0984068  43.4518783  47.8443570  30.4220836
  43.9652444  47.2375693  32.0143787  44.7110786  48.7053479  31.3387318
  44.8612607  45.4353102  30.0989183  45.0902986  44.4717563  30.9094665
  44.1805964  45.2807800  28.9595669  43.9811404  46.0730173  28.3657010
  43.6587589  43.9391480  28.5514749  42.9920088  43.5559479  29.3239392
  42.8719787  44.0331505  27.2205905  43.4901835  44.5761784  26.5057179
  42.7266895  43.0108136  26.8715656  41.5177339  44.7236320  27.3487834
  41.0478551  45.0892072  28.4605548  40.9324152  44.9028277  26.2490966
  44.7690930  42.8915867  28.3837892  44.6317251  41.7100784  28.8325341
  45.9063434  43.2971063  27.7965614  45.9962476  44.2297845  27.4195626
  47.0254284  42.3843578  27.6490486  46.7420746  41.5259492  27.0399964
  48.2101101  43.1056200  26.9655927  48.4583978  43.9895750  27.5530254
  49.4505795  42.1941802  26.8590933  49.2031785  41.3101738  26.2713646
  50.2608654  42.7377784  26.3732570  49.7652314  41.8898122  27.8573192
  47.7683883  43.4905442  25.6624441  48.4799331  43.9437507  25.2042868
  47.4467281  41.8422672  29.0077547  47.6450836  40.6007325  29.1824419
  47.5662078  42.7430243  29.9893652  47.4291869  43.7297543  29.8229667
  48.0049416  42.3096726  31.3456443  48.8648902  41.6453540  31.2603892
  48.3994523  43.5293137  32.2642313  47.5766197  44.2441866  32.2626358
  48.6902796  43.0657771  33.7445688  49.5133595  42.3511902  33.7470230
  48.9591465  43.9309718  34.3505797  47.7994750  42.5945732  34.1599430
  49.6312760  44.2025067  31.6915589  49.4166515  44.5570567  30.6834257
  49.9103437  45.0471489  32.3214798  50.4537189  43.4879959  31.6574569
  46.9277725  41.4510316  32.0249655  47.2332306  40.3496545  32.5658737
  45.6977855  41.9681485  32.0694522  45.5016684  42.8744930  31.6692309
  44.6109994  41.2723819  32.8011514  44.9593504  41.0841514  33.8166907
  43.2967500  42.1282859  32.8721362  42.9901655  42.4034940  31.8629951
  42.1695807  41.3044005  33.5479892  42.4752683  41.0292012  34.5574055
  41.2596667  41.9026968  33.5948772  41.9806148  40.4015297  32.9672846
  43.5374546  43.3959065  33.7226450  44.3297777  43.9924316  33.2704459
  42.6207530  43.9839658  33.7667389  43.8318553  43.1066892  34.7314970
  44.3373347  39.8981492  32.1861113  44.1855626  38.8836245  32.9012300
  44.3490185  39.8124611  30.8631276  44.5039585  40.5960578  30.2450101
  44.0308382  38.5096481  30.2682767  43.1285533  38.1145811  30.7350779
  43.7912891  38.6167067  28.7355939  44.6427018  39.1540040  28.3178533
  43.7769640  37.5993598  28.3445697  42.4879486  39.3357398  28.3422175
  41.6623384  38.7677209  28.7709636  42.5172116  40.3284616  28.7913825
  42.2790304  39.4706851  26.7742631  41.9853797  38.4956015  26.3855727
  41.4769872  40.1876845  26.5989403  43.5377103  39.9378824  26.0682847
  43.6562880  41.0041434  26.2609693  44.3830716  39.3962810  26.4927034
  43.4839664  39.6982074  24.5738796  42.7009572  40.2003286  24.1803436
  44.3405799  40.0242640  24.1496150  43.3745213  38.7101983  24.3951092
  45.1165907  37.4621935  30.5517769  44.7953815  36.2883305  30.7628794
  46.3915065  37.8694812  30.5147411  46.6376485  38.8172621  30.2673046
  47.4537082  36.9455862  30.8201367  47.3841674  36.0623540  30.1851846
  48.8064772  37.6282580  30.5652558  48.6946522  38.0111483  29.5508646
  48.9536557  38.4608596  31.2531606  50.0333175  36.6836717  30.6281333
  50.0645455  36.2287383  31.6181643  49.9619672  35.5879570  29.5668415
  49.9311747  36.0421399  28.5764534  50.8406337  34.9477212  29.6452248
  49.0630914  34.9908058  29.7202467  51.3246476  37.4971645  30.5274345
  51.3742622  38.2049435  31.3548924  52.1821076  36.8257184  30.5724187
  51.3391349  38.0413843  29.5831284  47.3427912  36.5175332  32.2977453
  47.5666396  35.3340956  32.6478999  47.0491131  37.4746308  33.1686651
  46.8775676  38.4269812  32.8793553  46.9798228  37.1524011  34.6326118
  47.9245241  36.7214878  34.9642025  46.7138061  38.4181355  35.4360030
  45.9142233  38.9590345  34.9298460  46.3943614  38.1594736  36.4455321
  47.9578493  39.3450476  35.5308853  49.0485939  38.9442349  35.2396905
  47.7451860  40.5729275  35.9815451  48.5177935  41.2182120  36.0639189
  46.8114706  40.8578473  36.2405761  45.8525636  36.1387398  34.8640561
  46.0169553  35.1963454  35.6687611  44.6995839  36.3507868  34.2103994
  44.5205559  37.1844002  33.6689782  43.5899747  35.3802077  34.3971066
  43.4744878  35.2083389  35.4672576  42.2356119  35.8404874  33.8232268
  42.4287064  36.0692710  32.7751468  41.5063589  35.0331233  33.8899596
  41.6776925  37.0994238  34.5317310  42.4324083  37.8848354  34.5721486
  40.4870304  37.5816659  33.7139931  39.7316421  36.7969057  33.6735116
  40.0619333  38.4707664  34.1797115  40.8140450  37.8229979  32.7025977
  41.2984689  36.7855714  35.9979483  42.1818612  36.4432560  36.5369636
  40.9092649  37.6856916  36.4737686  40.5366423  36.0062633  36.0179016
  43.9697556  34.0096075  33.8402695  43.6020798  32.9454304  34.4312665
  44.7032753  33.9945855  32.7203136  44.9294554  34.8443477  32.2234775
  45.1440626  32.7053832  32.1423431  44.2825781  32.0467775  32.0319697
  45.7913377  32.8983927  30.7687994  46.3396689  33.8404155  30.7738215
  46.4848891  32.0758148  30.5942945  44.7668588  32.9246804  29.6817019
  44.5945207  31.8805259  29.4206619  43.8295296  33.3772316  30.0052962
  45.2641317  33.6659848  28.4345898  46.4639902  33.9880696  28.3178553
  44.3323897  34.0136571  27.5513668  44.5972218  34.5044124  26.7092715
  43.3643149  33.7853099  27.7268381  46.1053840  32.0174168  33.1028057
  46.0200545  30.7771331  33.3039553  46.9883331  32.7895336  33.7388226
  47.0926881  33.7692026  33.5164308  47.9385882  32.1817267  34.7048537
  48.3231674  31.2518103  34.2859818  49.1364955  33.1182460  35.0161920
  49.7082787  33.2679689  34.1003611  48.7484162  34.0762057  35.3623246
  50.0616121  32.5061981  36.1118382  49.4202804  32.1992592  36.9380240
  50.5369927  31.6275843  35.6757728  51.1506658  33.4753667  36.6363851
  51.8495512  33.6503352  35.8184339  50.6542266  34.4104561  36.8957216
  51.9352032  32.9326123  37.8898442  51.2285189  32.8770115  38.7178577
  52.2871940  31.9304030  37.6453485  53.1355571  33.8143188  38.2965113
  52.8095570  34.7429144  38.5235220  53.5916126  33.4111893  39.1024889
  53.7907121  33.8656213  37.5295439  47.2077789  31.7389424  35.9825660
  47.4956979  30.6659984  36.5370736  46.2085943  32.4941043  36.4195497
  46.0217666  33.4051175  36.0255323  45.3647069  32.0290581  37.5439233
  45.9800134  31.9115294  38.4359346  44.2476474  33.0330576  37.8483539
  44.8019782  33.9154290  38.1680997  43.6844161  33.2661554  36.9447300
  43.2730174  32.6055876  38.9655578  42.7518684  31.7024312  38.6480469
  44.0447839  32.3211860  40.3135245  44.5658393  33.2240798  40.6319314
  43.3338531  32.0218723  41.0836474  44.7681469  31.5210124  40.1567807
  42.1724341  33.6488687  39.1371935  41.6195236  33.7514622  38.2034569
  41.4925316  33.3336663  39.9286992  42.6180828  34.6076583  39.4021817
  44.7648205  30.6509327  37.2079464  44.7544645  29.7533237  38.0680004
  44.2251540  30.5090944  36.0089669  44.1583125  31.2786389  35.3582497
  43.6268128  29.2261687  35.6313172  42.8401134  29.0095665  36.3540113
  43.0068487  29.3011065  34.2469639  43.7837734  29.5084310  33.5110940
  42.5278084  28.3508982  34.0109030  42.2633678  30.0978519  34.2238944
  44.6527791  28.0671419  35.7007443  44.3394251  26.9776894  36.2454456
  45.8560022  28.3111727  35.1650429  46.0127530  29.1847282  34.6829336
  46.9408762  27.2960872  35.1541344  46.6055379  26.3807002  34.6665753
  48.1603715  27.8564804  34.3727033  48.4139103  28.8287478  34.7952131
  49.4086260  26.9094911  34.4545457  49.1559770  25.9371085  34.0317690
  50.2340856  27.3461460  33.8923642  49.7042464  26.7863804  35.4964444
  47.7453919  27.9947920  33.0031535  48.4734452  28.3404336  32.4815495
  47.3009075  26.8538868  36.5621977  47.3349328  25.6342363  36.8611977
  47.5318637  27.8407769  37.4335944  47.4671433  28.7985865  37.1197292
  47.9425600  27.5933052  38.7934107  48.7841309  26.9092905  38.9028704
  48.2826983  28.9196007  39.5255802  47.4861470  29.6339405  39.3174360
  48.4199083  28.7265009  41.0791824  49.2166349  28.0125933  41.2881408
  48.6581569  29.6826967  41.5450446  47.4802330  28.3500895  41.4834429
  49.5083335  29.5700586  38.8984853  49.3093222  29.7845041  37.8484807
  49.7351842  30.4989028  39.4218273  50.3591119  28.8930578  38.9756017
  46.8573868  26.8215407  39.5354887  47.1622679  25.7649046  40.1703539
  45.6031949  27.2897777  39.4604310  45.4089894  28.1564595  38.9795503
  44.5014835  26.6262656  40.1740504  44.8331714  26.5428693  41.2090032
  43.2137513  27.4567374  40.1378389  42.8642410  27.5414455  39.1088748
  42.4488754  26.9685769  40.7417963  43.4110621  28.4516210  40.5370561
  44.2437349  25.1851142  39.6565785  43.9994871  24.2562955  40.4525966
  44.3175633  25.0151883  38.3408082  44.4309261  25.8180840  37.7386399
  44.0996034  23.6977542  37.7156243  43.1856781  23.2542986  38.1108292
  43.9645295  23.8242029  36.1956681  44.7367786  24.4936257  35.8167172
  44.0793417  22.8417568  35.7377184  42.5828330  24.3906722  35.8493946
  41.8422877  23.6255584  36.0824058  42.4443124  25.2438573  36.5134627
  42.4175606  24.8226221  34.4585627  43.3896635  24.6672260  33.6869172
  41.3140091  25.2978189  34.0951233  45.2121665  22.7089243  38.1516576
  44.9351421  21.5549203  38.5147019  46.4480065  23.1710214  38.1828788
  46.6843065  24.0765057  37.8029318  47.5261333  22.3303682  38.6857463
  47.4889952  21.3855238  38.1435389  48.8529996  22.9749566  38.4330360
  48.9088361  23.9179997  38.9767751  49.6496555  22.3128542  38.7722409
  48.9682360  23.1641373  37.3657823  47.3403723  22.0000380  40.1808372
  47.5473322  20.8482872  40.6006893  46.9660605  22.9931978  40.9926662
  46.9469492  23.9487730  40.6661543  46.6658923  22.7355665  42.3998376
  47.5228945  22.2435049  42.8597525  46.3690401  24.0139827  43.1687855
  45.6485450  24.5976480  42.5957925  45.9326930  23.7410524  44.1296238
  47.6014552  24.8279415  43.3950465  48.2806736  24.2712580  44.0406986
  48.0842156  25.0148341  42.4358199  47.2013148  26.4037707  44.1741460
  46.7230644  25.9352998  45.8507007  47.5567016  25.4309634  46.3393650
  46.4574633  26.8284253  46.4162831  45.8658546  25.2632506  45.8101729
  45.5219760  21.7540606  42.5806600  45.5874717  20.9181686  43.4886985
  44.5153828  21.8275894  41.7056671  44.5191307  22.5730662  41.0242349
  43.3564454  20.9404149  41.7548955  42.9630381  21.0121544  42.7688893
  42.2676457  21.3878818  40.7746009  42.6436050  21.3129449  39.7542386
  41.3921060  20.7483521  40.8865482  41.9914013  22.4211914  40.9845047
  43.7336313  19.4608970  41.5112615  43.1543176  18.5724461  42.1424545
  44.6722598  19.2124753  40.6019545  45.0265364  19.9727663  40.0393311
  45.1749890  17.8332873  40.3259819  44.3088896  17.1767564  40.2426864
  45.9431194  17.8037049  38.9959449  45.2953975  18.1573263  38.1937557
  46.8184041  18.4494227  39.0668337  46.3880172  16.3758916  38.6975498
  47.0361918  16.0217217  39.4991321  45.5131862  15.7296249  38.6260514
  47.1505512  16.3465243  37.3772072  46.5028309  16.7001473  36.5750177
  48.0258364  16.9922409  37.4480978  47.5990471  14.9736088  37.0541658
  47.3729429  14.2287888  37.6977645  48.2862279  14.6758368  35.9550685
  48.6212835  15.6016123  35.0608772  48.3517239  16.5636000  35.2092593
  49.1437422  15.3384028  34.2375563  48.6391323  13.4078771  35.7636592
  48.3831013  12.7073111  36.4446552  49.1615380  13.1513828  34.9381887
  46.0660395  17.2876084  41.4677655  46.1588409  16.0651783  41.6804310
  46.7252494  18.1972674  42.1929838  46.5862638  19.1694186  41.9569659
  47.7585313  17.8608137  43.1883398  48.2869887  16.9542512  42.8934223
  48.7809224  19.0210413  43.2837043  49.6771803  18.7391941  42.7310894
  48.3336220  19.9025064  42.8243116  49.1825501  19.3692556  44.7268156
  49.5995967  18.5041157  45.4958378  49.0586426  20.6588274  45.0887650
  49.3082431  20.9435724  46.0250982  48.7165688  21.3365129  44.4225603
  47.2124480  17.4301414  44.5573461  46.1138966  17.8316135  44.9682766
  47.8212698  16.6111422  45.2421936  49.8880586  46.5041474  37.4363225
  50.9826680  47.2928741  37.0551604  52.0791856  47.6019748  37.8108713
  52.8917473  48.3844797  37.0589607  52.3421038  48.5959404  35.8173048
  51.1065422  47.8954804  35.8015457  50.0847316  47.7148068  34.8486715
  48.9706632  46.9349742  35.1877594  47.8907916  46.7209962  34.2370624
  46.8380752  45.9744186  34.5842769  46.7172848  45.3464296  35.9098653
  45.7352302  44.6715797  36.1930248  47.7596009  45.5645307  36.7957118
  48.8913089  46.3521620  36.4552005  49.6718535  45.8678689  38.6461857
  50.7133705  45.0138007  39.1185614  52.3989889  43.9175215  36.6893038
  51.2532943  43.2156805  37.3651559  50.9178359  41.8702511  36.7751342
  50.5529675  43.6968843  38.4121068  53.8048672  48.7067744  37.5391607
  52.7767096  49.1838127  35.0219376  50.1693507  48.1784311  33.8702314
  47.9528705  47.1721040  33.2528536  46.0156869  45.7938071  33.9027323
  50.5581365  44.8610136  40.1921841  51.7059718  45.4555511  39.0104631
  52.1228188  44.1869478  35.6647407  52.7128461  44.8270581  37.2038744
  53.2722501  43.2575430  36.6485946  50.0757089  41.3896537  37.2846281
  50.6493225  41.9776036  35.7183305  51.7788015  41.1968457  36.8492184
  49.7279768  43.1015936  38.8013476  38.8214881  61.5244294  35.3284134
  44.0616380  15.2145184  46.2621853  33.0836421  55.3155925  26.2477481
  53.2214892  48.6750699  52.3959851  27.4518757  28.6813853  55.1570679
  32.3212345  55.8669436  71.6524208  14.2317995  43.3276371  31.0787779
  74.5872940  53.0453287  31.5635906  26.3796596   9.1060470  43.6247872
  12.3023715  68.4547439  59.8340584  30.9721955  31.0115144  15.4699503
  70.7899223  51.4264274  19.6806611  34.8187750  27.8739339  60.9651328
  58.2546458  41.3017619   5.2076334  47.5159871   9.9476631  38.5595948
  63.4493382  56.4479894  56.7429219  52.8493962  15.5726160  60.6623047
  50.5366077  29.2169230  74.2268103  64.8724300  23.8662688  39.8373368
  28.5081412  57.1988419  27.8168180  19.1901460  30.4865513  37.0905235
  17.2050496  45.2414654  79.7975838  23.4510678  61.0907170  31.4139465
  20.4124732  44.7971195  44.3561220  76.2687334  37.1922060  69.4615415
  47.1695911  28.7771759  66.1680246  14.8045934  44.2465599  25.6870123
  75.3350251  54.8313708  16.2610164  48.6127578  78.8511998  59.2802074
   3.6657121  44.6385224  44.4183472  46.0330937  37.6726902  15.2026640
  53.4366380  25.0707535  82.8379567  38.5067698  67.4199871  41.8176086
  56.9475390  79.9190693  31.7822729   6.4308719  53.2947439  31.9245878
  46.6527297  53.9415814  12.3671657  35.4868453   5.0202539  18.2862465
  67.7841466  47.4072868  35.6321727  39.7689620  -1.7174120  44.5240405
   6.4753279  67.8634924  25.0232255  38.1750513  32.1917645  59.4109121
  69.8532932  12.5659120  28.9379167  54.1276497   8.1788312  62.2639016
  48.4926684  42.3315755  -0.8614642  56.2567222  26.8880589  22.8442569
  12.8318778  34.3162646   9.2313337  30.3274485  73.1130095  40.7321996
  40.7189325  11.8929024  26.7616284   2.4535060  54.2761728  23.0122138
  44.8293191  72.6679153  64.8876406  22.6016952  46.4407909  59.4965821
  18.7482438   1.6412270  32.8237311  53.6615951  20.2490810  14.0166595
  24.4921829  57.8168660  10.3867461  68.1048052  62.2929690  34.7399141
  40.6679310  77.2307985  42.7106845  67.8811415  37.8848954  31.0296147
  78.0203375  20.6036123  48.1726014  56.5876063  32.0466401   9.2267181
   3.4398291  13.1431948  39.4891060   8.1857108  11.6195680  26.4881644
  44.5898375  38.1188212  85.7336352  44.0609846  38.3347845  86.3933658
  45.1123395  38.8124350  85.6537321  44.5886828  38.2531349  85.8191951
  36.4797983  42.0151429  84.5343820  35.8955198  42.5201460  84.9409684
  36.0768078  41.7893815  83.7940412  36.3337286  42.0559677  84.4848845
  40.9375197  38.2617081  83.0112740  41.1771201  38.4695064  82.1988084
  41.2591038  37.4574589  83.1201685  41.0212355  38.1731182  82.9073294
  34.1484579  35.8754968  82.0672864  33.4342756  35.5893148  82.4795297
  34.6328548  36.2151594  82.7079252  34.1143942  35.8836618  82.2228499
  41.3231897  44.3784922  82.4434673  41.7383045  44.0469946  81.7519168
  40.4923826  44.1453824  82.3154809  41.2619906  44.2956178  82.3225520
  44.0165287  40.6295481  81.6295874  43.9345449  40.6997669  82.4950861
  44.6545007  41.1925225  81.4379615  44.0985124  40.7234452  81.7285824
  41.1205397  40.6515936  84.6404481  41.9346036  40.9430828  84.5287252
  41.0564538  39.9975798  84.0662774  41.2308136  40.5981130  84.5393318
  37.6316120  39.3439743  84.1051682  38.0161273  39.1247450  84.8568227
  37.3827741  40.1702688  84.2352758  37.6518193  39.4337889  84.2352758
  42.5581419  43.8677736  79.9820286  43.3254404  43.9277861  79.5726138
  42.1112728  43.2958177  79.4976604  42.6054847  43.7914311  79.8497996
  38.6056020  40.1396502  81.4457396  38.8948545  40.9161384  81.7200970
  38.6927819  39.6285233  82.1471895  38.6610276  40.1788420  81.5899894
  43.3987639  35.5329765  85.7011083  42.8710657  35.6158509  85.0116792
  43.8583347  36.2747637  85.6975728  43.3889489  35.6550427  85.5985778
  35.3920704  33.8032285  80.7251978  35.0433508  34.4552010  81.1883527
  34.9117150  33.7889398  79.9975849  35.2690948  33.8975338  80.6863069
  35.7944835  37.2957926  83.5670599  36.4289914  37.8918351  83.5020061
  35.8770446  36.9961384  84.3816470  35.9001386  37.3398834  83.6773686
  40.4334929  35.1680025  85.0406705  39.8399768  35.4897022  84.4891272
  40.4710207  34.3221121  84.8327811  40.3509318  35.0904354  84.9289477
  38.4064161  35.8077276  83.1336035  38.7863126  35.8256905  82.3487150
  37.6656757  36.2531265  83.0126882  38.3532999  35.8759051  82.9999603
  39.2048915  42.6454782  84.5244825  38.3960238  42.3221456  84.4778135
  39.7123824  41.9388004  84.4573074  39.1598582  42.4936099  84.5075120
  47.8084885  15.1321602  74.5846064  47.7778890  15.9866239  74.7564333
  48.4066234  14.8316895  75.1432208  47.8922043  15.2138099  74.6920866
  35.3925710  23.7559971  75.1036226  34.6408609  23.3775510  74.8752271
  35.8411722  23.7878405  74.3555036  35.3475377  23.7045579  74.9593728
  40.8450670  24.1785341  70.5321773  40.5102038  24.8562262  70.0965995
  41.3577540  23.7890652  69.9438645  40.8716251  24.2209919  70.3808565
  40.3854961  26.1299610  76.4732885  40.7694340  26.6986508  75.9337660
  40.3214102  25.4049120  75.9938701  40.4328388  26.1075073  76.3226747
  45.6301460  17.7073905  72.8564374  45.5140986  18.4581591  73.2856512
  46.4257347  17.4497858  73.1060461  45.7306049  17.7808751  72.9568465
  36.8111206  28.6855953  78.7713854  37.4548661  29.1269117  79.1610013
  37.1367461  27.8809379  78.6844113  36.9543034  28.6321147  78.8159332
  37.5131785  21.6967928  74.1433716  37.8347627  22.2373135  73.5395024
  38.1603882  21.1264699  74.2756006  37.6557841  21.6927103  74.0740752
  39.7521429  20.0854368  74.2147894  40.1915064  19.4771468  74.6602667
  39.6026092  19.7061741  73.4433359  39.7942895  19.9392839  74.1667062
  43.3530765  18.4381549  71.1678664  43.2682061  19.2942515  71.3128232
  43.8415149  18.1625873  71.8360823  43.4119663  18.5238870  71.2880745
  44.2849199  15.0566343  72.6676399  43.7560670  15.2725977  73.3273705
  44.8074219  15.7502481  72.5877368  44.2837652  15.1909480  72.7531998
  49.7397252  20.6312647  78.0409443  48.9094955  20.8423291  78.2042860
  49.6906504  19.8049702  77.7651727  49.6103987  20.5402254  78.0246809
  36.1748806  18.9529560  71.4683867  35.5906022  19.4579591  71.8749731
  35.7718902  18.7271947  70.7280459  36.0288110  18.9937808  71.4188892
  40.6326021  15.1995212  69.9452787  40.8722025  15.4073196  69.1328130
  40.9541862  14.3952721  70.0541732  40.7163179  15.1109313  69.8413340
  46.9961567  21.3012002  78.1774159  46.5596799  21.3048744  78.9333130
  46.6624482  21.9817501  77.7453736  46.8824187  21.4024458  78.2254992
  50.1305913  18.0192922  77.0693796  50.7922347  17.4583590  76.9689705
  49.4897325  17.5244952  77.3946487  50.1334781  17.8629331  77.1026136
  41.0182721  21.3163053  69.3774719  41.4333869  20.9848077  68.6859215
  40.1874650  21.0831955  69.2494856  40.9570729  21.2334309  69.2565567
  46.4170744  19.0358304  76.8105785  46.6526333  19.1803503  75.9832636
  46.5660307  19.8000712  77.2037299  46.4736547  19.1697359  76.7469389
  48.2461200  17.8759970  74.6475389  48.5769418  18.4087610  74.0415484
  48.8194289  17.9298858  75.3037340  48.3794880  17.9629539  74.6553171
  43.7116111  17.5673613  68.5635921  43.6296273  17.6375800  69.4290908
  44.3495831  18.1303357  68.3719662  43.7935948  17.6612584  68.6625870
  40.8156221  17.5894067  71.5744527  41.6296860  17.8808960  71.4627299
  40.7515362  16.9353929  71.0002820  40.9258960  17.5359262  71.4733365
  37.3266944  16.2817874  71.0391729  37.7112097  16.0625581  71.7908274
  37.0778565  17.1080820  71.1692805  37.3469017  16.3716020  71.1692805
  37.6090187  24.5022750  73.1124099  37.8988485  24.1111731  72.3883326
  38.3393668  24.6839455  73.5529374  37.7597071  24.4716564  73.0706906
  35.5496103  26.4790132  76.1784249  35.3296398  26.1887487  76.9710916
  35.3290625  25.8205087  75.6502161  35.4843697  26.3389841  76.2173158
  37.7164058  27.8519522  74.9614941  38.3688116  27.3195965  75.1905967
  37.0189667  27.4988175  75.3482815  37.7094776  27.7209045  75.0527109
  45.7103977  20.1723936  74.3045921  46.2762009  20.8317146  74.2204463
  45.0631880  20.5173634  74.7762323  45.6982733  20.3205878  74.3618677
  42.1810555  23.1162721  73.7283000  41.9397231  22.3830581  73.3210065
  42.3611888  23.6649578  73.0749333  42.1718179  23.0885112  73.5713223
  46.9066675  20.2230164  71.0971557  46.5273483  19.4367302  71.0900846
  46.2432920  20.7717021  70.9543201  46.7525149  20.1874988  71.0752354
  39.7313583  23.7743683  74.9360383  40.4963474  23.5053327  74.6143048
  39.6291673  23.2893693  75.6530446  39.8295078  23.6633248  74.9940211
  42.2532243  20.8055867  66.9160333  43.0205228  20.8655992  66.5066184
  41.8063552  20.2336308  66.4316651  42.3005670  20.7292443  66.7838043
  45.1526773  22.4675655  71.4323243  45.2346611  23.2742641  71.1084694
  45.6376516  22.4871614  72.1564016  45.2363931  22.5896317  71.4910141
  40.7884866  17.0170426  74.4014657  41.3300412  16.5140807  74.8653277
  41.1031425  16.9635621  73.5904142  40.9149263  16.9349847  74.3498469
  38.9571316  22.4087778  71.6854685  39.0264136  21.5502316  71.8247685
  39.7359771  22.6259658  71.3573709  39.0824166  22.3140642  71.6571842
  43.3478803  24.8325479  75.8991178  42.9558595  24.5292194  75.1814044
  43.5031876  25.6694569  75.7096132  43.3132393  24.9109316  75.7647675
  43.5118478  21.3975468  75.8397208  43.1533133  21.5690111  76.6161241
  43.0257189  21.8588673  75.2825207  43.3877175  21.4914439  75.8722478
  38.3006844  17.0774633  68.3797443  38.5899368  17.8539516  68.6541017
  38.3878643  16.5663365  69.0811942  38.3561100  17.1166551  68.5239941
  44.1169109  24.2360972  79.3321212  43.9188797  24.7251786  78.6377424
  43.4956820  24.4402213  79.9105346  43.9956673  24.3377510  79.3144436
  43.0938463  12.4707896  72.6351130  42.5661481  12.5536640  71.9456839
  43.5534171  13.2125768  72.6315774  43.0840313  12.5928559  72.5325825
  35.0871528  10.7410416  67.6592025  34.7384332  11.3930141  68.1223574
  34.6067974  10.7267529  66.9315896  34.9641772  10.8353469  67.6203116
  42.6475545  21.0411460  71.7660787  43.3709744  21.5069573  71.6225360
  42.2076136  21.1085069  71.0158384  42.6891237  21.1195297  71.6345568
  42.9079395  25.1032165  71.9258848  42.1908705  24.9293027  71.4606085
  43.5586132  24.8684737  71.3934334  42.8981245  25.0427957  71.7788066
  38.1892557  26.3393923  78.3548996  37.7752955  25.6768054  77.9652837
  38.8739931  26.4871782  77.8344690  38.2290928  26.2634582  78.2205493
  41.5557851  25.4984009  79.1072612  41.1574134  25.6086279  78.3393433
  40.9409070  25.7066075  79.6899172  41.4056740  25.5457577  79.0803912
  49.2899694  20.0735975  72.4915703  49.6733299  20.8227332  72.7213800
  48.4943807  20.3201795  72.2327692  49.2293476  20.2205669  72.4873277
  38.1014985  12.7455407  70.0676082  38.4813950  12.7635036  69.2827197
  37.3607581  13.1909396  69.9466929  38.0483823  12.8137182  69.9339650
  38.8999739  19.5832913  71.4584872  38.0911062  19.2599587  71.4118181
  39.4074648  18.8766135  71.3913121  38.8549406  19.4314230  71.4415166
  58.7817469  30.6506910  74.5846064  58.7511473  31.5051547  74.7564333
  59.3798818  30.3502203  75.1432208  58.8654627  30.7323407  74.6920866
  51.9817154  29.7382561  79.3398994  51.1255049  29.8991060  79.3908111
  52.0284808  28.8674625  79.3604055  51.8616265  29.6333363  79.3505060
  46.3658294  39.2745279  75.1036226  45.6141193  38.8960818  74.8752271
  46.8144305  39.3063713  74.3555036  46.3207960  39.2230886  74.9593728
  51.8183253  39.6970649  70.5321773  51.4834622  40.3747570  70.0965995
  52.3310124  39.3075960  69.9438645  51.8448835  39.7395227  70.3808565
  51.3587545  41.6484917  76.4732885  51.7426924  42.2171816  75.9337660
  51.2946686  40.9234428  75.9938701  51.4060972  41.6260381  76.3226747
  54.8268975  31.7974605  81.9830646  55.3724935  32.4759692  82.0424616
  54.7685851  31.6562066  81.1232228  54.8984889  31.8766607  81.8642707
  47.9443050  39.2863671  77.3698998  48.0453413  38.4764025  77.6796126
  47.3484795  39.1920618  76.7398677  47.8715588  39.1528700  77.3225237
  56.6034043  33.2259212  72.8564374  56.4873569  33.9766899  73.2856512
  57.3989930  32.9683166  73.1060461  56.7038633  33.2994059  72.9568465
  47.7843789  44.2041261  78.7713854  48.4281245  44.6454425  79.1610013
  48.1100045  43.3994687  78.6844113  47.9275618  44.1506455  78.8159332
  41.1408094  35.3083958  76.9951332  40.9058278  34.4751610  76.8883601
  41.2793735  35.5888624  76.1812533  41.1263756  35.2267461  76.8593687
  43.4398181  27.4769689  79.8935640  42.8203213  26.8862336  79.7245655
  43.3382045  28.0681124  79.2599963  43.3335857  27.4773771  79.7740629
  48.4864369  37.2153235  74.1433716  48.8080210  37.7558443  73.5395024
  49.1336466  36.6450007  74.2756006  48.6290424  37.2112411  74.0740752
  43.1667314  31.0221970  82.1379209  43.0426011  31.6084416  82.7729028
  43.8185599  30.5282166  82.4391484  43.2440964  31.0360775  82.2765138
  50.7254012  35.6039675  74.2147894  51.1647648  34.9956776  74.6602667
  50.5758675  35.2247049  73.4433359  50.7675478  35.4578147  74.1667062
  48.1925655  34.1983687  81.4166720  48.8374658  33.7056130  81.0977668
  48.4327433  34.3408474  82.2432798  48.3236241  34.1461129  81.4916253
  50.7311747  37.0438593  81.0673612  51.0134990  36.2489999  80.8460368
  51.4597907  37.5219181  81.0878673  50.8801311  36.9973190  81.0376628
  48.7092941  24.5861627  78.3089378  48.3796271  25.0372771  77.6393076
  48.0337942  24.5077790  78.8562384  48.5603377  24.6412762  78.2912601
  54.3263349  33.9566857  71.1678664  54.2414644  34.8127823  71.3128232
  54.8147732  33.6811181  71.8360823  54.3852246  34.0424178  71.2880745
  55.9169348  20.5747150  76.5538988  55.6022789  21.2650629  76.9859411
  55.3996290  20.5191932  75.8524489  55.7933819  20.6682039  76.5135937
  55.2581782  30.5751651  72.6676399  54.7293254  30.7911284  73.3273705
  55.7806802  31.2687789  72.5877368  55.2570235  30.7094788  72.7531998
  60.7129835  36.1497955  78.0409443  59.8827538  36.3608599  78.2042860
  60.6639087  35.3235010  77.7651727  60.5836571  36.0587562  78.0246809
  47.1481390  34.4714868  71.4683867  46.5638605  34.9764899  71.8749731
  46.7451485  34.2457255  70.7280459  47.0020694  34.5123116  71.4188892
  42.7025419  40.1869629  78.2707538  42.2192997  40.9120118  78.2467122
  43.5148737  40.4845759  78.3817696  42.7516166  40.3371983  78.2834817
  48.7739573  38.9801810  80.8757353  48.2566514  38.6209225  80.2718661
  49.4713964  38.4563984  80.8863419  48.8005154  38.8499497  80.7887611
  51.6058604  30.7180520  69.9452787  51.8454608  30.9258504  69.1328130
  51.9274445  29.9138028  70.0541732  51.6895762  30.6294621  69.8413340
  46.9148895  22.6473915  73.7912325  47.6694863  23.0152233  73.5529375
  46.7376429  23.0213470  74.5591505  47.0003373  22.7572103  73.8697214
  45.5569616  40.7025805  78.4227818  46.2590195  40.1877794  78.4800575
  45.4767099  41.0299956  79.2274693  45.6493376  40.6740031  78.5500610
  45.2705959  25.0544234  70.4890438  45.0881533  25.2716115  69.6631431
  46.1331572  25.1683247  70.5449053  45.3710549  25.1034132  70.3744925
  44.8820391  36.8932157  77.9313426  45.7209291  37.1255089  77.9787188
  44.9132161  36.0236468  77.8620462  45.0102109  36.7989103  77.9278071
  45.5073094  37.3133032  82.2326732  46.0471319  37.1704163  82.9030104
  44.8243041  37.7129783  82.6010758  45.4865248  37.3512703  82.3861153
  50.9505679  22.0570645  73.5239462  51.6791839  21.8786600  73.0777618
  51.0400571  22.8988725  73.7346640  51.0712341  22.1554524  73.4892980
  54.9313979  32.9924033  77.4271756  55.6871494  33.4255547  77.4660665
  55.0376304  32.3428802  78.0006392  55.0584150  32.9601516  77.5169782
  57.9694150  36.8197310  78.1774159  57.5329382  36.8234052  78.9333130
  57.6357066  37.5002809  77.7453736  57.8556770  36.9209766  78.2254992
  40.9110239  33.5333323  82.3861153  40.6448655  32.7172439  82.5452143
  40.9248804  33.5786478  81.5156669  40.8734962  33.4190227  82.2814635
  44.8167986  28.3318407  69.0012911  44.1026164  28.0456587  69.4135344
  45.3011955  28.6715033  69.6419299  44.7827350  28.3400057  69.1568546
  61.1038497  33.5378230  77.0693796  61.7654931  32.9768898  76.9689705
  60.4629909  33.0430260  77.3946487  61.1067364  33.3814639  77.1026136
  51.9915304  36.8348361  69.3774719  52.4066453  36.5033385  68.6859215
  51.1607234  36.6017263  69.2494856  51.9303313  36.7519617  69.2565567
  41.3203653  34.3192102  79.6672897  41.1379226  34.2938988  78.8145190
  42.0553322  34.7891040  79.7061806  41.4017717  34.3853464  79.5470816
  57.3903327  34.5543612  76.8105785  57.6258916  34.6988811  75.9832636
  57.5392891  35.3186020  77.2037299  57.4469131  34.6882666  76.7469389
  59.2193784  33.3945278  74.6475389  59.5502001  33.9272918  74.0415484
  59.7926872  33.4484166  75.3037340  59.3527463  33.4814847  74.6553171
  54.4325673  31.2410181  75.3298969  54.5272528  31.9799475  75.7838594
  53.8084517  30.8127656  75.7633533  54.3534703  31.2871501  75.4607116
  41.2874563  31.1985603  79.8171964  41.8648066  31.0622054  80.4564209
  40.5888625  30.7421387  80.0717548  41.2695585  31.1107869  79.9494254
  54.6848694  33.0858921  68.5635921  54.6028857  33.1561108  69.4290908
  55.3228415  33.6488664  68.3719662  54.7668532  33.1797892  68.6625870
  48.0441866  32.8519658  78.0310447  47.7861110  32.0191393  78.0041747
  48.0990348  33.0777271  77.1902948  48.0141643  32.7617430  77.9030584
  53.1242916  24.9548109  78.1314540  52.4199242  24.4657295  78.2898459
  53.1727890  24.9670584  77.2602984  53.0272967  24.8837757  78.0253880
  47.0176578  30.4057421  78.5175342  46.4426169  30.5649589  79.1539303
  46.6412254  29.7692830  78.0543793  46.8779390  30.3355234  78.5429900
  50.6849866  28.8780770  83.3767720  50.2964299  28.4534988  82.7219912
  50.0204565  29.1262920  83.8844747  50.5296794  28.8519491  83.3555588
  60.3273136  28.6355775  76.1515550  60.0709700  27.8235716  75.9613433
  61.1702450  28.6433342  75.9245738  60.4139161  28.5167772  76.0900368
  36.7633397  30.0497496  76.5319783  36.8493648  29.6729364  77.3133313
  37.3909194  29.6757941  76.0539741  36.8689948  29.9382978  76.5765260
  51.7888805  33.1079375  71.5744527  52.6029443  33.3994268  71.4627299
  51.7247946  32.4539237  71.0002820  51.8991544  33.0544570  71.4733365
  47.6596713  36.5800892  76.7016839  48.2970660  36.3412640  77.2468633
  48.0851784  36.7838051  75.9670000  47.8172879  36.5751902  76.6733997
  42.3509355  38.8189229  80.5851143  42.3913501  39.0904080  79.7570923
  42.9103879  39.3431137  81.0008931  42.4392701  38.9364984  80.5243031
  48.2999528  31.8003182  71.0391729  48.6844681  31.5810889  71.7908274
  48.0511148  32.6266127  71.1692805  48.3201601  31.8901328  71.1692805
  50.0418185  37.0573315  78.3810626  50.1157193  36.8948487  79.2352476
  50.8587691  37.2463504  78.1371107  50.1734543  37.0610057  78.4708651
  43.8023942  37.4031178  75.4105069  42.9762059  37.6492915  75.2839348
  43.8635933  37.3243259  76.2767127  43.6898109  37.4276127  75.5194014
  46.0199965  23.4700119  76.3700509  45.1522391  23.5422718  76.4358119
  46.3075170  24.2722198  76.5588484  45.9339713  23.5994266  76.4075276
  48.5822771  40.0208058  73.1124099  48.8721069  39.6297039  72.3883326
  49.3126251  40.2024763  73.5529374  48.7329655  39.9901872  73.0706906
  49.1717516  34.8225804  84.1977230  48.6729209  35.5341572  84.2762118
  49.9817740  35.1426470  84.1595392  49.2173622  34.9752652  84.2033798
  46.5228686  41.9975440  76.1784249  46.3028982  41.7072795  76.9710916
  46.3023208  41.3390395  75.6502161  46.4576280  41.8575149  76.2173158
  45.4345633  34.0848757  78.4439951  45.1458882  33.4586228  78.9785678
  46.3028981  34.0269044  78.5104631  45.5205885  33.9836301  78.5330905
  56.2223531  29.2283540  78.7621932  55.8788297  28.5073875  79.1129182
  56.3216574  29.0197391  77.9200291  56.1865574  29.0907743  78.6893612
  48.6896642  43.3704830  74.9614941  49.3420700  42.8381273  75.1905967
  47.9922251  43.0173483  75.3482815  48.6827360  43.2394353  75.0527109
  45.6377907  35.7244008  74.3682316  46.3923875  36.1057047  74.5817778
  45.0448519  36.1755152  74.8229012  45.6614620  35.8472835  74.4665194
  56.6836560  35.6909244  74.3045921  57.2494593  36.3502454  74.2204463
  56.0364464  36.0358942  74.7762323  56.6715317  35.8391186  74.3618677
  46.9576133  36.8952569  79.7422431  46.4356887  37.0352861  80.4274296
  47.3450154  36.1363234  79.9324548  46.9379834  36.8038093  79.8723507
  43.9467317  26.9458378  73.8117386  43.6592113  26.5759648  73.0749333
  44.6337786  27.4153233  73.5501091  44.0056215  26.9605347  73.6632461
  53.1543138  38.6348029  73.7283000  52.9129814  37.9015889  73.3210065
  53.3344471  39.1834885  73.0749333  53.1450762  38.6070420  73.5713223
  48.3842459  33.9256588  75.1403922  48.1885242  34.5331323  74.5464225
  48.6076805  33.2324532  74.6595596  48.3877100  33.9134114  74.9820003
  46.7820989  30.8111326  75.2584790  47.5043641  30.9752484  74.7988596
  46.3028982  31.5320991  75.1524130  46.8184720  30.9409556  75.1750404
  54.7414497  27.1475125  80.6381475  53.9025597  27.1736404  80.4019739
  54.8118864  27.7945860  81.2186822  54.6282890  27.2471251  80.6890592
  44.4328606  33.2169399  84.3638930  44.9449703  33.4953652  83.7147690
  44.1464948  33.9558693  84.7301743  44.4663469  33.3671752  84.3228808
  53.1883775  24.0460502  75.3709091  53.8910128  23.8468250  74.8929049
  52.9227964  23.2736444  75.6777935  53.2530407  23.9023468  75.3454533
  58.6172020  32.3543112  77.9242717  58.5305995  32.5098538  78.7777496
  58.1622500  32.9981187  77.5502122  58.5375277  32.4718867  77.9949824
  41.5195512  27.7239590  74.6602667  41.6211648  28.5265752  74.9883642
  42.3151399  27.5226926  74.3625747  41.6523418  27.8125489  74.6638022
  52.4897836  29.6753859  76.5468277  52.2432551  29.5949610  77.3805065
  52.8182960  28.8907327  76.3530804  52.5019080  29.5480124  76.6415800
  56.3845885  36.3837218  80.3355058  56.2460245  37.0818264  80.8403800
  55.6045883  36.2285875  79.9791240  56.2489112  36.4637385  80.3581332
  48.4494864  32.4110577  85.9591260  48.5938239  32.9911786  85.3234370
  48.7970512  32.7886874  86.6641114  48.5222325  32.5531281  85.9690255
  50.6214781  31.6100746  83.7416391  49.8738095  31.8031760  83.3364669
  50.7756306  30.7845965  83.5040513  50.5337209  31.5165857  83.6461797
  47.5222619  40.6013349  82.8252286  47.6712182  40.0416265  82.1725691
  48.3022621  40.6805351  83.2084805  47.6596712  40.5298915  82.7849236
  57.8799258  35.7415472  71.0971557  57.5006067  34.9552610  71.0900846
  57.2165504  36.2902329  70.9543201  57.7257733  35.7060296  71.0752354
  50.7046166  39.2928991  74.9360383  51.4696057  39.0238635  74.6143048
  50.6024256  38.8079001  75.6530446  50.8027662  39.1818556  74.9940211
  48.7398936  27.4953400  81.4753619  47.9495011  27.3144861  81.7970955
  49.1359559  26.7180353  81.4583913  48.6815812  27.3540861  81.5206167
  53.2264827  36.3241175  66.9160333  53.9937812  36.3841300  66.5066184
  52.7796136  35.7521616  66.4316651  53.2738254  36.2477751  66.7838043
  54.1242622  35.1295831  79.2013065  53.4487624  34.8981063  79.7026452
  54.1334998  34.5217014  78.5755170  54.0261127  35.0054756  79.1829217
  51.2536766  29.9713660  85.9577118  51.1895908  30.8323616  85.8297255
  51.3933954  29.6545653  85.1572669  51.2652236  30.0513826  85.8205331
  56.1259357  37.9860963  71.4323243  56.2079194  38.7927949  71.1084694
  56.6109099  38.0056922  72.1564016  56.2096515  38.1081625  71.4910141
  49.9355860  32.6645799  80.0993321  49.5118109  32.8650298  79.3632339
  49.7600715  31.8174647  80.2117621  49.8466741  32.5694580  80.0067011
  45.2238305  33.1597850  75.5321293  45.3802924  33.0944653  76.3877285
  45.5638898  33.9346403  75.3199973  45.2971540  33.2647049  75.6275887
  51.7617450  32.5355734  74.4014657  52.3032995  32.0326115  74.8653277
  52.0764009  32.4820929  73.5904142  51.8881847  32.4535155  74.3498469
  49.9303899  37.9273085  71.6854685  49.9996720  37.0687624  71.8247685
  50.7092355  38.1444966  71.3573709  50.0556750  37.8325949  71.6571842
  52.9106719  27.4292038  84.4536957  53.1248689  26.7902953  83.9000311
  52.2940618  27.8737862  84.0244819  52.8512048  27.4002182  84.3087388
  54.3211387  40.3510787  75.8991178  53.9291179  40.0477502  75.1814044
  54.4764459  41.1879877  75.7096132  54.2864977  40.4294623  75.7647675
  41.7972567  30.3432801  75.8482061  42.1771532  30.7617346  75.1842328
  41.2227931  30.9246257  76.1550904  41.7683892  30.4910660  75.7958801
  54.4851062  36.9160776  75.8397208  54.1265717  37.0875418  76.6161241
  53.9989773  37.3773981  75.2825207  54.3609759  37.0099747  75.8722478
  52.3021448  20.5391974  79.4424300  51.4315006  20.5130695  79.3957609
  52.5561789  20.3669166  78.6250145  52.2115008  20.5102118  79.3144437
  49.2739427  32.5959941  68.3797443  49.5631952  33.3724824  68.6541017
  49.3611226  32.0848672  69.0811942  49.3293683  32.6351859  68.5239941
  49.3270588  22.5498203  80.8997770  48.8109077  21.8578394  81.0249349
  48.7664517  23.2168980  80.8460369  49.1677102  22.5461460  80.9103836
  57.3712801  29.6553818  81.3530325  56.9440409  29.5680166  80.5978424
  56.7338854  29.7631593  81.9385169  57.2142409  29.6586477  81.3275766
  45.4403368  31.9093206  80.4797555  44.5991375  31.8097080  80.6876449
  45.6493376  32.6788686  80.8311876  45.3468061  32.0085249  80.5624870
  42.9178935  29.5312743  78.3082306  42.5235633  29.6055754  77.5332415
  42.3619052  29.9170689  78.8590667  42.7781748  29.5994517  78.2749965
  54.5543882  22.5094037  77.9886185  54.7593475  22.4416344  78.8343182
  54.2270306  23.3152858  77.9207362  54.5359130  22.6179977  78.1045840
  49.2520033  29.8374605  79.7295152  48.9483171  29.2830593  80.3305560
  48.5499454  30.0166815  79.2423187  49.1036243  29.7819387  79.7464858
  48.3086130  27.1475125  74.2939854  48.5845865  26.4294037  73.8817422
  48.9084800  27.7460045  74.0860960  48.4379395  27.1295495  74.2020615
  47.3138384  37.0524325  84.4367250  47.2058739  37.0626388  85.3029308
  47.5234166  37.8779106  84.2472204  47.3288495  37.1765400  84.5371342
  57.8077570  23.0625801  77.4688950  57.1951883  23.5496203  77.8542682
  57.9041745  22.3869292  78.0126601  57.7315467  23.0344110  77.6067808
  51.8096651  24.8188642  72.5686449  52.2640397  24.9899202  73.2934294
  52.2836696  24.2056753  72.1684225  51.9464971  24.7539527  72.6160211
  45.3312176  34.3036968  81.8989188  44.7400109  34.9446466  81.8692203
  46.0933200  34.7274585  81.8720487  45.3560437  34.4612806  81.8904335
  55.0901692  39.7546279  79.3321212  54.8921381  40.2437094  78.6377424
  54.4689403  39.9587521  79.9105346  54.9689257  39.8562818  79.3144436
  49.1509671  31.5231176  73.6731457  49.8951716  31.9105453  73.9114406
  49.2970367  30.6788602  73.8371944  49.2820256  31.4561649  73.7325426
  51.0689246  23.3181435  78.7063318  50.2225291  23.4904243  78.5804668
  51.0660379  22.5130779  79.0429146  50.9436396  23.2242464  78.7374445
  52.1387547  27.0956650  79.5725376  51.6647501  26.5698412  80.0830687
  52.5105682  26.5486122  79.0040237  52.1237435  26.9372646  79.5640523
  58.4024277  32.1559025  80.9832156  58.1622500  31.3165440  80.9874583
  58.8816284  32.2359192  81.7072930  58.4376461  32.0440425  81.0906959
  54.0671046  27.9893204  72.6351130  53.5394065  28.0721948  71.9456839
  54.5266754  28.7311076  72.6315774  54.0572897  28.1113867  72.5325825
  60.4029464  28.9360482  78.9361415  60.1639234  28.8956317  78.0982200
  60.5663365  29.7831635  79.0627137  60.3919768  29.0552567  78.8314897
  45.8762363  27.9170605  81.6019340  45.2515433  27.9288997  80.9945293
  45.5407958  28.3930780  82.2510580  45.7347854  27.9889122  81.6075908
  46.0604111  26.2595724  67.6592025  45.7116916  26.9115449  68.1223574
  45.5800557  26.2452837  66.9315896  45.9374355  26.3538777  67.6203116
  42.5888038  35.9771065  83.0423104  42.0587963  35.2863504  83.0918079
  42.8613132  35.9681251  82.2135813  42.5512761  35.8738197  82.9270520
  53.6208129  36.5596768  71.7660787  54.3442328  37.0254881  71.6225360
  53.1808720  36.6270377  71.0158384  53.6623821  36.6380604  71.6345568
  52.7894284  33.4194310  83.0161476  52.1751277  32.8752360  83.3110111
  53.3061569  32.9058546  82.5367292  52.7749946  33.2630719  82.9885704
  52.0290581  34.4898580  80.7505774  51.6018189  33.8648299  80.3171210
  52.0215525  34.2073502  81.5764782  51.9649722  34.3551361  80.8085602
  50.3576291  25.3667335  80.9648308  50.3818778  24.8327447  80.2761088
  50.6087764  24.8584643  81.6273899  50.3986209  25.2128239  80.9612953
  37.8683880  32.6498830  80.3991452  37.7627330  32.6045674  79.5343536
  37.1184100  32.9952610  80.6805737  37.7419483  32.6939738  80.3128782
  46.6377613  24.0938153  80.3454053  46.6775984  24.5947359  81.0588760
  45.8127278  24.1848547  80.0759976  46.5217139  24.1819969  80.4104591
  48.0591976  30.6098663  82.6427952  47.2283906  30.7772481  82.4363200
  48.0043493  30.2334613  83.4276837  47.9281391  30.5788394  82.7276480
  46.4328020  28.8854254  73.1718069  46.5730981  29.3826718  73.8746711
  46.9310553  28.1840549  73.3132283  46.5269101  28.8556233  73.2969648
  46.4628242  29.7521365  70.5010646  47.0973322  30.3481790  70.4360108
  46.5453853  29.4524823  71.3156516  46.5684793  29.7962273  70.6113733
  48.0407225  25.6835341  70.4756088  48.3623066  25.2038423  69.8215351
  48.3034169  26.4934987  70.2846900  48.1273251  25.7325239  70.3511580
  42.9681230  31.9489206  73.7700192  43.4773460  32.5453714  74.1511498
  43.4415503  31.6815180  73.0876612  43.1124606  31.9975021  73.7254715
  53.8811978  40.6217473  71.9258848  53.1641288  40.4478335  71.4606085
  54.5318716  40.3870045  71.3934334  53.8713829  40.5613265  71.7788066
  51.8760603  21.5422634  76.2470144  51.2328921  21.3920281  76.8155283
  51.5360010  21.2964980  75.4819249  51.7305680  21.4834757  76.2173159
  56.4659950  29.4982061  75.6700153  55.7951139  30.0411763  75.5413218
  57.1599700  29.9676917  75.4281848  56.4688817  29.6480332  75.6155681
  50.5146683  41.6378773  80.9011911  50.2912338  40.8797603  81.2695938
  50.0256527  41.6676794  80.1792351  50.4090132  41.5300998  80.8488652
  56.6288077  25.9537945  78.5790526  56.9815687  25.5267668  79.2536325
  55.7702879  25.8688788  78.7091602  56.5537522  25.8782686  78.6985537
  45.3271762  28.5845465  76.6373373  44.6083751  29.0009597  76.9046236
  45.6984124  29.1499703  76.0865011  45.2763694  28.7294746  76.5956180
  54.6271343  29.2173313  82.5275368  54.6069270  29.0356609  83.3810147
  54.6750544  30.0885332  82.5034952  54.6305984  29.3189852  82.6498663
  49.1625140  41.8579231  78.3548996  48.7485539  41.1953362  77.9652837
  49.8472515  42.0057090  77.8344690  49.2023512  41.7819890  78.2205493
  52.5290434  41.0169317  79.1072612  52.1306718  41.1271587  78.3393433
  51.9141654  41.2251383  79.6899172  52.3789324  41.0642885  79.0803912
  51.1018336  27.6243464  71.9746752  50.5083176  27.9460461  71.4231319
  51.1393614  26.7784560  71.7667858  51.0192726  27.5467793  71.8629523
  53.9776153  27.5822969  75.4048502  53.7489846  27.6055670  74.5626861
  54.2374229  26.7580436  75.5243513  53.9822341  27.4639049  75.2973700
  47.0320916  26.1199515  76.7002698  47.5078282  26.4816595  76.0652879
  46.5309515  26.7755983  76.9802841  47.0286274  26.2693704  76.6479439
  60.2632277  35.5921283  72.4915703  60.6465883  36.3412639  72.7213800
  59.4676390  35.8387103  72.2327692  60.2026059  35.7390977  72.4873277
  49.0747569  28.2640715  70.0676082  49.4546534  28.2820344  69.2827197
  48.3340165  28.7094704  69.9466929  49.0216406  28.3322490  69.9339650
  56.7032859  26.5722906  75.6551661  56.7027086  26.4171563  76.5135937
  56.4989039  27.4185893  75.5993046  56.6732637  26.6743527  75.7739600
  38.7650130  29.9962691  80.0710477  38.5871891  29.5439300  80.7965393
  38.4769152  30.7988852  80.2548955  38.6963083  30.0485248  80.2053980
  54.4273711  31.2520408  79.3087868  54.9227377  30.5343403  79.2691888
  53.6173487  30.9491206  79.1942354  54.3817605  31.1018054  79.2861593
  49.8732323  35.1018221  71.4584872  49.0643645  34.7784895  71.4118181
  50.3807232  34.3951443  71.3913121  49.8281990  34.9499538  71.4415166
  40.5022600  32.5290414  77.1832236  39.6368119  32.5176105  77.0715007
  40.6021416  32.3420637  78.0303376  40.3896767  32.4996476  77.2921181
  56.4925530  34.0024096  81.9964996  56.9180602  33.4798517  81.4435421
  56.1282450  34.6004933  81.4753619  56.5012133  34.0134323  81.8374006
  46.1279610  42.2988313  80.7562342  46.4426169  43.1124701  80.7640124
  46.5373023  41.9138532  81.4244501  46.2347708  42.3617015  80.8566433
  53.0804130  37.7158360  78.3266154  53.5515308  38.4298622  78.4956139
  53.4164308  37.1157110  78.8626023  53.1999245  37.7329824  78.4298530
  49.0666739  24.4902243  72.7503713  49.8882434  24.6600556  72.5085408
  48.6036390  24.6449504  72.0270011  49.1197902  24.5383976  72.6075358
  43.4692630  36.2461421  80.4040950  44.0737487  36.2057256  79.7754771
  43.2619943  37.0932574  80.4345006  43.5281527  36.3649424  80.3157067
  53.2836402  38.5127367  81.6203188  54.1034776  38.3690333  81.8819483
  53.0030480  39.1373566  82.1619625  53.3633146  38.5837719  81.7391127
  38.7043912  35.2296039  80.2739873  38.6068190  34.4192310  80.5829930
  39.4872782  35.2087832  79.8886141  38.8060049  35.1063129  80.2626736
  61.5098661  44.7354538  74.2268103  62.2078825  44.9142666  74.7189566
  61.8250993  44.2124878  73.6038492  61.6593998  44.6848310  74.2070113
  59.6825524  40.1046935  78.3089378  59.3528854  40.5558079  77.6393076
  59.0070526  40.0263098  78.8562384  59.5335961  40.1598070  78.2912601
  66.8901932  36.0932458  76.5538988  66.5755373  36.7835937  76.9859411
  66.3728874  36.0377240  75.8524489  66.7666402  36.1867346  76.5135937
  58.1213974  49.9900176  71.4683867  57.5371189  50.4950207  71.8749731
  57.7184069  49.7642563  70.7280459  57.9753277  50.0308424  71.4188892
  62.5791188  46.2365828  69.9452787  62.8187192  46.4443811  69.1328130
  62.9007029  45.4323336  70.0541732  62.6628346  46.1479929  69.8413340
  57.8881478  38.1659223  73.7912325  58.6427446  38.5337540  73.5529375
  57.7109013  38.5398778  74.5591505  57.9735957  38.2757411  73.8697214
  56.2438543  40.5729542  70.4890438  56.0614116  40.7901423  69.6631431
  57.1064156  40.6868555  70.5449053  56.3443132  40.6219440  70.3744925
  61.9238262  37.5755953  73.5239462  62.6524423  37.3971908  73.0777618
  62.0133155  38.4174033  73.7346640  62.0444924  37.6739831  73.4892980
  55.7900570  43.8503715  69.0012911  55.0758747  43.5641895  69.4135344
  56.2744539  44.1900341  69.6419299  55.7559933  43.8585365  69.1568546
  62.9647888  52.3533669  69.3774719  63.3799036  52.0218693  68.6859215
  62.1339818  52.1202571  69.2494856  62.9035897  52.2704925  69.2565567
  65.6581278  48.6044228  68.5635921  65.5761441  48.6746416  69.4290908
  66.2960999  49.1673972  68.3719662  65.7401115  48.6983200  68.6625870
  47.7365980  45.5682804  76.5319783  47.8226232  45.1914672  77.3133313
  48.3641778  45.1943249  76.0539741  47.8422531  45.4568286  76.5765260
  62.7621388  48.6264683  71.5744527  63.5762027  48.9179576  71.4627299
  62.6980530  47.9724545  71.0002820  62.8724127  48.5729877  71.4733365
  59.2732112  47.3188490  71.0391729  59.6577264  47.0996197  71.7908274
  59.0243732  48.1451435  71.1692805  59.2934184  47.4086636  71.1692805
  56.9932549  38.9885427  76.3700509  56.1254974  39.0608026  76.4358119
  57.2807753  39.7907506  76.5588484  56.9072297  39.1179574  76.4075276
  54.9199901  42.4643686  73.8117386  54.6324697  42.0944956  73.0749333
  55.6070369  42.9338541  73.5501091  54.9788798  42.4790655  73.6632461
  57.7553573  46.3296634  75.2584790  58.4776224  46.4937792  74.7988596
  57.2761565  47.0506299  75.1524130  57.7917303  46.4594864  75.1750404
  64.1616358  39.5645810  75.3709091  64.8642711  39.3653558  74.8929049
  63.8960547  38.7921752  75.6777935  64.2262991  39.4208776  75.3454533
  52.4928096  43.2424898  74.6602667  52.5944232  44.0451060  74.9883642
  53.2883982  43.0412234  74.3625747  52.6256001  43.3310797  74.6638022
  64.1997410  51.8426483  66.9160333  64.9670396  51.9026608  66.5066184
  63.7528719  51.2706924  66.4316651  64.2470838  51.7663058  66.7838043
  52.7705150  45.8618109  75.8482061  53.1504115  46.2802654  75.1842328
  52.1960515  46.4431564  76.1550904  52.7416475  46.0095968  75.7958801
  63.2754031  36.0577282  79.4424300  62.4047589  36.0316003  79.3957609
  63.5294373  35.8854474  78.6250145  63.1847591  36.0287426  79.3144437
  60.2472011  48.1145249  68.3797443  60.5364536  48.8910131  68.6541017
  60.3343810  47.6033980  69.0811942  60.3026267  48.1537167  68.5239941
  59.2818714  42.6660433  74.2939854  59.5578448  41.9479345  73.8817422
  59.8817383  43.2645352  74.0860960  59.4111978  42.6480803  74.2020615
  62.7829234  40.3373950  72.5686449  63.2372981  40.5084510  73.2934294
  63.2569280  39.7242061  72.1684225  62.9197554  40.2724835  72.6160211
  60.1242254  47.0416484  73.6731457  60.8684299  47.4290761  73.9114406
  60.2702950  46.1973910  73.8371944  60.2552839  46.9746957  73.7325426
  62.0421830  38.8366743  78.7063318  61.1957875  39.0089551  78.5804668
  62.0392962  38.0316087  79.0429146  61.9168980  38.7427772  78.7374445
  65.0403630  43.5078512  72.6351130  64.5126648  43.5907256  71.9456839
  65.4999338  44.2496384  72.6315774  65.0305480  43.6299175  72.5325825
  57.0336695  41.7781032  67.6592025  56.6849499  42.4300757  68.1223574
  56.5533141  41.7638145  66.9315896  56.9106939  41.8724085  67.6203116
  57.4060604  44.4039562  73.1718069  57.5463565  44.9012026  73.8746711
  57.9043136  43.7025857  73.3132283  57.5001685  44.3741541  73.2969648
  57.4360826  45.2706673  70.5010646  58.0705905  45.8667098  70.4360108
  57.5186437  44.9710131  71.3156516  57.5417377  45.3147581  70.6113733
  59.0139809  41.2020649  70.4756088  59.3355650  40.7223731  69.8215351
  59.2766753  42.0120295  70.2846900  59.1005834  41.2510546  70.3511580
  53.9413814  47.4674514  73.7700192  54.4506043  48.0639021  74.1511498
  54.4148086  47.2000488  73.0876612  54.0857190  47.5160329  73.7254715
  62.8493187  37.0607942  76.2470144  62.2061505  36.9105589  76.8155283
  62.5092594  36.8150288  75.4819249  62.7038264  37.0020065  76.2173159
  56.3004346  44.1030772  76.6373373  55.5816335  44.5194905  76.9046236
  56.6716708  44.6685011  76.0865011  56.2496277  44.2480054  76.5956180
  62.0750920  43.1428772  71.9746752  61.4815759  43.4645769  71.4231319
  62.1126198  42.2969868  71.7667858  61.9925309  43.0653101  71.8629523
  58.0053499  41.6384823  76.7002698  58.4810865  42.0001903  76.0652879
  57.5042099  42.2941291  76.9802841  58.0018858  41.7879012  76.6479439
  60.0480152  43.7826023  70.0676082  60.4279117  43.8005652  69.2827197
  59.3072748  44.2280012  69.9466929  59.9948990  43.8507798  69.9339650
  60.8464906  50.6203529  71.4584872  60.0376229  50.2970203  71.4118181
  61.3539815  49.9136751  71.3913121  60.8014573  50.4684846  71.4415166
  60.0399323  40.0087551  72.7503713  60.8615017  40.1785864  72.5085408
  59.5768974  40.1634812  72.0270011  60.0930485  40.0569284  72.6075358
  35.0876534   0.6938103  62.0376273  34.3359433   0.3153641  61.8092318
  35.5362546   0.7256536  61.2895083  35.0426201   0.6423710  61.8933775
  40.5401494   1.1163472  57.4661820  40.2052862   1.7940394  57.0306042
  41.0528364   0.7268783  56.8778691  40.5667075   1.1588050  57.3148611
  40.0805785   3.0677741  63.4072931  40.4645164   3.6364639  62.8677707
  40.0164926   2.3427251  62.9278747  40.1279212   3.0453204  63.2566794
  36.5062030   5.6234084  65.7053901  37.1499485   6.0647248  66.0950060
  36.8318285   4.8187510  65.6184160  36.6493858   5.5699279  65.7499379
  37.2082609  -1.3653941  61.0773763  37.5298450  -0.8248734  60.4735071
  37.8554706  -1.9357170  61.2096053  37.3508665  -1.3694766  61.0080798
  37.3041011   1.4400881  60.0464146  37.5939309   1.0489863  59.3223373
  38.0344492   1.6217586  60.4869421  37.4547895   1.4094695  60.0046953
  35.2446927   3.4168264  63.1124296  35.0247222   3.1265618  63.9050963
  35.0241449   2.7583219  62.5842208  35.1794521   3.2767972  63.1513204
  37.4114882   4.7897654  61.8954988  38.0638940   4.2574096  62.1246014
  36.7140491   4.4366306  62.2822862  37.4045600   4.6587177  61.9867156
  41.8761379   0.0540852  60.6623047  41.6348055  -0.6791288  60.2550112
  42.0562712   0.6027709  60.0089380  41.8669003   0.0263243  60.5053269
  39.4264407   0.7121814  61.8700430  40.1914298   0.4431458  61.5483094
  39.3242497   0.2271825  62.5870493  39.5245902   0.6011379  61.9280258
  38.6522140  -0.6534091  58.6194731  38.7214960  -1.5119553  58.7587732
  39.4310595  -0.4362210  58.2913756  38.7774990  -0.7481227  58.5911889
  43.0429627   1.7703610  62.8331225  42.6509419   1.4670325  62.1154091
  43.1982700   2.6072700  62.6436178  43.0083217   1.8487447  62.6987722
  43.8119933   1.1739103  66.2661259  43.6139621   1.6629917  65.5717470
  43.1907644   1.3780344  66.8445392  43.6907497   1.2755641  66.2484482
  42.6030219   2.0410296  58.8598895  41.8859528   1.8671158  58.3946132
  43.2536956   1.8062868  58.3274381  42.5932069   1.9806088  58.7128113
  37.8843381   3.2772055  65.2889043  37.4703779   2.6146185  64.8992884
  38.5690755   3.4249913  64.7684737  37.9241752   3.2012713  65.1545540
  41.2508675   2.4362140  66.0412659  40.8524958   2.5464410  65.2733479
  40.6359894   2.6444206  66.6239219  41.1007564   2.4835708  66.0143959
  58.4768293   7.5885042  61.5186111  58.4462297   8.4429678  61.6904380
  59.0749642   7.2880334  62.0772254  58.5605451   7.6701538  61.6260913
  51.6767978   6.6760693  66.2739041  50.8205873   6.8369191  66.3248158
  51.7235631   5.8052757  66.2944102  51.5567089   6.5711494  66.2845107
  46.0609117  16.2123410  62.0376273  45.3092017  15.8338949  61.8092318
  46.5095129  16.2441844  61.2895083  46.0158784  16.1609018  61.8933775
  51.5134077  16.6348780  57.4661820  51.1785446  17.3125702  57.0306042
  52.0260948  16.2454091  56.8778691  51.5399658  16.6773358  57.3148611
  51.0538369  18.5863049  63.4072931  51.4377748  19.1549947  62.8677707
  50.9897510  17.8612559  62.9278747  51.1011796  18.5638512  63.2566794
  54.5219799   8.7352737  68.9170693  55.0675759   9.4137823  68.9764662
  54.4636675   8.5940197  68.0572274  54.5935713   8.8144738  68.7982753
  47.6393874  16.2241803  64.3039045  47.7404237  15.4142157  64.6136173
  47.0435619  16.1298749  63.6738724  47.5666412  16.0906831  64.2565284
  56.2984867  10.1637344  59.7904421  56.1824393  10.9145030  60.2196559
  57.0940754   9.9061297  60.0400508  56.3989457  10.2372191  59.8908512
  47.4794613  21.1419392  65.7053901  48.1232069  21.5832556  66.0950060
  47.8050869  20.3372818  65.6184160  47.6226442  21.0884587  65.7499379
  40.8358918  12.2462089  63.9291379  40.6009102  11.4129742  63.8223648
  40.9744559  12.5266755  63.1152580  40.8214580  12.1645593  63.7933734
  43.1349005   4.4147820  66.8275687  42.5154037   3.8240467  66.6585701
  43.0332869   5.0059255  66.1940010  43.0286681   4.4151902  66.7080676
  48.1815193  14.1531367  61.0773763  48.5031034  14.6936574  60.4735071
  48.8287289  13.5828138  61.2096053  48.3241248  14.1490542  61.0080798
  50.2316901   6.1547362  61.1608150  50.9297066   6.3335489  61.6529613
  50.5469234   5.6317701  60.5378539  50.3812238   6.1041134  61.1410160
  42.8618138   7.9600102  69.0719256  42.7376835   8.5462547  69.7069074
  43.5136423   7.4660297  69.3731531  42.9391788   7.9738906  69.2105185
  50.4204836  12.5417807  61.1487941  50.8598472  11.9334907  61.5942714
  50.2709499  12.1625180  60.3773406  50.4626302  12.3956278  61.1007109
  47.8876479  11.1361818  68.3506767  48.5325482  10.6434262  68.0317715
  48.1278256  11.2786605  69.1772845  48.0187065  11.0839261  68.4256300
  50.4262571  13.9816724  68.0013659  50.7085814  13.1868130  67.7800415
  51.1548731  14.4597312  68.0218720  50.5752134  13.9351321  67.9716674
  48.4043765   1.5239758  65.2429424  48.0747095   1.9750902  64.5733123
  47.7288766   1.4455922  65.7902431  48.2554201   1.5790893  65.2252648
  54.0214173  10.8944988  58.1018710  53.9365468  11.7505955  58.2468279
  54.5098556  10.6189312  58.7700870  54.0803070  10.9802309  58.2220792
  54.9532606   7.5129782  59.6016446  54.4244078   7.7289416  60.2613752
  55.4757626   8.2065921  59.5217415  54.9521059   7.6472919  59.6872045
  60.4080659  13.0876087  64.9749490  59.5778362  13.2986730  65.1382907
  60.3589911  12.2613141  64.6991774  60.2787395  12.9965693  64.9586855
  46.8432214  11.4092999  58.4023914  46.2589429  11.9143030  58.8089777
  46.4402309  11.1835386  57.6620505  46.6971518  11.4501247  58.3528939
  42.3976243  17.1247760  65.2047585  41.9143821  17.8498250  65.1807169
  43.2099561  17.4223890  65.3157743  42.4466990  17.2750114  65.2174864
  48.4690397  15.9179941  67.8097400  47.9517338  15.5587356  67.2058708
  49.1664788  15.3942115  67.8203466  48.4955978  15.7877629  67.7227658
  52.1253989  16.3674755  73.7713573  52.2137334  16.1800895  74.6191783
  52.5543701  15.7212184  73.3718419  52.2016091  16.2437762  73.8385324
  49.6924448  15.6505915  72.7531235  49.1295283  15.2378525  73.2770896
  50.4545472  15.5758820  73.1724378  49.7218897  15.5783315  72.8924235
  51.3009428   7.6558651  56.8792834  51.5405432   7.8636635  56.0668177
  51.6225269   6.8516160  56.9881779  51.3846586   7.5672752  56.7753387
  45.2520440  17.6403936  65.3567865  45.9541019  17.1255925  65.4140621
  45.1717923  17.9678087  66.1614740  45.3444200  17.6118162  65.4840657
  44.9656783   1.9922366  57.4230485  44.7832357   2.2094246  56.5971478
  45.8282396   2.1061378  57.4789099  45.0661373   2.0412264  57.3084972
  44.5771215  13.8310288  64.8653473  45.4160115  14.0633221  64.9127235
  44.6082984  12.9614599  64.7960508  44.7052933  13.7367234  64.8618118
  45.2023918  14.2511163  69.1666778  45.7422143  14.1082294  69.8370151
  44.5193865  14.6507914  69.5350805  45.1816072  14.2890834  69.3201200
  54.6264803   9.9302164  64.3611803  55.3822318  10.3633678  64.4000712
  54.7327128   9.2806933  64.9346439  54.7534974   9.8979648  64.4509828
  57.6644974  13.7575441  65.1114206  57.2280206  13.7612183  65.8673177
  57.3307890  14.4380940  64.6793783  57.5507594  13.8587897  65.1595038
  52.2374048  15.7983774  76.4357356  53.0214465  15.9114622  76.8013098
  52.0370642  14.9724911  76.6316042  52.3240073  15.6930493  76.5191742
  40.6061063  10.4711454  69.3201200  40.3399479   9.6550571  69.4792190
  40.6199628  10.5164609  68.4496716  40.5685786  10.3568359  69.2154682
  44.5118810   5.2696538  55.9352958  43.7976987   4.9834718  56.3475391
  44.9962779   5.6093164  56.5759346  44.4778174   5.2778188  56.0908593
  52.3944441  17.7093876  70.0823812  51.5959687  17.4693376  70.3397680
  52.8430453  17.7608269  70.8290859  52.3419053  17.6816267  70.2308736
  60.7989321  10.4756361  64.0033843  61.4605755   9.9147029  63.9029752
  60.1580733   9.9808392  64.3286534  60.8018188  10.3192770  64.0366183
  51.6866128  13.7726492  56.3114766  52.1017277  13.4411516  55.6199262
  50.8558058  13.5395395  56.1834903  51.6254137  13.6897748  56.1905614
  41.0154477  11.2570233  66.6012944  40.8330050  11.2317119  65.7485236
  41.7504146  11.7269171  66.6401853  41.0968541  11.3231596  66.4810863
  57.0854151  11.4921743  63.7445832  57.3209740  11.6366942  62.9172682
  57.2343715  12.2564151  64.1377345  57.1419955  11.6260798  63.6809436
  58.9144608  10.3323409  61.5815436  59.2452825  10.8651049  60.9755530
  59.4877696  10.3862297  62.2377387  59.0478287  10.4192978  61.5893217
  52.3828971  11.3574525  72.9129297  52.9567833  10.7201769  73.0677861
  52.3043775  11.3578607  72.0438954  52.4562206  11.2639636  72.8075708
  40.9825387   8.1363734  66.7512011  41.5598890   8.0000185  67.3904256
  40.2839449   7.6799518  67.0057595  40.9646409   8.0486000  66.8834301
  54.3799518  10.0237052  55.4975968  54.2979681  10.0939239  56.3630955
  55.0179239  10.5866796  55.3059708  54.4619356  10.1176023  55.5965917
  47.7392690   9.7897790  64.9650494  47.4811934   8.9569525  64.9381794
  47.7941172  10.0155403  64.1242994  47.7092467   9.6995561  64.8370631
  46.7127402   7.3435552  65.4515389  46.1376993   7.5027720  66.0879350
  46.3363078   6.7070961  64.9883839  46.5730214   7.2733365  65.4769947
  50.3800690   5.8158901  70.3107767  49.9915123   5.3913119  69.6559958
  49.7155389   6.0641051  70.8184794  50.2247618   5.7897622  70.2895635
  36.4584221   6.9875627  63.4659829  36.5444472   6.6107495  64.2473359
  37.0860018   6.6136073  62.9879788  36.5640772   6.8761109  63.5105307
  51.4839629  10.0457506  58.5084574  52.2980267  10.3372399  58.3967346
  51.4198770   9.3917368  57.9342867  51.5942368   9.9922701  58.4073412
  47.3547537  13.5179023  63.6356886  47.9921484  13.2790771  64.1808680
  47.7802608  13.7216182  62.9010047  47.5123703  13.5130034  63.6074044
  42.0460179  15.7567360  67.5191190  42.0864325  16.0282211  66.6910970
  42.6054703  16.2809268  67.9348978  42.1343525  15.8743115  67.4583078
  47.9950352   8.7381313  57.9731776  48.3795505   8.5189020  58.7248321
  47.7461972   9.5644259  58.1032852  48.0152424   8.8279459  58.1032852
  58.7285539  12.5127951  68.9842444  58.4231356  13.2456008  69.3455760
  58.0091755  12.1065880  68.7035230  58.5772882  12.5609684  68.9955581
  49.7369009  13.9951446  65.3150673  49.8108017  13.8326618  66.1692522
  50.5538515  14.1841636  65.0711154  49.8685367  13.9988188  65.4048698
  43.4974766  14.3409309  62.3445116  42.6712883  14.5871046  62.2179395
  43.5586757  14.2621390  63.2107174  43.3848932  14.3654258  62.4534060
  45.7150789   0.4078250  63.3040556  44.8473215   0.4800849  63.3698165
  46.0025994   1.2100329  63.4928531  45.6290537   0.5372397  63.3415323
  48.2773595  16.9586189  60.0464146  48.5671893  16.5675170  59.3223373
  49.0077075  17.1402894  60.4869421  48.4280479  16.9280003  60.0046953
  48.8668340  11.7603935  71.1317276  48.3680033  12.4719703  71.2102165
  49.6768564  12.0804602  71.0935439  48.9124446  11.9130784  71.1373845
  46.2179510  18.9353572  63.1124296  45.9979806  18.6450926  63.9050963
  45.9974032  18.2768527  62.5842208  46.1527104  18.7953280  63.1513204
  45.1296457  11.0226888  65.3779997  44.8409706  10.3964359  65.9125725
  45.9979805  10.9647175  65.4444678  45.2156709  10.9214432  65.4670952
  55.9174355   6.1661671  65.6961979  55.5739121   5.4452007  66.0469229
  56.0167398   5.9575523  64.8540337  55.8816398   6.0285875  65.6233659
  48.3847466  20.3082961  61.8954988  49.0371524  19.7759404  62.1246014
  47.6873075  19.9551614  62.2822862  48.3778184  20.1772484  61.9867156
  45.3328731  12.6622139  61.3022362  46.0874699  13.0435178  61.5157825
  44.7399343  13.1133283  61.7569059  45.3565444  12.7850966  61.4005241
  56.3787384  12.6287375  61.2385967  56.9445417  13.2880585  61.1544510
  55.7315288  12.9737074  61.7102369  56.3666141  12.7769317  61.2958724
  46.6526957  13.8330700  66.6762478  46.1307711  13.9730992  67.3614342
  47.0400978  13.0741365  66.8664595  46.6330658  13.7416224  66.8063554
  43.6418141   3.8836509  60.7457432  43.3542937   3.5137780  60.0089380
  44.3288610   4.3531364  60.4841137  43.7007039   3.8983479  60.5972508
  48.0793283  10.8634719  62.0743969  47.8836066  11.4709454  61.4804272
  48.3027628  10.1702663  61.5935643  48.0827924  10.8512245  61.9160050
  46.4771813   7.7489457  62.1924837  47.1994465   7.9130616  61.7328643
  45.9979806   8.4699122  62.0864177  46.5135544   7.8787687  62.1090451
  54.4365321   4.0853256  67.5721522  53.5976421   4.1114535  67.3359785
  54.5069688   4.7323992  68.1526869  54.3233714   4.1849382  67.6230639
  44.1279430  10.1547530  71.2978977  44.6400527  10.4331783  70.6487737
  43.8415772  10.8936824  71.6641790  44.1614293  10.3049883  71.2568855
  58.3122844   9.2921243  64.8582764  58.2256819   9.4476669  65.7117543
  57.8573324   9.9359318  64.4842169  58.2326101   9.4096998  64.9289871
  41.2146336   4.6617722  61.5942714  41.3162472   5.4643883  61.9223689
  42.0102223   4.4605058  61.2965794  41.3474242   4.7503620  61.5978069
  52.1848660   6.6131990  63.4808323  51.9383375   6.5327741  64.3145112
  52.5133783   5.8285458  63.2870851  52.1969904   6.4858255  63.5755846
  56.0796709  13.3215349  67.2695105  55.9411069  14.0196395  67.7743847
  55.2996707  13.1664006  66.9131286  55.9439936  13.4015516  67.2921379
  48.1445688   9.3488709  72.8931306  48.2889063   9.9289917  72.2574416
  48.4921336   9.7265005  73.5981161  48.2173149   9.4909413  72.9030301
  50.3165605   8.5478877  70.6756438  49.5688919   8.7409891  70.2704716
  50.4707130   7.7224097  70.4380559  50.2288033   8.4543988  70.5801844
  47.2173443  17.5391480  69.7592333  47.3663006  16.9794396  69.1065738
  47.9973445  17.6183482  70.1424852  47.3547536  17.4677046  69.7189282
  57.5750082  12.6793603  58.0311604  57.1956891  11.8930741  58.0240893
  56.9116327  13.2280460  57.8883248  57.4208557  12.6438427  58.0092401
  49.7426743  17.7106123  71.0376824  49.6670414  17.0414934  71.5927612
  49.6716602  18.4123912  71.5517490  49.7207350  17.7151031  71.1953672
  50.3996990  16.2307122  61.8700430  51.1646881  15.9616766  61.5483094
  50.2975080  15.7457133  62.5870493  50.4978486  16.1196687  61.9280258
  48.4349760   4.4331532  68.4093666  47.6445835   4.2522992  68.7311002
  48.8310383   3.6558484  68.3923960  48.3766636   4.2918993  68.4546214
  52.9215651  13.2619306  53.8500379  53.6888636  13.3219431  53.4406231
  52.4746960  12.6899747  53.3656698  52.9689078  13.1855882  53.7178090
  53.8193446  12.0673962  66.1353112  53.1438448  11.8359194  66.6366499
  53.8285822  11.4595145  65.5095217  53.7211951  11.9432887  66.1169264
  50.9487590   6.9091791  72.8917165  50.8846731   7.7701747  72.7637301
  51.0884778   6.5923784  72.0912716  50.9603060   6.9891957  72.7545378
  55.8210181  14.9239094  58.3663290  55.9030018  15.7306080  58.0424741
  56.3059923  14.9435053  59.0904063  55.9047339  15.0459757  58.4250188
  49.6306684   9.6023930  67.0333368  49.2068933   9.8028429  66.2972386
  49.4551539   8.7552778  67.1457667  49.5417565   9.5072712  66.9407058
  49.1318378  21.1174443  69.4954825  49.6214308  20.4185232  69.3130490
  48.5602610  20.8198313  70.0830882  49.1202908  20.9700667  69.5555866
  44.9189129  10.0975982  62.4661340  45.0753748  10.0322784  63.3217332
  45.2589722  10.8724534  62.2540020  44.9922364  10.2025180  62.5615934
  51.4568274   9.4733865  61.3354703  51.9983819   8.9704246  61.7993324
  51.7714833   9.4199060  60.5244189  51.5832671   9.3913286  61.2838515
  49.6254723  14.8651217  58.6194731  49.6947544  14.0065755  58.7587732
  50.4043179  15.0823098  58.2913756  49.7507574  14.7704081  58.5911889
  52.6057543   4.3670170  71.3877004  52.8199513   3.7281084  70.8340358
  51.9891442   4.8115993  70.9584866  52.5462872   4.3380313  71.2427435
  54.0162211  17.2888918  62.8331225  53.6242003  16.9855633  62.1154091
  54.1715283  18.1258008  62.6436178  53.9815801  17.3672755  62.6987722
  41.4923391   7.2810932  62.7822107  41.8722355   7.6995477  62.1182375
  40.9178755   7.8624388  63.0890951  41.4634715   7.4288791  62.7298848
  54.1801886  13.8538907  62.7737255  53.8216541  14.0253550  63.5501288
  53.6940597  14.3152112  62.2165254  54.0560583  13.9477878  62.8062524
  48.9690251   9.5338072  55.3137490  49.2582776  10.3102955  55.5881064
  49.0562050   9.0226804  56.0151989  49.0244507   9.5729991  55.4579987
  55.3406625  14.7442803  73.7204456  55.9786346  14.2502998  73.3866912
  54.6980717  14.6720203  73.1356683  55.3400852  14.6601811  73.5846811
  57.0663625   6.5931949  68.2870372  56.6391233   6.5058297  67.5318471
  56.4289678   6.7009724  68.8725216  56.9093232   6.5964609  68.2615813
  55.3960882  15.4362611  70.3609813  56.1853260  15.0851676  70.4811895
  55.5704480  16.2498999  70.0986447  55.5381163  15.5048468  70.3397681
  45.1354192   8.8471337  67.4137602  44.2942199   8.7475211  67.6216496
  45.3444200   9.6166817  67.7651922  45.0418885   8.9463380  67.4964917
  42.6129759   6.4690874  65.2422352  42.2186457   6.5433886  64.4672462
  42.0569876   6.8548820  65.7930714  42.4732571   6.5372648  65.2090012
  48.9470857   6.7752736  66.6635199  48.6433995   6.2208724  67.2645607
  48.2450278   6.9544946  66.1763233  48.7987067   6.7197518  66.6804905
  48.0036954   4.0853256  61.2279901  48.2796688   3.3672168  60.8157469
  48.6035623   4.6838176  61.0201007  48.1330219   4.0673626  61.1360662
  47.0089208  13.9902457  71.3707297  46.9009563  14.0004519  72.2369355
  47.2184990  14.8157237  71.1812251  47.0239319  14.1143531  71.4711389
  45.0263000  11.2415099  68.8329235  44.4350933  11.8824597  68.8032250
  45.7884024  11.6652716  68.8060534  45.0511261  11.3990937  68.8244382
  54.7852516  16.6924411  66.2661259  54.5872205  17.1815225  65.5717470
  54.1640227  16.8965652  66.8445392  54.6640081  16.7940949  66.2484482
  48.8460495   8.4609307  60.6071503  49.5902540   8.8483584  60.8454453
  48.9921191   7.6166733  60.7711991  48.9771080   8.3939780  60.6665473
  51.8338370   4.0334781  66.5065423  51.3598325   3.5076543  67.0170734
  52.2056506   3.4864254  65.9380284  51.8188259   3.8750777  66.4980570
  58.0975101   9.0937156  67.9172203  57.8573324   8.2543572  67.9214630
  58.5767108   9.1737323  68.6412977  58.1327285   8.9818556  68.0247006
  53.7621870   4.9271335  59.5691176  53.2344889   5.0100079  58.8796885
  54.2217578   5.6689207  59.5655821  53.7523721   5.0491998  59.4665872
  60.0980288   5.8738614  65.8701462  59.8590058   5.8334448  65.0322247
  60.2614189   6.7209766  65.9967183  60.0870592   5.9930699  65.7654944
  56.7026318  10.2588563  71.8006507  57.4260517   9.8061089  71.6217527
  56.4376281  10.5393229  71.0178835  56.7707592  10.2339531  71.6585223
  45.5713187   4.8548737  68.5359387  44.9466257   4.8667128  67.9285339
  45.2358781   5.3308912  69.1850627  45.4298678   4.9267254  68.5415955
  45.7554935   3.1973855  54.5932072  45.4067740   3.8493580  55.0563621
  45.2751381   3.1830968  53.8655943  45.6325179   3.2916909  54.5543163
  42.2838862  12.9149197  69.9763151  41.7538787  12.2241636  70.0258126
  42.5563955  12.9059382  69.1475859  42.2463584  12.8116328  69.8610567
  53.3158953  13.4974899  58.7000834  54.0393152  13.9633012  58.5565407
  52.8759544  13.5648509  57.9498431  53.3574645  13.5758736  58.5685615
  52.4845108  10.3572441  69.9501523  51.8702101   9.8130492  70.2450158
  53.0012393   9.8436678  69.4707339  52.4700770  10.2008850  69.9225751
  51.7241405  11.4276711  67.6845821  51.2969013  10.8026430  67.2511257
  51.7166349  11.1451633  68.5104828  51.6600546  11.2929492  67.7425649
  37.5634704   9.5876961  67.3331499  37.4578153   9.5423805  66.4683583
  36.8134924   9.9330741  67.6145784  37.4370307   9.6317869  67.2468829
  46.3328437   1.0316284  67.2794099  46.3726808   1.5325491  67.9928807
  45.5078101   1.1226678  67.0100023  46.2167963   1.1198100  67.3444638
  47.7542800   7.5476794  69.5767998  46.9234730   7.7150612  69.3703247
  47.6994317   7.1712745  70.3616884  47.6232215   7.5166525  69.6616527
  46.1278844   5.8232385  60.1058116  46.2681805   6.3204850  60.8086758
  46.6261377   5.1218680  60.2472330  46.2219925   5.7934364  60.2309695
  46.1579066   6.6899496  57.4350693  46.7924146   7.2859921  57.3700155
  46.2404677   6.3902954  58.2496563  46.2635617   6.7340405  57.5453780
  47.7358049   2.6213472  57.4096135  48.0573890   2.1416554  56.7555397
  47.9984993   3.4313118  57.2186947  47.8224075   2.6703370  57.2851627
  50.9655022  13.6432346  70.9294951  50.4580113  14.1968193  71.3735582
  50.6681668  13.7040636  70.1113726  50.8459907  13.7338657  70.8743408
  42.6632054   8.8867337  60.7040239  43.1724284   9.4831845  61.0851545
  43.1366327   8.6193311  60.0216659  42.8075430   8.9353153  60.6594762
  53.5762802  17.5595604  58.8598895  52.8592112  17.3856466  58.3946132
  54.2269540  17.3248176  58.3274381  53.5664653  17.4991396  58.7128113
  56.1610774   6.4360192  62.6040200  55.4901963   6.9789895  62.4753265
  56.8550524   6.9055048  62.3621895  56.1639641   6.5858464  62.5495727
  50.2097507  18.5756904  67.8351958  49.9863162  17.8175734  68.2035984
  49.7207351  18.6054926  67.1132398  50.1040956  18.4679129  67.7828699
  45.0222586   5.5223596  63.5713419  44.3034575   5.9387728  63.8386283
  45.3934948   6.0877835  63.0205058  44.9714518   5.6672877  63.5296226
  54.3222167   6.1551445  69.4615415  54.3020094   5.9734740  70.3150194
  54.3701368   7.0263463  69.4374999  54.3256808   6.2567983  69.5838710
  52.2668497  12.7438637  75.3863892  52.2264352  12.0988314  74.8009048
  53.0791815  12.6875254  75.6989304  52.3811650  12.6397603  75.3460841
  48.8575964  18.7957363  65.2889043  48.4436363  18.1331493  64.8992884
  49.5423338  18.9435221  64.7684737  48.8974336  18.7198021  65.1545540
  52.2241258  17.9547448  66.0412659  51.8257542  18.0649718  65.2733479
  51.6092478  18.1629514  66.6239219  52.0740148  18.0021016  66.0143959
  50.7969160   4.5621596  58.9086799  50.2034000   4.8838592  58.3571366
  50.8344438   3.7162691  58.7007905  50.7143549   4.4845924  58.7969570
  53.6726977   4.5201100  62.3388549  53.4440670   4.5433802  61.4966907
  53.9325053   3.6958567  62.4583560  53.6773165   4.4017180  62.2313747
  46.7271739   3.0577646  63.6342745  47.2029106   3.4194726  62.9992926
  46.2260339   3.7134114  63.9142888  46.7237098   3.2071835  63.5819486
  59.9583101  12.5299415  59.4255750  60.3416707  13.2790771  59.6553847
  59.1627214  12.7765234  59.1667739  59.8976883  12.6769108  59.4213323
  48.7698393   5.2018846  57.0016129  49.1497357   5.2198475  56.2167244
  48.0290989   5.6472835  56.8806976  48.7167230   5.2700621  56.8679697
  38.4600954   6.9340822  67.0050524  38.2822715   6.4817431  67.7305440
  38.1719976   7.7366983  67.1889002  38.3913907   6.9863380  67.1394027
  54.1224535   8.1898539  66.2427914  54.6178200   7.4721534  66.2031935
  53.3124311   7.8869337  66.1282401  54.0768428   8.0396186  66.2201640
  49.5683147  12.0396352  58.3924919  48.7594469  11.7163026  58.3458228
  50.0758056  11.3329575  58.3253167  49.5232813  11.8877669  58.3755213
  40.1973424   9.4668546  64.1172283  39.3318943   9.4554236  64.0055054
  40.2972240   9.2798768  64.9643422  40.0847591   9.4374607  64.2261228
  56.1876354  10.9402227  68.9305043  56.6131426  10.4176649  68.3775468
  55.8233274  11.5383064  68.4093666  56.1962957  10.9512454  68.7714053
  45.8230434  19.2366444  67.6902389  46.1376993  20.0502833  67.6980170
  46.2323847  18.8516663  68.3584548  45.9298532  19.2995147  67.7906480
  52.7754953  14.6536491  65.2606201  53.2466132  15.3676754  65.4296186
  53.1115132  14.0535241  65.7966070  52.8950069  14.6707955  65.3638576
  53.4128900  14.4454425  72.0233893  52.8649846  13.8212309  71.7553958
  53.8741929  14.6348697  71.3077973  53.3996109  14.3813475  71.8784324
  43.1643454  13.1839553  67.3380997  43.7688311  13.1435387  66.7094818
  42.9570767  14.0310705  67.3685053  43.2232351  13.3027555  67.2497114
  52.9787226  15.4505498  68.5543234  53.7985600  15.3068464  68.8159530
  52.6981304  16.0751697  69.0959672  53.0583969  15.5215850  68.6731174
  38.3994736  12.1674170  67.2079920  38.3019014  11.3570442  67.5169977
  39.1823606  12.1465964  66.8226188  38.5010873  12.0441260  67.1966783
  69.4500877  23.1070350  61.5186111  69.4194881  23.9614986  61.6904380
  70.0482225  22.8065642  62.0772254  69.5338034  23.1886846  61.6260913
  62.6500561  22.1946001  66.2739041  61.7938457  22.3554499  66.3248158
  62.6968215  21.3238064  66.2944102  62.5299673  22.0896802  66.2845107
  57.0341701  31.7308718  62.0376273  56.2824601  31.3524257  61.8092318
  57.4827713  31.7627152  61.2895083  56.9891368  31.6794326  61.8933775
  62.4866661  32.1534088  57.4661820  62.1518029  32.8311010  57.0306042
  62.9993531  31.7639399  56.8778691  62.5132242  32.1958666  57.3148611
  62.0270952  34.1048357  63.4072931  62.4110332  34.6735255  62.8677707
  61.9630093  33.3797867  62.9278747  62.0744379  34.0823820  63.2566794
  65.4952382  24.2538044  68.9170693  66.0408342  24.9323131  68.9764662
  65.4369259  24.1125505  68.0572274  65.5668297  24.3330046  68.7982753
  58.6126457  31.7427111  64.3039045  58.7136820  30.9327465  64.6136173
  58.0168202  31.6484057  63.6738724  58.5398996  31.6092139  64.2565284
  67.2717451  25.6822652  59.7904421  67.1556977  26.4330338  60.2196559
  68.0673338  25.4246605  60.0400508  67.3722040  25.7557498  59.8908512
  58.4527197  36.6604700  65.7053901  59.0964652  37.1017864  66.0950060
  58.7783452  35.8558126  65.6184160  58.5959025  36.6069894  65.7499379
  51.8091502  27.7647397  63.9291379  51.5741686  26.9315050  63.8223648
  51.9477142  28.0452063  63.1152580  51.7947164  27.6830901  63.7933734
  54.1081589  19.9333128  66.8275687  53.4886621  19.3425775  66.6585701
  54.0065453  20.5244563  66.1940010  54.0019264  19.9337210  66.7080676
  59.1547777  29.6716675  61.0773763  59.4763618  30.2121882  60.4735071
  59.8019873  29.1013446  61.2096053  59.2973832  29.6675850  61.0080798
  61.2049485  21.6732670  61.1608150  61.9029649  21.8520797  61.6529613
  61.5201817  21.1503009  60.5378539  61.3544822  21.6226442  61.1410160
  53.8350722  23.4785409  69.0719256  53.7109419  24.0647855  69.7069074
  54.4869006  22.9845605  69.3731531  53.9124371  23.4924214  69.2105185
  61.3937420  28.0603115  61.1487941  61.8331055  27.4520215  61.5942714
  61.2442083  27.6810488  60.3773406  61.4358886  27.9141586  61.1007109
  58.8609063  26.6547126  68.3506767  59.5058066  26.1619570  68.0317715
  59.1010840  26.7971913  69.1772845  58.9919648  26.6024569  68.4256300
  61.3995154  29.5002032  68.0013659  61.6818397  28.7053438  67.7800415
  62.1281315  29.9782620  68.0218720  61.5484718  29.4536629  67.9716674
  59.3776348  17.0425066  65.2429424  59.0479678  17.4936210  64.5733123
  58.7021350  16.9641230  65.7902431  59.2286784  17.0976201  65.2252648
  64.9946757  26.4130296  58.1018710  64.9098052  27.2691262  58.2468279
  65.4831140  26.1374620  58.7700870  65.0535654  26.4987617  58.2220792
  66.5852756  13.0310589  63.4879035  66.2706197  13.7214068  63.9199457
  66.0679698  12.9755371  62.7864536  66.4617226  13.1245478  63.4475984
  65.9265190  23.0315090  59.6016446  65.3976661  23.2474724  60.2613752
  66.4490210  23.7251228  59.5217415  65.9253643  23.1658227  59.6872045
  71.3813243  28.6061394  64.9749490  70.5510946  28.8172038  65.1382907
  71.3322495  27.7798449  64.6991774  71.2519978  28.5151001  64.9586855
  57.8164798  26.9278307  58.4023914  57.2322013  27.4328338  58.8089777
  57.4134893  26.7020694  57.6620505  57.6704101  26.9686555  58.3528939
  53.3708826  32.6433068  65.2047585  52.8876404  33.3683558  65.1807169
  54.1832144  32.9409198  65.3157743  53.4199574  32.7935422  65.2174864
  59.4422980  31.4365249  67.8097400  58.9249922  31.0772664  67.2058708
  60.1397372  30.9127423  67.8203466  59.4688561  31.3062937  67.7227658
  63.0986572  31.8860063  73.7713573  63.1869918  31.6986203  74.6191783
  63.5276285  31.2397492  73.3718419  63.1748675  31.7623070  73.8385324
  60.6657032  31.1691223  72.7531235  60.1027867  30.7563832  73.2770896
  61.4278056  31.0944128  73.1724378  60.6951481  31.0968623  72.8924235
  62.2742012  23.1743959  56.8792834  62.5138016  23.3821943  56.0668177
  62.5957853  22.3701468  56.9881779  62.3579170  23.0858060  56.7753387
  57.5832302  15.1037355  60.7252372  58.3378270  15.4715672  60.4869422
  57.4059837  15.4776909  61.4931552  57.6686781  15.2135542  60.8037261
  56.2253023  33.1589244  65.3567865  56.9273603  32.6441233  65.4140621
  56.1450507  33.4863395  66.1614740  56.3176784  33.1303470  65.4840657
  57.2731930  23.3964831  74.4848280  57.4452434  23.2870725  75.3333561
  57.8101288  24.0419236  74.2479472  57.3776934  23.4756832  74.5753377
  55.9389367  17.5107674  57.4230485  55.7564940  17.7279554  56.5971478
  56.8014980  17.6246686  57.4789099  56.0393956  17.5597572  57.3084972
  55.5503799  29.3495596  64.8653473  56.3892698  29.5818529  64.9127235
  55.5815568  28.4799907  64.7960508  55.6785516  29.2552542  64.8618118
  56.1756502  29.7696471  69.1666778  56.7154727  29.6267602  69.8370151
  55.4926448  30.1693222  69.5350805  56.1548656  29.8076142  69.3201200
  61.6189086  14.5134084  60.4579509  62.3475247  14.3350039  60.0117665
  61.7083979  15.3552164  60.6686687  61.7395748  14.6117963  60.4233027
  65.5997387  25.4487472  64.3611803  66.3554902  25.8818986  64.4000712
  65.7059711  24.7992241  64.9346439  65.7267557  25.4164955  64.4509828
  68.6377558  29.2760749  65.1114206  68.2012790  29.2797491  65.8673177
  68.3040473  29.9566248  64.6793783  68.5240178  29.3773205  65.1595038
  63.2106632  31.3169082  76.4357356  63.9947048  31.4299930  76.8013098
  63.0103226  30.4910219  76.6316042  63.2972657  31.2115801  76.5191742
  51.5793647  25.9896762  69.3201200  51.3132062  25.1735879  69.4792190
  51.5932211  26.0349917  68.4496716  51.5418369  25.8753667  69.2154682
  55.4851394  20.7881846  55.9352958  54.7709571  20.5020026  56.3475391
  55.9695363  21.1278472  56.5759346  55.4510757  20.7963496  56.0908593
  56.3292253  19.5275140  71.9668208  55.6364050  19.0572120  72.2128939
  56.9452581  19.3013445  72.5409915  56.3176783  19.4242272  72.0877360
  63.3677025  33.2279184  70.0823812  62.5692271  32.9878684  70.3397680
  63.8163036  33.2793577  70.8290859  63.3151636  33.2001575  70.2308736
  71.7721904  25.9941669  64.0033843  72.4338338  25.4332337  63.9029752
  71.1313316  25.4993700  64.3286534  71.7750772  25.8378078  64.0366183
  62.6598712  29.2911800  56.3114766  63.0749860  28.9596824  55.6199262
  61.8290641  29.0580702  56.1834903  62.5986721  29.2083056  56.1905614
  51.9887061  26.7755541  66.6012944  51.8062634  26.7502427  65.7485236
  52.7236730  27.2454479  66.6401853  52.0701125  26.8416903  66.4810863
  68.0586735  27.0107051  63.7445832  68.2942324  27.1552250  62.9172682
  68.2076298  27.7749459  64.1377345  68.1152538  27.1446106  63.6809436
  55.0532812  23.4940544  73.1095053  55.7772785  23.4793575  73.5959948
  55.1548949  24.2035899  72.6117021  55.1751021  23.5965247  73.1073840
  69.8877192  25.8508717  61.5815436  70.2185409  26.3836357  60.9755530
  70.4610280  25.9047605  62.2377387  70.0210871  25.9378286  61.5893217
  65.1009081  23.6973620  62.2639016  65.1955935  24.4362914  62.7178641
  64.4767924  23.2691095  62.6973580  65.0218111  23.7434940  62.3947163
  63.3561555  26.8759832  72.9129297  63.9300416  26.2387077  73.0677861
  63.2776358  26.8763915  72.0438954  63.4294789  26.7824944  72.8075708
  51.9557971  23.6549042  66.7512011  52.5331474  23.5185493  67.3904256
  51.2572033  23.1984826  67.0057595  51.9378992  23.5671308  66.8834301
  65.3532102  25.5422360  55.4975968  65.2712265  25.6124547  56.3630955
  65.9911822  26.1052104  55.3059708  65.4351939  25.6361331  55.5965917
  58.7125273  25.3083098  64.9650494  58.4544517  24.4754832  64.9381794
  58.7673756  25.5340711  64.1242994  58.6825051  25.2180869  64.8370631
  63.7926323  17.4111548  65.0654587  63.0882650  16.9220734  65.2238506
  63.8411298  17.4234023  64.1943031  63.6956375  17.3401196  64.9593927
  57.6859985  22.8620860  65.4515389  57.1109577  23.0213028  66.0879350
  57.3095662  22.2256269  64.9883839  57.5462798  22.7918673  65.4769947
  61.3533274  21.3344209  70.3107767  60.9647707  20.9098427  69.6559958
  60.6887972  21.5826359  70.8184794  61.1980202  21.3082930  70.2895635
  70.9956543  21.0919214  63.0855597  70.7393108  20.2799155  62.8953480
  71.8385857  21.0996781  62.8585785  71.0822568  20.9731211  63.0240414
  47.4316804  22.5060935  63.4659829  47.5177056  22.1292803  64.2473359
  48.0592602  22.1321380  62.9879788  47.5373355  22.3946417  63.5105307
  62.4572212  25.5642814  58.5084574  63.2712851  25.8557707  58.3967346
  62.3931353  24.9102676  57.9342867  62.5674951  25.5108009  58.4073412
  58.3280120  29.0364331  63.6356886  58.9654067  28.7976079  64.1808680
  58.7535192  29.2401490  62.9010047  58.4856287  29.0315342  63.6074044
  53.0192763  31.2752668  67.5191190  53.0596908  31.5467519  66.6910970
  53.5787287  31.7994576  67.9348978  53.1076109  31.3928423  67.4583078
  58.9682935  24.2566621  57.9731776  59.3528088  24.0374328  58.7248321
  58.7194556  25.0829567  58.1032852  58.9885008  24.3464767  58.1032852
  69.7018123  28.0313259  68.9842444  69.3963940  28.7641316  69.3455760
  68.9824339  27.6251188  68.7035230  69.5505465  28.0794992  68.9955581
  60.7101592  29.5136754  65.3150673  60.7840601  29.3511926  66.1692522
  61.5271099  29.7026944  65.0711154  60.8417951  29.5173496  65.4048698
  54.4707349  29.8594617  62.3445116  53.6445467  30.1056354  62.2179395
  54.5319340  29.7806698  63.2107174  54.3581516  29.8839566  62.4534060
  56.6883373  15.9263558  63.3040556  55.8205798  15.9986157  63.3698165
  56.9758577  16.7285637  63.4928531  56.6023121  16.0557705  63.3415323
  59.2506178  32.4771497  60.0464146  59.5404477  32.0860478  59.3223373
  59.9809659  32.6588202  60.4869421  59.4013062  32.4465311  60.0046953
  59.8400923  27.2789243  71.1317276  59.3412617  27.9905011  71.2102165
  60.6501148  27.5989910  71.0935439  59.8857030  27.4316092  71.1373845
  57.1912094  34.4538879  63.1124296  56.9712389  34.1636234  63.9050963
  56.9706616  33.7953835  62.5842208  57.1259688  34.3138588  63.1513204
  56.1029041  26.5412196  65.3779997  55.8142290  25.9149667  65.9125725
  56.9712389  26.4832483  65.4444678  56.1889293  26.4399740  65.4670952
  66.8906939  21.6846979  65.6961979  66.5471705  20.9637315  66.0469229
  66.9899981  21.4760831  64.8540337  66.8548982  21.5471183  65.6233659
  59.3580049  35.8268269  61.8954988  60.0104107  35.2944712  62.1246014
  58.6605658  35.4736922  62.2822862  59.3510767  35.6957792  61.9867156
  56.3061314  28.1807447  61.3022362  57.0607282  28.5620486  61.5157825
  55.7131927  28.6318591  61.7569059  56.3298028  28.3036274  61.4005241
  67.3519968  28.1472683  61.2385967  67.9178000  28.8065893  61.1544510
  66.7047871  28.4922382  61.7102369  67.3398724  28.2954625  61.2958724
  58.7667981  20.1370287  76.4279575  57.9567757  20.4428067  76.3169417
  59.2442668  20.8575870  76.5432159  58.7171460  20.2884889  76.4286646
  57.6259541  29.3516008  66.6762478  57.1040294  29.4916300  67.3614342
  58.0133561  28.5926673  66.8664595  57.6063242  29.2601532  66.8063554
  54.6150725  19.4021817  60.7457432  54.3275521  19.0323088  60.0089380
  55.3021193  19.8716672  60.4841137  54.6739622  19.4168786  60.5972508
  63.8226546  31.0911468  60.6623047  63.5813222  30.3579328  60.2550112
  64.0027879  31.6398325  60.0089380  63.8134170  31.0633859  60.5053269
  59.0525866  26.3820027  62.0743969  58.8568649  26.9894762  61.4804272
  59.2760212  25.6887971  61.5935643  59.0560508  26.3697553  61.9160050
  57.4504396  23.2674765  62.1924837  58.1727048  23.4315923  61.7328643
  56.9712389  23.9884430  62.0864177  57.4868127  23.3972995  62.1090451
  65.4097904  19.6038564  67.5721522  64.5709005  19.6299843  67.3359785
  65.4802271  20.2509300  68.1526869  65.2966298  19.7034690  67.6230639
  55.1012013  25.6732838  71.2978977  55.6133110  25.9517091  70.6487737
  54.8148356  26.4122132  71.6641790  55.1346876  25.8235191  71.2568855
  63.8567182  16.5023941  62.3049138  64.5593535  16.3031689  61.8269096
  63.5911371  15.7299883  62.6117981  63.9213815  16.3586907  62.2794580
  69.2855428  24.8106551  64.8582764  69.1989402  24.9661977  65.7117543
  68.8305908  25.4544626  64.4842169  69.2058685  24.9282306  64.9289871
  52.1878920  20.1803030  61.5942714  52.2895056  20.9829191  61.9223689
  52.9834806  19.9790365  61.2965794  52.3206825  20.2688928  61.5978069
  58.6195739  17.7659226  71.3580019  58.4278936  17.7814361  72.2079442
  59.4694335  17.9622901  71.3346673  58.7171461  17.7973578  71.4803313
  53.0042652  20.2950208  69.3363835  52.8628143  19.4434148  69.4608343
  53.2883215  20.3378868  68.5126041  53.0250498  20.1749958  69.2331459
  63.1581244  22.1317298  63.4808323  62.9115958  22.0513049  64.3145112
  63.4866367  21.3470766  63.2870851  63.1702488  22.0043563  63.5755846
  67.0529293  28.8400657  67.2695105  66.9143652  29.5381703  67.7743847
  66.2729291  28.6849314  66.9131286  66.9172520  28.9200824  67.2921379
  59.1178271  24.8674017  72.8931306  59.2621647  25.4475225  72.2574416
  59.4653920  25.2450313  73.5981161  59.1905733  25.0094721  72.9030301
  61.2898189  24.0664185  70.6756438  60.5421503  24.2595199  70.2704716
  61.4439714  23.2409404  70.4380559  61.2020616  23.9729296  70.5801844
  58.1906026  33.0576788  69.7592333  58.3395590  32.4979704  69.1065738
  58.9706028  33.1368790  70.1424852  58.3280120  32.9862354  69.7189282
  68.5482666  28.1978911  58.0311604  68.1689474  27.4116049  58.0240893
  67.8848911  28.7465768  57.8883248  68.3941140  28.1623735  58.0092401
  60.7159327  33.2291431  71.0376824  60.6402998  32.5600242  71.5927612
  60.6449186  33.9309219  71.5517490  60.6939934  33.2336339  71.1953672
  61.5299966  17.9614736  71.5651842  61.9872580  18.6938710  71.6924634
  61.6056294  17.5381201  72.3239098  61.6090935  18.0071974  71.6952918
  53.7732957  18.2080555  72.6541285  53.2375146  17.5960914  72.9702053
  53.8350722  18.7828691  73.3074952  53.7028590  18.2027483  72.7976712
  61.3729574  31.7492430  61.8700430  62.1379465  31.4802074  61.5483094
  61.2707664  31.2642440  62.5870493  61.4711069  31.6381995  61.9280258
  59.4082344  19.9516840  68.4093666  58.6178418  19.7708300  68.7311002
  59.8042966  19.1743792  68.3923960  59.3499220  19.8104301  68.4546214
  63.8948234  28.7804614  53.8500379  64.6621219  28.8404739  53.4406231
  63.4479543  28.2085055  53.3656698  63.9421662  28.7041190  53.7178090
  64.7926030  27.5859270  66.1353112  64.1171032  27.3544502  66.6366499
  64.8018406  26.9780453  65.5095217  64.6944534  27.4618195  66.1169264
  61.9220174  22.4277099  72.8917165  61.8579315  23.2887055  72.7637301
  62.0617362  22.1109092  72.0912716  61.9335644  22.5077265  72.7545378
  66.7942764  30.4424402  58.3663290  66.8762602  31.2491388  58.0424741
  67.2792507  30.4620361  59.0904063  66.8779922  30.5645065  58.4250188
  60.6039268  25.1209238  67.0333368  60.1801517  25.3213737  66.2972386
  60.4284123  24.2738086  67.1457667  60.5150148  25.0258020  66.9407058
  60.1050961  36.6359751  69.4954825  60.5946891  35.9370540  69.3130490
  59.5335193  36.3383621  70.0830882  60.0935491  36.4885975  69.5555866
  55.8921713  25.6161290  62.4661340  56.0486332  25.5508092  63.3217332
  56.2322306  26.3909842  62.2540020  55.9654948  25.7210488  62.5615934
  62.4300857  24.9919173  61.3354703  62.9716403  24.4889554  61.7993324
  62.7447416  24.9384368  60.5244189  62.5565254  24.9098594  61.2838515
  60.5987307  30.3836525  58.6194731  60.6680127  29.5251063  58.7587732
  61.3775762  30.6008405  58.2913756  60.7240157  30.2889389  58.5911889
  63.5790127  19.8855478  71.3877004  63.7932096  19.2466392  70.8340358
  62.9624026  20.3301301  70.9584866  63.5195456  19.8565621  71.2427435
  64.9894795  32.8074226  62.8331225  64.5974586  32.5040941  62.1154091
  65.1447867  33.6443316  62.6436178  64.9548384  32.8858063  62.6987722
  52.4655974  22.7996240  62.7822107  52.8454939  23.2180785  62.1182375
  51.8911339  23.3809696  63.0890951  52.4367299  22.9474099  62.7298848
  65.1534469  29.3724215  62.7737255  64.7949124  29.5438858  63.5501288
  64.6673180  29.8337420  62.2165254  65.0293166  29.4663186  62.8062524
  62.9704855  12.9955413  66.3764347  62.0998413  12.9694134  66.3297656
  63.2245197  12.8232605  65.5590192  62.8798415  12.9665557  66.2484483
  59.9422835  25.0523380  55.3137490  60.2315360  25.8288263  55.5881064
  60.0294634  24.5412112  56.0151989  59.9977091  25.0915298  55.4579987
  59.9953996  15.0061642  67.8337817  59.4792484  14.3141833  67.9589396
  59.4347925  15.6732419  67.7800416  59.8360509  15.0024899  67.8443883
  62.0646229  15.5454602  69.6630670  61.6777982  15.5703633  70.4444199
  61.5779167  14.9796280  69.2105186  61.9358738  15.4650353  69.7118573
  66.3139209  30.2628111  73.7204456  66.9518929  29.7688306  73.3866912
  65.6713300  30.1905511  73.1356683  66.3133435  30.1787119  73.5846811
  68.0396209  22.1117257  68.2870372  67.6123817  22.0243605  67.5318471
  67.4022262  22.2195032  68.8725216  67.8825816  22.1149916  68.2615813
  66.3693465  30.9547919  70.3609813  67.1585843  30.6036984  70.4811895
  66.5437063  31.7684307  70.0986447  66.5113747  31.0233776  70.3397681
  56.1086776  24.3656645  67.4137602  55.2674782  24.2660519  67.6216496
  56.3176784  25.1352125  67.7651922  56.0151468  24.4648688  67.4964917
  53.5862343  21.9876182  65.2422352  53.1919040  22.0619193  64.4672462
  53.0302460  22.3734128  65.7930714  53.4465155  22.0557956  65.2090012
  65.2227289  14.9657476  64.9226231  65.4276883  14.8979784  65.7683228
  64.8953713  15.7716297  64.8547409  65.2042537  15.0743416  65.0385886
  59.9203441  22.2938044  66.6635199  59.6166578  21.7394032  67.2645607
  59.2182861  22.4730254  66.1763233  59.7719650  22.2382826  66.6804905
  58.9769538  19.6038564  61.2279901  59.2529272  18.8857476  60.8157469
  59.5768207  20.2023484  61.0201007  59.1062802  19.5858934  61.1360662
  57.9821792  29.5087765  71.3707297  57.8742147  29.5189827  72.2369355
  58.1917573  30.3342545  71.1812251  57.9971903  29.6328839  71.4711389
  68.4760977  15.5189240  64.4028997  67.8635291  16.0059642  64.7882729
  68.5725152  14.8432731  64.9466648  68.3998875  15.4907549  64.5407855
  62.4780058  17.2752081  59.5026496  62.9323805  17.4462641  60.2274341
  62.9520104  16.6620192  59.1024272  62.6148378  17.2102966  59.5500258
  55.9995584  26.7600407  68.8329235  55.4083517  27.4009905  68.8032250
  56.7616607  27.1838024  68.8060534  56.0243844  26.9176245  68.8244382
  56.3956206  17.9202405  69.4997252  56.8557688  17.9941334  70.2372376
  56.4412313  18.7183659  69.1497074  56.4706762  18.0496552  69.5570009
  58.0439556  18.5869100  74.0669279  57.6525121  17.9402447  74.5025057
  58.2125419  19.1780535  74.6863535  58.0110466  18.5783367  74.2231985
  65.7585100  32.2109719  66.2661259  65.5604788  32.7000533  65.5717470
  65.1372811  32.4150960  66.8445392  65.6372664  32.3126257  66.2484482
  59.8193078  23.9794615  60.6071503  60.5635123  24.3668892  60.8454453
  59.9653774  23.1352041  60.7711991  59.9503663  23.9125088  60.6665473
  61.7372654  15.7744874  65.6403365  60.8908699  15.9467682  65.5144715
  61.7343786  14.9694218  65.9769193  61.6119804  15.6805903  65.6714492
  62.8070954  19.5520089  66.5065423  62.3330908  19.0261851  67.0170734
  63.1789090  19.0049562  65.9380284  62.7920843  19.3936085  66.4980570
  53.1843984  21.5491595  71.8748968  54.0469597  21.4487305  71.7886298
  52.8535767  20.9686305  71.3134541  53.2629181  21.4483222  71.7794374
  69.0707685  24.6122464  67.9172203  68.8305908  23.7728880  67.9214630
  69.5499692  24.6922631  68.6412977  69.1059868  24.5003864  68.0247006
  64.7354454  20.4456643  59.5691176  64.2077472  20.5285387  58.8796885
  65.1950162  21.1874515  59.5655821  64.7256304  20.5677306  59.4665872
  71.0712872  21.3923922  65.8701462  70.8322642  21.3519756  65.0322247
  71.2346773  22.2395074  65.9967183  71.0603175  21.5116007  65.7654944
  67.6758902  25.7773871  71.8006507  68.3993101  25.3246397  71.6217527
  67.4108864  26.0578537  71.0178835  67.7440175  25.7524839  71.6585223
  56.5445770  20.3734044  68.5359387  55.9198840  20.3852436  67.9285339
  56.2091365  20.8494220  69.1850627  56.4031262  20.4452561  68.5415955
  56.7287519  18.7159163  54.5932072  56.3800323  19.3678888  55.0563621
  56.2483965  18.7016276  53.8655943  56.6057763  18.8102216  54.5543163
  53.2571446  28.4334505  69.9763151  52.7271370  27.7426943  70.0258126
  53.5296539  28.4244690  69.1475859  53.2196168  28.3301636  69.8610567
  64.2891536  29.0160207  58.7000834  65.0125735  29.4818320  58.5565407
  63.8492127  29.0833817  57.9498431  64.3307228  29.0944044  58.5685615
  63.4577691  25.8757749  69.9501523  62.8434684  25.3315799  70.2450158
  63.9744976  25.3621986  69.4707339  63.4433354  25.7194158  69.9225751
  62.6973988  26.9462019  67.6845821  62.2701596  26.3211738  67.2511257
  62.6898933  26.6636941  68.5104828  62.6333130  26.8114800  67.7425649
  55.8136516  21.9827192  70.7534255  55.9730002  21.2270516  71.1585977
  55.6329409  22.5318132  71.4074993  55.8101875  21.9521006  70.9096961
  61.0259698  17.8230774  67.8988355  61.0502185  17.2890886  67.2101135
  61.2771172  17.3148083  68.5613946  61.0669617  17.6691678  67.8953000
  48.5367288  25.1062269  67.3331499  48.4310737  25.0609113  66.4683583
  47.7867508  25.4516049  67.6145784  48.4102891  25.1503177  67.2468829
  57.3061020  16.5501592  67.2794099  57.3459392  17.0510799  67.9928807
  56.4810685  16.6411986  67.0100023  57.1900546  16.6383408  67.3444638
  59.4890633  26.1162332  75.3814394  58.6386264  26.2534046  75.5172039
  59.6518761  25.3826110  75.8262096  59.3874497  26.0276433  75.4669993
  58.7275384  23.0662102  69.5767998  57.8967313  23.2335920  69.3703247
  58.6726901  22.6898053  70.3616884  58.5964799  23.0351833  69.6616527
  57.1011428  21.3417693  60.1058116  57.2414389  21.8390158  60.8086758
  57.5993960  20.6403988  60.2472330  57.1952508  21.3119672  60.2309695
  57.1311650  22.2084804  57.4350693  57.7656729  22.8045229  57.3700155
  57.2137261  21.9088262  58.2496563  57.2368201  22.2525713  57.5453780
  58.7090633  18.1398780  57.4096135  59.0306474  17.6601862  56.7555397
  58.9717577  18.9498426  57.2186947  58.7956658  18.1888678  57.2851627
  61.9387606  29.1617654  70.9294951  61.4312697  29.7153501  71.3735582
  61.6414252  29.2225944  70.1113726  61.8192491  29.2523965  70.8743408
  64.1049788  17.5270974  69.7719614  64.5304859  17.0743500  69.1603141
  63.4906781  16.9731044  70.0484402  64.0778433  17.3784950  69.7224639
  53.6364638  24.4052645  60.7040239  54.1456867  25.0017153  61.0851545
  54.1098910  24.1378619  60.0216659  53.7808014  24.4538461  60.6594762
  64.5495386  33.0780912  58.8598895  63.8324696  32.9041774  58.3946132
  65.2002123  32.8433484  58.3274381  64.5397236  33.0176704  58.7128113
  62.5444011  13.9986074  63.1810191  61.9012329  13.8483720  63.7495330
  62.2043418  13.7528419  62.4159296  62.3989088  13.9398196  63.1513206
  67.1343357  21.9545500  62.6040200  66.4634547  22.4975203  62.4753265
  67.8283107  22.4240356  62.3621895  67.1372225  22.1043772  62.5495727
  61.1830091  34.0942212  67.8351958  60.9595745  33.3361042  68.2035984
  60.6939934  34.1240234  67.1132398  61.0773540  33.9864437  67.7828699
  67.2971485  18.4101384  65.5130573  67.6499095  17.9831107  66.1876372
  66.4386286  18.3252228  65.6431649  67.2220929  18.3346125  65.6325583
  55.9955170  21.0408904  63.5713419  55.2767159  21.4573036  63.8386283
  56.3667532  21.6063142  63.0205058  55.9447101  21.1858185  63.5296226
  65.2954750  21.6736753  69.4615415  65.2752678  21.4920048  70.3150194
  65.3433951  22.5448771  69.4374999  65.2989391  21.7753291  69.5838710
  63.2401080  28.2623945  75.3863892  63.1996935  27.6173622  74.8009048
  64.0524398  28.2060562  75.6989304  63.3544234  28.1582911  75.3460841
  59.8308548  34.3142670  65.2889043  59.4168946  33.6516801  64.8992884
  60.5155922  34.4620529  64.7684737  59.8706920  34.2383329  65.1545540
  63.1973842  33.4732756  66.0412659  62.7990125  33.5835026  65.2733479
  62.5825062  33.6814822  66.6239219  63.0472731  33.5206324  66.0143959
  61.7701744  20.0806904  58.9086799  61.1766583  20.4023900  58.3571366
  61.8077022  19.2347999  58.7007905  61.6876133  20.0031232  58.7969570
  64.6459561  20.0386408  62.3388549  64.4173254  20.0619110  61.4966907
  64.9057637  19.2143875  62.4583560  64.6505749  19.9202488  62.2313747
  58.9278789  21.8920881  71.9413649  58.4157692  21.2842064  72.2998681
  58.7558285  22.6077474  72.4087625  58.8268426  21.9084180  72.0629873
  53.7744504  20.3358456  74.5916011  53.6047094  20.9959831  74.0464218
  53.3310454  20.5465018  75.3128500  53.6843837  20.4644439  74.6177641
  57.7004323  18.5762954  63.6342745  58.1761689  18.9380034  62.9992926
  57.1992923  19.2319422  63.9142888  57.6969682  18.7257143  63.5819486
  70.9315685  28.0484722  59.4255750  71.3149290  28.7976079  59.6553847
  70.1359798  28.2950542  59.1667739  70.8709467  28.1954416  59.4213323
  50.6746568  23.2405322  69.8504501  50.1273288  22.5705968  69.9685369
  51.4638946  22.8735170  69.9147968  50.7098752  23.0870308  69.8773202
  60.5230977  22.9012779  75.3467912  61.2742304  23.2164456  75.6607466
  60.7153553  22.6991950  74.5201834  60.6622391  22.9180161  75.2711308
  59.7430976  20.7204154  57.0016129  60.1229941  20.7383783  56.2167244
  59.0023572  21.1658143  56.8806976  59.6899814  20.7885929  56.8679697
  67.3716267  19.0286345  62.5891707  67.3710493  18.8735002  63.4475984
  67.1672447  19.8749332  62.5333093  67.3416045  19.1306966  62.7079647
  49.4333538  22.4526130  67.0050524  49.2555299  22.0002739  67.7305440
  49.1452560  23.2552291  67.1889002  49.3646491  22.5048688  67.1394027
  65.0957119  23.7083847  66.2427914  65.5910784  22.9906842  66.2031935
  64.2856894  23.4054645  66.1282401  65.0501012  23.5581493  66.2201640
  60.5415730  27.5581660  58.3924919  59.7327053  27.2348334  58.3458228
  61.0490639  26.8514882  58.3253167  60.4965397  27.4062977  58.3755213
  51.1706008  24.9853854  64.1172283  50.3051527  24.9739544  64.0055054
  51.2704823  24.7984076  64.9643422  51.0580174  24.9559915  64.2261228
  67.1608938  26.4587535  68.9305043  67.5864009  25.9361956  68.3775468
  66.7965857  27.0568372  68.4093666  67.1695540  26.4697762  68.7714053
  56.7963017  34.7551752  67.6902389  57.1109576  35.5688141  67.6980170
  57.2056431  34.3701971  68.3584548  56.9031115  34.8180455  67.7906480
  63.7487537  30.1721799  65.2606201  64.2198715  30.8862062  65.4296186
  64.0847716  29.5720549  65.7966070  63.8682652  30.1893263  65.3638576
  64.3861483  29.9639733  72.0233893  63.8382429  29.3397617  71.7553958
  64.8474512  30.1534005  71.3077973  64.3728693  29.8998783  71.8784324
  59.7350147  16.9465682  59.6843760  60.5565841  17.1163995  59.4425455
  59.2719798  17.1012943  58.9610058  59.7881309  16.9947415  59.5415405
  58.3245479  14.9408445  70.4642189  58.8689892  14.5999571  71.0546531
  58.3782415  15.7993906  70.6063474  58.4134598  15.0163704  70.5724062
  54.1376038  28.7024861  67.3380997  54.7420895  28.6620695  66.7094818
  53.9303350  29.5496013  67.3685053  54.1964935  28.8212863  67.2497114
  63.9519810  30.9690806  68.5543234  64.7718184  30.8253772  68.8159530
  63.6713887  31.5937005  69.0959672  64.0316553  31.0401158  68.6731174
  49.3727320  27.6859478  67.2079920  49.2751598  26.8755750  67.5169977
  50.1556190  27.6651271  66.8226188  49.4743456  27.5626568  67.1966783
  73.6233145  37.7131308  66.2739041  72.7671040  37.8739807  66.3248158
  73.6700799  36.8423372  66.2944102  73.5032256  37.6082110  66.2845107
  68.0074285  47.2494026  62.0376273  67.2557184  46.8709565  61.8092318
  68.4560296  47.2812460  61.2895083  67.9623951  47.1979633  61.8933775
  73.4599245  47.6719396  57.4661820  73.1250613  48.3496317  57.0306042
  73.9726115  47.2824707  56.8778691  73.4864826  47.7143974  57.3148611
  73.0003536  49.6233665  63.4072931  73.3842915  50.1920563  62.8677707
  72.9362677  48.8983175  62.9278747  73.0476963  49.6009128  63.2566794
  76.4684966  39.7723352  68.9170693  77.0140926  40.4508439  68.9764662
  76.4101842  39.6310813  68.0572274  76.5400880  39.8515354  68.7982753
  69.5859041  47.2612419  64.3039045  69.6869404  46.4512772  64.6136173
  68.9900786  47.1669365  63.6738724  69.5131579  47.1277447  64.2565284
  69.4259780  52.1790008  65.7053901  70.0697236  52.6203172  66.0950060
  69.7516036  51.3743434  65.6184160  69.5691609  52.1255202  65.7499379
  62.7824085  43.2832705  63.9291379  62.5474270  42.4500357  63.8223648
  62.9209726  43.5637371  63.1152580  62.7679748  43.2016208  63.7933734
  65.0814173  35.4518436  66.8275687  64.4619204  34.8611083  66.6585701
  64.9798036  36.0429871  66.1940010  64.9751848  35.4522518  66.7080676
  70.1280360  45.1901983  61.0773763  70.4496201  45.7307190  60.4735071
  70.7752457  44.6198754  61.2096053  70.2706415  45.1861158  61.0080798
  72.1782068  37.1917977  61.1608150  72.8762233  37.3706105  61.6529613
  72.4934401  36.6688317  60.5378539  72.3277405  37.1411750  61.1410160
  64.8083306  38.9970717  69.0719256  64.6842002  39.5833163  69.7069074
  65.4601590  38.5030913  69.3731531  64.8856955  39.0109522  69.2105185
  72.3670004  43.5788422  61.1487941  72.8063639  42.9705523  61.5942714
  72.2174666  43.1995796  60.3773406  72.4091469  43.4326894  61.1007109
  69.8341647  42.1732434  68.3506767  70.4790649  41.6804877  68.0317715
  70.0743424  42.3157221  69.1772845  69.9652232  42.1209877  68.4256300
  72.3727738  45.0187340  68.0013659  72.6550981  44.2238746  67.7800415
  73.1013898  45.4967928  68.0218720  72.5217302  44.9721937  67.9716674
  70.3508932  32.5610374  65.2429424  70.0212262  33.0121518  64.5733123
  69.6753934  32.4826537  65.7902431  70.2019368  32.6161509  65.2252648
  75.9679340  41.9315604  58.1018710  75.8830635  42.7876570  58.2468279
  76.4563723  41.6559928  58.7700870  76.0268237  42.0172925  58.2220792
  77.5585340  28.5495897  63.4879035  77.2438781  29.2399376  63.9199457
  77.0412281  28.4940679  62.7864536  77.4349810  28.6430786  63.4475984
  76.8997773  38.5500398  59.6016446  76.3709245  38.7660031  60.2613752
  77.4222793  39.2436536  59.5217415  76.8986226  38.6843535  59.6872045
  68.7897381  42.4463615  58.4023914  68.2054596  42.9513646  58.8089777
  68.3867476  42.2206002  57.6620505  68.6436685  42.4871863  58.3528939
  64.3441410  48.1618376  65.2047585  63.8608988  48.8868865  65.1807169
  65.1564728  48.4594506  65.3157743  64.3932157  48.3120730  65.2174864
  70.4155564  46.9550557  67.8097400  69.8982505  46.5957972  67.2058708
  71.1129955  46.4312731  67.8203466  70.4421145  46.8248245  67.7227658
  73.2474596  38.6929267  56.8792834  73.4870599  38.9007251  56.0668177
  73.5690437  37.8886775  56.9881779  73.3311753  38.6043368  56.7753387
  68.5564886  30.6222663  60.7252372  69.3110854  30.9900980  60.4869422
  68.3792420  30.9962217  61.4931552  68.6419364  30.7320850  60.8037261
  67.1985607  48.6774552  65.3567865  67.9006186  48.1626541  65.4140621
  67.1183090  49.0048703  66.1614740  67.2909367  48.6488778  65.4840657
  68.2464514  38.9150139  74.4848280  68.4185017  38.8056033  75.3333561
  68.7833871  39.5604544  74.2479472  68.3509518  38.9942140  74.5753377
  66.9121950  33.0292982  57.4230485  66.7297524  33.2464862  56.5971478
  67.7747563  33.1431994  57.4789099  67.0126540  33.0782879  57.3084972
  66.5236382  44.8680904  64.8653473  67.3625282  45.1003837  64.9127235
  66.5548152  43.9985215  64.7960508  66.6518100  44.7737850  64.8618118
  67.1489085  45.2881779  69.1666778  67.6887310  45.1452910  69.8370151
  66.4659032  45.6878530  69.5350805  67.1281239  45.3261450  69.3201200
  72.5921670  30.0319392  60.4579509  73.3207830  29.8535347  60.0117665
  72.6816563  30.8737472  60.6686687  72.7128332  30.1303271  60.4233027
  76.5729970  40.9672780  64.3611803  77.3287485  41.4004294  64.4000712
  76.6792295  40.3177549  64.9346439  76.7000141  40.9350263  64.4509828
  62.5526231  41.5082070  69.3201200  62.2864646  40.6921186  69.4792190
  62.5664795  41.5535225  68.4496716  62.5150953  41.3938975  69.2154682
  66.4583978  36.3067154  55.9352958  65.7442155  36.0205334  56.3475391
  66.9427946  36.6463780  56.5759346  66.4243341  36.3148804  56.0908593
  67.3024837  35.0460448  71.9668208  66.6096634  34.5757428  72.2128939
  67.9185164  34.8198753  72.5409915  67.2909367  34.9427580  72.0877360
  73.6331295  44.8097108  56.3114766  74.0482444  44.4782132  55.6199262
  72.8023225  44.5766010  56.1834903  73.5719304  44.7268364  56.1905614
  62.9619644  42.2940849  66.6012944  62.7795217  42.2687735  65.7485236
  63.6969313  42.7639787  66.6401853  63.0433708  42.3602211  66.4810863
  66.0265396  39.0125852  73.1095053  66.7505368  38.9978883  73.5959948
  66.1281532  39.7221207  72.6117021  66.1483605  39.1150555  73.1073840
  76.0741664  39.2158928  62.2639016  76.1688519  39.9548222  62.7178641
  75.4500508  38.7876403  62.6973580  75.9950694  39.2620248  62.3947163
  62.9290555  39.1734350  66.7512011  63.5064057  39.0370801  67.3904256
  62.2304616  38.7170134  67.0057595  62.9111576  39.0856616  66.8834301
  76.3264686  41.0607668  55.4975968  76.2444848  41.1309855  56.3630955
  76.9644406  41.6237411  55.3059708  76.4084523  41.1546639  55.5965917
  69.6857857  40.8268405  64.9650494  69.4277101  39.9940140  64.9381794
  69.7406340  41.0526018  64.1242994  69.6557635  40.7366177  64.8370631
  74.7658907  32.9296856  65.0654587  74.0615234  32.4406042  65.2238506
  74.8143881  32.9419331  64.1943031  74.6688958  32.8586504  64.9593927
  68.6592569  38.3806168  65.4515389  68.0842160  38.5398336  66.0879350
  68.2828245  37.7441577  64.9883839  68.5195381  38.3103981  65.4769947
  72.3265858  36.8529517  70.3107767  71.9380290  36.4283735  69.6559958
  71.6620556  37.1011667  70.8184794  72.1712785  36.8268238  70.2895635
  58.4049388  38.0246243  63.4659829  58.4909640  37.6478111  64.2473359
  59.0325185  37.6506688  62.9879788  58.5105939  37.9131725  63.5105307
  73.4304796  41.0828122  58.5084574  74.2445435  41.3743015  58.3967346
  73.3663937  40.4287984  57.9342867  73.5407535  41.0293317  58.4073412
  69.3012704  44.5549639  63.6356886  69.9386651  44.3161387  64.1808680
  69.7267776  44.7586798  62.9010047  69.4588870  44.5500649  63.6074044
  63.9925346  46.7937976  67.5191190  64.0329492  47.0652827  66.6910970
  64.5519870  47.3179884  67.9348978  64.0808692  46.9113731  67.4583078
  69.9415519  39.7751929  57.9731776  70.3260672  39.5559636  58.7248321
  69.6927139  40.6014874  58.1032852  69.9617592  39.8650075  58.1032852
  71.6834176  45.0322062  65.3150673  71.7573184  44.8697234  66.1692522
  72.5003682  45.2212251  65.0711154  71.8150535  45.0358804  65.4048698
  65.4439933  45.3779925  62.3445116  64.6178050  45.6241662  62.2179395
  65.5051924  45.2992006  63.2107174  65.3314100  45.4024874  62.4534060
  67.6615956  31.4448866  63.3040556  66.7938382  31.5171465  63.3698165
  67.9491161  32.2470945  63.4928531  67.5755705  31.5743013  63.3415323
  70.2238762  47.9956805  60.0464146  70.5137060  47.6045786  59.3223373
  70.9542243  48.1773510  60.4869421  70.3745646  47.9650619  60.0046953
  70.8133507  42.7974551  71.1317276  70.3145201  43.5090319  71.2102165
  71.6233731  43.1175217  71.0935439  70.8589614  42.9501399  71.1373845
  68.1644677  49.9724187  63.1124296  67.9444973  49.6821542  63.9050963
  67.9439199  49.3139142  62.5842208  68.0992271  49.8323896  63.1513204
  67.0761624  42.0597504  65.3779997  66.7874873  41.4334975  65.9125725
  67.9444973  42.0017791  65.4444678  67.1621876  41.9585048  65.4670952
  77.8639522  37.2032287  65.6961979  77.5204288  36.4822622  66.0469229
  77.9632565  36.9946138  64.8540337  77.8281565  37.0656491  65.6233659
  70.3312633  51.3453577  61.8954988  70.9836691  50.8130020  62.1246014
  69.6338242  50.9922230  62.2822862  70.3243351  51.2143100  61.9867156
  67.2793898  43.6992755  61.3022362  68.0339866  44.0805794  61.5157825
  66.6864511  44.1503899  61.7569059  67.3030611  43.8221582  61.4005241
  69.7400565  35.6555595  76.4279575  68.9300341  35.9613375  76.3169417
  70.2175252  36.3761178  76.5432159  69.6904044  35.8070196  76.4286646
  68.5992124  44.8701316  66.6762478  68.0772878  45.0101608  67.3614342
  68.9866145  44.1111981  66.8664595  68.5795825  44.7786840  66.8063554
  65.5883308  34.9207125  60.7457432  65.3008104  34.5508395  60.0089380
  66.2753777  35.3901980  60.4841137  65.6472206  34.9354094  60.5972508
  74.7959129  46.6096776  60.6623047  74.5545805  45.8764636  60.2550112
  74.9760462  47.1583633  60.0089380  74.7866753  46.5819167  60.5053269
  70.0258450  41.9005335  62.0743969  69.8301233  42.5080070  61.4804272
  70.2492796  41.2073279  61.5935643  70.0293091  41.8882861  61.9160050
  68.4236980  38.7860073  62.1924837  69.1459632  38.9501231  61.7328643
  67.9444973  39.5069738  62.0864177  68.4600711  38.9158303  62.1090451
  76.3830488  35.1223872  67.5721522  75.5441588  35.1485151  67.3359785
  76.4534855  35.7694607  68.1526869  76.2698881  35.2219998  67.6230639
  66.0744597  41.1918146  71.2978977  66.5865694  41.4702399  70.6487737
  65.7880939  41.9307440  71.6641790  66.1079460  41.3420499  71.2568855
  74.8299766  32.0209249  62.3049138  75.5326119  31.8216997  61.8269096
  74.5643955  31.2485191  62.6117981  74.8946398  31.8772215  62.2794580
  63.1611503  35.6988337  61.5942714  63.2627640  36.5014499  61.9223689
  63.9567390  35.4975673  61.2965794  63.2939409  35.7874236  61.5978069
  69.5928322  33.2844534  71.3580019  69.4011519  33.2999669  72.2079442
  70.4426918  33.4808209  71.3346673  69.6904044  33.3158885  71.4803313
  63.9775235  35.8135516  69.3363835  63.8360727  34.9619456  69.4608343
  64.2615799  35.8564176  68.5126041  63.9983081  35.6935266  69.2331459
  74.1313828  37.6502606  63.4808323  73.8848542  37.5698357  64.3145112
  74.4598951  36.8656074  63.2870851  74.1435071  37.5228871  63.5755846
  78.0261876  44.3585965  67.2695105  77.8876236  45.0567011  67.7743847
  77.2461874  44.2034622  66.9131286  77.8905103  44.4386132  67.2921379
  70.0910855  40.3859324  72.8931306  70.2354231  40.9660533  72.2574416
  70.4386503  40.7635621  73.5981161  70.1638316  40.5280029  72.9030301
  72.2630772  39.5849493  70.6756438  71.5154086  39.7780507  70.2704716
  72.4172297  38.7594712  70.4380559  72.1753200  39.4914604  70.5801844
  72.5032549  33.4800044  71.5651842  72.9605163  34.2124018  71.6924634
  72.5788878  33.0566509  72.3239098  72.5823519  33.5257282  71.6952918
  64.7465540  33.7265863  72.6541285  64.2107730  33.1146221  72.9702053
  64.8083305  34.3013999  73.3074952  64.6761173  33.7212791  72.7976712
  72.3462157  47.2677738  61.8700430  73.1112048  46.9987382  61.5483094
  72.2440247  46.7827748  62.5870493  72.4443653  47.1567303  61.9280258
  70.3814927  35.4702148  68.4093666  69.5911002  35.2893608  68.7311002
  70.7775550  34.6929100  68.3923960  70.3231803  35.3289608  68.4546214
  74.8680818  44.2989922  53.8500379  75.6353803  44.3590047  53.4406231
  74.4212127  43.7270363  53.3656698  74.9154245  44.2226498  53.7178090
  75.7658613  43.1044578  66.1353112  75.0903615  42.8729810  66.6366499
  75.7750990  42.4965761  65.5095217  75.6677118  42.9803503  66.1169264
  72.8952757  37.9462407  72.8917165  72.8311899  38.8072363  72.7637301
  73.0349945  37.6294400  72.0912716  72.9068227  38.0262573  72.7545378
  77.7675348  45.9609710  58.3663290  77.8495185  46.7676696  58.0424741
  78.2525090  45.9805669  59.0904063  77.8512506  46.0830372  58.4250188
  71.5771851  40.6394546  67.0333368  71.1534100  40.8399045  66.2972386
  71.4016706  39.7923394  67.1457667  71.4882732  40.5443327  66.9407058
  66.8654296  41.1346597  62.4661340  67.0218915  41.0693400  63.3217332
  67.2054889  41.9095150  62.2540020  66.9387531  41.2395796  62.5615934
  73.4033441  40.5104481  61.3354703  73.9448986  40.0074862  61.7993324
  73.7180000  40.4569676  60.5244189  73.5297838  40.4283902  61.2838515
  71.5719891  45.9021833  58.6194731  71.6412711  45.0436371  58.7587732
  72.3508346  46.1193713  58.2913756  71.6972741  45.8074696  58.5911889
  74.5522710  35.4040785  71.3877004  74.7664680  34.7651700  70.8340358
  73.9356609  35.8486609  70.9584866  74.4928040  35.3750929  71.2427435
  75.9627378  48.3259534  62.8331225  75.5707170  48.0226249  62.1154091
  76.1180450  49.1628624  62.6436178  75.9280968  48.4043371  62.6987722
  63.4388558  38.3181548  62.7822107  63.8187523  38.7366093  62.1182375
  62.8643923  38.8995004  63.0890951  63.4099883  38.4659407  62.7298848
  76.1267053  44.8909523  62.7737255  75.7681708  45.0624166  63.5501288
  75.6405764  45.3522728  62.2165254  76.0025750  44.9848494  62.8062524
  73.9437439  28.5140721  66.3764347  73.0730997  28.4879442  66.3297656
  74.1977780  28.3417913  65.5590192  73.8530999  28.4850865  66.2484483
  70.9155418  40.5708688  55.3137490  71.2047943  41.3473571  55.5881064
  71.0027217  40.0597420  56.0151989  70.9709675  40.6100606  55.4579987
  70.9686579  30.5246950  67.8337817  70.4525068  29.8327141  67.9589396
  70.4080508  31.1917727  67.7800416  70.8093093  30.5210207  67.8443883
  73.0378813  31.0639910  69.6630670  72.6510566  31.0888941  70.4444199
  72.5511750  30.4981588  69.2105186  72.9091322  30.9835660  69.7118573
  67.0819359  39.8841953  67.4137602  66.2407366  39.7845827  67.6216496
  67.2909367  40.6537433  67.7651922  66.9884052  39.9833996  67.4964917
  64.5594926  37.5061490  65.2422352  64.1651624  37.5804501  64.4672462
  64.0035043  37.8919436  65.7930714  64.4197739  37.5743264  65.2090012
  76.1959873  30.4842784  64.9226231  76.4009466  30.4165091  65.7683228
  75.8686297  31.2901605  64.8547409  76.1775121  30.5928724  65.0385886
  70.8936024  37.8123352  66.6635199  70.5899162  37.2579340  67.2645607
  70.1915445  37.9915562  66.1763233  70.7452234  37.7568134  66.6804905
  69.9502121  35.1223872  61.2279901  70.2261856  34.4042784  60.8157469
  70.5500791  35.7208792  61.0201007  70.0795386  35.1044242  61.1360662
  68.9554375  45.0273073  71.3707297  68.8474730  45.0375135  72.2369355
  69.1650157  45.8527853  71.1812251  68.9704486  45.1514147  71.4711389
  73.4512642  32.7937389  59.5026496  73.9056388  32.9647949  60.2274341
  73.9252688  32.1805500  59.1024272  73.5880962  32.7288274  59.5500258
  66.9728167  42.2785715  68.8329235  66.3816100  42.9195213  68.8032250
  67.7349191  42.7023332  68.8060534  66.9976428  42.4361553  68.8244382
  67.3688790  33.4387713  69.4997252  67.8290272  33.5126642  70.2372376
  67.4144897  34.2368967  69.1497074  67.4439345  33.5681860  69.5570009
  69.0172140  34.1054408  74.0669279  68.6257705  33.4587755  74.5025057
  69.1858002  34.6965843  74.6863535  68.9843050  34.0968675  74.2231985
  76.7317683  47.7295027  66.2661259  76.5337372  48.2185841  65.5717470
  76.1105394  47.9336268  66.8445392  76.6105248  47.8311565  66.2484482
  70.7925662  39.4979923  60.6071503  71.5367707  39.8854200  60.8454453
  70.9386358  38.6537349  60.7711991  70.9236247  39.4310396  60.6665473
  72.7105237  31.2930182  65.6403365  71.8641282  31.4652990  65.5144715
  72.7076370  30.4879526  65.9769193  72.5852387  31.1991211  65.6714492
  73.7803538  35.0705397  66.5065423  73.3063492  34.5447159  67.0170734
  74.1521673  34.5234870  65.9380284  73.7653427  34.9121393  66.4980570
  64.1576568  37.0676903  71.8748968  65.0202181  36.9672613  71.7886298
  63.8268351  36.4871613  71.3134541  64.2361764  36.9668530  71.7794374
  75.7087037  35.9641951  59.5691176  75.1810056  36.0470695  58.8796885
  76.1682745  36.7059823  59.5655821  75.6988888  36.0862614  59.4665872
  67.5178354  35.8919352  68.5359387  66.8931424  35.9037744  67.9285339
  67.1823949  36.3679527  69.1850627  67.3763846  35.9637869  68.5415955
  67.7020102  34.2344471  54.5932072  67.3532907  34.8864196  55.0563621
  67.2216548  34.2201584  53.8655943  67.5790346  34.3287524  54.5543163
  64.2304029  43.9519812  69.9763151  63.7003954  43.2612251  70.0258126
  64.5029123  43.9429998  69.1475859  64.1928752  43.8486944  69.8610567
  75.2624120  44.5345515  58.7000834  75.9858319  45.0003628  58.5565407
  74.8224711  44.6019124  57.9498431  75.3039812  44.6129352  58.5685615
  74.4310275  41.3943057  69.9501523  73.8167268  40.8501107  70.2450158
  74.9477560  40.8807294  69.4707339  74.4165937  41.2379466  69.9225751
  73.6706572  42.4647327  67.6845821  73.2434180  41.8397046  67.2511257
  73.6631516  42.1822249  68.5104828  73.6065713  42.3300108  67.7425649
  66.7869099  37.5012500  70.7534255  66.9462586  36.7455824  71.1585977
  66.6061993  38.0503440  71.4074993  66.7834458  37.4706314  70.9096961
  71.9992282  33.3416082  67.8988355  72.0234769  32.8076194  67.2101135
  72.2503755  32.8333390  68.5613946  72.0402200  33.1876986  67.8953000
  59.5099872  40.6247577  67.3331499  59.4043321  40.5794421  66.4683583
  58.7600092  40.9701357  67.6145784  59.3835474  40.6688485  67.2468829
  68.2793604  32.0686900  67.2794099  68.3191976  32.5696106  67.9928807
  67.4543269  32.1597294  67.0100023  68.1633130  32.1568716  67.3444638
  69.7007967  38.5847410  69.5767998  68.8699897  38.7521228  69.3703247
  69.6459484  38.2083360  70.3616884  69.5697382  38.5537141  69.6616527
  68.0744011  36.8603001  60.1058116  68.2146972  37.3575465  60.8086758
  68.5726544  36.1589296  60.2472330  68.1685092  36.8304980  60.2309695
  68.1044234  37.7270112  57.4350693  68.7389313  38.3230537  57.3700155
  68.1869844  37.4273570  58.2496563  68.2100785  37.7711020  57.5453780
  69.6823216  33.6584088  57.4096135  70.0039057  33.1787170  56.7555397
  69.9450160  34.4683734  57.2186947  69.7689242  33.7073986  57.2851627
  75.0782371  33.0456282  69.7719614  75.5037443  32.5928808  69.1603141
  74.4639364  32.4916352  70.0484402  75.0511017  32.8970258  69.7224639
  64.6097221  39.9237953  60.7040239  65.1189451  40.5202461  61.0851545
  65.0831494  39.6563927  60.0216659  64.7540597  39.9723768  60.6594762
  75.5227969  48.5966220  58.8598895  74.8057279  48.4227082  58.3946132
  76.1734707  48.3618792  58.3274381  75.5129820  48.5362012  58.7128113
  73.5176594  29.5171381  63.1810191  72.8744912  29.3669028  63.7495330
  73.1776001  29.2713727  62.4159296  73.3721672  29.4583504  63.1513206
  72.1562674  49.6127520  67.8351958  71.9328329  48.8546350  68.2035984
  71.6672518  49.6425541  67.1132398  72.0506123  49.5049745  67.7828699
  78.2704068  33.9286692  65.5130573  78.6231678  33.5016415  66.1876372
  77.4118870  33.8437535  65.6431649  78.1953513  33.8531433  65.6325583
  66.9687753  36.5594212  63.5713419  66.2499742  36.9758344  63.8386283
  67.3400115  37.1248450  63.0205058  66.9179685  36.7043493  63.5296226
  70.8041131  49.8327978  65.2889043  70.3901530  49.1702109  64.8992884
  71.4888506  49.9805837  64.7684737  70.8439503  49.7568637  65.1545540
  74.1706426  48.9918064  66.0412659  73.7722709  49.1020334  65.2733479
  73.5557645  49.2000130  66.6239219  74.0205315  49.0391632  66.0143959
  72.7434328  35.5992211  58.9086799  72.1499167  35.9209208  58.3571366
  72.7809605  34.7533307  58.7007905  72.6608717  35.5216540  58.7969570
  75.6192144  35.5571716  62.3388549  75.3905837  35.5804417  61.4966907
  75.8790220  34.7329183  62.4583560  75.6238332  35.4387796  62.2313747
  69.9011373  37.4106189  71.9413649  69.3890276  36.8027372  72.2998681
  69.7290869  38.1262782  72.4087625  69.8001010  37.4269488  72.0629873
  64.7477087  35.8543764  74.5916011  64.5779678  36.5145139  74.0464218
  64.3043037  36.0650326  75.3128500  64.6576421  35.9829746  74.6177641
  68.6736907  34.0948262  63.6342745  69.1494273  34.4565342  62.9992926
  68.1725506  34.7504730  63.9142888  68.6702266  34.2442451  63.5819486
  61.6479152  38.7590630  69.8504501  61.1005871  38.0891275  69.9685369
  62.4371530  38.3920478  69.9147968  61.6831335  38.6055616  69.8773202
  70.7163560  36.2389462  57.0016129  71.0962525  36.2569091  56.2167244
  69.9756156  36.6843451  56.8806976  70.6632398  36.3071237  56.8679697
  78.3448850  34.5471653  62.5891707  78.3443077  34.3920310  63.4475984
  78.1405030  35.3934640  62.5333093  78.3148628  34.6492274  62.7079647
  60.4066121  37.9711438  67.0050524  60.2287882  37.5188047  67.7305440
  60.1185143  38.7737599  67.1889002  60.3379074  38.0233996  67.1394027
  76.0689702  39.2269155  66.2427914  76.5643368  38.5092150  66.2031935
  75.2589478  38.9239953  66.1282401  76.0233596  39.0766801  66.2201640
  71.5148314  43.0766968  58.3924919  70.7059637  42.7533642  58.3458228
  72.0223223  42.3700190  58.3253167  71.4697981  42.9248285  58.3755213
  62.1438591  40.5039161  64.1172283  61.2784111  40.4924852  64.0055054
  62.2437407  40.3169384  64.9643422  62.0312758  40.4745223  64.2261228
  78.1341521  41.9772843  68.9305043  78.5596593  41.4547264  68.3775468
  77.7698441  42.5753680  68.4093666  78.1428124  41.9883070  68.7714053
  67.7695601  50.2737060  67.6902389  68.0842160  51.0873449  67.6980170
  68.1789014  49.8887279  68.3584548  67.8763699  50.3365762  67.7906480
  74.7220121  45.6907107  65.2606201  75.1931299  46.4047369  65.4296186
  75.0580299  45.0905857  65.7966070  74.8415236  45.7078571  65.3638576
  70.7082730  32.4650990  59.6843760  71.5298425  32.6349303  59.4425455
  70.2452381  32.6198251  58.9610058  70.7613893  32.5132723  59.5415405
  69.2978062  30.4593752  70.4642189  69.8422475  30.1184879  71.0546531
  69.3514998  31.3179214  70.6063474  69.3867182  30.5349012  70.5724062
  65.1108621  44.2210169  67.3380997  65.7153479  44.1806003  66.7094818
  64.9035934  45.0681321  67.3685053  65.1697518  44.3398171  67.2497114
  60.3459903  43.2044786  67.2079920  60.2484181  42.3941058  67.5169977
  61.1288773  43.1836579  66.8226188  60.4476040  43.0811876  67.1966783
  77.4316561  51.8252462  55.9352958  76.7174738  51.5390642  56.3475391
  77.9160530  52.1649088  56.5759346  77.3975924  51.8334112  56.0908593
  69.3781971  53.5431551  63.4659829  69.4642223  53.1663419  64.2473359
  70.0057769  53.1691996  62.9879788  69.4838522  53.4317033  63.5105307
  76.5615892  50.4392433  60.7457432  76.2740688  50.0693703  60.0089380
  77.2486360  50.9087288  60.4841137  76.6204789  50.4539402  60.5972508
  74.1344087  51.2173645  61.5942714  74.2360223  52.0199807  61.9223689
  74.9299973  51.0160981  61.2965794  74.2671992  51.3059544  61.5978069
  74.4121141  53.8366856  62.7822107  74.7920106  54.2551401  62.1182375
  73.8376506  54.4180311  63.0890951  74.3832466  53.9844715  62.7298848
  75.5829805  55.4423261  60.7040239  76.0922034  56.0387768  61.0851545
  76.0564077  55.1749235  60.0216659  75.7273181  55.4909076  60.6594762
  77.9420337  52.0779520  63.5713419  77.2232326  52.4943652  63.8386283
  78.3132699  52.6433758  63.0205058  77.8912269  52.2228801  63.5296226
  56.7292525   8.6686850  48.9716320  55.9775425   8.2902388  48.7432365
  57.1778537   8.7005283  48.2235130  56.6842192   8.6172457  48.8273822
  62.1817485   9.0912219  44.4001867  61.8468853   9.7689141  43.9646089
  62.6944355   8.7017530  43.8118738  62.2083066   9.1336797  44.2488658
  61.7221776  11.0426488  50.3412978  62.1061156  11.6113386  49.8017753
  61.6580917  10.3175998  49.8618794  61.7695203  11.0201951  50.1906841
  58.3077281   8.6805242  51.2379092  58.4087644   7.8705596  51.5476220
  57.7119026   8.5862188  50.6078771  58.2349820   8.5470270  51.1905331
  58.1478021  13.5982831  52.6393948  58.7915476  14.0395995  53.0290106
  58.4734276  12.7936257  52.5524207  58.2909849  13.5448026  52.6839425
  51.5042325   4.7025528  50.8631426  51.2692510   3.8693181  50.7563695
  51.6427966   4.9830194  50.0492627  51.4897988   4.6209032  50.7273781
  58.8498600   6.6094806  48.0113810  59.1714442   7.1500013  47.4075118
  59.4970697   6.0391577  48.1436100  58.9924656   6.6053981  47.9420845
  53.0659650   9.5811199  52.1387632  52.5827228  10.3061689  52.1147215
  53.8782968   9.8787329  52.2497790  53.1150398   9.7313553  52.1514911
  59.1373804   8.3743380  54.7437446  58.6200746   8.0150795  54.1398754
  59.8348195   7.8505554  54.7543512  59.1639385   8.2441068  54.6567705
  62.7937396   8.8238194  60.7053619  62.8820742   8.6364334  61.5531830
  63.2227109   8.1775623  60.3058466  62.8699499   8.7001202  60.7725371
  60.3607856   8.1069354  59.6871282  59.7978691   7.6941964  60.2110943
  61.1228879   8.0322259  60.1064425  60.3902305   8.0346754  59.8264282
  55.9203847  10.0967375  52.2907912  56.6224427   9.5819364  52.3480668
  55.8401330  10.4241526  53.0954787  56.0127608  10.0681601  52.4180704
  55.2454623   6.2873727  51.7993520  56.0843522   6.5196660  51.8467281
  55.2766392   5.4178038  51.7300555  55.3736340   6.1930673  51.7958164
  55.8707326   6.7074602  56.1006825  56.4105551   6.5645733  56.7710198
  55.1877272   7.1071353  56.4690852  55.8499480   6.7454273  56.2541247
  62.9057455   8.2547213  63.3697403  63.6897872   8.3678061  63.7353145
  62.7054050   7.4288350  63.5656089  62.9923481   8.1493932  63.4531789
  63.0627849  10.1657315  57.0163859  62.2643095   9.9256815  57.2737727
  63.5113860  10.2171708  57.7630906  63.0102460  10.1379706  57.1648783
  51.6837885   3.7133672  53.5352991  51.5013458   3.6880558  52.6825283
  52.4187553   4.1832610  53.5741900  51.7651948   3.7795035  53.4150910
  58.0230944   5.9742463  50.5696933  58.6604891   5.7354210  51.1148726
  58.4486016   6.1779621  49.8350094  58.1807111   5.9693473  50.5414090
  52.7143587   8.2130799  54.4531237  52.7547732   8.4845650  53.6251016
  53.2738111   8.7372707  54.8689025  52.8026933   8.3306554  54.3923125
  60.4052416   6.4514885  52.2490719  60.4791425   6.2890057  53.1032569
  61.2221923   6.6405075  52.0051201  60.5368775   6.4551628  52.3388745
  54.1658173   6.7972748  49.2785163  53.3396291   7.0434485  49.1519442
  54.2270164   6.7184829  50.1447221  54.0532340   6.8217697  49.3874107
  58.9457002   9.4149628  46.9804193  59.2355300   9.0238610  46.2563419
  59.6760483   9.5966333  47.4209468  59.0963886   9.3843442  46.9387000
  56.8862918  11.3917011  50.0464342  56.6663213  11.1014365  50.8391009
  56.6657440  10.7331966  49.5182255  56.8210512  11.2516719  50.0853251
  59.0530873  12.7646401  48.8295035  59.7054931  12.2322843  49.0586061
  58.3556482  12.4115053  49.2162909  59.0461591  12.6335924  48.9207203
  56.0012138   5.1185578  48.2362409  56.7558106   5.4998617  48.4497872
  55.4082751   5.5696722  48.6909106  56.0248852   5.2414406  48.3345288
  57.3210365   6.2894140  53.6102525  56.7991118   6.4294431  54.2954389
  57.7084385   5.5304804  53.8004642  57.3014066   6.1979663  53.7403601
  63.5177370   8.0289599  47.5963093  63.2764046   7.2957459  47.1890158
  63.6978703   8.5776456  46.9429427  63.5084994   8.0011990  47.4393316
  57.8856850   9.9954920  56.6932380  58.0346414   9.4357835  56.0405785
  58.6656852  10.0746921  57.0764899  58.0230944   9.9240485  56.6529329
  60.4110151  10.1669562  57.9716871  60.3353822   9.4978373  58.5267659
  60.3400010  10.8687351  58.4857537  60.3890758  10.1714470  58.1293719
  61.0680398   8.6870561  48.8040477  61.8330289   8.4180205  48.4823141
  60.9658488   8.2020572  49.5210540  61.1661893   8.5760126  48.8620304
  59.8001785  13.5737882  56.4294872  60.2897715  12.8748671  56.2470536
  59.2286017  13.2761752  57.0170929  59.7886315  13.4264106  56.4895913
  60.2938131   7.3214656  45.5534778  60.3630951   6.4629194  45.6927779
  61.0726586   7.5386537  45.2253803  60.4190981   7.2267520  45.5251935
  64.6845619   9.7452357  49.7671272  64.2925410   9.4419072  49.0494138
  64.8398691  10.5821447  49.5776225  64.6499208   9.8236194  49.6327769
  57.6772616   6.4465896  58.3047344  57.5692970   6.4567958  59.1709402
  57.8868397   7.2720676  58.1152298  57.6922727   6.5706971  58.4051435
  65.4535924   9.1487850  53.2001306  65.2555612   9.6378664  52.5057517
  64.8323635   9.3529091  53.7785439  65.3323488   9.2504388  53.1824529
  52.9522270   5.3712636  56.9103198  52.4222194   4.6805075  56.9598172
  53.2247363   5.3622821  56.0815906  52.9146992   5.2679768  56.7950614
  48.2318112   2.0440400  54.2671546  48.1261561   1.9987244  53.4023630
  47.4818332   2.3894180  54.5485831  48.1053715   2.0881308  54.1808876
  61.6338430   6.0995785  57.8634998  61.1263521   6.6531632  58.3075628
  61.3365076   6.1604075  57.0453772  61.5143314   6.1902096  57.8083455
  64.2446210  10.0159043  45.7938941  63.5275520   9.8419905  45.3286179
  64.8952947   9.7811615  45.2614427  64.2348060   9.9554835  45.6468159
  60.8780915  11.0320344  54.7692005  60.6546569  10.2739173  55.1376031
  60.3890758  11.0618365  54.0472444  60.7724364  10.9242568  54.7168746
  59.5259372  11.2520802  52.2229089  59.1119770  10.5894932  51.8332931
  60.2106746  11.3998660  51.7024784  59.5657743  11.1761460  52.0885587
  62.8924666  10.4110887  52.9752706  62.4940949  10.5213157  52.2073526
  62.2775885  10.6192953  53.5579266  62.7423555  10.4584455  52.9484005
  56.4913841  11.6929883  54.6242435  56.8060400  12.5066272  54.6320217
  56.9007255  11.3080102  55.2924595  56.5981939  11.7558586  54.7246527
  53.8326862   5.6402992  54.2721044  54.4371719   5.5998826  53.6434865
  53.6254174   6.4874144  54.3025100  53.8915759   5.7590994  54.1837160
  63.6470634   7.9068937  55.4883281  64.4669007   7.7631903  55.7499576
  63.3664711   8.5315136  56.0299719  63.7267377   7.9779289  55.6071221
  49.0678144   4.6237609  54.1419967  48.9702422   3.8133881  54.4510024
  49.8507013   4.6029403  53.7566235  49.1694280   4.5004699  54.1306830
  73.3183969  14.6509440  53.2079088  72.4621864  14.8117938  53.2588205
  73.3651623  13.7801504  53.2284149  73.1983080  14.5460242  53.2185154
  67.7025109  24.1872158  48.9716320  66.9508008  23.8087696  48.7432365
  68.1511120  24.2190591  48.2235130  67.6574775  24.1357765  48.8273822
  73.1550068  24.6097527  44.4001867  72.8201437  25.2874449  43.9646089
  73.6676939  24.2202838  43.8118738  73.1815650  24.6522105  44.2488658
  72.6954360  26.5611796  50.3412978  73.0793739  27.1298694  49.8017753
  72.6313501  25.8361306  49.8618794  72.7427787  26.5387259  50.1906841
  76.1635790  16.7101484  55.8510740  76.7091750  17.3886570  55.9104709
  76.1052666  16.5688944  54.9912321  76.2351704  16.7893485  55.7322800
  69.2809865  24.1990550  51.2379092  69.3820228  23.3890904  51.5476220
  68.6851610  24.1047496  50.6078771  69.2082403  24.0655578  51.1905331
  69.1210604  29.1168139  52.6393948  69.7648060  29.5581303  53.0290106
  69.4466860  28.3121565  52.5524207  69.2642433  29.0633334  52.6839425
  62.4774909  20.2210836  50.8631426  62.2425093  19.3878489  50.7563695
  62.6160550  20.5015502  50.0492627  62.4630571  20.1394340  50.7273781
  64.7764996  12.3896567  53.7615733  64.1570028  11.7989214  53.5925748
  64.6748860  12.9808002  53.1280057  64.6702672  12.3900649  53.6420723
  69.8231184  22.1280114  48.0113810  70.1447025  22.6685321  47.4075118
  70.4703281  21.5576885  48.1436100  69.9657239  22.1239289  47.9420845
  71.8732892  14.1296109  48.0948197  72.5713057  14.3084236  48.5869660
  72.1885225  13.6066448  47.4718586  72.0228229  14.0789881  48.0750207
  64.5034130  15.9348849  56.0059302  64.3792826  16.5211294  56.6409121
  65.1552414  15.4409044  56.3071577  64.5807779  15.9487653  56.1445232
  72.0620827  20.5166554  48.0827988  72.5014463  19.9083654  48.5282761
  71.9125490  20.1373927  47.3113453  72.1042293  20.3705025  48.0347155
  69.5292471  19.1110566  55.2846813  70.1741473  18.6183009  54.9657762
  69.7694248  19.2535352  56.1112892  69.6603056  19.0588008  55.3596347
  72.0678562  21.9565471  54.9353706  72.3501805  21.1616877  54.7140462
  72.7964722  22.4346059  54.9558767  72.2168126  21.9100068  54.9056721
  70.0459756   9.4988505  52.1769471  69.7163086   9.9499649  51.5073170
  69.3704758   9.4204669  52.7242478  69.8970192   9.5539641  52.1592694
  75.6630164  18.8693735  45.0358757  75.5781459  19.7254702  45.1808326
  76.1514547  18.5938059  45.7040916  75.7219061  18.9551056  45.1560839
  76.5948597  15.4878529  46.5356492  76.0660069  15.7038163  47.1953799
  77.1173617  16.1814668  46.4557462  76.5937050  15.6221666  46.6212092
  68.4848205  19.3841746  45.3363960  67.9005420  19.8891777  45.7429824
  68.0818300  19.1584133  44.5960552  68.3387509  19.4249994  45.2868986
  64.0392234  25.0996507  52.1387632  63.5559812  25.8246997  52.1147215
  64.8515552  25.3972637  52.2497790  64.0882981  25.2498861  52.1514911
  70.1106388  23.8928688  54.7437446  69.5933329  23.5336103  54.1398754
  70.8080779  23.3690862  54.7543512  70.1371969  23.7626376  54.6567705
  73.7669980  24.3423502  60.7053619  73.8553326  24.1549642  61.5531830
  74.1959692  23.6960931  60.3058466  73.8432082  24.2186509  60.7725371
  71.3340440  23.6254662  59.6871282  70.7711274  23.2127272  60.2110943
  72.0961463  23.5507567  60.1064425  71.3634888  23.5532062  59.8264282
  72.9425420  15.6307398  43.8132881  73.1821423  15.8385382  43.0008224
  73.2641260  14.8264907  43.9221825  73.0262577  15.5421499  43.7093434
  66.8936431  25.6152683  52.2907912  67.5957010  25.1004672  52.3480668
  66.8133914  25.9426834  53.0954787  66.9860191  25.5866909  52.4180704
  67.9415338  15.8528270  61.4188327  68.1135841  15.7434164  62.2673608
  68.4784695  16.4982675  61.1819519  68.0460342  15.9320272  61.5093424
  66.6072774   9.9671113  44.3570532  66.4248348  10.1842994  43.5311525
  67.4698387  10.0810125  44.4129146  66.7077364  10.0161011  44.2425019
  66.2187206  21.8059035  51.7993520  67.0576106  22.0381968  51.8467281
  66.2498976  20.9363346  51.7300555  66.3468924  21.7115981  51.7958164
  66.8439909  22.2259910  56.1006825  67.3838134  22.0831041  56.7710198
  66.1609856  22.6256661  56.4690852  66.8232063  22.2639581  56.2541247
  76.2680794  17.9050911  51.2951850  77.0238309  18.3382425  51.3340758
  76.3743119  17.2555680  51.8686486  76.3950965  17.8728395  51.3849875
  73.8790039  23.7732521  63.3697403  74.6630456  23.8863369  63.7353145
  73.6786634  22.9473658  63.5656089  73.9656064  23.6679240  63.4531789
  62.2477054  18.4460201  56.2541247  61.9815470  17.6299318  56.4132237
  62.2615619  18.4913356  55.3836762  62.2101777  18.3317106  56.1494729
  66.1534801  13.2445285  42.8693005  65.4392979  12.9583465  43.2815437
  66.6378770  13.5841911  43.5099392  66.1194165  13.2526935  43.0248640
  66.9975661  11.9838579  58.9008255  66.3047458  11.5135559  59.1468986
  67.6135988  11.7576884  59.4749962  66.9860191  11.8805711  59.0217407
  74.0360432  25.6842623  57.0163859  73.2375678  25.4442123  57.2737727
  74.4846444  25.7357016  57.7630906  73.9835044  25.6565014  57.1648783
  73.3282119  21.7475239  43.2454813  73.7433268  21.4160263  42.5539309
  72.4974049  21.5144142  43.1174950  73.2670128  21.6646495  43.1245661
  62.6570468  19.2318980  53.5352991  62.4746041  19.2065866  52.6825283
  63.3920137  19.7017918  53.5741900  62.7384532  19.2980343  53.4150910
  65.7216220  15.9503983  60.0435100  66.4456192  15.9357014  60.5299994
  65.8232356  16.6599338  59.5457068  65.8434429  16.0528686  60.0413887
  75.7692488  16.1537059  49.1979063  75.8639343  16.8926353  49.6518688
  75.1451332  15.7254534  49.6313627  75.6901518  16.1998380  49.3287210
  74.0244962  19.3323272  59.8469343  74.5983824  18.6950516  60.0017907
  73.9459766  19.3327354  58.9779001  74.0978197  19.2388383  59.7415754
  62.6241378  16.1112481  53.6852058  63.2014881  15.9748932  54.3244303
  61.9255440  15.6548265  53.9397642  62.6062400  16.0234747  53.8174347
  76.0215509  17.9985799  42.4316015  75.9395672  18.0687986  43.2971002
  76.6595230  18.5615543  42.2399755  76.1035347  18.0924770  42.5305964
  69.3808681  17.7646537  51.8990541  69.1227925  16.9318272  51.8721840
  69.4357163  17.9904150  51.0583041  69.3508459  17.6744308  51.7710678
  68.3543393  15.3184299  52.3855436  67.7792984  15.4776468  53.0219397
  67.9779069  14.6819708  51.9223886  68.2146205  15.2482112  52.4109994
  72.0216681  13.7907648  57.2447814  71.6331114  13.3661866  56.5900005
  71.3571380  14.0389798  57.7524841  71.8663609  13.7646370  57.2235682
  58.1000212  14.9624374  50.3999876  58.1860464  14.5856242  51.1813406
  58.7276009  14.5884820  49.9219834  58.2056763  14.8509856  50.4445354
  73.1255620  18.0206253  45.4424621  73.9396259  18.3121146  45.3307392
  73.0614761  17.3666115  44.8682914  73.2358359  17.9671448  45.3413458
  68.9963528  21.4927770  50.5696933  69.6337475  21.2539518  51.1148726
  69.4218600  21.6964929  49.8350094  69.1539694  21.4878781  50.5414090
  63.6876170  23.7316107  54.4531237  63.7280316  24.0030958  53.6251016
  64.2470694  24.2558015  54.8689025  63.7759516  23.8491862  54.3923125
  69.6366343  16.7130060  44.9071822  70.0211496  16.4937767  45.6588368
  69.3877963  17.5393006  45.0372899  69.6568416  16.8028206  45.0372899
  71.3785000  21.9700193  52.2490719  71.4524008  21.8075365  53.1032569
  72.1954506  22.1590383  52.0051201  71.5101359  21.9736935  52.3388745
  65.1390757  22.3158056  49.2785163  64.3128874  22.5619793  49.1519442
  65.2002748  22.2370137  50.1447221  65.0264924  22.3403005  49.3874107
  67.3566780   8.3826997  50.2380603  66.4889206   8.4549596  50.3038212
  67.6441985   9.1849076  50.4268578  67.2706528   8.5121144  50.2755370
  69.9189586  24.9334936  46.9804193  70.2087884  24.5423917  46.2563419
  70.6493066  25.1151641  47.4209468  70.0696470  24.9028750  46.9387000
  70.5084331  19.7352682  58.0657323  70.0096024  20.4468450  58.1442212
  71.3184555  20.0553349  58.0275486  70.5540438  19.8879531  58.0713892
  67.8595501  26.9102319  50.0464342  67.6395797  26.6199673  50.8391009
  67.6390023  26.2517274  49.5182255  67.7943095  26.7702027  50.0853251
  66.7712448  18.9975635  52.3120044  66.4825697  18.3713106  52.8465771
  67.6395796  18.9395922  52.3784725  66.8572700  18.8963179  52.4010999
  77.5590346  14.1410418  52.6302026  77.2155112  13.4200754  52.9809276
  77.6583389  13.9324270  51.7880384  77.5232389  14.0034622  52.5573706
  70.0263457  28.2831708  48.8295035  70.6787515  27.7508151  49.0586061
  69.3289066  27.9300361  49.2162909  70.0194175  28.1521231  48.9207203
  66.9744722  20.6370886  48.2362409  67.7290690  21.0183925  48.4497872
  66.3815334  21.0882030  48.6909106  66.9981435  20.7599713  48.3345288
  69.4351389  12.5933726  63.3619622  68.6251165  12.8991506  63.2509464
  69.9126076  13.3139309  63.4772206  69.3854868  12.7448328  63.3626693
  68.2942948  21.8079447  53.6102525  67.7723702  21.9479739  54.2954389
  68.6816969  21.0490112  53.8004642  68.2746649  21.7164971  53.7403601
  65.2834132  11.8585256  47.6797479  64.9958928  11.4886527  46.9429427
  65.9704601  12.3280112  47.4181184  65.3423030  11.8732226  47.5312555
  74.4909953  23.5474907  47.5963093  74.2496629  22.8142767  47.1890158
  74.6711286  24.0961764  46.9429427  74.4817577  23.5197298  47.4393316
  69.7209274  18.8383467  49.0084016  69.5252057  19.4458201  48.4144319
  69.9443620  18.1451411  48.5275690  69.7243915  18.8260992  48.8500096
  68.1187804  15.7238204  49.1264884  68.8410456  15.8879363  48.6668690
  67.6395797  16.4447869  49.0204224  68.1551535  15.8536434  49.0430498
  76.0781312  12.0602003  54.5061569  75.2392412  12.0863282  54.2699832
  76.1485679  12.7072739  55.0866916  75.9649705  12.1598129  54.5570686
  65.7695421  18.1296277  58.2319024  66.2816518  18.4080530  57.5827784
  65.4831763  18.8685571  58.5981837  65.8030284  18.2798631  58.1908902
  62.8562327  12.6366469  48.5282760  62.9578463  13.4392630  48.8563736
  63.6518214  12.4353805  48.2305841  62.9890233  12.7252367  48.5318116
  69.2879146  10.2222665  58.2920065  69.0962343  10.2377800  59.1419489
  70.1377742  10.4186340  58.2686720  69.3854868  10.2537017  58.4143360
  63.6726059  12.7513647  56.2703882  63.5311551  11.8997588  56.3948390
  63.9566623  12.7942308  55.4466088  63.6933905  12.6313397  56.1671506
  73.8264652  14.5880737  50.4148370  73.5799366  14.5076488  51.2485159
  74.1549775  13.8034205  50.2210898  73.8385895  14.4607002  50.5095893
  77.7212700  21.2964096  54.2035151  77.5827060  21.9945142  54.7083894
  76.9412698  21.1412753  53.8471333  77.5855927  21.3764263  54.2261426
  69.7861679  17.3237456  59.8271353  69.9305055  17.9038664  59.1914463
  70.1337327  17.7013752  60.5321208  69.8589140  17.4658160  59.8370348
  71.9581596  16.5227624  57.6096485  71.2104910  16.7158638  57.2044763
  72.1123121  15.6972844  57.3720606  71.8704024  16.4292735  57.5141891
  68.8589434  25.5140227  56.6932380  69.0078998  24.9543143  56.0405785
  69.6389436  25.5932229  57.0764899  68.9963527  25.4425793  56.6529329
  71.3842734  25.6854870  57.9716871  71.3086405  25.0163681  58.5267659
  71.3132594  26.3872659  58.4857537  71.3623341  25.6899778  58.1293719
  72.1983373  10.4178175  58.4991889  72.6555987  11.1502149  58.6264681
  72.2739702   9.9944640  59.2579144  72.2774343  10.4635413  58.6292965
  64.4416364  10.6643995  59.5881332  63.9058554  10.0524353  59.9042100
  64.5034129  11.2392130  60.2414999  64.3711997  10.6590922  59.7316759
  72.0412981  24.2055869  48.8040477  72.8062872  23.9365513  48.4823141
  71.9391071  23.7205880  49.5210540  72.1394477  24.0945434  48.8620304
  70.0765751  12.4080279  55.3433713  69.2861826  12.2271739  55.6651048
  70.4726374  11.6307231  55.3264007  70.0182627  12.2667740  55.3886261
  74.5631642  21.2368053  40.7840426  75.3304627  21.2968178  40.3746278
  74.1162951  20.6648494  40.2996745  74.6105069  21.1604629  40.6518137
  75.4609437  20.0422709  53.0693159  74.7854439  19.8107941  53.5706546
  75.4701813  19.4343892  52.4435264  75.3627942  19.9181634  53.0509311
  72.5903581  14.8840538  59.8257212  72.5262723  15.7450494  59.6977348
  72.7300769  14.5672531  59.0252763  72.6019051  14.9640704  59.6885424
  77.4626172  22.8987841  45.3003336  77.5446009  23.7054827  44.9764787
  77.9475914  22.9183800  46.0244110  77.5463330  23.0208504  45.3590235
  71.2722675  17.5772677  53.9673414  70.8484924  17.7777176  53.2312433
  71.0967530  16.7301525  54.0797714  71.1833556  17.4821459  53.8747105
  70.7734369  29.0923190  56.4294872  71.2630299  28.3933979  56.2470536
  70.2018601  28.7947060  57.0170929  70.7618899  28.9449414  56.4895913
  66.5605120  18.0724729  49.4001387  66.7169739  18.0071531  50.2557379
  66.9005713  18.8473281  49.1880067  66.6338355  18.1773927  49.4955981
  73.0984265  17.4482612  48.2694750  73.6399810  16.9452993  48.7333371
  73.4130824  17.3947807  47.4584235  73.2248662  17.3662033  48.2178562
  71.2670715  22.8399964  45.5534778  71.3363535  21.9814502  45.6927779
  72.0459170  23.0571845  45.2253803  71.3923565  22.7452828  45.5251935
  74.2473534  12.3418917  58.3217051  74.4615504  11.7029831  57.7680405
  73.6307433  12.7864741  57.8924912  74.1878863  12.3129060  58.1767482
  75.6578202  25.2637665  49.7671272  75.2657994  24.9604380  49.0494138
  75.8131274  26.1006755  49.5776225  75.6231792  25.3421502  49.6327769
  63.1339382  15.2559679  49.7162154  63.5138347  15.6744224  49.0522421
  62.5594747  15.8373135  50.0230997  63.1050707  15.4037538  49.6638895
  75.8217877  21.8287654  49.7077302  75.4632532  22.0002297  50.4841334
  75.3356588  22.2900859  49.1505301  75.6976574  21.9226625  49.7402571
  70.6106242  17.5086819  42.2477536  70.8998767  18.2851702  42.5221111
  70.6978041  16.9975551  42.9492036  70.6660499  17.5478738  42.3920034
  76.9822616  22.7191550  60.6544503  77.6202337  22.2251745  60.3206959
  76.3396708  22.6468950  60.0696730  76.9816843  22.6350558  60.5186858
  77.0376873  23.4111358  57.2949860  77.8269251  23.0600423  57.4151941
  77.2120471  24.2247746  57.0326494  77.1797154  23.4797215  57.2737728
  66.7770183  16.8220084  54.3477649  65.9358190  16.7223958  54.5556542
  66.9860191  17.5915564  54.6991969  66.6834876  16.9212127  54.4304963
  64.2545750  14.4439621  52.1762399  63.8602448  14.5182633  51.4012509
  63.6985867  14.8297567  52.7270761  64.1148563  14.5121395  52.1430059
  70.5886848  14.7501483  53.5975246  70.2849986  14.1957471  54.1985654
  69.8866269  14.9293693  53.1103280  70.4403058  14.6946265  53.6144952
  69.6452945  12.0602003  48.1619948  69.9212680  11.3420915  47.7497515
  70.2451615  12.6586923  47.9541054  69.7746210  12.0422374  48.0700709
  68.6505199  21.9651204  58.3047344  68.5425554  21.9753266  59.1709402
  68.8600981  22.7905984  58.1152298  68.6655310  22.0892279  58.4051435
  66.6678991  19.2163846  55.7669281  66.0766924  19.8573344  55.7372297
  67.4300015  19.6401463  55.7400581  66.6927252  19.3739685  55.7584429
  67.0639614  10.3765844  56.4337299  67.5241095  10.4504773  57.1712423
  67.1095721  11.1747098  56.0837120  67.1390169  10.5059991  56.4910056
  68.7122964  11.0432539  61.0009326  68.3208529  10.3965886  61.4365104
  68.8808826  11.6343974  61.6203582  68.6793874  11.0346807  61.1572032
  76.4268507  24.6673158  53.2001306  76.2288196  25.1563972  52.5057517
  75.8056218  24.8714399  53.7785439  76.3056072  24.7689696  53.1824529
  70.4876486  16.4358055  47.5411550  71.2318531  16.8232331  47.7794500
  70.6337182  15.5915480  47.7052038  70.6187071  16.3688527  47.6005520
  73.4754362  12.0083528  53.4405469  73.0014316  11.4825290  53.9510780
  73.8472497  11.4613001  52.8720331  73.4604251  11.8499524  53.4320617
  63.8527392  14.0055035  58.8089015  64.7153005  13.9050744  58.7226345
  63.5219175  13.4249744  58.2474587  63.9312588  13.9046661  58.7134421
  75.4037861  12.9020082  46.5031223  74.8760880  12.9848826  45.8136932
  75.8633569  13.6437954  46.4995868  75.3939712  13.0240745  46.4005918
  67.2129178  12.8297484  55.4699433  66.5882248  12.8415876  54.8625386
  66.8774773  13.3057659  56.1190674  67.0714670  12.9016001  55.4756002
  67.3970926  11.1722602  41.5272118  67.0483731  11.8242327  41.9903668
  66.9167372  11.1579715  40.7995990  67.2741170  11.2665656  41.4883210
  63.9254853  20.8897944  56.9103198  63.3954778  20.1990383  56.9598172
  64.1979947  20.8808129  56.0815906  63.8879576  20.7865075  56.7950614
  74.9574944  21.4723646  45.6340880  75.6809143  21.9381759  45.4905454
  74.5175535  21.5397256  44.8838477  74.9990636  21.5507483  45.5025662
  74.1261099  18.3321188  56.8841569  73.5118092  17.7879239  57.1790205
  74.6428384  17.8185425  56.4047385  74.1116761  18.1757597  56.8565798
  73.3657396  19.4025458  54.6185868  72.9385004  18.7775177  54.1851303
  73.3582340  19.1200380  55.4444875  73.3016537  19.2678239  54.6765696
  66.4819923  14.4390631  57.6874302  66.6413410  13.6833955  58.0926024
  66.3012817  14.9881571  58.3415040  66.4785282  14.4084445  57.8437008
  71.6943106  10.2794213  54.8328402  71.7185593   9.7454325  54.1441182
  71.9454579   9.7711522  55.4953993  71.7353024  10.1255117  54.8293047
  59.2050695  17.5625708  54.2671546  59.0994145  17.5172552  53.4023630
  58.4550915  17.9079488  54.5485831  59.0786298  17.6066616  54.1808876
  67.9744428   9.0065031  54.2134146  68.0142799   9.5074238  54.9268854
  67.1494093   9.0975425  53.9440069  67.8583954   9.0946847  54.2784685
  70.1574041  18.5725771  62.3154441  69.3069671  18.7097485  62.4512086
  70.3202168  17.8389549  62.7602143  70.0557904  18.4839872  62.4010040
  69.3958791  15.5225541  56.5108045  68.5650721  15.6899359  56.3043293
  69.3410308  15.1461492  57.2956931  69.2648206  15.4915272  56.5956573
  67.7694835  13.7981132  47.0398163  67.9097796  14.2953597  47.7426804
  68.2677368  13.0967427  47.1812377  67.8635916  13.7683111  47.1649742
  67.7995057  14.6648243  44.3690740  68.4340137  15.2608669  44.3040202
  67.8820668  14.3651701  45.1836610  67.9051608  14.7089152  44.4793826
  69.3774040  10.5962219  44.3436182  69.6989881  10.1165301  43.6895444
  69.6400984  11.4061865  44.1526993  69.4640066  10.6452117  44.2191674
  72.6071013  21.6181093  57.8634998  72.0996104  22.1716940  58.3075628
  72.3097659  21.6789383  57.0453772  72.4875898  21.7087404  57.8083455
  64.3048045  16.8616084  47.6380286  64.8140275  17.4580592  48.0191591
  64.7782318  16.5942058  46.9556705  64.4491421  16.9101900  47.5934809
  75.2178793  25.5344351  45.7938941  74.5008103  25.3605213  45.3286179
  75.8685531  25.2996923  45.2614427  75.2080644  25.4740143  45.6468159
  77.8026765  14.4108939  49.5380246  77.1317955  14.9538642  49.4093312
  78.4966515  14.8803795  49.2961941  77.8055632  14.5607211  49.4835774
  71.8513498  26.5505651  54.7692005  71.6279153  25.7924481  55.1376031
  71.3623342  26.5803673  54.0472444  71.7456947  26.4427876  54.7168746
  66.6638577  13.4972343  50.5053466  65.9450566  13.9136475  50.7726330
  67.0350939  14.0626582  49.9545104  66.6130509  13.6421624  50.4636273
  75.9638158  14.1300192  56.3955462  75.9436085  13.9483487  57.2490241
  76.0117359  15.0012210  56.3715046  75.9672799  14.2316730  56.5178757
  73.9084488  20.7187384  62.3203939  73.8680343  20.0737061  61.7349094
  74.7207806  20.6624001  62.6329351  74.0227641  20.6146351  62.2800888
  70.4991955  26.7706110  52.2229089  70.0852354  26.1080240  51.8332931
  71.1839330  26.9183968  51.7024784  70.5390327  26.6946768  52.0885587
  73.8657249  25.9296195  52.9752706  73.4673533  26.0398465  52.2073526
  73.2508469  26.1378261  53.5579266  73.7156139  25.9769763  52.9484005
  72.4385151  12.5370343  45.8426846  71.8449991  12.8587339  45.2911413
  72.4760429  11.6911438  45.6347952  72.3559541  12.4594671  45.7309617
  75.3142968  12.4949847  49.2728596  75.0856661  12.5182549  48.4306954
  75.5741044  11.6707314  49.3923606  75.3189156  12.3765927  49.1653794
  69.5962196  14.3484320  58.8753696  69.0841100  13.7405503  59.2338728
  69.4241693  15.0640913  59.3427672  69.4951833  14.3647620  58.9969920
  64.4427911  12.7921896  61.5256058  64.2730501  13.4523270  60.9804265
  63.9993861  13.0028457  62.2468547  64.3527245  12.9207878  61.5517687
  68.3687731  11.0326393  50.5682792  68.8445097  11.3943473  49.9332973
  67.8676330  11.6882861  50.8482934  68.3653090  11.1820582  50.5159533
  61.3429976  15.6968761  56.7844548  60.7956695  15.0269407  56.9025416
  62.1322354  15.3298609  56.8488015  61.3782159  15.5433748  56.8113248
  71.1914384  15.3576218  62.2807959  71.9425711  15.6727895  62.5947513
  71.3836961  15.1555389  61.4541881  71.3305798  15.3743600  62.2051355
  70.4114384  13.1767593  43.9356176  70.7913349  13.1947222  43.1507290
  69.6706980  13.6221582  43.8147023  70.3583221  13.2449368  43.8019744
  60.1016945  14.9089569  53.9390571  59.9238706  14.4566178  54.6645486
  59.8135967  15.7115730  54.1229048  60.0329898  14.9612127  54.0734074
  75.7640526  16.1647286  53.1767961  76.2594192  15.4470281  53.1371981
  74.9540302  15.8618084  53.0622448  75.7184420  16.0144933  53.1541687
  71.2099138  20.0145100  45.3264966  70.4010461  19.6911773  45.2798275
  71.7174047  19.3078322  45.2593214  71.1648805  19.8626416  45.3095260
  61.8389415  17.4417293  51.0512330  60.9734935  17.4302983  50.9395101
  61.9388231  17.2547516  51.8983469  61.7263582  17.4123354  51.1601274
  77.8292345  18.9150974  55.8645090  78.2547417  18.3925396  55.3115515
  77.4649265  19.5131811  55.3433713  77.8378948  18.9261201  55.7054100
  67.4646425  27.2115191  54.6242435  67.7792984  28.0251580  54.6320217
  67.8739838  26.8265410  55.2924595  67.5714523  27.2743894  54.7246527
  74.4170945  22.6285238  52.1946247  74.8882123  23.3425501  52.3636233
  74.7531123  22.0283988  52.7306117  74.5366060  22.6456702  52.2978623
  75.0544891  22.4203172  58.9573940  74.5065837  21.7961056  58.6894005
  75.5157920  22.6097444  58.2418019  75.0412100  22.3562222  58.8124371
  70.4033554   9.4029121  46.6183807  71.2249249   9.5727434  46.3765502
  69.9403205   9.5576382  45.8950105  70.4564717   9.4510854  46.4755451
  64.8059445  21.1588300  54.2721044  65.4104302  21.1184134  53.6434865
  64.5986758  22.0059452  54.3025100  64.8648342  21.2776302  54.1837160
  74.6203217  23.4254245  55.4883281  75.4401591  23.2817211  55.7499576
  74.3397295  24.0500444  56.0299719  74.6999961  23.4964597  55.6071221
  60.0410727  20.1422917  54.1419967  59.9435005  19.3319189  54.4510024
  60.8239597  20.1214711  53.7566235  60.1426864  20.0190007  54.1306830
  73.4507493  35.7396144  50.8631426  73.2157677  34.9063797  50.7563695
  73.5893133  36.0200810  50.0492627  73.4363155  35.6579648  50.7273781
  75.7497580  27.9081875  53.7615733  75.1302612  27.3174522  53.5925748
  75.6481444  28.4993310  53.1280057  75.6435256  27.9085957  53.6420723
  75.4766713  31.4534156  56.0059302  75.3525410  32.0396602  56.6409121
  76.1284998  30.9594352  56.3071577  75.5540362  31.4672961  56.1445232
  75.0124817  40.6181815  52.1387632  74.5292396  41.3432305  52.1147215
  75.8248136  40.9157945  52.2497790  75.0615565  40.7684169  52.1514911
  77.8669015  41.1337991  52.2907912  78.5689594  40.6189980  52.3480668
  77.7866498  41.4612142  53.0954787  77.9592775  41.1052217  52.4180704
  77.5805358  25.4856421  44.3570532  77.3980931  25.7028301  43.5311525
  78.4430971  25.5995433  44.4129146  77.6809947  25.5346319  44.2425019
  77.1919790  37.3244343  51.7993520  78.0308689  37.5567276  51.8467281
  77.2231559  36.4548654  51.7300555  77.3201508  37.2301289  51.7958164
  77.8172493  37.7445218  56.1006825  78.3570718  37.6016349  56.7710198
  77.1342439  38.1441969  56.4690852  77.7964647  37.7824889  56.2541247
  73.2209638  33.9645509  56.2541247  72.9548053  33.1484626  56.4132237
  73.2348202  34.0098664  55.3836762  73.1834360  33.8502414  56.1494729
  77.1267385  28.7630593  42.8693005  76.4125562  28.4768773  43.2815437
  77.6111354  29.1027219  43.5099392  77.0926748  28.7712243  43.0248640
  77.9708244  27.5023887  58.9008255  77.2780041  27.0320867  59.1468986
  78.5868572  27.2762192  59.4749962  77.9592774  27.3991019  59.0217407
  73.6303052  34.7504288  53.5352991  73.4478625  34.7251174  52.6825283
  74.3652721  35.2203226  53.5741900  73.7117116  34.8165650  53.4150910
  76.6948803  31.4689291  60.0435100  77.4188776  31.4542322  60.5299994
  76.7964940  32.1784646  59.5457068  76.8167012  31.5713994  60.0413887
  73.5973962  31.6297789  53.6852058  74.1747465  31.4934240  54.3244303
  72.8988024  31.1733573  53.9397642  73.5794983  31.5420055  53.8174347
  69.0732795  30.4809682  50.3999876  69.1593047  30.1041550  51.1813406
  69.7008593  30.1070127  49.9219834  69.1789346  30.3695164  50.4445354
  74.6608754  39.2501415  54.4531237  74.7012899  39.5216266  53.6251016
  75.2203278  39.7743323  54.8689025  74.7492100  39.3677170  54.3923125
  76.1123340  37.8343364  49.2785163  75.2861458  38.0805101  49.1519442
  76.1735331  37.7555445  50.1447221  75.9997507  37.8588313  49.3874107
  78.3299364  23.9012305  50.2380603  77.4621789  23.9734904  50.3038212
  78.6174568  24.7034384  50.4268578  78.2439112  24.0306452  50.2755370
  77.7445032  34.5160943  52.3120044  77.4558281  33.8898414  52.8465771
  78.6128380  34.4581230  52.3784725  77.8305284  34.4148487  52.4010999
  76.2566716  27.3770564  47.6797479  75.9691512  27.0071835  46.9429427
  76.9437184  27.8465419  47.4181184  76.3155613  27.3917534  47.5312555
  76.7428004  33.6481585  58.2319024  77.2549101  33.9265838  57.5827784
  76.4564347  34.3870879  58.5981837  76.7762867  33.7983938  58.1908902
  73.8294911  28.1551777  48.5282760  73.9311047  28.9577938  48.8563736
  74.6250797  27.9539113  48.2305841  73.9622816  28.2437675  48.5318116
  74.6458643  28.2698955  56.2703882  74.5044135  27.4182895  56.3948390
  74.9299206  28.3127615  55.4466088  74.6666489  28.1498705  56.1671506
  75.4148948  26.1829302  59.5881332  74.8791137  25.5709661  59.9042100
  75.4766713  26.7577438  60.2414999  75.3444581  26.1776230  59.7316759
  77.5337704  33.5910037  49.4001387  77.6902323  33.5256839  50.2557379
  77.8738297  34.3658589  49.1880067  77.6070939  33.6959235  49.4955981
  74.1071965  30.7744987  49.7162154  74.4870930  31.1929532  49.0522421
  73.5327330  31.3558443  50.0230997  74.0783290  30.9222846  49.6638895
  77.7502767  32.3405392  54.3477649  76.9090773  32.2409266  54.5556542
  77.9592775  33.1100872  54.6991969  77.6567459  32.4397435  54.4304963
  75.2278334  29.9624929  52.1762399  74.8335032  30.0367940  51.4012509
  74.6718451  30.3482875  52.7270761  75.0881146  30.0306703  52.1430059
  77.6411575  34.7349154  55.7669281  77.0499508  35.3758652  55.7372297
  78.4032598  35.1586771  55.7400581  77.6659835  34.8924992  55.7584429
  78.0372197  25.8951152  56.4337299  78.4973679  25.9690081  57.1712423
  78.0828304  26.6932406  56.0837120  78.1122753  26.0245299  56.4910056
  74.8259975  29.5240342  58.8089015  75.6885588  29.4236052  58.7226345
  74.4951758  28.9435052  58.2474587  74.9045172  29.4231969  58.7134421
  78.1861761  28.3482791  55.4699433  77.5614831  28.3601183  54.8625386
  77.8507356  28.8242967  56.1190674  78.0447253  28.4201308  55.4756002
  78.3703510  26.6907910  41.5272118  78.0216314  27.3427635  41.9903668
  77.8899956  26.6765023  40.7995990  78.2473754  26.7850964  41.4883210
  74.8987437  36.4083252  56.9103198  74.3687361  35.7175690  56.9598172
  75.1712530  36.3993437  56.0815906  74.8612159  36.3050383  56.7950614
  77.4552507  29.9575939  57.6874302  77.6145993  29.2019263  58.0926024
  77.2745400  30.5066879  58.3415040  77.4517866  29.9269753  57.8437008
  70.1783279  33.0811016  54.2671546  70.0726728  33.0357860  53.4023630
  69.4283499  33.4264796  54.5485831  70.0518882  33.1251924  54.1808876
  75.2780629  32.3801392  47.6380286  75.7872858  32.9765900  48.0191591
  75.7514901  32.1127366  46.9556705  75.4224005  32.4287208  47.5934809
  77.6371161  29.0157651  50.5053466  76.9183150  29.4321783  50.7726330
  78.0083523  29.5811889  49.9545104  77.5863092  29.1606932  50.4636273
  75.4160495  28.3107203  61.5256058  75.2463085  28.9708578  60.9804265
  74.9726445  28.5213765  62.2468547  75.3259828  28.4393186  61.5517687
  72.3162559  31.2154069  56.7844548  71.7689279  30.5454715  56.9025416
  73.1054937  30.8483917  56.8488015  72.3514743  31.0619055  56.8113248
  71.0749529  30.4274877  53.9390571  70.8971290  29.9751486  54.6645486
  70.7868551  31.2301038  54.1229048  71.0062482  30.4797435  54.0734074
  72.8121999  32.9602601  51.0512330  71.9467518  32.9488291  50.9395101
  72.9120815  32.7732823  51.8983469  72.6996166  32.9308662  51.1601274
  75.7792029  36.6773608  54.2721044  76.3836886  36.6369442  53.6434865
  75.5719341  37.5244760  54.3025100  75.8380926  36.7961610  54.1837160
  71.0143311  35.6608225  54.1419967  70.9167589  34.8504497  54.4510024
  71.7972181  35.6400019  53.7566235  71.1159447  35.5375315  54.1306830
  73.1458317  12.6774275  37.7971473  72.9108501  11.8441928  37.6903741
  73.2843957  12.9578941  36.9832673  73.1313979  12.5957779  37.6613828
  74.7075641  17.5559946  39.0727679  74.2243219  18.2810436  39.0487262
  75.5198960  17.8536076  39.1837836  74.7566389  17.7062300  39.0854958
  77.5619839  18.0716122  39.2247959  78.2640418  17.5568111  39.2820715
  77.4817322  18.3990273  40.0294834  77.6543599  18.0430348  39.3520751
  76.8870614  14.2622474  38.7333567  77.7259513  14.4945407  38.7807328
  76.9182383  13.3926785  38.6640602  77.0152332  14.1679420  38.7298211
  77.5123317  14.6823349  43.0346872  78.0521542  14.5394480  43.7050244
  76.8293263  15.0820100  43.4030898  77.4915471  14.7203020  43.1881294
  72.9160462  10.9023640  43.1881294  72.6498877  10.0862757  43.3472284
  72.9299026  10.9476796  42.3176809  72.8785184  10.7880545  43.0834776
  73.3253876  11.6882419  40.4693038  73.1429449  11.6629305  39.6165330
  74.0603545  12.1581357  40.5081947  73.4067940  11.7543782  40.3490956
  74.3559578  16.1879546  41.3871284  74.3963723  16.4594397  40.5591063
  74.9154102  16.7121454  41.8029072  74.4442924  16.3055301  41.3263172
  75.8074164  14.7721495  36.2125210  74.9812282  15.0183232  36.0859488
  75.8686155  14.6933576  37.0787268  75.6948331  14.7966444  36.3214154
  78.5278909  19.3665758  36.9804389  78.3079204  19.0763112  37.7731056
  78.3073431  18.7080713  36.4522302  78.4626503  19.2265466  37.0193298
  77.6428129  13.0934325  35.1702456  78.3974097  13.4747364  35.3837919
  77.0498742  13.5445469  35.6249153  77.6664843  13.2163153  35.2685334
  77.3362399  11.6727285  42.7009328  76.7450332  12.3136783  42.6712343
  78.0983422  12.0964902  42.6740628  77.3610659  11.8303124  42.6924475
  74.5938261  13.3461383  43.8443245  74.0638185  12.6553822  43.8938219
  74.8663354  13.3371568  43.0155953  74.5562983  13.2428515  43.7290661
  69.8734103  10.0189147  41.2011593  69.7677552   9.9735991  40.3363677
  69.1234323  10.3642927  41.4825878  69.7469706  10.0630055  41.1148923
  78.1329832  19.6678630  41.5582482  78.4476391  20.4815019  41.5660264
  78.5423246  19.2828849  42.2264641  78.2397930  19.7307333  41.6586574
  75.4742853  13.6151739  41.2061091  76.0787710  13.5747573  40.5774911
  75.2670165  14.4622891  41.2365146  75.5331750  13.7339741  41.1177207
  70.7094135  12.5986356  41.0760014  70.6118413  11.7882628  41.3850070
  71.4923005  12.5778150  40.6906282  70.8110271  12.4753447  41.0646877
  26.2485252  30.3773566  74.3111424  26.2179256  31.2318202  74.4829694
  26.8466600  30.0768858  74.8697568  26.3322409  30.4590062  74.4186227
  13.8326076  39.0011935  74.8301586  13.0808976  38.6227473  74.6017631
  14.2812088  39.0330368  74.0820397  13.7875743  38.9497542  74.6859089
  19.2851036  39.4237304  70.2587133  18.9502404  40.1014226  69.8231356
  19.7977906  39.0342615  69.6704005  19.3116617  39.4661882  70.1073925
  18.8255327  41.3751573  76.1998245  19.2094707  41.9438471  75.6603020
  18.7614469  40.6501083  75.7204061  18.8728754  41.3527036  76.0492108
  24.0701826  32.9525868  72.5829734  23.9541352  33.7033554  73.0121872
  24.8657713  32.6949821  72.8325821  24.1706416  33.0260715  72.6833826
  15.2511572  43.9307916  78.4979215  15.8949027  44.3721080  78.8875373
  15.5767827  43.1261342  78.4109474  15.3943401  43.8773111  78.5424692
  15.9532152  36.9419891  73.8699077  16.2747993  37.4825098  73.2660385
  16.6004248  36.3716662  74.0021366  16.0958207  36.9379066  73.8006112
  18.1921795  35.3306331  73.9413255  18.6315431  34.7223431  74.3868028
  18.0426458  34.9513704  73.1698720  18.2343261  35.1844802  73.8932422
  21.7931132  33.6833512  70.8944024  21.7082427  34.5394479  71.0393593
  22.2815515  33.4077836  71.5626183  21.8520029  33.7690833  71.0146106
  22.7249565  30.3018306  72.3941759  22.1961036  30.5177940  73.0539065
  23.2474585  30.9954445  72.3142729  22.7238018  30.4361443  72.4797358
  28.1797618  35.8764611  77.7674804  27.3495321  36.0875254  77.9308220
  28.1306870  35.0501665  77.4917087  28.0504353  35.7854217  77.7512169
  14.6149173  34.1981523  71.1949227  14.0306388  34.7031554  71.6015091
  14.2119268  33.9723910  70.4545819  14.4688476  34.2389771  71.1454252
  19.0726387  30.4447175  69.6718148  19.3122391  30.6525159  68.8593491
  19.3942228  29.6404684  69.7807092  19.1563545  30.3561276  69.5678701
  25.4361933  36.5463965  77.9039519  24.9997165  36.5500707  78.6598491
  25.1024848  37.2269464  77.4719097  25.3224553  36.6476421  77.9520352
  12.2835769  28.0585062  68.7278272  11.5693946  27.7723242  69.1400704
  12.7679738  28.3981688  69.3684659  12.2495132  28.0666712  68.8833907
  28.5706279  33.2644885  76.7959157  29.2322713  32.7035553  76.6955065
  27.9297691  32.7696916  77.1211848  28.5735147  33.1081294  76.8291497
  19.4583087  36.5615016  69.1040080  19.8734235  36.2300040  68.4124576
  18.6275017  36.3283919  68.9760217  19.3971096  36.4786272  68.9830927
  24.8571110  34.2810267  76.5371145  25.0926699  34.4255466  75.7097996
  25.0060674  35.0452675  76.9302659  24.9136913  34.4149322  76.4734749
  26.6861567  33.1211933  74.3740749  27.0169784  33.6539573  73.7680844
  27.2594655  33.1750821  75.0302700  26.8195246  33.2081502  74.3818531
  22.1516477  32.8125576  68.2901281  22.0696640  32.8827763  69.1556268
  22.7896198  33.3755320  68.0985022  22.2336314  32.9064547  68.3891231
  27.7940918  28.3622430  75.8780911  27.5377483  27.5502372  75.6878794
  28.6370232  28.3699997  75.6511098  27.8806944  28.2434428  75.8165728
  19.2556587  32.8346030  71.3009888  20.0697226  33.1260923  71.1892659
  19.1915728  32.1805892  70.7268181  19.3659326  32.7811225  71.1998725
  15.7667311  31.5269837  70.7657089  16.1512463  31.3077544  71.5173634
  15.5178931  32.3532783  70.8958166  15.7869383  31.6167983  70.8958166
  16.0490553  39.7474713  72.8389460  16.3388852  39.3563694  72.1148686
  16.7794034  39.9291418  73.2794735  16.1997437  39.7168527  72.7972267
  13.9896469  41.7242096  75.9049609  13.7696764  41.4339450  76.6976276
  13.7690991  41.0657051  75.3767522  13.9244063  41.5841804  75.9438518
  16.1564424  43.0971485  74.6880302  16.8088482  42.5647928  74.9171328
  15.4590033  42.7440138  75.0748176  16.1495142  42.9661008  74.7792469
  24.1504343  35.4175900  74.0311281  24.7162375  36.0769109  73.9469824
  23.5032246  35.7625598  74.5027683  24.1383099  35.5657841  74.0884037
  20.6210921  38.3614684  73.4548360  20.3797597  37.6282544  73.0475425
  20.8012254  38.9101541  72.8014693  20.6118545  38.3337075  73.2978583
  25.3467041  35.4682127  70.8236917  24.9673849  34.6819265  70.8166207
  24.6833286  36.0168984  70.6808562  25.1925515  35.4326951  70.8017714
  18.1713949  39.0195646  74.6625744  18.9363840  38.7505290  74.3408408
  18.0692039  38.5345657  75.3795807  18.2695444  38.9085211  74.7205571
  20.6932609  36.0507830  66.6425693  21.4605594  36.1107955  66.2331545
  20.2463918  35.4788271  66.1582012  20.7406037  35.9744406  66.5103403
  23.5927139  37.7127618  71.1588603  23.6746977  38.5194604  70.8350054
  24.0776882  37.7323577  71.8829377  23.6764297  37.8348281  71.2175502
  19.2285232  32.2622389  74.1280017  19.7700778  31.7592770  74.5918638
  19.5431791  32.2087584  73.3169502  19.3549629  32.1801810  74.0763829
  17.3971682  37.6539741  71.4120045  17.4664502  36.7954279  71.5513045
  18.1760137  37.8711622  71.0839070  17.5224532  37.5592605  71.3837202
  21.7879170  40.0777442  75.6256538  21.3958961  39.7744157  74.9079405
  21.9432242  40.9146532  75.4361492  21.7532759  40.1561279  75.4913035
  21.9518844  36.6427431  75.5662569  21.5933499  36.8142074  76.3426601
  21.4657555  37.1040636  75.0090567  21.8277541  36.7366402  75.5987838
  16.7407210  32.3226596  68.1062803  17.0299735  33.0991479  68.3806378
  16.8279009  31.8115328  68.8077303  16.7961466  32.3618515  68.2505301
  22.5569475  39.4812935  79.0586573  22.3589164  39.9703749  78.3642784
  21.9357186  39.6854176  79.6370706  22.4357039  39.5829473  79.0409796
  21.5338829  27.7159859  72.3616490  21.0061847  27.7988603  71.6722199
  21.9934537  28.4577731  72.3581135  21.5240679  27.8380522  72.2591185
  13.5271894  25.9862379  67.3857385  13.1784698  26.6382104  67.8488935
  13.0468340  25.9719492  66.6581256  13.4042138  26.0805433  67.3468477
  21.0875911  36.2863423  71.4926147  21.8110110  36.7521536  71.3490720
  20.6476502  36.3537033  70.7423744  21.1291603  36.3647260  71.3610929
  13.9296025  29.4788020  70.2276007  14.5641104  30.0748445  70.1625468
  14.0121636  29.1791478  71.0421877  14.0352576  29.5228929  70.3379093
  21.3479761  40.3484128  71.6524208  20.6309071  40.1744990  71.1871446
  21.9986499  40.1136700  71.1199694  21.3381611  40.2879920  71.5053426
  16.6292923  41.5845887  78.0814356  16.2153321  40.9220017  77.6918198
  17.3140297  41.7323745  77.5610050  16.6691295  41.5086545  77.9470853
  19.9958217  40.7435972  78.8337973  19.5974500  40.8538242  78.0658793
  19.3809437  40.9518038  79.4164533  19.8457106  40.7909540  78.8069272
  27.7300060  35.3187939  72.2181063  28.1133665  36.0679295  72.4479160
  26.9344173  35.5653758  71.9593053  27.6693842  35.4657632  72.2138637
  16.5415351  27.9907370  69.7941442  16.9214316  28.0086999  69.0092557
  15.8007947  28.4361359  69.6732290  16.4884189  28.0589145  69.6605011
  17.3400105  34.8284877  71.1850232  16.5311428  34.5051550  71.1383542
  17.8475014  34.1218099  71.1178481  17.2949772  34.6766193  71.1680527
  37.2217835  45.8958874  74.3111424  37.1911839  46.7503510  74.4829694
  37.8199184  45.5954166  74.8697568  37.3054993  45.9775370  74.4186227
  30.4217520  44.9834525  79.0664355  29.5655415  45.1443023  79.1173472
  30.4685174  44.1126589  79.0869416  30.3016631  44.8785326  79.0770421
  24.8058660  54.5197242  74.8301586  24.0541559  54.1412781  74.6017631
  25.2544671  54.5515676  74.0820397  24.7608326  54.4682850  74.6859089
  30.2583620  54.9422612  70.2587133  29.9234988  55.6199534  69.8231356
  30.7710490  54.5527923  69.6704005  30.2849201  54.9847190  70.1073925
  29.7987911  56.8936881  76.1998245  30.1827290  57.4623779  75.6603020
  29.7347052  56.1686391  75.7204061  29.8461338  56.8712344  76.0492108
  33.2669341  47.0426569  81.7096006  33.8125301  47.7211655  81.7689976
  33.2086217  46.9014029  80.8497588  33.3385255  47.1218570  81.5908067
  26.3843416  54.5315635  77.0964359  26.4853779  53.7215989  77.4061487
  25.7885161  54.4372581  76.4664037  26.3115954  54.3980663  77.0490597
  35.0434410  48.4711176  72.5829734  34.9273936  49.2218862  73.0121872
  35.8390296  48.2135129  72.8325821  35.1438999  48.5446023  72.6833826
  26.2244155  59.4493224  78.4979215  26.8681611  59.8906388  78.8875373
  26.5500411  58.6446650  78.4109474  26.3675984  59.3958419  78.5424692
  19.5808460  50.5535921  76.7216693  19.3458645  49.7203574  76.6148961
  19.7194101  50.8340587  75.9077893  19.5664123  50.4719425  76.5859048
  21.8798548  42.7221652  79.6201000  21.2603579  42.1314299  79.4511015
  21.7782411  43.3133087  78.9865323  21.7736223  42.7225734  79.5005990
  26.9264735  52.4605199  73.8699077  27.2480576  53.0010406  73.2660385
  27.5736832  51.8901970  74.0021366  27.0690790  52.4564374  73.8006112
  28.9766443  44.4621194  73.9533463  29.6746608  44.6409321  74.4454927
  29.2918776  43.9391533  73.3303853  29.1261780  44.4114966  73.9335473
  21.6067681  46.2673933  81.8644569  21.4826377  46.8536379  82.4994388
  22.2585965  45.7734129  82.1656844  21.6841330  46.2812738  82.0030499
  29.1654379  50.8491639  73.9413255  29.6048014  50.2408739  74.3868028
  29.0159041  50.4699012  73.1698720  29.2075844  50.7030110  73.8932422
  26.6326022  49.4435650  81.1432080  27.2775024  48.9508094  80.8243029
  26.8727799  49.5860437  81.9698159  26.7636607  49.3913093  81.2181614
  29.1712113  52.2890556  80.7938973  29.4535356  51.4941962  80.5725729
  29.8998273  52.7671144  80.8144034  29.3201677  52.2425153  80.7641988
  27.1493307  39.8313590  78.0354738  26.8196637  40.2824734  77.3658437
  26.4738309  39.7529754  78.5827744  27.0003743  39.8864725  78.0177961
  32.7663715  49.2018820  70.8944024  32.6815010  50.0579787  71.0393593
  33.2548098  48.9263144  71.5626183  32.8252612  49.2876141  71.0146106
  34.3569715  35.8199113  76.2804349  34.0423156  36.5102592  76.7124771
  33.8396656  35.7643895  75.5789849  34.2334185  35.9134002  76.2401298
  33.6982148  45.8203614  72.3941759  33.1693620  46.0363248  73.0539065
  34.2207168  46.5139753  72.3142729  33.6970601  45.9546751  72.4797358
  39.1530201  51.3949918  77.7674804  38.3227904  51.6060562  77.9308220
  39.1039454  50.5686973  77.4917087  39.0236937  51.3039525  77.7512169
  25.5881756  49.7166831  71.1949227  25.0038971  50.2216862  71.6015091
  25.1851851  49.4909218  70.4545819  25.4421060  49.7575079  71.1454252
  21.1425785  55.4321592  77.9972899  20.6593363  56.1572082  77.9732482
  21.9549103  55.7297722  78.1083056  21.1916533  55.5823946  78.0100178
  27.2139939  54.2253773  80.6022713  26.6966881  53.8661188  79.9984021
  27.9114330  53.7015947  80.6128779  27.2405520  54.0951461  80.5152972
  30.0458971  45.9632483  69.6718148  30.2854974  46.1710467  68.8593491
  30.3674812  45.1589992  69.7807092  30.1296129  45.8746584  69.5678701
  25.3549261  37.8925879  73.5177686  26.1095229  38.2604196  73.2794736
  25.1776795  38.2665433  74.2856865  25.4403739  38.0024067  73.5962574
  23.9969982  55.9477768  78.1493179  24.6990561  55.4329757  78.2065935
  23.9167465  56.2751919  78.9540054  24.0893743  55.9191994  78.2765971
  38.6484160  44.0420319  81.5625225  37.8112581  44.1122506  81.7972819
  38.6172391  44.0444814  80.6899527  38.5202442  44.0530546  81.4684773
  23.7106326  40.2996198  70.2155799  23.5281899  40.5168078  69.3896791
  24.5731939  40.4135210  70.2714413  23.8110915  40.3486096  70.1010286
  23.3220757  52.1384120  77.6578787  24.1609657  52.3707053  77.7052548
  23.3532527  51.2688431  77.5885822  23.4502475  52.0441066  77.6543431
  23.9473461  52.5584995  81.9592092  24.4871685  52.4156126  82.6295464
  23.2643407  52.9581746  82.3276118  23.9265614  52.5964666  82.1126514
  29.3906045  37.3022608  73.2504822  30.1192205  37.1238563  72.8042979
  29.4800938  38.1440688  73.4612001  29.5112707  37.4006487  73.2158340
  33.3714345  48.2375996  77.1537116  34.1271860  48.6707510  77.1926025
  33.4776670  47.5880765  77.7271752  33.4984516  48.2053480  77.2435142
  36.4094516  52.0649273  77.9039519  35.9729748  52.0686015  78.6598491
  36.0757432  52.7454772  77.4719097  36.2957136  52.1661729  77.9520352
  36.3291999  39.1063101  80.1468947  36.9717908  39.1761205  80.7330863
  36.5815020  38.4392324  79.6448489  36.4614132  39.0189449  80.1596227
  23.2568353  43.5770370  68.7278272  22.5426530  43.2908550  69.1400704
  23.7412321  43.9166996  69.3684659  23.2227716  43.5852020  68.8833907
  39.5438863  48.7830193  76.7959157  40.2055297  48.2220861  76.6955065
  38.9030275  48.2882224  77.1211848  39.5467730  48.6266602  76.8291497
  30.4315670  52.0800324  69.1040080  30.8466819  51.7485348  68.4124576
  29.6007600  51.8469226  68.9760217  30.3703679  51.9971580  68.9830927
  19.7604019  49.5644065  79.3938258  19.5779592  49.5390951  78.5410550
  20.4953688  50.0343003  79.4327167  19.8418083  49.6305427  79.2736176
  35.8303693  49.7995575  76.5371145  36.0659283  49.9440774  75.7097996
  35.9793257  50.5637983  76.9302659  35.8869497  49.9334630  76.4734749
  37.6594150  48.6397241  74.3740749  37.9902367  49.1724881  73.7680844
  38.2327238  48.6936129  75.0302700  37.7927829  48.7266810  74.3818531
  32.8726039  46.4862144  75.0564329  32.9672894  47.2251438  75.5103955
  32.2484883  46.0579619  75.4898894  32.7935069  46.5323464  75.1872477
  19.7274930  46.4437566  79.5437324  20.3048432  46.3074017  80.1829570
  19.0288991  45.9873350  79.7982909  19.7095951  46.3559832  79.6759614
  33.1249061  48.3310884  68.2901281  33.0429223  48.4013071  69.1556268
  33.7628781  48.8940628  68.0985022  33.2068898  48.4249855  68.3891231
  26.4842232  48.0971622  77.7575808  26.2261476  47.2643356  77.7307107
  26.5390715  48.3229235  76.9168308  26.4542010  48.0069393  77.6295944
  31.5643282  40.2000072  77.8579900  30.8599609  39.7109258  78.0163820
  31.6128256  40.2122547  76.9868345  31.4673333  40.1289720  77.7519240
  25.4576944  45.6509384  78.2440702  24.8826535  45.8101552  78.8804663
  25.0812620  45.0144793  77.7809153  25.3179756  45.5807197  78.2695261
  29.1250233  44.1232733  83.1033081  28.7364665  43.6986951  82.4485272
  28.4604931  44.3714883  83.6110107  28.9697160  44.0971454  83.0820949
  38.7673502  43.8807738  75.8780911  38.5110067  43.0687680  75.6878794
  39.6102816  43.8885305  75.6511098  38.8539527  43.7619735  75.8165728
  15.2033763  45.2949459  76.2585143  15.2894015  44.9181327  77.0398673
  15.8309560  44.9209904  75.7805101  15.3090314  45.1834941  76.3030620
  32.9476594  37.8207362  80.6157065  33.3287106  37.1385533  81.0024939
  32.1439878  37.5316964  80.4332730  32.8853056  37.6774411  80.6461121
  30.2289171  48.3531338  71.3009888  31.0429810  48.6446231  71.1892659
  30.1648312  47.6991200  70.7268181  30.3391910  48.2996533  71.1998725
  26.0997079  51.8252855  76.4282200  26.7371026  51.5864603  76.9733993
  26.5252151  52.0290014  75.6935361  26.2573245  51.8203866  76.3999357
  26.7399894  47.0455145  70.7657089  27.1245047  46.8262852  71.5173634
  26.4911514  47.8718091  70.8958166  26.7601967  47.1353291  70.8958166
  28.4818551  52.3025278  78.1075986  28.5557559  52.1400450  78.9617836
  29.2988057  52.4915468  77.8636468  28.6134910  52.3062020  78.1974012
  22.2424308  52.6483141  75.1370430  21.4162425  52.8944878  75.0104708
  22.3036299  52.5695222  76.0032488  22.1298475  52.6728090  75.2459374
  24.4600331  38.7152082  76.0965870  23.5922757  38.7874681  76.1623479
  24.7475536  39.5174161  76.2853845  24.3740080  38.8446229  76.1340636
  33.5833220  38.8629941  84.4277192  34.3286812  38.6739752  84.0140617
  33.1670525  39.3888179  83.8691048  33.6318194  38.9132087  84.2841765
  27.0223137  55.2660021  72.8389460  27.3121435  54.8749002  72.1148686
  27.7526618  55.4476726  73.2794735  27.1730021  55.2353835  72.7972267
  40.9595491  46.2339170  79.3782697  41.5103413  45.6007239  79.6179789
  40.9439606  46.7654563  80.0698201  41.0380687  46.2188118  79.5161555
  27.6117882  50.0677767  83.9242590  27.1129576  50.7793535  84.0027479
  28.4218106  50.3878434  83.8860752  27.6573989  50.2204616  83.9299159
  24.9629052  57.2427403  75.9049609  24.7429348  56.9524758  76.6976276
  24.7423574  56.5842359  75.3767522  24.8976647  57.1027112  75.9438518
  23.8746000  49.3300720  78.1705311  23.5859248  48.7038191  78.7051038
  24.7429348  49.2721007  78.2369991  23.9606251  49.2288264  78.2596266
  34.6623897  44.4735503  78.4887293  34.3188663  43.7525839  78.8394543
  34.7616940  44.2649355  77.6465651  34.6265940  44.3359707  78.4158973
  27.1297008  58.6156793  74.6880302  27.7821066  58.0833236  74.9171328
  26.4322617  58.2625446  75.0748176  27.1227726  58.4846316  74.7792469
  24.0778273  50.9695971  74.0947676  24.8324241  51.3509010  74.3083139
  23.4848886  51.4207115  74.5494373  24.1014986  51.0924798  74.1930554
  35.1236926  50.9361207  74.0311281  35.6894959  51.5954417  73.9469824
  34.4764830  51.2810906  74.5027683  35.1115683  51.0843149  74.0884037
  25.3976500  52.1404532  79.4687791  24.8757253  52.2804824  80.1539656
  25.7850520  51.3815197  79.6589909  25.3780200  52.0490056  79.5988868
  22.3867684  42.1910341  73.5382746  22.0992479  41.8211612  72.8014693
  23.0738152  42.6605196  73.2766451  22.4456581  42.2057310  73.3897822
  31.5943504  53.8799992  73.4548360  31.3530180  53.1467852  73.0475425
  31.7744837  54.4286849  72.8014693  31.5851128  53.8522383  73.2978583
  26.8242825  49.1708551  74.8669282  26.6285608  49.7783286  74.2729585
  27.0477171  48.4776495  74.3860956  26.8277466  49.1586077  74.7085363
  25.2221355  46.0563289  74.9850151  25.9444007  46.2204447  74.5253957
  24.7429348  46.7772954  74.8789491  25.2585086  46.1861519  74.9015765
  33.1814863  42.3927088  80.3646836  32.3425963  42.4188367  80.1285099
  33.2519230  43.0397824  80.9452182  33.0683256  42.4923214  80.4155953
  31.6284141  39.2912465  75.0974452  32.3310494  39.0920213  74.6194410
  31.3628330  38.5188408  75.4043295  31.6930773  39.1475431  75.0719893
  37.0572387  47.5995075  77.6508078  36.9706361  47.7550501  78.5042856
  36.6022866  48.2433150  77.2767483  36.9775643  47.7170830  77.7215184
  19.9595878  42.9691554  74.3868027  20.0612015  43.7717715  74.7149003
  20.7551765  42.7678890  74.0891108  20.0923784  43.0577452  74.3903383
  30.9298203  44.9205822  76.2733637  30.6832917  44.8401573  77.1070426
  31.2583326  44.1359290  76.0796165  30.9419446  44.7932087  76.3681160
  34.8246251  51.6289181  80.0620418  34.6860611  52.3270227  80.5669161
  34.0446249  51.4737838  79.7056600  34.6889478  51.7089348  80.0846692
  26.8895230  47.6562541  85.6856620  27.0338606  48.2363749  85.0499730
  27.2370878  48.0338837  86.3906475  26.9622691  47.7983245  85.6955615
  29.0615147  46.8552709  83.4681752  28.3138461  47.0483723  83.0630030
  29.2156672  46.0297929  83.2305873  28.9737575  46.7617820  83.3727158
  25.9622985  55.8465312  82.5517647  26.1112549  55.2868228  81.8991051
  26.7422987  55.9257314  82.9350166  26.0997078  55.7750878  82.5114596
  36.3199624  50.9867435  70.8236917  35.9406433  50.2004573  70.8166207
  35.6565870  51.5354292  70.6808562  36.1658099  50.9512259  70.8017714
  33.7744250  33.9293135  78.2270998  33.8927818  34.3869598  77.4938301
  33.6006426  33.1238396  77.9407216  33.7663421  33.8786907  78.0771932
  29.1446532  54.5380954  74.6625744  29.9096424  54.2690598  74.3408408
  29.0424622  54.0530965  75.3795807  29.2428028  54.4270519  74.7205571
  27.1799302  42.7405364  81.2018979  26.3895377  42.5596824  81.5236315
  27.5759925  41.9632316  81.1849274  27.1216178  42.5992825  81.2471528
  31.6665193  51.5693138  66.6425693  32.4338178  51.6293263  66.2331545
  31.2196502  50.9973579  66.1582012  31.7138620  51.4929714  66.5103403
  32.5642988  50.3747794  78.9278425  31.8887990  50.1433026  79.4291812
  32.5735365  49.7668977  78.3020530  32.4661493  50.2506719  78.9094578
  29.6937132  45.2165623  85.6842478  29.6296274  46.0775579  85.5562615
  29.8334320  44.8997616  84.8838030  29.7052603  45.2965789  85.5470691
  34.5659723  53.2312926  71.1588603  34.6479560  54.0379912  70.8350054
  35.0509465  53.2508885  71.8829377  34.6496881  53.3533589  71.2175502
  28.3756226  47.9097762  79.8258681  27.9518475  48.1102261  79.0897700
  28.2001082  47.0626610  79.9382981  28.2867107  47.8146544  79.7332371
  23.6638671  48.4049814  75.2586654  23.8203290  48.3396616  76.1142646
  24.0039264  49.1798366  75.0465333  23.7371906  48.5099012  75.3541248
  30.2017816  47.7807697  74.1280017  30.7433361  47.2778078  74.5918638
  30.5164375  47.7272892  73.3169502  30.3282213  47.6987118  74.0763829
  28.3704266  53.1725049  71.4120045  28.4397086  52.3139587  71.5513045
  29.1492721  53.3896930  71.0839070  28.4957116  53.0777913  71.3837202
  31.3507085  42.6744002  84.1802317  31.5649055  42.0354916  83.6265671
  30.7340984  43.1189825  83.7510179  31.2912415  42.6454145  84.0352749
  32.7611753  55.5962750  75.6256538  32.3691545  55.2929465  74.9079405
  32.9164825  56.4331840  75.4361492  32.7265343  55.6746587  75.4913035
  20.2372933  45.5884764  75.5747421  20.6171898  46.0069309  74.9107688
  19.6628298  46.1698220  75.8816264  20.2084258  45.7362623  75.5224162
  33.5146173  44.2833067  85.1185625  32.7022855  43.9758957  85.1998797
  33.9736108  43.8032067  85.6828337  33.4626558  44.1669559  85.2140219
  32.9251428  52.1612739  75.5662569  32.5666083  52.3327382  76.3426601
  32.4390139  52.6225944  75.0090567  32.8010125  52.2551710  75.5987838
  30.7421814  35.7843937  79.1689660  29.8715372  35.7582658  79.1222970
  30.9962155  35.6121129  78.3515506  30.6515374  35.7554081  79.0409797
  27.7139793  47.8411904  68.1062803  28.0032318  48.6176787  68.3806378
  27.8011592  47.3300636  68.8077303  27.7694050  47.8803823  68.2505301
  27.7670954  37.7950166  80.6263131  27.2509443  37.1030357  80.7514710
  27.2064883  38.4620943  80.5725729  27.6077468  37.7913423  80.6369197
  35.8113167  44.9005781  81.0795685  35.3840775  44.8132129  80.3243785
  35.1739220  45.0083556  81.6650529  35.6542775  44.9038441  81.0541127
  23.8803734  47.1545169  80.2062915  23.0391741  47.0549043  80.4141809
  24.0893742  47.9240649  80.5577236  23.7868427  47.2537212  80.2890230
  21.3579301  44.7764706  78.0347666  20.9635999  44.8507717  77.2597776
  20.8019418  45.1622652  78.5856028  21.2182114  44.8446480  78.0015326
  32.9944248  37.7546000  77.7151545  33.1993841  37.6868308  78.5608542
  32.6670672  38.5604821  77.6472722  32.9759496  37.8631940  77.8311200
  27.6920399  45.0826568  79.4560513  27.3883537  44.5282556  80.0570921
  26.9899820  45.2618778  78.9688547  27.5436609  45.0271350  79.4730219
  26.7486496  42.3927088  74.0205215  27.0246231  41.6746000  73.6082782
  27.3485166  42.9912008  73.8126321  26.8779761  42.3747458  73.9285976
  36.2477936  38.3077764  77.1954310  35.6352249  38.7948166  77.5808042
  36.3442111  37.6321255  77.7391962  36.1715833  38.2796073  77.3333169
  30.2497017  40.0640605  72.2951810  30.7040763  40.2351165  73.0199654
  30.7237063  39.4508716  71.8949585  30.3865337  39.9991490  72.3425571
  23.7712542  49.5488931  81.6254548  23.1800475  50.1898429  81.5957563
  24.5333566  49.9726548  81.5985848  23.7960803  49.7064769  81.6169695
  33.5302058  54.9998243  79.0586573  33.3321747  55.4889057  78.3642784
  32.9089770  55.2039484  79.6370706  33.4089623  55.1014781  79.0409796
  27.5910037  46.7683139  73.3996817  28.3352082  47.1557416  73.6379767
  27.7370733  45.9240565  73.5637305  27.7220622  46.7013612  73.4590787
  29.5089612  38.5633398  78.4328678  28.6625657  38.7356206  78.3070028
  29.5060745  37.7582742  78.7694507  29.3836762  38.4694427  78.4639805
  30.5787913  42.3408613  79.2990736  30.1047867  41.8150375  79.8096047
  30.9506048  41.7938086  78.7305598  30.5637802  42.1824609  79.2905884
  36.8424643  47.4010988  80.7097517  36.6022866  46.5617404  80.7139943
  37.3216650  47.4811155  81.4338290  36.8776827  47.2892388  80.8172319
  32.5071412  43.2345167  72.3616490  31.9794431  43.3173911  71.6722199
  32.9667120  43.9763039  72.3581135  32.4973263  43.3565830  72.2591185
  38.8429830  44.1812446  78.6626776  38.6039600  44.1408280  77.8247561
  39.0063732  45.0283598  78.7892497  38.8320134  44.3004531  78.5580258
  24.3162729  43.1622568  81.3284700  23.6915799  43.1740960  80.7210653
  23.9808324  43.6382744  81.9775940  24.1748221  43.2341085  81.3341269
  24.5004477  41.5047687  67.3857385  24.1517282  42.1567412  67.8488935
  24.0200923  41.4904800  66.6581256  24.3774721  41.5990740  67.3468477
  32.0608495  51.8048731  71.4926147  32.7842694  52.2706844  71.3490720
  31.6209086  51.8722341  70.7423744  32.1024187  51.8832568  71.3610929
  31.2294650  48.6646273  82.7426836  30.6151643  48.1204323  83.0375471
  31.7461935  48.1510510  82.2632652  31.2150312  48.5082682  82.7151065
  30.4690947  49.7350543  80.4771135  30.0418555  49.1100262  80.0436570
  30.4615891  49.4525465  81.3030142  30.4050088  49.6003324  80.5350962
  28.7976657  40.6119298  80.6913669  28.8219144  40.0779410  80.0026449
  29.0488130  40.1036607  81.3539259  28.8386575  40.4580202  80.6878313
  25.0777979  39.3390116  80.0719413  25.1176351  39.8399323  80.7854121
  24.2527644  39.4300510  79.8025336  24.9617505  39.4271932  80.1369951
  26.4992342  45.8550626  82.3693312  25.6684272  46.0224444  82.1628560
  26.4443860  45.4786577  83.1542197  26.3681757  45.8240357  82.4541840
  24.8728386  44.1306217  72.8983430  25.0131347  44.6278682  73.6012071
  25.3710919  43.4292512  73.0397643  24.9669467  44.1008196  73.0235009
  24.9028609  44.9973328  70.2276007  25.5373688  45.5933753  70.1625468
  24.9854219  44.6976786  71.0421877  25.0085160  45.0414237  70.3379093
  26.4807591  40.9287304  70.2021449  26.8023432  40.4490386  69.5480711
  26.7434535  41.7386950  70.0112260  26.5673617  40.9777202  70.0776941
  29.7104564  51.9506178  83.7220265  29.2029655  52.5042025  84.1660895
  29.4131210  52.0114468  82.9039039  29.5909449  52.0412489  83.6668721
  31.8766746  40.3159498  82.5644928  32.3021818  39.8632024  81.9528454
  31.2623740  39.7619568  82.8409715  31.8495392  40.1673474  82.5149953
  21.4081596  47.1941169  73.4965553  21.9173826  47.7905677  73.8776858
  21.8815869  46.9267143  72.8141972  21.5524972  47.2426985  73.4520075
  30.3160969  36.7874598  75.9735505  29.6729287  36.6372244  76.5420643
  29.9760376  36.5416943  75.2084609  30.1706047  36.7286720  75.9438520
  34.9060316  44.7434024  75.3965513  34.2351506  45.2863727  75.2678579
  35.6000066  45.2128880  75.1547208  34.9089183  44.8932296  75.3421041
  28.9547049  56.8830736  80.6277272  28.7312704  56.1249566  80.9961298
  28.4656893  56.9128758  79.9057711  28.8490498  56.7752961  80.5754013
  35.0688443  41.1989908  78.3055887  35.4216053  40.7719631  78.9801685
  34.2103245  41.1140752  78.4356963  34.9937888  41.1234649  78.4250897
  23.7672128  43.8297428  76.3638733  23.0484117  44.2461560  76.6311597
  24.1384490  44.3951666  75.8130371  23.7164060  43.9746709  76.3221540
  33.0671709  44.4625277  82.2540729  33.0469636  44.2808572  83.1075508
  33.1150910  45.3337295  82.2300312  33.0706350  44.5641815  82.3764024
  27.6025506  57.1031194  78.0814356  27.1885905  56.4405325  77.6918198
  28.2872881  57.2509053  77.5610050  27.6423878  57.0271853  77.9470853
  30.9690801  56.2621280  78.8337973  30.5707084  56.3723550  78.0658793
  30.3542020  56.4703346  79.4164533  30.8189690  56.3094848  78.8069272
  29.5418703  42.8695428  71.7012113  28.9483542  43.1912424  71.1496680
  29.5793980  42.0236523  71.4933219  29.4593092  42.7919756  71.5894884
  36.5012503  36.3208320  79.2340199  35.9943368  35.6137459  79.1661377
  37.2979937  35.9901509  79.3641276  36.5439742  36.1681471  79.2439194
  32.4176519  42.8274932  75.1313863  32.1890212  42.8507634  74.2892221
  32.6774595  42.0032399  75.2508873  32.4222707  42.7091012  75.0239060
  25.4721282  41.3651478  76.4268058  25.9478648  41.7268558  75.7918240
  24.9709881  42.0207946  76.7068201  25.4686641  41.5145667  76.3744799
  38.7032643  50.8373246  72.2181063  39.0866249  51.5864603  72.4479160
  37.9076757  51.0839066  71.9593053  38.6426425  50.9842940  72.2138637
  27.5147935  43.5092678  69.7941442  27.8946900  43.5272307  69.0092557
  26.7740531  43.9546667  69.6732290  27.4616773  43.5774453  69.6605011
  35.1433225  41.8174869  75.3817021  35.1427452  41.6623526  76.2401297
  34.9389405  42.6637856  75.3258407  35.1133003  41.9195490  75.5004960
  32.8674077  46.4972371  79.0353228  33.3627743  45.7795366  78.9957248
  32.0573853  46.1943169  78.9207715  32.8217971  46.3470017  79.0126954
  28.3132689  50.3470184  71.1850232  27.5044012  50.0236858  71.1383542
  28.8207598  49.6403407  71.1178481  28.2682356  50.1951501  71.1680527
  18.9422966  47.7742378  76.9097597  18.0768486  47.7628068  76.7980368
  19.0421782  47.5872600  77.7568736  18.8297133  47.7448439  77.0186541
  34.9325896  49.2476059  81.7230357  35.3580968  48.7250481  81.1700782
  34.5682816  49.8456896  81.2018980  34.9412499  49.2586286  81.5639366
  24.5679976  57.5440276  80.4827702  24.8826535  58.3576665  80.4905484
  24.9773389  57.1590495  81.1509861  24.6748074  57.6068979  80.5831794
  31.5204496  52.9610323  78.0531514  31.9915674  53.6750586  78.2221499
  31.8564674  52.3609073  78.5891384  31.6399611  52.9781787  78.1563890
  34.9672306  40.8213612  82.2010399  34.3835295  41.3222818  81.7887967
  35.2876600  40.3143168  81.5674722  34.9285482  40.8205447  82.0468906
  27.5067105  39.7354206  72.4769074  28.3282800  39.9052519  72.2350769
  27.0436756  39.8901467  71.7535372  27.5598268  39.7835939  72.3340718
  21.9092996  51.4913385  80.1306311  22.5137854  51.4509219  79.5020131
  21.7020309  52.3384537  80.1610366  21.9681893  51.6101387  80.0422427
  31.7236768  53.7579330  81.3468548  32.5435142  53.6142296  81.6084843
  31.4430846  54.3825529  81.8884986  31.8033512  53.8289682  81.4656487
  39.9499027  59.9806501  73.9533463  40.6479191  60.1594629  74.4454927
  40.2651359  59.4576841  73.3303853  40.0994364  59.9300274  73.9335473
  38.1225890  55.3498898  78.0354738  37.7929220  55.8010042  77.3658437
  37.4470892  55.2715061  78.5827744  37.9736327  55.4050033  78.0177961
  45.3302298  51.3384421  76.2804349  45.0155739  52.0287900  76.7124771
  44.8129240  51.2829203  75.5789849  45.2066769  51.4319310  76.2401298
  36.5614340  65.2352139  71.1949227  35.9771555  65.7402170  71.6015091
  36.1584435  65.0094526  70.4545819  36.4153644  65.2760387  71.1454252
  41.0191554  61.4817791  69.6718148  41.2587558  61.6895775  68.8593491
  41.3407395  60.6775300  69.7807092  41.1028712  61.3931892  69.5678701
  36.3281844  53.4111187  73.5177686  37.0827812  53.7789504  73.2794736
  36.1509379  53.7850741  74.2856865  36.4136323  53.5209374  73.5962574
  34.6838909  55.8181506  70.2155799  34.5014482  56.0353386  69.3896791
  35.5464522  55.9320518  70.2714413  34.7843499  55.8671403  70.1010286
  40.3638628  52.8207916  73.2504822  41.0924789  52.6423871  72.8042979
  40.4533521  53.6625996  73.4612001  40.4845290  52.9191795  73.2158340
  34.2300936  59.0955678  68.7278272  33.5159113  58.8093858  69.1400704
  34.7144905  59.4352304  69.3684659  34.1960299  59.1037328  68.8833907
  41.4048254  67.5985632  69.1040080  41.8199403  67.2670656  68.4124576
  40.5740184  67.3654534  68.9760217  41.3436263  67.5156888  68.9830927
  44.0981644  63.8496192  68.2901281  44.0161807  63.9198379  69.1556268
  44.7361365  64.4125935  68.0985022  44.1801482  63.9435163  68.3891231
  26.1766346  60.8134767  76.2585143  26.2626598  60.4366635  77.0398673
  26.8042144  60.4395212  75.7805101  26.2822897  60.7020249  76.3030620
  41.2021754  63.8716646  71.3009888  42.0162393  64.1631539  71.1892659
  41.1380896  63.2176508  70.7268181  41.3124493  63.8181841  71.1998725
  37.7132478  62.5640453  70.7657089  38.0977630  62.3448160  71.5173634
  37.4644098  63.3903398  70.8958166  37.7334550  62.6538599  70.8958166
  35.4332915  54.2337390  76.0965870  34.5655340  54.3059989  76.1623479
  35.7208119  55.0359469  76.2853845  35.3472663  54.3631537  76.1340636
  33.3600267  57.7095649  73.5382746  33.0725063  57.3396919  72.8014693
  34.0470735  58.1790504  73.2766451  33.4189164  57.7242618  73.3897822
  36.1953939  61.5748597  74.9850151  36.9176591  61.7389755  74.5253957
  35.7161931  62.2958262  74.8789491  36.2317669  61.7046827  74.9015765
  42.6016725  54.8097773  75.0974452  43.3043077  54.6105521  74.6194410
  42.3360913  54.0373715  75.4043295  42.6663357  54.6660739  75.0719893
  30.9328462  58.4876862  74.3868027  31.0344598  59.2903023  74.7149003
  31.7284348  58.2864197  74.0891108  31.0656367  58.5762760  74.3903383
  44.7476834  49.4478443  78.2270998  44.8660402  49.9054906  77.4938301
  44.5739009  48.6423704  77.9407216  44.7396005  49.3972215  78.0771932
  42.6397777  67.0878446  66.6425693  43.4070762  67.1478571  66.2331545
  42.1929085  66.5158887  66.1582012  42.6871204  67.0115022  66.5103403
  31.2105516  61.1070072  75.5747421  31.5904481  61.5254617  74.9107688
  30.6360881  61.6883528  75.8816264  31.1816841  61.2547931  75.5224162
  41.7154398  51.3029245  79.1689660  40.8447955  51.2767966  79.1222970
  41.9694739  51.1306437  78.3515506  41.6247958  51.2739389  79.0409797
  38.6872377  63.3597212  68.1062803  38.9764902  64.1362095  68.3806378
  38.7744176  62.8485944  68.8077303  38.7426633  63.3989130  68.2505301
  37.7219080  57.9112396  74.0205215  37.9978814  57.1931308  73.6082782
  38.3217749  58.5097316  73.8126321  37.8512345  57.8932766  73.9285976
  41.2229600  55.5825913  72.2951810  41.6773347  55.7536473  73.0199654
  41.6969646  54.9694024  71.8949585  41.3597921  55.5176798  72.3425571
  38.5642620  62.2868447  73.3996817  39.3084665  62.6742724  73.6379767
  38.7103317  61.4425873  73.5637305  38.6953205  62.2198920  73.4590787
  40.4822196  54.0818706  78.4328678  39.6358241  54.2541514  78.3070028
  40.4793328  53.2768050  78.7694507  40.3569346  53.9879735  78.4639805
  43.4803996  58.7530475  72.3616490  42.9527015  58.8359219  71.6722199
  43.9399704  59.4948347  72.3581135  43.4705846  58.8751138  72.2591185
  35.4737061  57.0232995  67.3857385  35.1249865  57.6752720  67.8488935
  34.9933507  57.0090108  66.6581256  35.3507305  57.1176048  67.3468477
  35.8460970  59.6491525  72.8983430  35.9863931  60.1463990  73.6012071
  36.3443503  58.9477820  73.0397643  35.9402051  59.6193504  73.0235009
  35.8761192  60.5158636  70.2276007  36.5106272  61.1119061  70.1625468
  35.9586803  60.2162094  71.0421877  35.9817743  60.5599544  70.3379093
  37.4540175  56.4472612  70.2021449  37.7756016  55.9675694  69.5480711
  37.7167119  57.2572258  70.0112260  37.5406200  56.4962510  70.0776941
  32.3814180  62.7126477  73.4965553  32.8906409  63.3090985  73.8776858
  32.8548452  62.4452451  72.8141972  32.5257556  62.7612293  73.4520075
  41.2893553  52.3059905  75.9735505  40.6461871  52.1557552  76.5420643
  40.9492960  52.0602251  75.2084609  41.1438630  52.2472028  75.9438520
  34.7404712  59.3482736  76.3638733  34.0216701  59.7646868  76.6311597
  35.1117074  59.9136974  75.8130371  34.6896644  59.4932017  76.3221540
  40.5151286  58.3880736  71.7012113  39.9216125  58.7097732  71.1496680
  40.5526564  57.5421831  71.4933219  40.4325675  58.3105064  71.5894884
  43.3909103  58.3460240  75.1313863  43.1622796  58.3692941  74.2892221
  43.6507179  57.5217707  75.2508873  43.3955291  58.2276320  75.0239060
  36.4453865  56.8836786  76.4268058  36.9211231  57.2453866  75.7918240
  35.9442465  57.5393254  76.7068201  36.4419224  57.0330975  76.3744799
  38.4880518  59.0277986  69.7941442  38.8679483  59.0457615  69.0092557
  37.7473114  59.4731975  69.6732290  38.4349356  59.0959761  69.6605011
  39.2865272  65.8655492  71.1850232  38.4776595  65.5422166  71.1383542
  39.7940181  65.1588714  71.1178481  39.2414939  65.7136809  71.1680527
  29.9155550  63.2927685  76.9097597  29.0501069  63.2813376  76.7980368
  30.0154366  63.1057908  77.7568736  29.8029717  63.2633747  77.0186541
  38.4799689  55.2539514  72.4769074  39.3015383  55.4237827  72.2350769
  38.0169340  55.4086775  71.7535372  38.5330851  55.3021247  72.3340718
  25.9436075   7.3151697  61.2451471  25.9130080   8.1696334  61.4169741
  26.5417424   7.0146989  61.8037615  26.0273233   7.3968193  61.3526273
  13.5276900  15.9390066  61.7641633  12.7759800  15.5605604  61.5357678
  13.9762912  15.9708499  61.0160443  13.4826567  15.8875673  61.6199135
  18.9801860  16.3615435  57.1927180  18.6453228  17.0392357  56.7571402
  19.4928730  15.9720746  56.6044052  19.0067441  16.4040013  57.0413972
  18.5206151  18.3129704  63.1338292  18.9045531  18.8816603  62.5943067
  18.4565292  17.5879214  62.6544108  18.5679578  18.2905167  62.9832154
  23.7652650   9.8903999  59.5169781  23.6492176  10.6411685  59.9461919
  24.5608537   9.6327952  59.7665868  23.8657239   9.9638846  59.6173873
  14.9462396  20.8686047  65.4319262  15.5899851  21.3099211  65.8215420
  15.2718651  20.0639473  65.3449520  15.0894224  20.8151242  65.4764739
  15.6482976  13.8798022  60.8039123  15.9698817  14.4203229  60.2000432
  16.2955072  13.3094793  60.9361413  15.7909031  13.8757197  60.7346159
  17.8872619  12.2684462  60.8753302  18.3266254  11.6601562  61.3208074
  17.7377282  11.8891835  60.1038767  17.9294085  12.1222933  60.8272469
  21.4881956  10.6211643  57.8284071  21.4033251  11.4772610  57.9733640
  21.9766339  10.3455967  58.4966230  21.5470853  10.7068965  57.9486152
  22.4200389   7.2396437  59.3281806  21.8911860   7.4556071  59.9879112
  22.9425409   7.9332576  59.2482775  22.4188842   7.3739574  59.4137405
  27.8748442  12.8142742  64.7014850  27.0446145  13.0253385  64.8648267
  27.8257694  11.9879796  64.4257134  27.7455177  12.7232348  64.6852216
  14.3099997  11.1359654  58.1289274  13.7257212  11.6409685  58.5355138
  13.9070092  10.9102041  57.3885866  14.1639300  11.1767902  58.0794299
  18.7677211   7.3825306  56.6058195  19.0073215   7.5903290  55.7933538
  19.0893052   6.5782815  56.7147139  18.8514369   7.2939407  56.5018748
  25.1312757  13.4842096  64.8379566  24.6947989  13.4878839  65.5938538
  24.7975672  14.1647595  64.4059144  25.0175377  13.5854552  64.8860399
  28.2657103  10.2023016  63.7299203  28.9273537   9.6413685  63.6295112
  27.6248515   9.7075047  64.0551895  28.2685971  10.0459425  63.7631544
  19.1533911  13.4993147  56.0380127  19.5685059  13.1678171  55.3464622
  18.3225840  13.2662050  55.9100263  19.0921920  13.4164403  55.9170974
  24.5521934  11.2188398  63.4711192  24.7877523  11.3633597  62.6438043
  24.7011497  11.9830806  63.8642706  24.6087737  11.3527453  63.4074796
  26.3812391  10.0590064  61.3080796  26.7120608  10.5917705  60.7020891
  26.9545479  10.1128952  61.9642747  26.5146070  10.1459633  61.3158578
  21.8467301   9.7503707  55.2241328  21.7647463   9.8205894  56.0896315
  22.4847021  10.3133451  55.0325069  21.9287138   9.8442678  55.3231278
  18.9507411   9.7724161  58.2349935  19.7648050  10.0639054  58.1232706
  18.8866552   9.1184024  57.6608228  19.0610150   9.7189356  58.1338772
  15.4618134   8.4647968  57.6997136  15.8463287   8.2455675  58.4513681
  15.2129755   9.2910914  57.8298212  15.4820207   8.5546115  57.8298213
  15.7441377  16.6852844  59.7729506  16.0339675  16.2941826  59.0488733
  16.4744858  16.8669549  60.2134782  15.8948261  16.6546658  59.7312313
  13.6847293  18.6620227  62.8389656  13.4647588  18.3717581  63.6316323
  13.4641815  18.0035182  62.3107568  13.6194887  18.5219935  62.8778565
  15.8515248  20.0349617  61.6220349  16.5039306  19.5026059  61.8511375
  15.1540857  19.6818269  62.0088223  15.8445966  19.9039140  61.7132516
  23.8455167  12.3554031  60.9651328  24.4113199  13.0147241  60.8809871
  23.1983070  12.7003729  61.4367730  23.8333923  12.5035972  61.0224084
  20.3161745  15.2992815  60.3888407  20.0748421  14.5660676  59.9815472
  20.4963078  15.8479672  59.7354740  20.3069369  15.2715206  60.2318630
  25.0417865  12.4060258  57.7576964  24.6624673  11.6197396  57.7506254
  24.3784110  12.9547115  57.6148609  24.8876339  12.3705082  57.7357761
  17.8664773  15.9573777  61.5965791  18.6314664  15.6883421  61.2748455
  17.7642863  15.4723788  62.3135853  17.9646268  15.8463342  61.6545618
  20.3883433  12.9885961  53.5765740  21.1556418  13.0486086  53.1671592
  19.9414742  12.4166403  53.0922058  20.4356861  12.9122537  53.4443450
  23.2877963  14.6505749  58.0928650  23.3697801  15.4572736  57.7690101
  23.7727706  14.6701709  58.8169424  23.3715121  14.7726412  58.1515549
  18.9236056   9.2000520  61.0620064  19.4651602   8.6970901  61.5258684
  19.2382615   9.1465715  60.2509549  19.0500453   9.1179941  61.0103876
  17.0922506  14.5917872  58.3460092  17.1615326  13.7332410  58.4853092
  17.8710961  14.8089753  58.0179116  17.2175356  14.4970736  58.3177249
  21.4829994  17.0155573  62.5596585  21.0909785  16.7122288  61.8419451
  21.6383066  17.8524663  62.3701539  21.4483583  17.0939410  62.4253082
  21.6469668  13.5805562  62.5002616  21.2884323  13.7520205  63.2766648
  21.1608379  14.0418768  61.9430614  21.5228365  13.6744533  62.5327885
  16.4358034   9.2604727  55.0402850  16.7250559  10.0369610  55.3146424
  16.5229833   8.7493459  55.7417349  16.4912290   9.2996646  55.1845348
  22.2520299  16.4191066  65.9926620  22.0539987  16.9081880  65.2982831
  21.6308010  16.6232307  66.5710753  22.1307863  16.5207604  65.9749843
  21.2289653   4.6537991  59.2956537  20.7012671   4.7366735  58.6062246
  21.6885361   5.3955862  59.2921182  21.2191503   4.7758653  59.1931232
  20.7826735  13.2241554  58.4266194  21.5060934  13.6899667  58.2830767
  20.3427326  13.2915164  57.6763791  20.8242427  13.3025391  58.2950975
  21.0430585  17.2862259  58.5864255  20.3259895  17.1123121  58.1211492
  21.6937322  17.0514831  58.0539741  21.0332435  17.2258052  58.4393473
  16.3243747  18.5224018  65.0154403  15.9104145  17.8598148  64.6258245
  17.0091121  18.6701877  64.4950097  16.3642118  18.4464676  64.8810900
  19.6909041  17.6814103  65.7678020  19.2925324  17.7916373  64.9998840
  19.0760260  17.8896169  66.3504579  19.5407930  17.7287671  65.7409319
  27.4250884  12.2566070  59.1521110  27.8084489  13.0057426  59.3819207
  26.6294997  12.5031889  58.8933099  27.3644666  12.4035764  59.1478684
  16.2366175   4.9285501  56.7281489  16.6165140   4.9465131  55.9432604
  15.4958771   5.3739490  56.6072337  16.1835013   4.9967276  56.5945057
  17.0350929  11.7663008  58.1190279  16.2262252  11.4429681  58.0723589
  17.5425838  11.0596230  58.0518528  16.9900596  11.6144324  58.1020574
  36.9168659  22.8337005  61.2451471  36.8862663  23.6881641  61.4169741
  37.5150008  22.5332297  61.8037615  37.0005817  22.9153501  61.3526273
  30.1168344  21.9212656  66.0004402  29.2606239  22.0821154  66.0513518
  30.1635998  21.0504720  66.0209463  29.9967455  21.8163458  66.0110468
  24.5009484  31.4575374  61.7641633  23.7492383  31.0790912  61.5357678
  24.9495495  31.4893807  61.0160443  24.4559150  31.4060981  61.6199135
  33.4262060  28.1899181  75.6064858  34.1328828  27.6951212  75.7351792
  33.6149996  28.6308263  74.8767516  33.5589966  28.1817532  75.5173903
  29.9534443  31.8800743  57.1927180  29.6185812  32.5577665  56.7571402
  30.4661314  31.4906054  56.6044052  29.9800025  31.9225321  57.0413972
  29.4938735  33.8315012  63.1338292  29.8778114  34.4001910  62.5943067
  29.4297876  33.1064522  62.6544108  29.5412162  33.8090475  62.9832154
  32.9620165  23.9804700  68.6436053  33.5076125  24.6589786  68.7030023
  32.9037041  23.8392161  67.7837635  33.0336079  24.0596701  68.5248114
  26.0794240  31.4693766  64.0304406  26.1804603  30.6594120  64.3401533
  25.4835985  31.3750712  63.4004084  26.0066778  31.3358794  63.9830644
  34.7385234  25.4089307  59.5169781  34.6224759  26.1596993  59.9461919
  35.5341120  25.1513260  59.7665868  34.8389823  25.4824154  59.6173873
  25.9194979  36.3871355  65.4319262  26.5632435  36.8284519  65.8215420
  26.2451235  35.5824781  65.3449520  26.0626808  36.3336550  65.4764739
  19.2759284  27.4914052  63.6556739  19.0409468  26.6581705  63.5489008
  19.4144925  27.7718718  62.8417940  19.2614947  27.4097556  63.5199094
  21.5749372  19.6599783  66.5541047  20.9554403  19.0692430  66.3851062
  21.4733235  20.2511218  65.9205370  21.4687047  19.6603865  66.4346037
  26.6215559  29.3983330  60.8039123  26.9431400  29.9388537  60.2000432
  27.2687656  28.8280101  60.9361413  26.7641614  29.3942505  60.7346159
  28.6717267  21.3999325  60.8873510  29.3697432  21.5787452  61.3794973
  28.9869600  20.8769664  60.2643900  28.8212604  21.3493097  60.8675520
  21.3018505  23.2052065  68.7984616  21.1777201  23.7914510  69.4334435
  21.9536789  22.7112260  69.0996891  21.3792154  23.2190869  68.9370545
  28.8605203  27.7869770  60.8753302  29.2998838  27.1786870  61.3208074
  28.7109865  27.4077143  60.1038767  28.9026668  27.6408241  60.8272469
  26.3276846  26.3813782  68.0772127  26.9725848  25.8886225  67.7583076
  26.5678623  26.5238568  68.9038205  26.4587431  26.3291224  68.1521660
  28.8662937  29.2268687  67.7279020  29.1486180  28.4320093  67.5065776
  29.5949097  29.7049275  67.7484081  29.0152501  29.1803284  67.6982035
  26.8444131  16.7691721  64.9694785  26.5147461  17.2202865  64.2998484
  26.1689133  16.6907885  65.5167791  26.6954567  16.8242857  64.9518008
  32.4614539  26.1396951  57.8284071  32.3765834  26.9957918  57.9733640
  32.9498922  25.8641275  58.4966230  32.5203436  26.2254272  57.9486152
  34.0520539  12.7577244  63.2144395  33.7373980  13.4480723  63.6464818
  33.5347480  12.7022027  62.5129896  33.9285009  12.8512133  63.1741345
  33.3932972  22.7581745  59.3281806  32.8644444  22.9741379  59.9879112
  33.9157992  23.4517884  59.2482775  33.3921425  22.8924882  59.4137405
  38.8481025  28.3328050  64.7014850  38.0178728  28.5438693  64.8648267
  38.7990278  27.5065104  64.4257134  38.7187761  28.2417656  64.6852216
  25.2832580  26.6544962  58.1289274  24.6989795  27.1594993  58.5355138
  24.8802675  26.4287349  57.3885866  25.1371884  26.6953210  58.0794299
  20.8376609  32.3699723  64.9312946  20.3544187  33.0950213  64.9072529
  21.6499927  32.6675853  65.0423103  20.8867356  32.5202077  64.9440225
  26.9090763  31.1631904  67.5362760  26.3917704  30.8039319  66.9324068
  27.6065154  30.6394078  67.5468826  26.9356344  31.0329592  67.4493019
  30.5654355  31.6126718  73.4978933  30.6537701  31.4252858  74.3457143
  30.9944067  30.9664147  73.0983780  30.6416457  31.4889726  73.5650684
  28.1324815  30.8957878  72.4796595  27.5695649  30.4830488  73.0036256
  28.8945838  30.8210784  72.8989738  28.1619263  30.8235278  72.6189596
  29.7409795  22.9010614  56.6058195  29.9805798  23.1088598  55.7933538
  30.0625636  22.0968123  56.7147139  29.8246952  22.8124715  56.5018748
  25.0500085  14.8304010  60.4517733  25.8046053  15.1982327  60.2134783
  24.8727619  15.2043564  61.2196912  25.1354563  14.9402198  60.5302621
  23.6920806  32.8855899  65.0833225  24.3941385  32.3707888  65.1405982
  23.6118289  33.2130050  65.8880100  23.7844566  32.8570125  65.2106018
  38.3434984  20.9798450  68.4965272  37.5063405  21.0500637  68.7312866
  38.3123214  20.9822945  67.6239574  38.2153266  20.9908677  68.4024820
  23.4057149  17.2374329  57.1495846  23.2232723  17.4546210  56.3236838
  24.2682762  17.3513342  57.2054460  23.5061739  17.2864227  57.0350333
  23.0171581  29.0762251  64.5918833  23.8560481  29.3085184  64.6392595
  23.0483351  28.2066562  64.5225869  23.1453299  28.9819197  64.5883478
  23.6424284  29.4963126  68.8932139  24.1822509  29.3534257  69.5635511
  22.9594231  29.8959877  69.2616165  23.6216438  29.5342797  69.0466561
  29.0856869  14.2400739  60.1844869  29.8143029  14.0616694  59.7383026
  29.1751762  15.0818819  60.3952047  29.2063531  14.3384618  60.1498387
  33.0665169  25.1754127  64.0877163  33.8222684  25.6085641  64.1266072
  33.1727494  24.5258897  64.6611799  33.1935340  25.1431611  64.1775189
  36.1045340  29.0027404  64.8379566  35.6680572  29.0064147  65.5938538
  35.7708256  29.6832903  64.4059144  35.9907960  29.1039860  64.8860399
  30.6774414  31.0435737  76.1622717  31.4614831  31.1566585  76.5278459
  30.4771009  30.2176874  76.3581402  30.7640439  30.9382456  76.2457103
  19.0461430  25.7163417  69.0466560  18.7799845  24.9002534  69.2057551
  19.0599994  25.7616573  68.1762076  19.0086152  25.6020322  68.9420042
  36.0242823  16.0441232  67.0808994  36.6668732  16.1139337  67.6670909
  36.2765844  15.3770455  66.5788536  36.1564955  15.9567581  67.0936273
  22.9519176  20.5148501  55.6618319  22.2377354  20.2286681  56.0740751
  23.4363145  20.8545127  56.3024706  22.9178540  20.5230151  55.8173953
  30.8344807  32.9545839  69.8089172  30.0360053  32.7145339  70.0663041
  31.2830819  33.0060232  70.5556220  30.7819419  32.9268230  69.9574096
  39.2389687  25.7208324  63.7299203  39.9006121  25.1598992  63.6295112
  38.5981099  25.2260355  64.0551895  39.2418554  25.5644733  63.7631544
  30.1266494  29.0178455  56.0380127  30.5417643  28.6863479  55.3464622
  29.2958424  28.7847358  55.9100263  30.0654503  28.9349711  55.9170974
  19.4554843  26.5022196  66.3278305  19.2730416  26.4769082  65.4750597
  20.1904512  26.9721134  66.3667213  19.5368907  26.5683559  66.2076223
  35.5254517  26.7373706  63.4711192  35.7610107  26.8818905  62.6438043
  35.6744081  27.5016114  63.8642706  35.5820321  26.8712761  63.4074796
  37.3544974  25.5775372  61.3080796  37.6853191  26.1103012  60.7020891
  37.9278062  25.6314260  61.9642747  37.4878653  25.6644941  61.3158578
  32.5676863  23.4240275  61.9904376  32.6623718  24.1629569  62.4444002
  31.9435707  22.9957751  62.4238941  32.4885893  23.4701596  62.1212524
  30.8229337  26.6026488  72.6394657  31.3968199  25.9653732  72.7943221
  30.7444141  26.6030570  71.7704315  30.8962572  26.5091599  72.5341068
  19.4225753  23.3815697  66.4777371  19.9999256  23.2452148  67.1169617
  18.7239815  22.9251481  66.7322956  19.4046775  23.2937963  66.6099661
  32.8199885  25.2689015  55.2241328  32.7380047  25.3391202  56.0896315
  33.4579605  25.8318759  55.0325069  32.9019722  25.3627986  55.3231278
  26.1793056  25.0349753  64.6915855  25.9212300  24.2021488  64.6647154
  26.2341539  25.2607366  63.8508355  26.1492834  24.9447524  64.5635991
  31.2594106  17.1378203  64.7919947  30.5550433  16.6487389  64.9503866
  31.3079080  17.1500678  63.9208392  31.1624157  17.0667851  64.6859287
  25.1527768  22.5887515  65.1780749  24.5777359  22.7479684  65.8144710
  24.7763444  21.9522924  64.7149200  25.0130580  22.5185328  65.2035308
  28.8201056  21.0610865  70.0373128  28.4315489  20.6365082  69.3825319
  28.1555755  21.3093014  70.5450154  28.6647984  21.0349586  70.0160996
  38.4624326  20.8185869  62.8120958  38.2060890  20.0065811  62.6218841
  39.3053640  20.8263436  62.5851145  38.5490351  20.6997867  62.7505775
  14.8984587  22.2327590  63.1925190  14.9844839  21.8559458  63.9738720
  15.5260384  21.8588036  62.7145148  15.0041138  22.1213072  63.2370667
  32.6427418  14.7585493  67.5497112  33.0237930  14.0763664  67.9364986
  31.8390702  14.4695095  67.3672776  32.5803880  14.6152542  67.5801168
  29.9239995  25.2909469  58.2349935  30.7380634  25.5824362  58.1232706
  29.8599136  24.6369331  57.6608228  30.0342734  25.2374664  58.1338772
  36.1449485  27.9735465  72.6479510  35.9088122  27.1423530  72.5291571
  36.7892714  27.9221072  73.2334355  36.2044156  27.8433153  72.7165404
  25.7947903  28.7630987  63.3622247  26.4321850  28.5242734  63.9074040
  26.2202975  28.9668145  62.6275407  25.9524069  28.7581997  63.3339404
  20.4860545  31.0019323  67.2456551  20.5264691  31.2734174  66.4176330
  21.0455069  31.5261231  67.6614338  20.5743891  31.1195078  67.1848439
  26.4350718  23.9833276  57.6997136  26.8195871  23.7640983  58.4513681
  26.1862338  24.8096222  57.8298212  26.4552791  24.0731423  57.8298213
  37.1685906  27.7579914  68.7107805  36.8631723  28.4907971  69.0721120
  36.4492121  27.3517843  68.4300591  37.0173248  27.8061647  68.7220942
  28.1769375  29.2403409  65.0416033  28.2508383  29.0778581  65.8957883
  28.9938881  29.4293599  64.7976515  28.3085734  29.2440152  65.1314059
  42.8687698  24.3972915  68.0376149  42.8012198  24.4168874  67.1678736
  42.8543360  25.2403242  68.2631820  42.8566454  24.5246649  67.9428626
  21.9375132  29.5861272  62.0710477  21.1113249  29.8323009  61.9444755
  21.9987123  29.5073353  62.9372535  21.8249299  29.6106221  62.1799421
  24.1551155  15.6530213  63.0305917  23.2873581  15.7252812  63.0963526
  24.4426360  16.4552292  63.2193892  24.0690903  15.7824360  63.0680683
  26.7173961  32.2038152  59.7729506  27.0072259  31.8127134  59.0488733
  27.4477442  32.3854857  60.2134782  26.8680845  32.1731966  59.7312313
  40.6546315  23.1717301  66.3122743  41.2054237  22.5385370  66.5519836
  40.6390430  23.7032694  67.0038248  40.7331511  23.1566249  66.4501602
  27.3068706  27.0055898  70.8582637  26.8080400  27.7171666  70.9367525
  28.1168930  27.3256565  70.8200799  27.3524813  27.1582747  70.8639205
  24.6579876  34.1805535  62.8389656  24.4380172  33.8902889  63.6316323
  24.4374398  33.5220490  62.3107568  24.5927470  34.0405243  62.8778565
  23.5696823  26.2678851  65.1045358  23.2810072  25.6416322  65.6391085
  24.4380172  26.2099139  65.1710038  23.6557075  26.1666395  65.1936312
  34.3574721  21.4113635  65.4227340  34.0139487  20.6903970  65.7734589
  34.4567764  21.2027486  64.5805698  34.3216764  21.2737838  65.3499020
  26.8247832  35.5534925  61.6220349  27.4771890  35.0211367  61.8511375
  26.1273441  35.2003577  62.0088223  26.8178550  35.4224448  61.7132516
  23.7729097  27.9074102  61.0287723  24.5275065  28.2887141  61.2423185
  23.1799709  28.3585246  61.4834419  23.7965810  28.0302930  61.1270601
  25.0927323  29.0782664  66.4027838  24.5708077  29.2182955  67.0879703
  25.4801344  28.3193328  66.5929956  25.0731024  28.9868187  66.5328915
  22.0818507  19.1288472  60.4722793  21.7943303  18.7589743  59.7354740
  22.7688976  19.5983328  60.2106498  22.1407405  19.1435442  60.3237869
  31.2894328  30.8178123  60.3888407  31.0481004  30.0845983  59.9815472
  31.4695661  31.3664980  59.7354740  31.2801952  30.7900514  60.2318630
  26.5193649  26.1086683  61.8009329  26.3236432  26.7161417  61.2069632
  26.7427995  25.4154627  61.3201003  26.5228290  26.0964208  61.6425410
  24.9172179  22.9941421  61.9190198  25.6394831  23.1582579  61.4594004
  24.4380172  23.7151085  61.8129537  24.9535910  23.1239650  61.8355812
  32.8765687  19.3305219  67.2986883  32.0376787  19.3566498  67.0625146
  32.9470054  19.9775955  67.8792229  32.7634080  19.4301345  67.3495999
  22.5679796  25.3999493  71.0244337  23.0800893  25.6783746  70.3753097
  22.2816138  26.1388787  71.3907151  22.6014659  25.5501847  70.9834216
  31.3234965  16.2290596  62.0314498  32.0261318  16.0298345  61.5534457
  31.0579154  15.4566539  62.3383342  31.3881597  16.0853562  62.0059940
  36.7523210  24.5373206  64.5848124  36.6657185  24.6928632  65.4382903
  36.2973690  25.1811282  64.2107529  36.6726467  24.6548961  64.6555231
  19.6546702  19.9069685  61.3208074  19.7562839  20.7095846  61.6489049
  20.4502589  19.7057021  61.0231155  19.7874608  19.9955584  61.3243429
  30.6249027  21.8583953  63.2073684  30.3783741  21.7779704  64.0410473
  30.9534150  21.0737421  63.0136211  30.6370270  21.7310219  63.3021207
  34.5197075  28.5667313  66.9960465  34.3811435  29.2648358  67.5009207
  33.7397073  28.4115969  66.6396647  34.3840302  28.6467479  67.0186739
  32.8575160  24.8663688  73.2482847  32.8523199  23.9943504  73.2525273
  33.5636154  25.0651857  72.7752302  32.9620164  24.7667562  73.1789882
  26.5846054  24.5940672  72.6196667  26.7289430  25.1741880  71.9839777
  26.9321702  24.9716968  73.3246522  26.6573515  24.7361376  72.6295662
  28.7565971  23.7930840  70.4021799  28.0089285  23.9861855  69.9970077
  28.9107496  22.9676060  70.1645920  28.6688399  23.6995952  70.3067204
  25.6573809  32.7843444  69.4857694  25.8063373  32.2246359  68.8331098
  26.4373811  32.8635445  69.8690213  25.7947902  32.7129009  69.4454643
  36.0150448  27.9245566  57.7576964  35.6357257  27.1382704  57.7506254
  35.3516694  28.4732423  57.6148609  35.8608923  27.8890390  57.7357761
  28.1827109  32.9558086  70.7642185  28.1070781  32.2866897  71.3192973
  28.1116969  33.6575875  71.2782851  28.1607716  32.9602994  70.9219033
  33.4695074  10.8671266  65.1611045  33.5878642  11.3247729  64.4278348
  33.2957250  10.0616527  64.8747263  33.4614245  10.8165038  65.0111979
  28.8397356  31.4759085  61.5965791  29.6047247  31.2068729  61.2748455
  28.7375446  30.9909096  62.3135853  28.9378852  31.3648650  61.6545618
  26.8750126  19.6783495  68.1359026  26.0846201  19.4974955  68.4576362
  27.2710749  18.9010447  68.1189321  26.8167002  19.5370956  68.1811575
  31.3616017  28.5071269  53.5765740  32.1289002  28.5671394  53.1671592
  30.9147326  27.9351711  53.0922058  31.4089444  28.4307845  53.4443450
  32.2593812  27.3125925  65.8618472  31.5838814  27.0811157  66.3631859
  32.2686189  26.7047108  65.2360577  32.1612317  27.1884850  65.8434624
  29.3887956  22.1543754  72.6182525  29.3247098  23.0153710  72.4902662
  29.5285144  21.8375747  71.8178076  29.4003426  22.2343921  72.4810738
  34.2610547  30.1691057  58.0928650  34.3430384  30.9758044  57.7690101
  34.7460289  30.1887017  58.8169424  34.3447705  30.2911720  58.1515549
  28.0707050  24.8475893  66.7598728  27.6469299  25.0480392  66.0237746
  27.8951905  24.0004741  66.8723028  27.9817931  24.7524675  66.6672418
  27.5718744  36.3626406  69.2220185  28.0614674  35.6637195  69.0395850
  27.0002976  36.0650276  69.8096243  27.5603274  36.2152630  69.2821226
  23.3589495  25.3427945  62.1926701  23.5154114  25.2774747  63.0482693
  23.6990088  26.1176497  61.9805380  23.4322730  25.4477143  62.2881295
  29.8968640  24.7185828  61.0620064  30.4384185  24.2156209  61.5258684
  30.2115199  24.6651023  60.2509549  30.0233037  24.6365249  61.0103876
  33.7685747  28.9288476  78.1746976  34.5820613  28.6573624  78.3352109
  33.6080714  28.6296016  77.3707172  33.8655696  28.8443402  78.0792382
  28.0655090  30.1103180  58.3460092  28.1347910  29.2517718  58.4853092
  28.8443545  30.3275061  58.0179116  28.1907940  30.0156044  58.3177249
  31.0457909  19.6122133  71.1142364  31.2599879  18.9733047  70.5605718
  30.4291808  20.0567957  70.6850226  30.9863238  19.5832276  70.9692795
  32.4562577  32.5340881  62.5596585  32.0642369  32.2307596  61.8419451
  32.6115649  33.3709971  62.3701539  32.4216167  32.6124718  62.4253082
  19.9323757  22.5262895  62.5087468  20.3122722  22.9447440  61.8447735
  19.3579122  23.1076351  62.8156311  19.9035082  22.6740754  62.4564209
  33.2096997  21.2211198  72.0525671  32.3973679  20.9137088  72.1338844
  33.6686932  20.7410198  72.6168384  33.1577382  21.1047690  72.1480266
  32.6202252  29.0990870  62.5002616  32.2616907  29.2705513  63.2766648
  32.1340963  29.5604076  61.9430614  32.4960949  29.1929841  62.5327885
  30.4372638  12.7222068  66.1029707  29.5666196  12.6960790  66.0563017
  30.6912979  12.5499261  65.2855553  30.3466198  12.6932212  65.9749844
  27.4090617  24.7790035  55.0402850  27.6983142  25.5554918  55.3146424
  27.4962416  24.2678767  55.7417349  27.4644874  24.8181954  55.1845348
  27.4621778  14.7328297  67.5603177  26.9460267  14.0408488  67.6854756
  26.9015707  15.3999074  67.5065776  27.3028292  14.7291555  67.5709243
  33.7806991  29.9894766  73.4469817  34.4186712  29.4954962  73.1132273
  33.1381083  29.9172166  72.8622043  33.7801218  29.9053774  73.3112172
  35.5063991  21.8383912  68.0135732  35.0791599  21.7510260  67.2583832
  34.8690044  21.9461687  68.5990576  35.3493599  21.8416572  67.9881174
  33.8361248  30.6814574  70.0875173  34.6253626  30.3303639  70.2077255
  34.0104846  31.4950963  69.8251807  33.9781530  30.7500431  70.0663041
  23.5754558  24.0923300  67.1402962  22.7342565  23.9927174  67.3481856
  23.7844566  24.8618780  67.4917283  23.4819251  24.1915343  67.2230277
  21.0530125  21.7142837  64.9687713  20.6586823  21.7885849  64.1937822
  20.4970242  22.1000783  65.5196075  20.9132938  21.7824611  64.9355373
  32.6895072  14.6924131  64.6491592  32.8944665  14.6246439  65.4948589
  32.3621496  15.4982952  64.5812769  32.6710320  14.8010071  64.7651247
  27.3871223  22.0204699  66.3900560  27.0834361  21.4660687  66.9910967
  26.6850644  22.1996909  65.9028594  27.2387433  21.9649481  66.4070265
  26.4437320  19.3305219  60.9545262  26.7197055  18.6124131  60.5422829
  27.0435990  19.9290139  60.7466368  26.5730585  19.3125590  60.8626023
  25.4489574  29.2354420  71.0972657  25.3409929  29.2456482  71.9634716
  25.6585356  30.0609200  70.9077611  25.4639685  29.3595495  71.1976749
  35.9428760  15.2455895  64.1294357  35.3303073  15.7326297  64.5148089
  36.0392935  14.5699386  64.6732008  35.8666657  15.2174204  64.2673215
  29.9447841  17.0018736  59.2291857  30.3991587  17.1729297  59.9539701
  30.4187886  16.3886847  58.8289632  30.0816161  16.9369622  59.2765618
  23.4663366  26.4867062  68.5594595  22.8751299  27.1276560  68.5297610
  24.2284390  26.9104679  68.5325895  23.4911627  26.6442901  68.5509742
  39.5853788  26.3172832  69.5571873  39.6436911  26.7659481  70.3031850
  38.9520255  26.7271645  69.1201953  39.5005083  26.4446567  69.6024422
  33.2252882  31.9376374  65.9926620  33.0272571  32.4267188  65.2982831
  32.6040593  32.1417615  66.5710753  33.1040447  32.0392912  65.9749843
  27.2860861  23.7061271  60.3336864  28.0302906  24.0935547  60.5719814
  27.4321557  22.8618696  60.4977352  27.4171446  23.6391743  60.3930834
  29.2040436  15.5011530  65.3668725  28.3576481  15.6734337  65.2410075
  29.2011569  14.6960873  65.7034554  29.0787586  15.4072558  65.3979852
  30.2738737  19.2786744  66.2330783  29.7998691  18.7528506  66.7436094
  30.6456872  18.7316217  65.6645645  30.2588626  19.1202741  66.2245930
  36.5375467  24.3389120  67.6437564  36.2973690  23.4995535  67.6479990
  37.0167474  24.4189286  68.3678337  36.5727651  24.2270519  67.7512366
  32.2022236  20.1723299  59.2956537  31.6745255  20.2552043  58.6062246
  32.6617944  20.9141170  59.2921182  32.1924087  20.2943961  59.1931232
  38.5380654  21.1190577  65.5966823  38.2990424  21.0786411  64.7587607
  38.7014555  21.9661729  65.7232544  38.5270958  21.2382662  65.4920305
  35.1426684  25.5040526  71.5271868  35.8660883  25.0513053  71.3482888
  34.8776647  25.7845192  70.7444196  35.2107958  25.4791495  71.3850583
  24.0113553  20.1000700  68.2624747  23.3866623  20.1119092  67.6550700
  23.6759148  20.5760875  68.9115987  23.8699045  20.1719217  68.2681316
  24.1955301  18.4425818  54.3197432  23.8468106  19.0945543  54.7828981
  23.7151747  18.4282931  53.5921303  24.0725545  18.5368872  54.2808523
  20.7239228  28.1601160  69.7028511  20.1939153  27.4693599  69.7523486
  20.9964322  28.1511345  68.8741220  20.6863951  28.0568292  69.5875927
  31.7559319  28.7426862  58.4266194  32.4793518  29.2084975  58.2830767
  31.3159910  28.8100472  57.6763791  31.7975011  28.8210699  58.2950975
  30.9245474  25.6024404  69.6766883  30.3102467  25.0582455  69.9715518
  31.4412759  25.0888641  69.1972699  30.9101136  25.4460813  69.6491111
  30.1641771  26.6728674  67.4111182  29.7369379  26.0478393  66.9776617
  30.1566715  26.3903596  68.2370189  30.1000912  26.5381455  67.4691009
  28.4927481  17.5497429  67.6253716  28.5169968  17.0157541  66.9366496
  28.7438954  17.0414738  68.2879306  28.5337399  17.3958333  67.6218360
  16.0035071  24.8328924  67.0596860  15.8978520  24.7875768  66.1948944
  15.2535290  25.1782704  67.3411145  15.8770673  24.8769832  66.9734189
  24.7728803  16.2768247  67.0059460  24.8127175  16.7777454  67.7194167
  23.9478468  16.3678641  66.7365383  24.6568329  16.3650063  67.0709998
  26.1943166  22.7928757  69.3033359  25.3635096  22.9602575  69.0968607
  26.1394683  22.4164708  70.0882244  26.0632581  22.7618488  69.3881887
  24.5679210  21.0684349  59.8323477  24.7082171  21.5656813  60.5352118
  25.0661743  20.3670643  59.9737690  24.6620291  21.0386327  59.9575056
  24.5979433  21.9351460  57.1616053  25.2324512  22.5311885  57.0965515
  24.6805043  21.6354917  57.9761924  24.7035983  21.9792368  57.2719140
  37.5761998  24.4666937  70.0302418  38.1679839  25.1064188  70.0620616
  38.0120993  23.7689974  70.3194484  37.7280430  24.4585287  70.0783250
  26.1758415  17.8665435  57.1361495  26.4974256  17.3868517  56.4820758
  26.4385359  18.6765081  56.9452307  26.2624441  17.9155333  57.0116988
  29.4055388  28.8884309  70.6560312  28.8980479  29.4420156  71.1000942
  29.1082034  28.9492599  69.8379086  29.2860273  28.9790620  70.6008768
  31.5717570  17.2537629  69.4984975  31.9972642  16.8010155  68.8868501
  30.9574563  16.6997700  69.7749762  31.5446216  17.1051605  69.4490000
  21.1032420  24.1319300  60.4305599  21.6124650  24.7283808  60.8116905
  21.5766693  23.8645274  59.7482019  21.2475796  24.1805116  60.3860122
  32.0163168  32.8047567  58.5864255  31.2992478  32.6308429  58.1211492
  32.6669906  32.5700139  58.0539741  32.0065019  32.7443360  58.4393473
  30.0111793  13.7252729  62.9075552  29.3680111  13.5750375  63.4760690
  29.6711200  13.4795074  62.1424656  29.8656871  13.6664851  62.8778567
  34.6011140  21.6812156  62.3305560  33.9302330  22.2241858  62.2018626
  35.2950890  22.1507011  62.0887255  34.6040007  21.8310427  62.2761088
  28.6497873  33.8208868  67.5617318  28.4263528  33.0627697  67.9301345
  28.1607717  33.8506889  66.8397758  28.5441322  33.7131092  67.5094059
  34.7639267  18.1368039  65.2395933  35.1166877  17.7097762  65.9141732
  33.9054069  18.0518883  65.3697010  34.6888712  18.0612780  65.3590944
  23.4622952  20.7675559  63.2978780  22.7434941  21.1839691  63.5651643
  23.8335314  21.3329798  62.7470418  23.4114884  20.9124840  63.2561587
  32.7622533  21.4003408  69.1880776  32.7420460  21.2186703  70.0415554
  32.8101734  22.2715426  69.1640359  32.7657174  21.5019946  69.3104070
  30.7068863  27.9890600  75.1129252  30.6664718  27.3440277  74.5274408
  31.5192181  27.9327217  75.4254664  30.8212016  27.8849567  75.0726201
  27.2976330  34.0409326  65.0154403  26.8836729  33.3783456  64.6258245
  27.9823705  34.1887184  64.4950097  27.3374702  33.9649984  64.8810900
  30.6641624  33.1999411  65.7678020  30.2657908  33.3101681  64.9998840
  30.0492844  33.4081477  66.3504579  30.5140514  33.2472979  65.7409319
  29.2369527  19.8073559  58.6352159  28.6434366  20.1290555  58.0836726
  29.2744804  18.9614654  58.4273265  29.1543916  19.7297887  58.5234931
  36.1963327  13.2586451  66.1680246  35.6894192  12.5515591  66.1001423
  36.9930761  12.9279640  66.2981322  36.2390566  13.1059602  66.1779241
  32.1127343  19.7653063  62.0653910  31.8841036  19.7885765  61.2232268
  32.3725419  18.9410530  62.1848920  32.1173531  19.6469143  61.9579107
  25.1672106  18.3029610  63.3608105  25.6429472  18.6646689  62.7258286
  24.6660705  18.9586077  63.6408248  25.1637465  18.4523798  63.3084846
  38.3983467  27.7751378  59.1521110  38.7817073  28.5242734  59.3819207
  37.6027580  28.0217197  58.8933099  38.3377249  27.9221071  59.1478684
  27.2098759  20.4470809  56.7281489  27.5897724  20.4650439  55.9432604
  26.4691355  20.8924798  56.6072337  27.1567596  20.5152584  56.5945057
  34.8384049  18.7553001  62.3157068  34.8378276  18.6001657  63.1741344
  34.6340229  19.6015988  62.2598453  34.8083827  18.8573621  62.4345007
  16.9001320  22.1792785  66.7315884  16.7223081  21.7269394  67.4570800
  16.6120342  22.9818946  66.9154362  16.8314273  22.2315343  66.8659387
  32.5624901  23.4350502  65.9693275  33.0578567  22.7173497  65.9297295
  31.7524677  23.1321300  65.8547762  32.5168795  23.2848149  65.9467001
  28.0083513  27.2848316  58.1190279  27.1994836  26.9614989  58.0723589
  28.5158422  26.5781538  58.0518528  27.9633180  27.1329632  58.1020574
  18.6373790  24.7120509  63.8437644  17.7719310  24.7006199  63.7320415
  18.7372606  24.5250732  64.6908783  18.5247957  24.6826570  63.9526588
  34.6276720  26.1854190  68.6570404  35.0531792  25.6628612  68.1040829
  34.2633640  26.7835027  68.1359026  34.6363323  26.1964417  68.4979413
  24.2630800  34.4818407  67.4167749  24.5777359  35.2954796  67.4245531
  24.6724213  34.0968626  68.0849908  24.3698898  34.5447110  67.5171841
  31.2155320  29.8988454  64.9871561  31.6866498  30.6128717  65.1561546
  31.5515498  29.2987204  65.5231430  31.3350435  29.9159918  65.0903937
  33.3032304  31.5089767  77.1663633  33.4129270  30.7198328  77.5220380
  33.6323201  31.4195704  76.3637971  33.3684710  31.3795620  77.1006024
  31.8529266  29.6906388  71.7499254  31.3050212  29.0664272  71.4819319
  32.3142295  29.8800660  71.0343333  31.8396475  29.6265438  71.6049685
  34.6623130  17.7591743  69.1350446  34.0786119  18.2600949  68.7228013
  34.9827424  17.2521299  68.5014769  34.6236306  17.7583578  68.9808953
  27.2017929  16.6732338  59.4109121  28.0233624  16.8430650  59.1690816
  26.7387580  16.8279599  58.6875418  27.2549092  16.7214071  59.2680765
  21.6043820  28.4291516  67.0646357  22.2088677  28.3887350  66.4360178
  21.3971133  29.2762668  67.0950413  21.6632717  28.5479518  66.9762474
  31.4187592  30.6957461  68.2808595  32.2385966  30.5520427  68.5424890
  31.1381670  31.3203660  68.8225033  31.4984336  30.7667813  68.3996534
  16.8395102  27.4126133  66.9345281  16.7419380  26.6022405  67.2435337
  17.6223972  27.3917927  66.5491549  16.9411239  27.2893224  66.9232144
  41.0900927  37.4397964  66.0004402  40.2338823  37.6006462  66.0513518
  41.1368581  36.5690028  66.0209463  40.9700039  37.3348766  66.0110468
  44.3994644  43.7084489  75.6064858  45.1061411  43.2136520  75.7351792
  44.5882579  44.1493571  74.8767516  44.5322550  43.7002840  75.5173903
  43.9352748  39.4990008  68.6436053  44.4808709  40.1775094  68.7030023
  43.8769625  39.3577468  67.7837635  44.0068663  39.5782009  68.5248114
  37.0526823  46.9879074  64.0304406  37.1537186  46.1779428  64.3401533
  36.4568569  46.8936020  63.4004084  36.9799362  46.8544102  63.9830644
  36.8927563  51.9056663  65.4319262  37.5365018  52.3469827  65.8215420
  37.2183818  51.1010089  65.3449520  37.0359392  51.8521858  65.4764739
  30.2491868  43.0099360  63.6556739  30.0142052  42.1767013  63.5489008
  30.3877508  43.2904026  62.8417940  30.2347530  42.9282864  63.5199094
  32.5481955  35.1785091  66.5541047  31.9286987  34.5877738  66.3851062
  32.4465819  35.7696526  65.9205370  32.4419631  35.1789173  66.4346037
  39.6449851  36.9184633  60.8873510  40.3430015  37.0972760  61.3794973
  39.9602183  36.3954972  60.2643900  39.7945188  36.8678405  60.8675520
  32.2751088  38.7237373  68.7984616  32.1509785  39.3099818  69.4334435
  32.9269373  38.2297568  69.0996891  32.3524737  38.7376177  68.9370545
  37.3009429  41.8999090  68.0772127  37.9458432  41.4071533  67.7583076
  37.5411206  42.0423876  68.9038205  37.4320014  41.8476532  68.1521660
  39.8395520  44.7453995  67.7279020  40.1218763  43.9505401  67.5065776
  40.5681681  45.2234583  67.7484081  39.9885084  44.6988592  67.6982035
  37.8176714  32.2877029  64.9694785  37.4880044  32.7388173  64.2998484
  37.1421716  32.2093193  65.5167791  37.6687151  32.3428165  64.9518008
  45.0253122  28.2762552  63.2144395  44.7106563  28.9666031  63.6464818
  44.5080064  28.2207334  62.5129896  44.9017593  28.3697441  63.1741345
  36.2565164  42.1730270  58.1289274  35.6722379  42.6780301  58.5355138
  35.8535259  41.9472657  57.3885866  36.1104468  42.2138518  58.0794299
  31.8109192  47.8885031  64.9312946  31.3276771  48.6135521  64.9072529
  32.6232511  48.1861161  65.0423103  31.8599940  48.0387385  64.9440225
  37.8823346  46.6817212  67.5362760  37.3650288  46.3224627  66.9324068
  38.5797738  46.1579386  67.5468826  37.9088928  46.5514900  67.4493019
  41.5386938  47.1312026  73.4978933  41.6270284  46.9438166  74.3457143
  41.9676651  46.4849455  73.0983780  41.6149041  47.0075034  73.5650684
  39.1057398  46.4143186  72.4796595  38.5428233  46.0015796  73.0036256
  39.8678422  46.3396091  72.8989738  39.1351847  46.3420586  72.6189596
  36.0232668  30.3489318  60.4517733  36.7778636  30.7167635  60.2134783
  35.8460203  30.7228872  61.2196912  36.1087147  30.4587506  60.5302621
  34.6653390  48.4041207  65.0833225  35.3673969  47.8893196  65.1405982
  34.5850873  48.7315358  65.8880100  34.7577150  48.3755433  65.2106018
  49.3167567  36.4983758  68.4965272  48.4795988  36.5685945  68.7312866
  49.2855798  36.5008253  67.6239574  49.1885850  36.5093985  68.4024820
  35.7132296  38.6416794  74.2113640  35.8852800  38.5322689  75.0598922
  36.2501654  39.2871199  73.9744833  35.8177300  38.7208796  74.3018737
  34.3789733  32.7559637  57.1495846  34.1965306  32.9731518  56.3236838
  35.2415346  32.8698649  57.2054460  34.4794323  32.8049535  57.0350333
  33.9904165  44.5947559  64.5918833  34.8293064  44.8270492  64.6392595
  34.0215934  43.7251870  64.5225869  34.1185883  44.5004505  64.5883478
  34.6156868  45.0148434  68.8932139  35.1555093  44.8719565  69.5635511
  33.9326814  45.4145185  69.2616165  34.5949022  45.0528105  69.0466561
  40.0589452  29.7586047  60.1844869  40.7875613  29.5802002  59.7383026
  40.1484345  30.6004127  60.3952047  40.1796114  29.8569926  60.1498387
  44.0397753  40.6939435  64.0877163  44.7955268  41.1270949  64.1266072
  44.1460077  40.0444205  64.6611799  44.1667924  40.6616919  64.1775189
  47.0777924  44.5212712  64.8379566  46.6413156  44.5249454  65.5938538
  46.7440839  45.2018211  64.4059144  46.9640544  44.6225168  64.8860399
  41.6506998  46.5621045  76.1622717  42.4347414  46.6751893  76.5278459
  41.4503592  45.7362182  76.3581402  41.7373023  46.4567764  76.2457103
  30.0194013  41.2348725  69.0466560  29.7532428  40.4187842  69.2057551
  30.0332577  41.2801880  68.1762076  29.9818735  41.1205630  68.9420042
  46.9975407  31.5626540  67.0808994  47.6401315  31.6324644  67.6670909
  47.2498428  30.8955763  66.5788536  47.1297539  31.4752888  67.0936273
  34.7692619  34.7727103  71.6933568  34.0764416  34.3024083  71.9394300
  35.3852947  34.5465408  72.2675275  34.7577149  34.6694235  71.8142721
  41.8077391  48.4731147  69.8089172  41.0092637  48.2330647  70.0663041
  42.2563402  48.5245540  70.5556220  41.7552002  48.4453538  69.9574096
  30.4287427  42.0207504  66.3278305  30.2463000  41.9954390  65.4750597
  31.1637096  42.4906442  66.3667213  30.5101491  42.0868867  66.2076223
  46.4987101  42.2559014  63.4711192  46.7342690  42.4004213  62.6438043
  46.6476665  43.0201422  63.8642706  46.5552904  42.3898069  63.4074796
  33.4933178  38.7392507  72.8360413  34.2173151  38.7245538  73.3225308
  33.5949315  39.4487862  72.3382382  33.6151387  38.8417210  72.8339200
  40.8678128  42.2191592  77.7009360  40.0751109  42.5335104  77.8861980
  40.9827055  42.4343060  76.8630145  40.7673538  42.2975429  77.6047695
  41.7961921  42.1211796  72.6394657  42.3700782  41.4839040  72.7943221
  41.7176724  42.1215878  71.7704315  41.8695155  42.0276907  72.5341068
  30.3958337  38.9001005  66.4777371  30.9731840  38.7637456  67.1169617
  29.6972399  38.4436789  66.7322956  30.3779358  38.8123271  66.6099661
  37.1525639  40.5535061  64.6915855  36.8944884  39.7206796  64.6647154
  37.2074122  40.7792674  63.8508355  37.1225417  40.4632832  64.5635991
  42.2326689  32.6563511  64.7919947  41.5283016  32.1672697  64.9503866
  42.2811664  32.6685986  63.9208392  42.1356741  32.5853159  64.6859287
  36.1260351  38.1072823  65.1780749  35.5509943  38.2664992  65.8144710
  35.7496028  37.4708232  64.7149200  35.9863164  38.0370636  65.2035308
  39.7933640  36.5796172  70.0373128  39.4048073  36.1550390  69.3825319
  39.1288338  36.8278322  70.5450154  39.6380568  36.5534894  70.0160996
  49.4356909  36.3371177  62.8120958  49.1793474  35.5251119  62.6218841
  50.2786223  36.3448744  62.5851145  49.5222935  36.2183175  62.7505775
  25.8717170  37.7512898  63.1925190  25.9577422  37.3744766  63.9738720
  26.4992968  37.3773344  62.7145148  25.9773721  37.6398380  63.2370667
  43.6160002  30.2770801  67.5497112  43.9970513  29.5948972  67.9364986
  42.8123286  29.9880403  67.3672776  43.5536463  30.1337850  67.5801168
  47.1182068  43.4920773  72.6479510  46.8820706  42.6608838  72.5291571
  47.7625297  43.4406380  73.2334355  47.1776739  43.3618461  72.7165404
  36.7680487  44.2816294  63.3622247  37.4054434  44.0428042  63.9074040
  37.1935558  44.4853453  62.6275407  36.9256653  44.2767305  63.3339404
  31.4593129  46.5204631  67.2456551  31.4997274  46.7919482  66.4176330
  32.0187653  47.0446539  67.6614338  31.5476475  46.6380386  67.1848439
  37.4083302  39.5018584  57.6997136  37.7928454  39.2826291  58.4513681
  37.1594922  40.3281530  57.8298212  37.4285374  39.5916731  57.8298213
  37.5751842  32.7824999  77.4159720  37.2605283  33.5524562  77.1529283
  37.2541775  32.2195255  76.8311947  37.4810761  32.8135268  77.2901070
  48.1418489  43.2765222  68.7107805  47.8364306  44.0093279  69.0721120
  47.4224705  42.8703151  68.4300591  47.9905831  43.3246955  68.7220942
  39.1501959  44.7588717  65.0416033  39.2240967  44.5963889  65.8957883
  39.9671465  44.9478907  64.7976515  39.2818317  44.7625459  65.1314059
  53.8420281  39.9158223  68.0376149  53.7744782  39.9354182  67.1678736
  53.8275944  40.7588550  68.2631820  53.8299038  40.0431957  67.9428626
  32.9107715  45.1046580  62.0710477  32.0845833  45.3508317  61.9444755
  32.9719706  45.0258661  62.9372535  32.7981882  45.1291529  62.1799421
  35.1283739  31.1715521  63.0305917  34.2606164  31.2438120  63.0963526
  35.4158943  31.9737600  63.2193892  35.0423487  31.3009668  63.0680683
  44.2516628  31.3193380  71.3617238  44.9970220  31.1303191  70.9480664
  43.8353932  31.8451618  70.8031095  44.3001602  31.3695526  71.2181812
  51.6278899  38.6902609  66.3122743  52.1786820  38.0570678  66.5519836
  51.6123014  39.2218002  67.0038248  51.7064095  38.6751557  66.4501602
  38.2801289  42.5241206  70.8582637  37.7812983  43.2356974  70.9367525
  39.0901514  42.8441873  70.8200799  38.3257396  42.6768055  70.8639205
  35.6312460  49.6990843  62.8389656  35.4112755  49.4088197  63.6316323
  35.4106982  49.0405798  62.3107568  35.5660054  49.5590551  62.8778565
  34.5429407  41.7864159  65.1045358  34.2542656  41.1601630  65.6391085
  35.4112755  41.7284447  65.1710038  34.6289659  41.6851703  65.1936312
  45.3307305  36.9298942  65.4227340  44.9872071  36.2089278  65.7734589
  45.4300347  36.7212794  64.5805698  45.2949348  36.7923146  65.3499020
  37.7980416  51.0720233  61.6220349  38.4504474  50.5396675  61.8511375
  37.1006024  50.7188885  62.0088223  37.7911134  50.9409756  61.7132516
  34.7461680  43.4259410  61.0287723  35.5007648  43.8072449  61.2423185
  34.1532293  43.8770554  61.4834419  34.7698394  43.5488238  61.1270601
  37.2068347  35.3822251  76.1544935  36.3968123  35.6880030  76.0434777
  37.6843034  36.1027833  76.2697519  37.1571826  35.5336852  76.1552006
  36.0659907  44.5967971  66.4027838  35.5440661  44.7368263  67.0879703
  36.4533927  43.8378636  66.5929956  36.0463608  44.5053495  66.5328915
  33.0551091  34.6473780  60.4722793  32.7675887  34.2775051  59.7354740
  33.7421559  35.1168636  60.2106498  33.1139988  34.6620750  60.3237869
  37.4926233  41.6271991  61.8009329  37.2969015  42.2346725  61.2069632
  37.7160578  40.9339935  61.3201003  37.4960874  41.6149516  61.6425410
  35.8904763  38.5126728  61.9190198  36.6127415  38.6767887  61.4594004
  35.4112755  39.2336393  61.8129537  35.9268493  38.6424958  61.8355812
  43.8498270  34.8490527  67.2986883  43.0109371  34.8751806  67.0625146
  43.9202638  35.4961263  67.8792229  43.7366664  34.9486653  67.3495999
  33.5412379  40.9184801  71.0244337  34.0533476  41.1969054  70.3753097
  33.2548722  41.6574095  71.3907151  33.5747242  41.0687155  70.9834216
  42.2967548  31.7475904  62.0314498  42.9993901  31.5483653  61.5534457
  42.0311737  30.9751847  62.3383342  42.3614181  31.6038870  62.0059940
  47.7255794  40.0558514  64.5848124  47.6389769  40.2113940  65.4382903
  47.2706274  40.6996590  64.2107529  47.6459051  40.1734269  64.6555231
  30.6279286  35.4254993  61.3208074  30.7295422  36.2281154  61.6489049
  31.4235172  35.2242329  61.0231155  30.7607191  35.5140891  61.3243429
  37.0596105  33.0111189  71.0845379  36.8679302  33.0266324  71.9344803
  37.9094701  33.2074864  71.0612034  37.1571827  33.0425541  71.2068674
  31.4443018  35.5402171  69.0629196  31.3028510  34.6886112  69.1873704
  31.7283581  35.5830832  68.2391402  31.4650864  35.4201921  68.9596820
  41.5981610  37.3769261  63.2073684  41.3516324  37.2965012  64.0410473
  41.9266733  36.5922729  63.0136211  41.6102854  37.2495526  63.3021207
  45.4929659  44.0852620  66.9960465  45.3544018  44.7833666  67.5009207
  44.7129657  43.9301277  66.6396647  45.3572886  44.1652787  67.0186739
  43.8307744  40.3848996  73.2482847  43.8255783  39.5128812  73.2525273
  44.5368738  40.5837165  72.7752302  43.9352748  40.2852870  73.1789882
  37.5578637  40.1125980  72.6196667  37.7022013  40.6927188  71.9839777
  37.9054286  40.4902276  73.3246522  37.6306099  40.2546684  72.6295662
  39.7298555  39.3116148  70.4021799  38.9821869  39.5047162  69.9970077
  39.8840080  38.4861368  70.1645920  39.6420982  39.2181259  70.3067204
  36.6306392  48.3028752  69.4857694  36.7795956  47.7431667  68.8331098
  37.4106394  48.3820753  69.8690213  36.7680486  48.2314317  69.4454643
  39.1559693  48.4743394  70.7642185  39.0803364  47.8052205  71.3192973
  39.0849552  49.1761183  71.2782851  39.1340300  48.4788302  70.9219033
  39.9700332  33.2066699  71.2917202  40.4272946  33.9390673  71.4189994
  40.0456661  32.7833164  72.0504458  40.0491302  33.2523937  71.4218279
  32.2133323  33.4532519  72.3806646  31.6775512  32.8412877  72.6967413
  32.2751088  34.0280654  73.0340313  32.1428956  33.4479446  72.5242073
  44.4427658  26.3856574  65.1611045  44.5611226  26.8433037  64.4278348
  44.2689833  25.5801835  64.8747263  44.4346829  26.3350346  65.0111979
  37.8482710  35.1968803  68.1359026  37.0578784  35.0160263  68.4576362
  38.2443333  34.4195755  68.1189321  37.7899586  35.0556264  68.1811575
  43.2326396  42.8311233  65.8618472  42.5571398  42.5996465  66.3631859
  43.2418772  42.2232416  65.2360577  43.1344901  42.7070158  65.8434624
  40.3620540  37.6729062  72.6182525  40.2979681  38.5339018  72.4902662
  40.5017728  37.3561055  71.8178076  40.3736010  37.7529228  72.4810738
  39.0439634  40.3661201  66.7598728  38.6201883  40.5665700  66.0237746
  38.8684489  39.5190049  66.8723028  38.9550514  40.2709983  66.6672418
  38.5451327  51.8811714  69.2220185  39.0347258  51.1822503  69.0395850
  37.9735560  51.5835584  69.8096243  38.5335857  51.7337938  69.2821226
  34.3322079  40.8613253  62.1926701  34.4886698  40.7960055  63.0482693
  34.6722672  41.6361805  61.9805380  34.4055314  40.9662451  62.2881295
  44.7418331  44.4473784  78.1746976  45.5553196  44.1758932  78.3352109
  44.5813297  44.1481324  77.3707172  44.8388279  44.3628710  78.0792382
  42.0190493  35.1307441  71.1142364  42.2332462  34.4918355  70.5605718
  41.4024392  35.5753265  70.6850226  41.9595822  35.1017584  70.9692795
  43.4295161  48.0526189  62.5596585  43.0374952  47.7492904  61.8419451
  43.5848233  48.8895279  62.3701539  43.3948751  48.1310026  62.4253082
  30.9056340  38.0448203  62.5087468  31.2855305  38.4632748  61.8447735
  30.3311705  38.6261659  62.8156311  30.8767665  38.1926062  62.4564209
  44.1829581  36.7396506  72.0525671  43.3706263  36.4322396  72.1338844
  44.6419515  36.2595506  72.6168384  44.1309966  36.6232998  72.1480266
  43.5934835  44.6176178  62.5002616  43.2349490  44.7890821  63.2766648
  43.1073546  45.0789384  61.9430614  43.4693532  44.7115149  62.5327885
  41.4105221  28.2407376  66.1029707  40.5398779  28.2146097  66.0563017
  41.6645563  28.0684569  65.2855553  41.3198782  28.2117520  65.9749844
  41.2783088  38.1456577  76.8354374  41.7482719  38.7698694  77.2222248
  41.3244968  37.4773553  77.3947588  41.3550964  38.1391258  76.9754445
  38.4354362  30.2513605  67.5603177  37.9192851  29.5593796  67.6854756
  37.8748291  30.9184382  67.5065776  38.2760875  30.2476862  67.5709243
  40.5046595  30.7906565  69.3896030  40.1178349  30.8155596  70.1709560
  40.0179533  30.2248243  68.9370547  40.3759104  30.7102316  69.4383934
  44.7539575  45.5080074  73.4469817  45.3919295  45.0140269  73.1132273
  44.1113666  45.4357474  72.8622043  44.7533801  45.4239082  73.3112172
  46.4796575  37.3569220  68.0135732  46.0524183  37.2695568  67.2583832
  45.8422628  37.4646995  68.5990576  46.3226182  37.3601880  67.9881174
  40.1703737  27.6773550  71.6806290  40.7996855  28.2133850  71.4027360
  40.3389600  27.5850909  72.5319856  40.2881532  27.7434913  71.7654818
  39.9717652  32.4644745  73.9532702  40.7991081  32.1929894  74.0091316
  39.9925498  33.2605587  74.3096520  40.0970502  32.5424499  74.0147884
  44.8093831  46.1999882  70.0875173  45.5986210  45.8488947  70.2077255
  44.9837429  47.0136271  69.8251807  44.9514113  46.2685739  70.0663041
  34.5487142  39.6108608  67.1402962  33.7075148  39.5112482  67.3481856
  34.7577150  40.3804088  67.4917283  34.4551834  39.7100651  67.2230277
  32.0262709  37.2328145  64.9687713  31.6319407  37.3071157  64.1937822
  31.4702826  37.6186091  65.5196075  31.8865521  37.3009919  64.9355373
  43.6627656  30.2109439  64.6491592  43.8677249  30.1431747  65.4948589
  43.3354080  31.0168260  64.5812769  43.6442904  30.3195379  64.7651247
  38.3603807  37.5390007  66.3900560  38.0566944  36.9845995  66.9910967
  37.6583227  37.7182217  65.9028594  38.2120017  37.4834789  66.4070265
  37.4169904  34.8490527  60.9545262  37.6929638  34.1309439  60.5422829
  38.0168573  35.4475447  60.7466368  37.5463168  34.8310898  60.8626023
  36.4222158  44.7539728  71.0972657  36.3142513  44.7641790  71.9634716
  36.6317939  45.5794508  70.9077611  36.4372269  44.8780803  71.1976749
  46.9161343  30.7641203  64.1294357  46.3035657  31.2511605  64.5148089
  47.0125518  30.0884694  64.6732008  46.8399241  30.7359512  64.2673215
  40.9180424  32.5204044  59.2291857  41.3724171  32.6914605  59.9539701
  41.3920470  31.9072155  58.8289632  41.0548744  32.4554929  59.2765618
  34.4395950  42.0052370  68.5594595  33.8483883  42.6461868  68.5297610
  35.2016973  42.4289987  68.5325895  34.4644210  42.1628209  68.5509742
  34.8356573  33.1654368  69.2262613  35.2958054  33.2393297  69.9637736
  34.8812679  33.9635622  68.8762434  34.9107128  33.2948515  69.2835369
  36.4839922  33.8321063  73.7934640  36.0925487  33.1854410  74.2290418
  36.6525785  34.4232498  74.4128895  36.4510833  33.8235331  73.9497346
  50.5586371  41.8358140  69.5571873  50.6169495  42.2844789  70.3031850
  49.9252839  42.2456953  69.1201953  50.4737666  41.9631874  69.6024422
  44.1985466  47.4561682  65.9926620  44.0005155  47.9452496  65.2982831
  43.5773177  47.6602923  66.5710753  44.0773030  47.5578220  65.9749843
  38.2593444  39.2246579  60.3336864  39.0035489  39.6120855  60.5719814
  38.4054140  38.3804004  60.4977352  38.3904029  39.1577051  60.3930834
  40.1773020  31.0196837  65.3668725  39.3309065  31.1919645  65.2410075
  40.1744152  30.2146181  65.7034554  40.0520170  30.9257866  65.3979852
  41.2471320  34.7972052  66.2330783  40.7731274  34.2713814  66.7436094
  41.6189456  34.2501525  65.6645645  41.2321209  34.6388048  66.2245930
  31.6244350  36.7943559  71.6014329  32.4869963  36.6939268  71.5151659
  31.2936133  36.2138268  71.0399901  31.7029547  36.6935185  71.5059735
  47.5108051  39.8574428  67.6437564  47.2706274  39.0180843  67.6479990
  47.9900058  39.9374594  68.3678337  47.5460234  39.7455827  67.7512366
  49.5113238  36.6375885  65.5966823  49.2723008  36.5971719  64.7587607
  49.6747139  37.4847037  65.7232544  49.5003541  36.7567970  65.4920305
  46.1159268  41.0225834  71.5271868  46.8393467  40.5698360  71.3482888
  45.8509230  41.3030500  70.7444196  46.1840541  40.9976803  71.3850583
  34.9846136  35.6186008  68.2624747  34.3599206  35.6304400  67.6550700
  34.6491731  36.0946183  68.9115987  34.8431628  35.6904525  68.2681316
  31.6971812  43.6786468  69.7028511  31.1671736  42.9878907  69.7523486
  31.9696905  43.6696653  68.8741220  31.6596534  43.5753599  69.5875927
  41.8978057  41.1209712  69.6766883  41.2835051  40.5767763  69.9715518
  42.4145342  40.6073949  69.1972699  41.8833720  40.9646121  69.6491111
  41.1374355  42.1913982  67.4111182  40.7101963  41.5663701  66.9776617
  41.1299299  41.9088904  68.2370189  41.0733496  42.0566763  67.4691009
  34.2536882  37.2279155  70.4799616  34.4130368  36.4722480  70.8851338
  34.0729775  37.7770095  71.1340353  34.2502241  37.1972969  70.6362322
  42.1957185  29.3940391  71.0350405  41.6997746  29.5904065  70.3441972
  42.9526247  29.7933059  70.8639207  42.2344009  29.4818125  70.9070542
  39.4660064  33.0682737  67.6253716  39.4902551  32.5342849  66.9366496
  39.7171538  32.5600046  68.2879306  39.5069983  32.9143641  67.6218360
  26.9767654  40.3514232  67.0596860  26.8711103  40.3061076  66.1948944
  26.2267874  40.6968012  67.3411145  26.8503257  40.3955140  66.9734189
  35.7461386  31.7953555  67.0059460  35.7859758  32.2962762  67.7194167
  34.9211051  31.8863949  66.7365383  35.6300912  31.8835371  67.0709998
  37.9290999  41.3614295  75.1079754  37.0786630  41.4986009  75.2437399
  38.0919127  40.6278073  75.5527456  37.8274863  41.2728396  75.1935354
  37.1675750  38.3114065  69.3033359  36.3367680  38.4787883  69.0968607
  37.1127267  37.9350016  70.0882244  37.0365165  38.2803796  69.3881887
  34.9759533  31.8022958  74.9389770  35.6012237  31.2585091  75.2119202
  34.5210013  31.3217875  74.3697560  35.0007794  31.6512439  74.8951363
  35.5411794  36.5869656  59.8323477  35.6814755  37.0842121  60.5352118
  36.0394327  35.8855951  59.9737690  35.6352875  36.5571635  59.9575056
  35.5712016  37.4536767  57.1616053  36.2057096  38.0497193  57.0965515
  35.6537627  37.1540225  57.9761924  35.6768567  37.4977676  57.2719140
  48.5494582  39.9852245  70.0302418  49.1412422  40.6249496  70.0620616
  48.9853576  39.2875282  70.3194484  48.7013013  39.9770595  70.0783250
  37.1490999  33.3850743  57.1361495  37.4706840  32.9053825  56.4820758
  37.4117943  34.1950389  56.9452307  37.2357024  33.4340641  57.0116988
  40.3787972  44.4069617  70.6560312  39.8713063  44.9605464  71.1000942
  40.0814618  44.4677907  69.8379086  40.2592857  44.4975928  70.6008768
  42.5450154  32.7722937  69.4984975  42.9705225  32.3195463  68.8868501
  41.9307147  32.2183008  69.7749762  42.5178799  32.6236913  69.4490000
  32.0765004  39.6504608  60.4305599  32.5857233  40.2469116  60.8116905
  32.5499276  39.3830582  59.7482019  32.2208380  39.6990424  60.3860122
  40.9844377  29.2438037  62.9075552  40.3412695  29.0935683  63.4760690
  40.6443784  28.9980382  62.1424656  40.8389454  29.1850159  62.8778567
  39.6230457  49.3394175  67.5617318  39.3996111  48.5813005  67.9301345
  39.1340300  49.3692197  66.8397758  39.5173906  49.2316400  67.5094059
  45.7371851  33.6553347  65.2395933  46.0899461  33.2283070  65.9141732
  44.8786652  33.5704191  65.3697010  45.6621295  33.5798088  65.3590944
  34.4355536  36.2860867  63.2978780  33.7167525  36.7024999  63.5651643
  34.8067898  36.8515106  62.7470418  34.3847467  36.4310148  63.2561587
  43.7355117  36.9188716  69.1880776  43.7153044  36.7372011  70.0415554
  43.7834317  37.7900734  69.1640359  43.7389758  37.0205254  69.3104070
  41.6801446  43.5075908  75.1129252  41.6397301  42.8625585  74.5274408
  42.4924765  43.4512525  75.4254664  41.7944600  43.4034875  75.0726201
  38.2708914  49.5594634  65.0154403  37.8569313  48.8968764  64.6258245
  38.9556288  49.7072492  64.4950097  38.3107286  49.4835292  64.8810900
  41.6374208  48.7184719  65.7678020  41.2390491  48.8286989  64.9998840
  41.0225428  48.9266785  66.3504579  41.4873097  48.7658287  65.7409319
  40.2102110  35.3258867  58.6352159  39.6166949  35.6475863  58.0836726
  40.2477388  34.4799962  58.4273265  40.1276499  35.2483195  58.5234931
  37.3679155  37.1372844  71.6679010  36.8558058  36.5294027  72.0264041
  37.1958651  37.8529437  72.1352986  37.2668792  37.1536144  71.7895233
  32.2144870  35.5810420  74.3181372  32.0447460  36.2411794  73.7729578
  31.7710820  35.7916981  75.0393861  32.1244203  35.7096402  74.3443001
  36.1404689  33.8214918  63.3608105  36.6162055  34.1831997  62.7258286
  35.6393289  34.4771385  63.6408248  36.1370048  33.9709106  63.3084846
  41.2448225  35.0597089  74.1081265  41.8019656  34.8310898  73.4759731
  40.9209290  35.8202755  73.8316478  41.2794636  35.1380926  73.9737762
  29.1146934  38.4857285  69.5769861  28.5673654  37.8157931  69.6950730
  29.9039312  38.1187133  69.6413329  29.1499118  38.3322272  69.6038562
  38.9631343  38.1464742  75.0733272  39.7142670  38.4616419  75.3872827
  39.1553919  37.9443913  74.2467194  39.1022757  38.1632124  74.9976668
  45.8116633  34.2738308  62.3157068  45.8110859  34.1186965  63.1741344
  45.6072813  35.1201296  62.2598453  45.7816411  34.3758929  62.4345007
  27.8733904  37.6978093  66.7315884  27.6955665  37.2454702  67.4570800
  27.5852926  38.5004254  66.9154362  27.8046857  37.7500651  66.8659387
  43.5357485  38.9535810  65.9693275  44.0311150  38.2358805  65.9297295
  42.7257261  38.6506608  65.8547762  43.4901378  38.8033457  65.9467001
  29.6106374  40.2305817  63.8437644  28.7451893  40.2191507  63.7320415
  29.7105190  40.0436040  64.6908783  29.4980541  40.2011878  63.9526588
  45.6009304  41.7039498  68.6570404  46.0264375  41.1813920  68.1040829
  45.2366224  42.3020335  68.1359026  45.6095906  41.7149725  68.4979413
  35.2363384  50.0003715  67.4167749  35.5509943  50.8140104  67.4245531
  35.6456797  49.6153934  68.0849908  35.3431482  50.0632418  67.5171841
  42.1887903  45.4173762  64.9871561  42.6599081  46.1314025  65.1561546
  42.5248082  44.8172512  65.5231430  42.3083018  45.4345226  65.0903937
  44.2764888  47.0275075  77.1663633  44.3861853  46.2383636  77.5220380
  44.6055784  46.9381012  76.3637971  44.3417294  46.8980928  77.1006024
  39.1057398  30.1901233  71.9429656  39.2385304  29.3932226  72.2710631
  39.4902551  30.7167636  72.5227931  39.1813727  30.1501149  72.0773159
  42.8261850  45.2091696  71.7499254  42.2782796  44.5849580  71.4819319
  43.2874878  45.3985968  71.0343333  42.8129059  45.1450746  71.6049685
  42.1789753  27.1131559  68.5410749  41.3735717  27.0029288  68.8578587
  42.0496489  27.2144014  67.6840615  42.0409886  27.1115229  68.4618789
  45.6355714  33.2777051  69.1350446  45.0518703  33.7786257  68.7228013
  45.9560008  32.7706607  68.5014769  45.5968889  33.2768886  68.9808953
  36.7645845  30.1860408  70.1907550  37.3090258  29.8451535  70.7811891
  36.8182781  31.0445869  70.3328834  36.8534964  30.2615667  70.2989423
  32.5776404  43.9476824  67.0646357  33.1821261  43.9072658  66.4360178
  32.3703716  44.7947976  67.0950413  32.6365301  44.0664826  66.9762474
  42.3920176  46.2142769  68.2808595  43.2118550  46.0705735  68.5424890
  42.1114253  46.8388968  68.8225033  42.4716919  46.2853121  68.3996534
  27.8127686  42.9311441  66.9345281  27.7151964  42.1207713  67.2435337
  28.5956556  42.9103235  66.5491549  27.9143822  42.8078531  66.9232144
  58.8633826  53.8707621  61.2451471  58.8327831  54.7252257  61.4169741
  59.4615175  53.5702913  61.8037615  58.9470984  53.9524117  61.3526273
  52.0633511  52.9583272  66.0004402  51.2071407  53.1191770  66.0513518
  52.1101165  52.0875336  66.0209463  51.9432622  52.8534073  66.0110468
  46.4474651  62.4945989  61.7641633  45.6957550  62.1161528  61.5357678
  46.8960662  62.5264423  61.0160443  46.4024318  62.4431597  61.6199135
  51.8999611  62.9171359  57.1927180  51.5650979  63.5948281  56.7571402
  52.4126481  62.5276670  56.6044052  51.9265192  62.9595937  57.0413972
  51.4403902  64.8685628  63.1338292  51.8243281  65.4372526  62.5943067
  51.3763043  64.1435138  62.6544108  51.4877329  64.8461091  62.9832154
  54.9085332  55.0175316  68.6436053  55.4541292  55.6960402  68.7030023
  54.8502208  54.8762776  67.7837635  54.9801246  55.0967317  68.5248114
  48.0259407  62.5064382  64.0304406  48.1269770  61.6964736  64.3401533
  47.4301152  62.4121328  63.4004084  47.9531946  62.3729410  63.9830644
  56.6850401  56.4459923  59.5169781  56.5689927  57.1967609  59.9461919
  57.4806287  56.1883876  59.7665868  56.7854990  56.5194770  59.6173873
  47.8660147  67.4241971  65.4319262  48.5097602  67.8655135  65.8215420
  48.1916402  66.6195397  65.3449520  48.0091975  67.3707166  65.4764739
  41.2224451  58.5284668  63.6556739  40.9874636  57.6952321  63.5489008
  41.3610092  58.8089334  62.8417940  41.2080114  58.4468172  63.5199094
  43.5214539  50.6970399  66.5541047  42.9019570  50.1063046  66.3851062
  43.4198402  51.2881834  65.9205370  43.4152214  50.6974481  66.4346037
  48.5680726  60.4353946  60.8039123  48.8896567  60.9759153  60.2000432
  49.2152823  59.8650717  60.9361413  48.7106781  60.4313121  60.7346159
  50.6182434  52.4369941  60.8873510  51.3162599  52.6158068  61.3794973
  50.9334767  51.9140280  60.2643900  50.7677772  52.3863713  60.8675520
  43.2483672  54.2422681  68.7984616  43.1242369  54.8285126  69.4334435
  43.9001956  53.7482876  69.0996891  43.3257321  54.2561485  68.9370545
  50.8070370  58.8240386  60.8753302  51.2464005  58.2157486  61.3208074
  50.6575033  58.4447759  60.1038767  50.8491835  58.6778857  60.8272469
  48.2742013  57.4184397  68.0772127  48.9191015  56.9256841  67.7583076
  48.5143790  57.5609184  68.9038205  48.4052598  57.3661840  68.1521660
  50.8128104  60.2639303  67.7279020  51.0951347  59.4690709  67.5065776
  51.5414264  60.7419891  67.7484081  50.9617668  60.2173900  67.6982035
  54.4079706  57.1767567  57.8284071  54.3231001  58.0328534  57.9733640
  54.8964089  56.9011891  58.4966230  54.4668604  57.2624888  57.9486152
  55.9985706  43.7947860  63.2144395  55.6839147  44.4851339  63.6464818
  55.4812647  43.7392642  62.5129896  55.8750176  43.8882749  63.1741345
  55.3398139  53.7952361  59.3281806  54.8109611  54.0111995  59.9879112
  55.8623159  54.4888500  59.2482775  55.3386592  53.9295498  59.4137405
  60.7946192  59.3698666  64.7014850  59.9643896  59.5809309  64.8648267
  60.7455445  58.5435720  64.4257134  60.6652928  59.2788272  64.6852216
  47.2297747  57.6915578  58.1289274  46.6454963  58.1965609  58.5355138
  46.8267842  57.4657965  57.3885866  47.0837051  57.7323826  58.0794299
  42.7841776  63.4070339  64.9312946  42.3009354  64.1320829  64.9072529
  43.5965094  63.7046469  65.0423103  42.8332524  63.5572693  64.9440225
  48.8555930  62.2002520  67.5362760  48.3382872  61.8409935  66.9324068
  49.5530321  61.6764694  67.5468826  48.8821511  62.0700208  67.4493019
  51.6874962  53.9381230  56.6058195  51.9270965  54.1459214  55.7933538
  52.0090803  53.1338739  56.7147139  51.7712120  53.8495331  56.5018748
  45.6385973  63.9226515  65.0833225  46.3406552  63.4078504  65.1405982
  45.5583456  64.2500666  65.8880100  45.7309734  63.8940741  65.2106018
  60.2900151  52.0169066  68.4965272  59.4528572  52.0871253  68.7312866
  60.2588382  52.0193561  67.6239574  60.1618433  52.0279293  68.4024820
  46.6864880  54.1602102  74.2113640  46.8585383  54.0507996  75.0598922
  47.2234237  54.8056507  73.9744833  46.7909884  54.2394104  74.3018737
  44.9636749  60.1132867  64.5918833  45.8025648  60.3455800  64.6392595
  44.9948518  59.2437178  64.5225869  45.0918466  60.0189813  64.5883478
  45.5889452  60.5333742  68.8932139  46.1287677  60.3904873  69.5635511
  44.9059398  60.9330493  69.2616165  45.5681605  60.5713413  69.0466561
  55.0130336  56.2124743  64.0877163  55.7687852  56.6456257  64.1266072
  55.1192661  55.5629512  64.6611799  55.1400507  56.1802227  64.1775189
  58.0510508  60.0398020  64.8379566  57.6145739  60.0434762  65.5938538
  57.7173423  60.7203519  64.4059144  57.9373128  60.1410476  64.8860399
  40.9926597  56.7534033  69.0466560  40.7265012  55.9373150  69.2057551
  41.0065161  56.7987188  68.1762076  40.9551319  56.6390938  68.9420042
  57.9707991  47.0811848  67.0808994  58.6133899  47.1509952  67.6670909
  58.2231011  46.4141071  66.5788536  58.1030123  46.9938196  67.0936273
  45.7425203  50.2912411  71.6933568  45.0497000  49.8209391  71.9394300
  46.3585530  50.0650716  72.2675275  45.7309733  50.1879543  71.8142721
  61.1854854  56.7578940  63.7299203  61.8471288  56.1969608  63.6295112
  60.5446266  56.2630971  64.0551895  61.1883721  56.6015349  63.7631544
  52.0731662  60.0549071  56.0380127  52.4882810  59.7234095  55.3464622
  51.2423591  59.8217974  55.9100263  52.0119670  59.9720327  55.9170974
  41.4020010  57.5392812  66.3278305  41.2195584  57.5139698  65.4750597
  42.1369679  58.0091750  66.3667213  41.4834074  57.6054175  66.2076223
  57.4719685  57.7744322  63.4711192  57.7075274  57.9189521  62.6438043
  57.6209248  58.5386730  63.8642706  57.5285488  57.9083377  63.4074796
  44.4665762  54.2577815  72.8360413  45.1905734  54.2430846  73.3225308
  44.5681899  54.9673170  72.3382382  44.5883971  54.3602518  72.8339200
  59.3010141  56.6145988  61.3080796  59.6318358  57.1473628  60.7020891
  59.8743229  56.6684876  61.9642747  59.4343820  56.7015557  61.3158578
  54.5142030  54.4610891  61.9904376  54.6088885  55.2000185  62.4444002
  53.8900874  54.0328366  62.4238941  54.4351060  54.5072211  62.1212524
  41.3690921  54.4186313  66.4777371  41.9464423  54.2822764  67.1169617
  40.6704982  53.9622097  66.7322956  41.3511942  54.3308579  66.6099661
  54.7665052  56.3059631  55.2241328  54.6845214  56.3761818  56.0896315
  55.4044772  56.8689375  55.0325069  54.8484889  56.3998602  55.3231278
  48.1258223  56.0720369  64.6915855  47.8677467  55.2392103  64.6647154
  48.1806706  56.2977982  63.8508355  48.0958001  55.9818140  64.5635991
  47.0992935  53.6258131  65.1780749  46.5242526  53.7850299  65.8144710
  46.7228611  52.9893540  64.7149200  46.9595747  53.5555944  65.2035308
  50.7666224  52.0981480  70.0373128  50.3780656  51.6735698  69.3825319
  50.1020922  52.3463630  70.5450154  50.6113151  52.0720201  70.0160996
  60.4089493  51.8556485  62.8120958  60.1526058  51.0436427  62.6218841
  61.2518807  51.8634052  62.5851145  60.4955518  51.7368483  62.7505775
  36.8449754  53.2698206  63.1925190  36.9310006  52.8930074  63.9738720
  37.4725551  52.8958651  62.7145148  36.9506305  53.1583688  63.2370667
  54.5892585  45.7956109  67.5497112  54.9703097  45.1134280  67.9364986
  53.7855869  45.5065711  67.3672776  54.5269047  45.6523158  67.5801168
  51.8705162  56.3280085  58.2349935  52.6845801  56.6194978  58.1232706
  51.8064303  55.6739947  57.6608228  51.9807901  56.2745280  58.1338772
  47.7413070  59.8001602  63.3622247  48.3787017  59.5613350  63.9074040
  48.1668142  60.0038761  62.6275407  47.8989236  59.7952613  63.3339404
  42.4325713  62.0389939  67.2456551  42.4729858  62.3104790  66.4176330
  42.9920237  62.5631847  67.6614338  42.5209058  62.1565694  67.1848439
  48.3815885  55.0203892  57.6997136  48.7661038  54.8011599  58.4513681
  48.1327506  55.8466838  57.8298212  48.4017958  55.1102038  57.8298213
  48.5484426  48.3010307  77.4159720  48.2337867  49.0709870  77.1529283
  48.2274358  47.7380563  76.8311947  48.4543345  48.3320576  77.2901070
  50.1234542  60.2774025  65.0416033  50.1973550  60.1149197  65.8957883
  50.9404048  60.4664215  64.7976515  50.2550901  60.2810767  65.1314059
  43.8840299  60.6231888  62.0710477  43.0578416  60.8693625  61.9444755
  43.9452290  60.5443969  62.9372535  43.7714466  60.6476837  62.1799421
  46.1016323  46.6900829  63.0305917  45.2338748  46.7623428  63.0963526
  46.3891527  47.4922908  63.2193892  46.0156071  46.8194976  63.0680683
  55.2249211  46.8378688  71.3617238  55.9702803  46.6488499  70.9480664
  54.8086516  47.3636926  70.8031095  55.2734186  46.8880834  71.2181812
  48.6639128  63.2408768  59.7729506  48.9537426  62.8497749  59.0488733
  49.3942609  63.4225473  60.2134782  48.8146012  63.2102582  59.7312313
  62.6011482  54.2087917  66.3122743  63.1519404  53.5755986  66.5519836
  62.5855598  54.7403310  67.0038248  62.6796679  54.1936865  66.4501602
  49.2533873  58.0426514  70.8582637  48.7545567  58.7542282  70.9367525
  50.0634097  58.3627181  70.8200799  49.2989980  58.1953363  70.8639205
  46.6045043  65.2176151  62.8389656  46.3845339  64.9273505  63.6316323
  46.3839565  64.5591106  62.3107568  46.5392638  65.0775859  62.8778565
  45.5161991  57.3049467  65.1045358  45.2275239  56.6786938  65.6391085
  46.3845339  57.2469754  65.1710038  45.6022243  57.2037011  65.1936312
  56.3039888  52.4484250  65.4227340  55.9604654  51.7274586  65.7734589
  56.4032931  52.2398102  64.5805698  56.2681931  52.3108454  65.3499020
  48.7712999  66.5905540  61.6220349  49.4237057  66.0581983  61.8511375
  48.0738608  66.2374193  62.0088223  48.7643717  66.4595063  61.7132516
  45.7194264  58.9444718  61.0287723  46.4740232  59.3257757  61.2423185
  45.1264877  59.3955862  61.4834419  45.7430978  59.0673545  61.1270601
  56.7652917  58.9109954  60.9651328  57.3310950  59.5703164  60.8809871
  56.1180821  59.2559653  61.4367730  56.7531674  59.0591896  61.0224084
  48.1800931  50.9007558  76.1544935  47.3700707  51.2065338  76.0434777
  48.6575618  51.6213141  76.2697519  48.1304410  51.0522160  76.1552006
  47.0392491  60.1153279  66.4027838  46.5173244  60.2553571  67.0879703
  47.4266511  59.3563944  66.5929956  47.0196191  60.0238803  66.5328915
  44.0283675  50.1659088  60.4722793  43.7408470  49.7960359  59.7354740
  44.7154143  50.6353943  60.2106498  44.0872572  50.1806058  60.3237869
  53.2359496  61.8548739  60.3888407  52.9946171  61.1216599  59.9815472
  53.4160828  62.4035596  59.7354740  53.2267120  61.8271130  60.2318630
  48.4658816  57.1457298  61.8009329  48.2701599  57.7532033  61.2069632
  48.6893162  56.4525242  61.3201003  48.4693457  57.1334824  61.6425410
  46.8637346  54.0312036  61.9190198  47.5859998  54.1953194  61.4594004
  46.3845339  54.7521701  61.8129537  46.9001077  54.1610266  61.8355812
  54.8230854  50.3675835  67.2986883  53.9841954  50.3937114  67.0625146
  54.8935221  51.0146571  67.8792229  54.7099247  50.4671961  67.3495999
  44.5144963  56.4370109  71.0244337  45.0266060  56.7154362  70.3753097
  44.2281306  57.1759403  71.3907151  44.5479826  56.5872462  70.9834216
  58.6988378  55.5743822  64.5848124  58.6122352  55.7299248  65.4382903
  58.2438858  56.2181897  64.2107529  58.6191634  55.6919577  64.6555231
  41.6011869  50.9440301  61.3208074  41.7028006  51.7466462  61.6489049
  42.3967756  50.7427637  61.0231155  41.7339775  51.0326199  61.3243429
  48.0328688  48.5296497  71.0845379  47.8411885  48.5451632  71.9344803
  48.8827284  48.7260172  71.0612034  48.1304410  48.5610849  71.2068674
  42.4175601  51.0587479  69.0629196  42.2761093  50.2071420  69.1873704
  42.7016165  51.1016139  68.2391402  42.4383447  50.9387229  68.9596820
  52.5714194  52.8954569  63.2073684  52.3248908  52.8150320  64.0410473
  52.8999317  52.1108037  63.0136211  52.5835437  52.7680834  63.3021207
  56.4662242  59.6037928  66.9960465  56.3276602  60.3018974  67.5009207
  55.6862240  59.4486585  66.6396647  56.3305469  59.6838095  67.0186739
  48.5311221  55.6311288  72.6196667  48.6754597  56.2112496  71.9839777
  48.8786870  56.0087584  73.3246522  48.6038682  55.7731992  72.6295662
  50.7031138  54.8301456  70.4021799  49.9554452  55.0232470  69.9970077
  50.8572664  54.0046676  70.1645920  50.6153566  54.7366567  70.3067204
  47.6038976  63.8214059  69.4857694  47.7528540  63.2616975  68.8331098
  48.3838978  63.9006061  69.8690213  47.7413070  63.7499625  69.4454643
  57.9615615  58.9616182  57.7576964  57.5822424  58.1753320  57.7506254
  57.2981861  59.5103039  57.6148609  57.8074090  58.9261006  57.7357761
  50.9432915  48.7252007  71.2917202  51.4005529  49.4575981  71.4189994
  51.0189244  48.3018472  72.0504458  51.0223885  48.7709245  71.4218279
  43.1865907  48.9717826  72.3806646  42.6508096  48.3598185  72.6967413
  43.2483671  49.5465962  73.0340313  43.1161539  48.9664754  72.5242073
  55.4160241  41.9041882  65.1611045  55.5343809  42.3618345  64.4278348
  55.2422417  41.0987143  64.8747263  55.4079412  41.8535654  65.0111979
  50.7862524  62.5129701  61.5965791  51.5512415  62.2439345  61.2748455
  50.6840613  62.0279712  62.3135853  50.8844019  62.4019266  61.6545618
  48.8215293  50.7154111  68.1359026  48.0311368  50.5345571  68.4576362
  49.2175916  49.9381063  68.1189321  48.7632169  50.5741572  68.1811575
  53.3081184  59.5441885  53.5765740  54.0754169  59.6042010  53.1671592
  52.8612493  58.9722326  53.0922058  53.3554611  59.4678461  53.4443450
  54.2058980  58.3496541  65.8618472  53.5303981  58.1181773  66.3631859
  54.2151356  57.7417724  65.2360577  54.1077484  58.2255466  65.8434624
  51.3353124  53.1914370  72.6182525  51.2712265  54.0524326  72.4902662
  51.4750311  52.8746363  71.8178076  51.3468594  53.2714536  72.4810738
  56.2075714  61.2061673  58.0928650  56.2895552  62.0128659  57.7690101
  56.6925456  61.2257632  58.8169424  56.2912872  61.3282336  58.1515549
  50.0172217  55.8846509  66.7598728  49.5934467  56.0851008  66.0237746
  49.8417073  55.0375357  66.8723028  49.9283098  55.7895291  66.6672418
  45.3054662  56.3798561  62.1926701  45.4619282  56.3145363  63.0482693
  45.6455256  57.1547113  61.9805380  45.3787897  56.4847759  62.2881295
  51.8433807  55.7556444  61.0620064  52.3849352  55.2526825  61.5258684
  52.1580366  55.7021639  60.2509549  51.9698204  55.6735865  61.0103876
  50.0120257  61.1473796  58.3460092  50.0813077  60.2888334  58.4853092
  50.7908712  61.3645677  58.0179116  50.1373107  61.0526660  58.3177249
  52.9923076  50.6492749  71.1142364  53.2065046  50.0103663  70.5605718
  52.3756976  51.0938572  70.6850226  52.9328406  50.6202892  70.9692795
  54.4027744  63.5711497  62.5596585  54.0107536  63.2678212  61.8419451
  54.5580817  64.4080587  62.3701539  54.3681334  63.6495334  62.4253082
  41.8788924  53.5633511  62.5087468  42.2587889  53.9818056  61.8447735
  41.3044289  54.1446967  62.8156311  41.8500249  53.7111370  62.4564209
  55.1562164  52.2581814  72.0525671  54.3438846  51.9507704  72.1338844
  55.6152099  51.7780814  72.6168384  55.1042549  52.1418306  72.1480266
  54.5667419  60.1361486  62.5002616  54.2082074  60.3076129  63.2766648
  54.0806130  60.5974691  61.9430614  54.4426116  60.2300457  62.5327885
  52.3837805  43.7592684  66.1029707  51.5131363  43.7331405  66.0563017
  52.6378146  43.5869876  65.2855553  52.2931365  43.7302828  65.9749844
  49.3555784  55.8160651  55.0402850  49.6448309  56.5925534  55.3146424
  49.4427583  55.3049383  55.7417349  49.4110041  55.8552570  55.1845348
  49.4086946  45.7698913  67.5603177  48.8925434  45.0779104  67.6854756
  48.8480874  46.4369690  67.5065776  49.2493459  45.7662170  67.5709243
  51.4779179  46.3091873  69.3896030  51.0910932  46.3340904  70.1709560
  50.9912116  45.7433551  68.9370547  51.3491688  46.2287624  69.4383934
  57.4529158  52.8754528  68.0135732  57.0256767  52.7880876  67.2583832
  56.8155211  52.9832303  68.5990576  57.2958766  52.8787188  67.9881174
  51.1436321  43.1958858  71.6806290  51.7729439  43.7319158  71.4027360
  51.3122183  43.1036217  72.5319856  51.2614115  43.2620221  71.7654818
  50.9450236  47.9830053  73.9532702  51.7723665  47.7115202  74.0091316
  50.9658082  48.7790895  74.3096520  51.0703086  48.0609807  74.0147884
  45.5219725  55.1293916  67.1402962  44.6807732  55.0297790  67.3481856
  45.7309733  55.8989396  67.4917283  45.4284418  55.2285959  67.2230277
  42.9995292  52.7513453  64.9687713  42.6051990  52.8256465  64.1937822
  42.4435409  53.1371399  65.5196075  42.8598105  52.8195227  64.9355373
  54.6360239  45.7294747  64.6491592  54.8409833  45.6617055  65.4948589
  54.3086663  46.5353568  64.5812769  54.6175487  45.8380687  64.7651247
  49.3336390  53.0575315  66.3900560  49.0299528  52.5031303  66.9910967
  48.6315811  53.2367525  65.9028594  49.1852600  53.0020097  66.4070265
  47.3954741  60.2725036  71.0972657  47.2875096  60.2827098  71.9634716
  47.6050523  61.0979816  70.9077611  47.4104852  60.3966110  71.1976749
  57.8893927  46.2826511  64.1294357  57.2768241  46.7696913  64.5148089
  57.9858102  45.6070002  64.6732008  57.8131825  46.2544820  64.2673215
  45.4128533  57.5237678  68.5594595  44.8216467  58.1647176  68.5297610
  46.1749557  57.9475295  68.5325895  45.4376794  57.6813516  68.5509742
  45.8089156  48.6839676  69.2262613  46.2690638  48.7578605  69.9637736
  45.8545263  49.4820930  68.8762434  45.8839711  48.8133823  69.2835369
  47.4572506  49.3506371  73.7934640  47.0658071  48.7039718  74.2290418
  47.6258369  49.9417806  74.4128895  47.4243416  49.3420639  73.9497346
  55.1718050  62.9746990  65.9926620  54.9737738  63.4637804  65.2982831
  54.5505761  63.1788231  66.5710753  55.0505614  63.0763528  65.9749843
  49.2326028  54.7431886  60.3336864  49.9768073  55.1306163  60.5719814
  49.3786724  53.8989312  60.4977352  49.3636613  54.6762359  60.3930834
  52.2203904  50.3157360  66.2330783  51.7463858  49.7899122  66.7436094
  52.5922040  49.7686833  65.6645645  52.2053793  50.1573356  66.2245930
  42.5976934  52.3128866  71.6014329  43.4602547  52.2124576  71.5151659
  42.2668717  51.7323576  71.0399901  42.6762130  52.2120493  71.5059735
  58.4840634  55.3759735  67.6437564  58.2438857  54.5366151  67.6479990
  58.9632642  55.4559902  68.3678337  58.5192818  55.2641135  67.7512366
  60.4845821  52.1561193  65.5966823  60.2455591  52.1157027  64.7587607
  60.6479723  53.0032345  65.7232544  60.4736125  52.2753278  65.4920305
  45.9578720  51.1371316  68.2624747  45.3331790  51.1489707  67.6550700
  45.6224315  51.6131491  68.9115987  45.8164212  51.2089832  68.2681316
  42.6704395  59.1971776  69.7028511  42.1404320  58.5064215  69.7523486
  42.9429489  59.1881961  68.8741220  42.6329118  59.0938907  69.5875927
  53.7024486  59.7797478  58.4266194  54.4258685  60.2455591  58.2830767
  53.2625077  59.8471088  57.6763791  53.7440178  59.8581315  58.2950975
  52.8710641  56.6395020  69.6766883  52.2567634  56.0953070  69.9715518
  53.3877926  56.1259257  69.1972699  52.8566303  56.4831429  69.6491111
  52.1106938  57.7099290  67.4111182  51.6834546  57.0849009  66.9776617
  52.1031883  57.4274212  68.2370189  52.0466079  57.5752071  67.4691009
  45.2269465  52.7464463  70.4799616  45.3862952  51.9907787  70.8851338
  45.0462359  53.2955403  71.1340353  45.2234824  52.7158277  70.6362322
  53.1689768  44.9125699  71.0350405  52.6730329  45.1089373  70.3441972
  53.9258830  45.3118367  70.8639207  53.2076593  45.0003433  70.9070542
  50.4392648  48.5868045  67.6253716  50.4635135  48.0528157  66.9366496
  50.6904121  48.0785354  68.2879306  50.4802567  48.4328949  67.6218360
  37.9500238  55.8699540  67.0596860  37.8443687  55.8246384  66.1948944
  37.2000458  56.2153320  67.3411145  37.8235841  55.9140448  66.9734189
  46.7193970  47.3138863  67.0059460  46.7592342  47.8148070  67.7194167
  45.8943635  47.4049257  66.7365383  46.6033496  47.4020679  67.0709998
  48.1408333  53.8299373  69.3033359  47.3100263  53.9973191  69.0968607
  48.0859851  53.4535324  70.0882244  48.0097748  53.7989104  69.3881887
  45.9492117  47.3208266  74.9389770  46.5744820  46.7770399  75.2119202
  45.4942597  46.8403183  74.3697560  45.9740377  47.1697747  74.8951363
  46.5144377  52.1054964  59.8323477  46.6547338  52.6027429  60.5352118
  47.0126910  51.4041259  59.9737690  46.6085458  52.0756943  59.9575056
  46.5444600  52.9722075  57.1616053  47.1789679  53.5682500  57.0965515
  46.6270210  52.6725533  57.9761924  46.6501151  53.0162984  57.2719140
  48.1223583  48.9036051  57.1361495  48.4439424  48.4239133  56.4820758
  48.3850526  49.7135697  56.9452307  48.2089608  48.9525949  57.0116988
  53.5182738  48.2908245  69.4984975  53.9437809  47.8380771  68.8868501
  52.9039731  47.7368315  69.7749762  53.4911383  48.1422221  69.4490000
  43.0497588  55.1689916  60.4305599  43.5589817  55.7654424  60.8116905
  43.5231860  54.9015890  59.7482019  43.1940963  55.2175732  60.3860122
  53.9628336  63.8418183  58.5864255  53.2457645  63.6679045  58.1211492
  54.6135073  63.6070755  58.0539741  53.9530186  63.7813975  58.4393473
  56.5476307  52.7182771  62.3305560  55.8767497  53.2612474  62.2018626
  57.2416057  53.1877627  62.0887255  56.5505174  52.8681043  62.2761088
  50.5963041  64.8579483  67.5617318  50.3728695  64.0998313  67.9301345
  50.1072884  64.8877505  66.8397758  50.4906490  64.7501708  67.5094059
  56.7104434  49.1738655  65.2395933  57.0632044  48.7468378  65.9141732
  55.8519236  49.0889499  65.3697010  56.6353879  49.0983396  65.3590944
  45.4088119  51.8046175  63.2978780  44.6900108  52.2210307  63.5651643
  45.7800482  52.3700414  62.7470418  45.3580051  51.9495456  63.2561587
  54.7087700  52.4374024  69.1880776  54.6885627  52.2557319  70.0415554
  54.7566901  53.3086042  69.1640359  54.7122341  52.5390562  69.3104070
  49.2441498  65.0779942  65.0154403  48.8301896  64.4154072  64.6258245
  49.9288872  65.2257800  64.4950097  49.2839869  65.0020600  64.8810900
  52.6106792  64.2370027  65.7678020  52.2123075  64.3472297  64.9998840
  51.9958011  64.4452093  66.3504579  52.4605681  64.2843595  65.7409319
  58.1428494  44.2957067  66.1680246  57.6359359  43.5886206  66.1001423
  58.9395928  43.9650256  66.2981322  58.1855734  44.1430218  66.1779241
  54.0592510  50.8023679  62.0653910  53.8306203  50.8256381  61.2232268
  54.3190586  49.9781146  62.1848920  54.0638698  50.6839759  61.9579107
  48.3411739  52.6558152  71.6679010  47.8290642  52.0479335  72.0264041
  48.1691235  53.3714745  72.1352986  48.2401376  52.6721451  71.7895233
  43.1877453  51.0995727  74.3181372  43.0180044  51.7597102  73.7729578
  42.7443403  51.3102289  75.0393861  43.0976787  51.2281710  74.3443001
  47.1137273  49.3400225  63.3608105  47.5894639  49.7017305  62.7258286
  46.6125872  49.9956693  63.6408248  47.1102632  49.4894414  63.3084846
  60.3448634  58.8121994  59.1521110  60.7282240  59.5613350  59.3819207
  59.5492748  59.0587813  58.8933099  60.2842417  58.9591687  59.1478684
  52.2180809  50.5782397  74.1081265  52.7752239  50.3496206  73.4759731
  51.8941874  51.3388062  73.8316478  52.2527219  50.6566234  73.9737762
  40.0879518  54.0042593  69.5769861  39.5406237  53.3343239  69.6950730
  40.8771896  53.6372441  69.6413329  40.1231702  53.8507579  69.6038562
  49.1563926  51.4841425  56.7281489  49.5362891  51.5021054  55.9432604
  48.4156522  51.9295414  56.6072337  49.1032764  51.5523200  56.5945057
  56.7849216  49.7923616  62.3157068  56.7843443  49.6372273  63.1741344
  56.5805396  50.6386603  62.2598453  56.7548994  49.8944237  62.4345007
  38.8466487  53.2163401  66.7315884  38.6688248  52.7640010  67.4570800
  38.5585510  54.0189562  66.9154362  38.7779441  53.2685959  66.8659387
  54.5090068  54.4721118  65.9693275  55.0043734  53.7544113  65.9297295
  53.6989844  54.1691916  65.8547762  54.4633962  54.3218764  65.9467001
  49.9548680  58.3218931  58.1190279  49.1460003  57.9985605  58.0723589
  50.4623589  57.6152154  58.0518528  49.9098347  58.1700248  58.1020574
  40.5838957  55.7491125  63.8437644  39.7184477  55.7376815  63.7320415
  40.6837773  55.5621347  64.6908783  40.4713124  55.7197186  63.9526588
  56.5741887  57.2224806  68.6570404  56.9996959  56.6999228  68.1040829
  56.2098807  57.8205643  68.1359026  56.5828490  57.2335033  68.4979413
  46.2095967  65.5189023  67.4167749  46.5242526  66.3325412  67.4245531
  46.6189380  65.1339242  68.0849908  46.3164065  65.5817726  67.5171841
  53.1620487  60.9359070  64.9871561  53.6331665  61.6499333  65.1561546
  53.4980665  60.3357820  65.5231430  53.2815602  60.9530534  65.0903937
  50.0789982  45.7086541  71.9429656  50.2117887  44.9117534  72.2710631
  50.4635134  46.2352944  72.5227931  50.1546311  45.6686457  72.0773159
  53.1522337  42.6316867  68.5410749  52.3468301  42.5214596  68.8578587
  53.0229072  42.7329322  67.6840615  53.0142470  42.6300537  68.4618789
  56.6088297  48.7962359  69.1350446  56.0251286  49.2971565  68.7228013
  56.9292592  48.2891915  68.5014769  56.5701473  48.7954194  68.9808953
  47.7378428  45.7045716  70.1907550  48.2822841  45.3636842  70.7811891
  47.7915364  46.5631177  70.3328834  47.8267548  45.7800975  70.2989423
  43.5508987  59.4662132  67.0646357  44.1553845  59.4257966  66.4360178
  43.3436300  60.3133284  67.0950413  43.6097885  59.5850134  66.9762474
  53.3652759  61.7328077  68.2808595  54.1851133  61.5891043  68.5424890
  53.0846837  62.3574276  68.8225033  53.4449503  61.8038429  68.3996534
  38.7860270  58.4496749  66.9345281  38.6884548  57.6393021  67.2435337
  39.5689139  58.4288543  66.5491549  38.8876406  58.3263839  66.9232144
  61.5915018  67.9555249  60.8873510  62.2895183  68.1343376  61.3794973
  61.9067350  67.4325588  60.2643900  61.7410355  67.9049021  60.8675520
  59.7641881  63.3247645  64.9694785  59.4345212  63.7758789  64.2998484
  59.0886883  63.2463809  65.5167791  59.6152318  63.3798780  64.9518008
  66.9718289  59.3133168  63.2144395  66.6571730  60.0036647  63.6464818
  66.4545231  59.2577950  62.5129896  66.8482760  59.4068057  63.1741345
  58.2030331  73.2100886  58.1289274  57.6187546  73.7150917  58.5355138
  57.8000426  72.9843273  57.3885866  58.0569635  73.2509134  58.0794299
  62.6607545  69.4566538  56.6058195  62.9003549  69.6644522  55.7933538
  62.9823386  68.6524047  56.7147139  62.7444703  69.3680639  56.5018748
  57.9697836  61.3859934  60.4517733  58.7243804  61.7538251  60.2134783
  57.7925370  61.7599488  61.2196912  58.0552314  61.4958121  60.5302621
  56.3254900  63.7930253  57.1495846  56.1430473  64.0102133  56.3236838
  57.1880513  63.9069265  57.2054460  56.4259490  63.8420151  57.0350333
  62.0054619  60.7956663  60.1844869  62.7340780  60.6172618  59.7383026
  62.0949512  61.6374743  60.3952047  62.1261281  60.8940542  60.1498387
  55.8716927  67.0704425  55.6618319  55.1575104  66.7842605  56.0740751
  56.3560896  67.4101051  56.3024706  55.8376291  67.0786075  55.8173953
  63.0464245  75.5734379  56.0380127  63.4615394  75.2419403  55.3464622
  62.2156175  75.3403281  55.9100263  62.9852254  75.4905635  55.9170974
  65.7397635  71.8244939  55.2241328  65.6577798  71.8947126  56.0896315
  66.3777356  72.3874683  55.0325069  65.8217473  71.9183910  55.3231278
  47.8182337  68.7883514  63.1925190  47.9042589  68.4115382  63.9738720
  48.4458135  68.4143959  62.7145148  47.9238888  68.6768996  63.2370667
  62.8437745  71.8465393  58.2349935  63.6578384  72.1380286  58.1232706
  62.7796887  71.1925255  57.6608228  62.9540484  71.7930588  58.1338772
  59.3548469  70.5389200  57.6997136  59.7393621  70.3196907  58.4513681
  59.1060089  71.3652146  57.8298212  59.3750541  70.6287346  57.8298213
  57.0748906  62.2086137  63.0305917  56.2071332  62.2808736  63.0963526
  57.3624110  63.0108216  63.2193892  56.9888654  62.3380284  63.0680683
  55.0016258  65.6844396  60.4722793  54.7141054  65.3145667  59.7354740
  55.6886726  66.1539251  60.2106498  55.0605155  65.6991365  60.3237869
  57.8369930  69.5497344  61.9190198  58.5592582  69.7138502  61.4594004
  57.3577923  70.2707009  61.8129537  57.8733660  69.6795574  61.8355812
  64.2432716  62.7846520  62.0314498  64.9459068  62.5854268  61.5534457
  63.9776904  62.0122462  62.3383342  64.3079348  62.6409486  62.0059940
  52.5744453  66.4625609  61.3208074  52.6760589  67.2651770  61.6489049
  53.3700340  66.2612944  61.0231155  52.7072358  66.5511507  61.3243429
  66.3892825  57.4227190  65.1611045  66.5076393  57.8803653  64.4278348
  66.2155001  56.6172451  64.8747263  66.3811996  57.3720962  65.0111979
  64.2813768  75.0627193  53.5765740  65.0486753  75.1227318  53.1671592
  63.8345077  74.4907634  53.0922058  64.3287195  74.9863769  53.4443450
  52.8521507  69.0818819  62.5087468  53.2320472  69.5003364  61.8447735
  52.2776872  69.6632275  62.8156311  52.8232832  69.2296678  62.4564209
  63.3570389  59.2777992  66.1029707  62.4863947  59.2516713  66.0563017
  63.6110730  59.1055184  65.2855553  63.2663949  59.2488136  65.9749844
  60.3288368  71.3345959  55.0402850  60.6180893  72.1110842  55.3146424
  60.4160167  70.8234691  55.7417349  60.3842624  71.3737877  55.1845348
  59.3635071  65.8861143  60.9545262  59.6394805  65.1680055  60.5422829
  59.9633740  66.4846063  60.7466368  59.4928336  65.8681513  60.8626023
  62.8645591  63.5574660  59.2291857  63.3189338  63.7285220  59.9539701
  63.3385637  62.9442771  58.8289632  63.0013912  63.4925545  59.2765618
  60.2058611  70.2617194  60.3336864  60.9500656  70.6491471  60.5719814
  60.3519308  69.4174620  60.4977352  60.3369197  70.1947667  60.3930834
  62.1238187  62.0567453  65.3668725  61.2774232  62.2290261  65.2410075
  62.1209319  61.2516797  65.7034554  61.9985337  61.9628482  65.3979852
  65.1219987  66.7279222  59.2956537  64.5943006  66.8107966  58.6062246
  65.5815695  67.4697094  59.2921182  65.1121837  66.8499885  59.1931232
  57.1153052  64.9981742  54.3197432  56.7665856  65.6501467  54.7828981
  56.6349498  64.9838855  53.5921303  56.9923296  65.0924795  54.2808523
  57.4876961  67.6240272  59.8323477  57.6279922  68.1212737  60.5352118
  57.9859494  66.9226567  59.9737690  57.5818042  67.5942251  59.9575056
  57.5177183  68.4907383  57.1616053  58.1522263  69.0867808  57.0965515
  57.6002794  68.1910841  57.9761924  57.6233734  68.5348292  57.2719140
  59.0956166  64.4221359  57.1361495  59.4172007  63.9424441  56.4820758
  59.3583110  65.2321005  56.9452307  59.1822192  64.4711257  57.0116988
  54.0230171  70.6875224  60.4305599  54.5322400  71.2839732  60.8116905
  54.4964443  70.4201198  59.7482019  54.1673547  70.7361040  60.3860122
  62.9309544  60.2808653  62.9075552  62.2877862  60.1306299  63.4760690
  62.5908951  60.0350998  62.1424656  62.7854621  60.2220775  62.8778567
  56.3820703  67.3231483  63.2978780  55.6632692  67.7395615  63.5651643
  56.7533065  67.8885721  62.7470418  56.3312635  67.4680764  63.2561587
  62.1567277  66.3629483  58.6352159  61.5632117  66.6846479  58.0836726
  62.1942555  65.5170578  58.4273265  62.0741666  66.2853811  58.5234931
  58.0869856  64.8585533  63.3608105  58.5627223  65.2202613  62.7258286
  57.5858456  65.5142001  63.6408248  58.0835215  65.0079722  63.3084846
  60.1296509  67.0026733  56.7281489  60.5095474  67.0206362  55.9432604
  59.3889106  67.4480722  56.6072337  60.0765347  67.0708508  56.5945057
  60.9281264  73.8404239  58.1190279  60.1192586  73.5170913  58.0723589
  61.4356172  73.1337461  58.0518528  60.8830930  73.6885556  58.1020574
  60.1215680  63.2288261  59.4109121  60.9431375  63.3986574  59.1690816
  59.6585331  63.3835522  58.6875418  60.1746842  63.2769994  59.2680765
  36.6119483  -0.2284864  48.1791518  36.5813487   0.6259773  48.3509787
  37.2100832  -0.5289571  48.7377662  36.6956641  -0.1468368  48.2866320
  29.8119168  -1.1409213  52.9344448  28.9557063  -0.9800715  52.9853565
  29.8586822  -2.0117149  52.9549509  29.6918279  -1.2458411  52.9450514
  24.1960308   8.3953505  48.6981680  23.4443207   8.0169043  48.4697725
  24.6446319   8.4271938  47.9500490  24.1509974   8.3439112  48.5539182
  33.1212884   5.1277313  62.5404905  33.8279652   4.6329343  62.6691839
  33.3100820   5.5686394  61.8107563  33.2540790   5.1195663  62.4513950
  29.6485267   8.8178874  44.1267227  29.3136636   9.4955796  43.6911449
  30.1612138   8.4284186  43.5384099  29.6750849   8.8603453  43.9754019
  29.1889559  10.7693143  50.0678339  29.5728938  11.3380042  49.5283114
  29.1248700  10.0442653  49.5884155  29.2362986  10.7468606  49.9172201
  32.6570989   0.9182831  55.5776100  33.2026949   1.5967917  55.6370070
  32.5987865   0.7770292  54.7177682  32.7286903   0.9974833  55.4588161
  25.7745064   8.4071897  50.9644452  25.8755427   7.5972251  51.2741580
  25.1786809   8.3128843  50.3344131  25.7017602   8.2736925  50.9170691
  34.4336058   2.3467438  46.4509828  34.3175583   3.0975124  46.8801966
  35.2291944   2.0891391  46.7005915  34.5340647   2.4202285  46.5513920
  25.6145803  13.3249486  52.3659309  26.2583259  13.7662650  52.7555467
  25.9402059  12.5202912  52.2789567  25.7577632  13.2714681  52.4104786
  18.9710108   4.4292184  50.5896786  18.7360292   3.5959836  50.4829055
  19.1095749   4.7096849  49.7757987  18.9565770   4.3475687  50.4539141
  26.3166383   6.3361461  47.7379170  26.6382224   6.8766668  47.1340478
  26.9638480   5.7658232  47.8701460  26.4592438   6.3320636  47.6686206
  28.3668091  -1.6622544  47.8213557  29.0648256  -1.4834417  48.3135020
  28.6820424  -2.1852205  47.1983946  28.5163428  -1.7128772  47.8015567
  20.9969328   0.1430196  55.7324663  20.8728025   0.7292641  56.3674482
  21.6487613  -0.3509608  56.0336938  21.0742978   0.1569000  55.8710592
  28.5556026   4.7247901  47.8093348  28.9949662   4.1165001  48.2548121
  28.4060689   4.3455274  47.0378813  28.5977492   4.5786372  47.7612516
  26.0227669   3.3191913  55.0112174  26.6676672   2.8264356  54.6923122
  26.2629447   3.4616699  55.8378252  26.1538255   3.2669355  55.0861707
  28.5613761   6.1646819  54.6619066  28.8437004   5.3698224  54.4405822
  29.2899921   6.6427406  54.6824128  28.7103325   6.1181416  54.6322082
  32.1565363   3.0775082  44.7624118  32.0716658   3.9336049  44.9073687
  32.6449746   2.8019406  45.4306277  32.2154260   3.1632404  44.8826199
  33.0883796  -0.3040124  46.2621853  32.5595268  -0.0880490  46.9219159
  33.6108816   0.3896015  46.1822822  33.0872249  -0.1696987  46.3477452
  38.5431849   5.2706181  51.6354897  37.7129552   5.4816825  51.7988314
  38.4941101   4.4443235  51.3597181  38.4138585   5.1795787  51.6192263
  24.9783404   3.5923093  45.0629321  24.3940619   4.0973125  45.4695185
  24.5753499   3.3665480  44.3225913  24.8322708   3.6331341  45.0134346
  20.5327433   9.3077854  51.8652992  20.0495011  10.0328344  51.8412576
  21.3450751   9.6053984  51.9763150  20.5818180   9.4580208  51.8780272
  26.6041587   8.1010035  54.4702807  26.0868528   7.7417450  53.8664115
  27.3015978   7.5772209  54.4808873  26.6307168   7.9707723  54.3833065
  30.2605179   8.5504849  60.4318980  30.3488525   8.3630989  61.2797190
  30.6894891   7.9042279  60.0323827  30.3367281   8.4267857  60.4990731
  27.8275638   7.8336009  59.4136642  27.2646473   7.4208619  59.9376303
  28.5896662   7.7588915  59.8329785  27.8570087   7.7613410  59.5529642
  29.4360618  -0.1611255  43.5398241  29.6756622   0.0466729  42.7273584
  29.7576459  -0.9653746  43.6487186  29.5197776  -0.2497154  43.4358794
  23.3871630   9.8234030  52.0173272  24.0892209   9.3086019  52.0746029
  23.3069113  10.1508182  52.8220147  23.4795390   9.7948256  52.1446064
  38.0385807  -2.0823418  55.4305319  37.2014229  -2.0121231  55.6652913
  38.0074038  -2.0798924  54.5579621  37.9104090  -2.0713191  55.3364867
  22.7122405   6.0140382  51.5258880  23.5511305   6.2463315  51.5732642
  22.7434175   5.1444694  51.4565916  22.8404123   5.9197329  51.5223525
  23.3375108   6.4341257  55.8272186  23.8773333   6.2912388  56.4975558
  22.6545055   6.8338008  56.1956212  23.3167262   6.4720928  55.9806607
  32.7615993   2.1132258  51.0217210  33.5173508   2.5463772  51.0606119
  32.8678318   1.4637028  51.5951846  32.8886164   2.0809742  51.1115236
  35.7996164   5.9405535  51.7719613  35.3631396   5.9442278  52.5278585
  35.4659080   6.6211034  51.3399191  35.6858784   6.0417991  51.8200446
  30.3725238   7.9813868  63.0962763  31.1565655   8.0944716  63.4618506
  30.1721833   7.1555005  63.2921449  30.4591263   7.8760588  63.1797149
  18.7412253   2.6541548  55.9806607  18.4750669   1.8380665  56.1397598
  18.7550818   2.6994704  55.1102123  18.7036976   2.5398453  55.8760089
  22.6470000  -2.5473367  42.5958365  21.9328178  -2.8335188  43.0080798
  23.1313969  -2.2076742  43.2364753  22.6129364  -2.5391718  42.7514000
  30.5295631   9.8923970  56.7429219  29.7310877   9.6523470  57.0003088
  30.9781643   9.9438363  57.4896267  30.4770243   9.8646361  56.8914143
  38.9340511   2.6586455  50.6639250  39.5956945   2.0977124  50.5635159
  38.2931923   2.1638486  50.9891941  38.9369378   2.5022864  50.6971591
  29.8217318   5.9556587  42.9720174  30.2368467   5.6241610  42.2804669
  28.9909248   5.7225489  42.8440310  29.7605327   5.8727843  42.8511021
  19.1505667   3.4400328  53.2618352  18.9681240   3.4147214  52.4090644
  19.8855336   3.9099265  53.3007260  19.2319731   3.5061690  53.1416270
  35.2205341   3.6751838  50.4051239  35.4560930   3.8197036  49.5778090
  35.3694905   4.4394246  50.7982753  35.2771145   3.8090892  50.3414843
  37.0495798   2.5153503  48.2420843  37.3804015   3.0481144  47.6360938
  37.6228886   2.5692391  48.8982794  37.1829477   2.6023072  48.2498625
  32.2627687   0.3618406  48.9244423  32.3574542   1.1007700  49.3784049
  31.6386531  -0.0664118  49.3578988  32.1836717   0.4079727  49.0552571
  30.5180161   3.5404619  59.5734704  31.0919023   2.9031863  59.7283268
  30.4394965   3.5408701  58.7044362  30.5913396   3.4469730  59.4681115
  19.1176577   0.3193828  53.4117418  19.6950080   0.1830279  54.0509663
  18.4190639  -0.1370388  53.6663002  19.0997599   0.2316094  53.5439708
  32.5150708   2.2067146  42.1581375  32.4330871   2.2769333  43.0236362
  33.1530429   2.7696890  41.9665116  32.5970546   2.3006117  42.2571325
  25.8743880   1.9727884  51.6255901  25.6163124   1.1399619  51.5987201
  25.9292362   2.1985497  50.7848402  25.8443657   1.8825655  51.4976038
  24.8478592  -0.4734354  52.1120796  24.2728183  -0.3142185  52.7484757
  24.4714268  -1.1098944  51.6489247  24.7081404  -0.5436541  52.1375354
  28.5151880  -2.0011004  56.9713175  28.1266313  -2.4256787  56.3165366
  27.8506579  -1.7528855  57.4790201  28.3598808  -2.0272283  56.9501042
  29.6190819   2.2287600  45.1689981  30.4331457   2.5202493  45.0572753
  29.5549960   1.5747463  44.5948274  29.7293558   2.1752795  45.0678819
  35.8400309   4.9113596  59.5819557  35.6038946   4.0801661  59.4631618
  36.4843538   4.8599204  60.1674401  35.8994980   4.7811284  59.6505451
  25.4898727   5.7009118  50.2962294  26.1272674   5.4620865  50.8414087
  25.9153798   5.9046277  49.5615454  25.6474893   5.6960128  50.2679451
  20.1811369   7.9397454  54.1796597  20.2215515   8.2112305  53.3516377
  20.7405893   8.4639362  54.5954385  20.2694715   8.0573209  54.1188486
  26.1301542   0.9211408  44.6337183  26.5146695   0.7019114  45.3853728
  25.8813162   1.7474353  44.7638259  26.1503615   1.0109554  44.7638259
  36.8636729   4.6958045  55.6447852  36.5582547   5.4286102  56.0061167
  36.1442945   4.2895975  55.3640638  36.7124072   4.7439778  55.6560989
  27.8720199   6.1781540  51.9756080  27.9459207   6.0156712  52.8297930
  28.6889705   6.3671730  51.7316561  28.0036557   6.1818283  52.0654105
  42.5638522   1.3351046  54.9716196  42.4963022   1.3547005  54.1018782
  42.5494184   2.1781373  55.1971866  42.5517278   1.4624781  54.8768673
  21.6325956   6.5239403  49.0050523  20.8064073   6.7701140  48.8784802
  21.6937947   6.4451484  49.8712581  21.5200123   6.5484352  49.1139468
  26.4124785   9.1416283  46.7069553  26.7023083   8.7505265  45.9828780
  27.1428265   9.3232988  47.1474829  26.5631669   9.1110097  46.6652360
  40.3497139   0.1095432  53.2462790  40.9005060  -0.5236499  53.4859882
  40.3341254   0.6410825  53.9378295  40.4282335   0.0944380  53.3841648
  27.0019530   3.9434029  57.7922684  26.5031223   4.6549797  57.8707572
  27.8119754   4.2634696  57.7540846  27.0475636   4.0960878  57.7979252
  24.3530700  11.1183666  49.7729703  24.1330996  10.8281021  50.5656370
  24.1325222  10.4598621  49.2447615  24.2878294  10.9783374  49.8118612
  23.2647647   3.2056982  52.0385405  22.9760896   2.5794454  52.5731132
  24.1330995   3.1477270  52.1050085  23.3507899   3.1044527  52.1276359
  34.0525545  -1.6508234  52.3567386  33.7090311  -2.3717899  52.7074636
  34.1518588  -1.8594383  51.5145745  34.0167588  -1.7884031  52.2839066
  26.5198656  12.4913056  48.5560395  27.1722714  11.9589498  48.7851421
  25.8224265  12.1381708  48.9428269  26.5129374  12.3602579  48.6472563
  23.4679921   4.8452233  47.9627770  24.2225889   5.2265272  48.1763232
  22.8750533   5.2963377  48.4174466  23.4916634   4.9681061  48.0610648
  34.5138574   4.8117470  47.8991375  35.0796607   5.4710680  47.8149918
  33.8666478   5.1567168  48.3707777  34.5017331   4.9599411  47.9564131
  24.7878147   6.0160795  53.3367885  24.2658901   6.1561086  54.0219750
  25.1752168   5.2571459  53.5270002  24.7681848   5.9246319  53.4668962
  30.9845152   7.7556254  47.3228454  30.7431828   7.0224115  46.9155519
  31.1646485   8.3043111  46.6694787  30.9752776   7.7278645  47.1658677
  26.2144473   3.0464814  48.7349376  26.0187256   3.6539548  48.1409679
  26.4378819   2.3532758  48.2541050  26.2179114   3.0342339  48.5765457
  24.6123003  -0.0680448  48.8530244  25.3345655   0.0960710  48.3934050
  24.1330996   0.6529217  48.7469584  24.6486734   0.0617781  48.7695858
  32.5716511  -3.7316650  54.2326929  31.7327611  -3.7055371  53.9965193
  32.6420878  -3.0845914  54.8132276  32.4584904  -3.6320524  54.2836046
  22.2630620   2.3377624  57.9584384  22.7751717   2.6161877  57.3093144
  21.9766962   3.0766918  58.3247197  22.2965483   2.4879978  57.9174262
  36.4474034   1.4751337  51.5188171  36.3608009   1.6306763  52.3722950
  35.9924514   2.1189413  51.1447576  36.3677291   1.5927092  51.5895278
  30.3199850  -1.2037916  50.1413731  30.0734565  -1.2842165  50.9750520
  30.6484974  -1.9884448  49.9476258  30.3321094  -1.3311650  50.2361254
  34.2147899   5.5045444  53.9300512  34.0762259   6.2026490  54.4349254
  33.4347897   5.3494100  53.5736694  34.0791126   5.5845610  53.9526786
  32.5525984   1.8041819  60.1822894  32.5474023   0.9321636  60.1865320
  33.2586978   2.0029988  59.7092349  32.6570988   1.7045693  60.1129929
  26.2796878   1.5318803  59.5536714  26.4240253   2.1120011  58.9179824
  26.6272526   1.9095100  60.2586568  26.3524339   1.6739507  59.5635709
  28.4516795   0.7308971  57.3361845  27.7040109   0.9239986  56.9310123
  28.6058320  -0.0945809  57.0985967  28.3639223   0.6374083  57.2407251
  25.3524633   9.7221575  56.4197741  25.5014196   9.1624491  55.7671145
  26.1324635   9.8013576  56.8030259  25.4898726   9.6507140  56.3794690
  35.7101272   4.8623697  44.6917011  35.3308081   4.0760835  44.6846300
  35.0467518   5.4110554  44.5488655  35.5559747   4.8268521  44.6697808
  27.8777933   9.8936218  57.6982231  27.8021604   9.2245028  58.2533020
  27.8067792  10.5954006  58.2122898  27.8558540   9.8981125  57.8559079
  28.5348180   8.4137217  48.5305837  29.2998071   8.1446860  48.2088502
  28.4326270   7.9287227  49.2475900  28.6329676   8.3026781  48.5885665
  26.5700950  -3.3838374  55.0699073  25.7797025  -3.5646914  55.3916409
  26.9661573  -4.1611421  55.0529368  26.5117826  -3.5250913  55.1151621
  31.0566841   5.4449400  40.5105787  31.8239826   5.5049525  40.1011638
  30.6098150   4.8729842  40.0262105  31.1040268   5.3685976  40.3783497
  31.9544636   4.2504056  52.7958519  31.2789638   4.0189288  53.2971906
  31.9637012   3.6425239  52.1700624  31.8563141   4.1262981  52.7774671
  29.0838780  -0.9078115  59.5522572  29.0197922  -0.0468158  59.4242709
  29.2235968  -1.2246122  58.7518123  29.0954250  -0.8277948  59.4150785
  33.9561371   7.1069189  45.0268697  34.0381208   7.9136175  44.7030148
  34.4411113   7.1265148  45.7509470  34.0398529   7.2289851  45.0855596
  27.7657874   1.7854024  53.6938775  27.3420123   1.9858523  52.9577793
  27.5902729   0.9382872  53.8063075  27.6768755   1.6902806  53.6012465
  27.2669568  13.3004537  56.1560232  27.7565498  12.6015327  55.9735897
  26.6953800  13.0028407  56.7436290  27.2554098  13.1530761  56.2161273
  23.0540319   2.2806076  49.1266747  23.2104938   2.2152879  49.9822739
  23.3940912   3.0554628  48.9145427  23.1273554   2.3855274  49.2221342
  29.5919464   1.6563959  47.9960111  30.1335009   1.1534341  48.4598731
  29.9066023   1.6029154  47.1849596  29.7183861   1.5743380  47.9443923
  33.4636571   5.8666607  65.1087023  34.2771436   5.5951756  65.2692155
  33.3031538   5.5674147  64.3047219  33.5606520   5.7821533  65.0132429
  27.7605914   7.0481311  45.2800139  27.8298734   6.1895849  45.4193139
  28.5394369   7.2653192  44.9519163  27.8858764   6.9534175  45.2517296
  30.7408733  -3.4499736  58.0482411  30.9550703  -4.0888822  57.4945765
  30.1242632  -3.0053912  57.6190273  30.6814062  -3.4789592  57.9032842
  32.1513401   9.4719012  49.4936632  31.7593193   9.1685727  48.7759498
  32.3066473  10.3088102  49.3041586  32.1166991   9.5502849  49.3593129
  19.6274581  -0.5358974  49.4427515  20.0073546  -0.1174429  48.7787782
  19.0529945   0.0454482  49.7496358  19.5985906  -0.3881115  49.3904256
  32.9047821  -1.8410671  58.9865718  32.0924503  -2.1484780  59.0678891
  33.3637756  -2.3211671  59.5508430  32.8528206  -1.9574178  59.0820312
  32.3153076   6.0369001  49.4342663  31.9567731   6.2083644  50.2106695
  31.8291787   6.4982207  48.8770661  32.1911773   6.1307972  49.4667932
  27.1041441   1.7168167  41.9742897  27.3933966   2.4933049  42.2486471
  27.1913240   1.2056898  42.6757396  27.1595698   1.7560085  42.1185395
  33.4757815   6.9272897  60.3809863  34.1137536   6.4333093  60.0472319
  32.8331907   6.8550298  59.7962090  33.4752042   6.8431906  60.2452218
  35.2014815  -1.2237957  54.9475779  34.7742423  -1.3111608  54.1923879
  34.5640868  -1.1160181  55.5330623  35.0444423  -1.2205297  54.9221221
  33.5312072   7.6192705  57.0215220  34.3204450   7.2681770  57.1417302
  33.7055670   8.4329094  56.7591854  33.6732353   7.6878562  57.0003088
  23.2705382   1.0301431  54.0743009  22.4293389   0.9305305  54.2821903
  23.4795390   1.7996911  54.4257330  23.1770075   1.1293474  54.1570324
  20.7480949  -1.3479032  51.9027760  20.3537647  -1.2736020  51.1277869
  20.1921066  -0.9621086  52.4536121  20.6083762  -1.2797257  51.8695419
  27.0822047  -1.0417170  53.3240607  26.7785185  -1.5961181  53.9251014
  26.3801468  -0.8624960  52.8368641  26.9338257  -1.0972387  53.3410312
  26.1388144  -3.7316650  47.8885308  26.4147879  -4.4497737  47.4762876
  26.7386814  -3.1331730  47.6806414  26.2681409  -3.7496279  47.7966070
  25.1440398   6.1732551  58.0312704  25.0360753   6.1834613  58.8974762
  25.3536180   6.9987331  57.8417658  25.1590509   6.2973626  58.1316796
  23.1614190   3.4245193  55.4934642  22.5702123   4.0654692  55.4637657
  23.9235214   3.8482811  55.4665941  23.1862451   3.5821032  55.4849789
  39.2804612   3.2550963  56.4911920  39.3387735   3.7037612  57.2371897
  38.6471079   3.6649776  56.0542000  39.1955907   3.3824698  56.5364468
  32.9203706   8.8754505  52.9266666  32.7223395   9.3645319  52.2322878
  32.2991417   9.0795746  53.5050800  32.7991271   8.9771043  52.9089890
  26.9811685   0.6439402  47.2676911  27.7253730   1.0313678  47.5059861
  27.1272381  -0.2003173  47.4317398  27.1122270   0.5769875  47.3270880
  29.9689561  -3.7835125  53.1670830  29.4949515  -4.3093363  53.6776141
  30.3407696  -4.3305652  52.5985691  29.9539449  -3.9419128  53.1585977
  36.2326291   1.2767251  54.5777610  35.9924514   0.4373666  54.5820037
  36.7118298   1.3567417  55.3018384  36.2678475   1.1648650  54.6852413
  31.8973060  -2.8898570  46.2296584  31.3696079  -2.8069826  45.5402293
  32.3568768  -2.1480699  46.2261228  31.8874911  -2.7677908  46.1271279
  38.2331478  -1.9431292  52.5306870  37.9941248  -1.9835458  51.6927654
  38.3965379  -1.0960140  52.6572591  38.2221782  -1.8239207  52.4260352
  34.8377508   2.4418657  58.4611915  35.5611707   1.9891184  58.2822935
  34.5727471   2.7223323  57.6784243  34.9058782   2.4169626  58.3190630
  23.7064377  -2.9621169  55.1964794  23.0817447  -2.9502777  54.5890747
  23.3709972  -2.4860994  55.8456034  23.5649869  -2.8902652  55.2021362
  20.4190052   5.0979291  56.6368558  19.8889977   4.4071730  56.6863533
  20.6915146   5.0889476  55.8081267  20.3814775   4.9946423  56.5215974
  31.4510143   5.6804993  45.3606241  32.1744342   6.1463106  45.2170814
  31.0110734   5.7478603  44.6103838  31.4925835   5.7588830  45.2291022
  30.6196298   2.5402536  56.6106930  30.0053291   1.9960586  56.9055565
  31.1363583   2.0266772  56.1312746  30.6051960   2.3838945  56.5831158
  29.8592595   3.6106806  54.3451228  29.4320203   2.9856524  53.9116664
  29.8517539   3.3281727  55.1710236  29.7951736   3.4759586  54.4031056
  15.6985894   1.7707055  53.9936906  15.5929344   1.7253899  53.1288991
  14.9486114   2.1160836  54.2751191  15.5721497   1.8147963  53.9074236
  25.8893990  -0.2693112  56.2373406  25.0585920  -0.1019294  56.0308654
  25.8345507  -0.6457161  57.0222291  25.7583405  -0.3003381  56.3221934
  24.2630034  -1.9937520  46.7663523  24.4032995  -1.4965056  47.4692165
  24.7612567  -2.6951226  46.9077737  24.3571115  -2.0235542  46.8915102
  24.2930256  -1.1270409  44.0956100  24.9275336  -0.5309984  44.0305562
  24.3755867  -1.4266952  44.9101970  24.3986807  -1.0829501  44.2059187
  37.2712822   1.4045068  56.9642464  37.8630663   2.0442319  56.9960663
  37.7071817   0.7068105  57.2534531  37.4231253   1.3963418  57.0123297
  25.8709239  -5.1956434  44.0701542  26.1925080  -5.6753351  43.4160805
  26.1336183  -4.3856788  43.8792354  25.9575265  -5.1466536  43.9457034
  29.1006212   5.8262440  57.5900358  28.5931303   6.3798287  58.0340989
  28.8032858   5.8870730  56.7719133  28.9811097   5.9168752  57.5348815
  20.7983244   1.0697431  47.3645646  21.3075474   1.6661939  47.7456952
  21.2717517   0.8023405  46.6822066  20.9426620   1.1183247  47.3200169
  31.7113992   9.7425698  45.5204302  30.9943302   9.5686560  45.0551539
  32.3620730   9.5078270  44.9879788  31.7015843   9.6821491  45.3733520
  34.2961964  -1.3809713  49.2645607  33.6253153  -0.8380011  49.1358672
  34.9901714  -0.9114858  49.0227302  34.2990831  -1.2311442  49.2101135
  28.3448697  10.7586999  54.4957365  28.1214352  10.0005828  54.8641392
  27.8558541  10.7885020  53.7737805  28.2392146  10.6509223  54.4434106
  23.1573776  -2.2946310  50.2318827  22.4385765  -1.8782177  50.4991690
  23.5286138  -1.7292071  49.6810465  23.1065708  -2.1497029  50.1901634
  32.4573357  -1.6618461  56.1220822  32.4371284  -1.8435166  56.9755601
  32.5052558  -0.7906443  56.0980406  32.4607998  -1.5601923  56.2444117
  30.4019687   4.9268731  62.0469299  30.3615542   4.2818408  61.4614455
  31.2143005   4.8705348  62.3594711  30.5162840   4.8227698  62.0066248
  26.9927154  10.9787457  51.9494450  26.5787553  10.3161587  51.5598292
  27.6774529  11.1265316  51.4290144  27.0325526  10.9028115  51.8150947
  30.3592448  10.1377542  52.7018066  29.9608732  10.2479812  51.9338887
  29.7443668  10.3459608  53.2844626  30.2091338  10.1851110  52.6749366
  28.9320350  -3.2548310  45.5692206  28.3385190  -2.9331314  45.0176773
  28.9695628  -4.1007215  45.3613312  28.8494740  -3.3323982  45.4574977
  31.8078167  -3.2968806  48.9993956  31.5791860  -3.2736104  48.1572315
  32.0676243  -4.1211339  49.1188967  31.8124355  -3.4152726  48.8919154
  24.8622930  -4.7592259  50.2948152  25.3380296  -4.3975179  49.6598333
  24.3611529  -4.1035792  50.5748295  24.8588289  -4.6098071  50.2424893
  38.0934291   4.7129509  46.0861157  38.4767897   5.4620865  46.3159254
  37.2978404   4.9595328  45.8273146  38.0328073   4.8599203  46.0818731
  26.9049583  -2.6151059  43.6621536  27.2848548  -2.5971430  42.8772651
  26.1642179  -2.1697071  43.5412383  26.8518420  -2.5469285  43.5285104
  32.2575725   0.3728634  52.9033322  32.7529391  -0.3448371  52.8637342
  31.4475501   0.0699431  52.7887809  32.2119619   0.2226280  52.8807047
  27.7034337   4.2226447  45.0530326  26.8945659   3.8993120  45.0063636
  28.2109246   3.5159669  44.9858575  27.6584004   4.0707763  45.0360620
  18.3324614   1.6498640  50.7777690  17.4670134   1.6384330  50.6660462
  18.4323430   1.4628863  51.6248830  18.2198781   1.6204701  50.8866635
  34.3227544   3.1232321  55.5910450  34.7482616   2.6006743  55.0380875
  33.9584464   3.7213158  55.0699073  34.3314147   3.1342548  55.4319460
  23.9581624  11.4196539  54.3507796  24.2728183  12.2332927  54.3585578
  24.3675037  11.0346757  55.0189955  24.0649722  11.4825241  54.4511888
  30.9106144   6.8366585  51.9211608  31.3817322   7.5506848  52.0901593
  31.2466322   6.2365335  52.4571477  31.0301259   6.8538050  52.0243984
  32.9983128   8.4467899  64.1003680  33.1080094   7.6576459  64.4560427
  33.3274025   8.3573835  63.2978018  33.0635534   8.3173752  64.0346071
  31.5480090   6.6284519  58.6839300  31.0001036   6.0042403  58.4159366
  32.0093119   6.8178791  57.9683380  31.5347299   6.5643570  58.5389732
  21.2994644   5.3669647  53.9986404  21.9039501   5.3265481  53.3700225
  21.0921957   6.2140799  54.0290460  21.3583541   5.4857649  53.9102521
  31.1138416   7.6335592  55.2148642  31.9336790   7.4898558  55.4764937
  30.8332494   8.2581791  55.7565080  31.1935160   7.7045944  55.3336581
  16.5345926   4.3504265  53.8685327  16.4370204   3.5400536  54.1775384
  17.3174796   4.3296058  53.4831596  16.6362063   4.2271355  53.8572190
  40.7851751  14.3776095  52.9344448  39.9289647  14.5384593  52.9853565
  40.8319405  13.5068159  52.9549509  40.6650863  14.2726897  52.9450514
  44.0945468  20.6462620  62.5404905  44.8012235  20.1514651  62.6691839
  44.2833403  21.0871702  61.8107563  44.2273374  20.6380971  62.4513950
  43.6303572  16.4368139  55.5776100  44.1759532  17.1153225  55.6370070
  43.5720449  16.2955600  54.7177682  43.7019487  16.5160140  55.4588161
  36.5878387  28.8434794  52.3659309  37.2315842  29.2847958  52.7555467
  36.9134642  28.0388220  52.2789567  36.7310216  28.7899989  52.4104786
  29.9442692  19.9477491  50.5896786  29.7092876  19.1145144  50.4829055
  30.0828332  20.2282157  49.7757987  29.9298354  19.8660995  50.4539141
  32.2432779  12.1163222  53.4881094  31.6237811  11.5255869  53.3191109
  32.1416643  12.7074657  52.8545417  32.1370455  12.1167305  53.3686083
  39.3400675  13.8562764  47.8213557  40.0380839  14.0350891  48.3135020
  39.6553007  13.3333103  47.1983946  39.4896012  13.8056536  47.8015567
  31.9701912  15.6615504  55.7324663  31.8460609  16.2477949  56.3674482
  32.6220197  15.1675699  56.0336938  32.0475561  15.6754308  55.8710592
  39.5288610  20.2433209  47.8093348  39.9682246  19.6350309  48.2548121
  39.3793273  19.8640582  47.0378813  39.5710076  20.0971680  47.7612516
  36.9960253  18.8377221  55.0112174  37.6409256  18.3449664  54.6923122
  37.2362030  18.9802007  55.8378252  37.1270838  18.7854663  55.0861707
  39.5346344  21.6832127  54.6619066  39.8169587  20.8883532  54.4405822
  40.2632505  22.1612714  54.6824128  39.6835908  21.6366723  54.6322082
  37.5127538   9.2255161  51.9034832  37.1830868   9.6766304  51.2338530
  36.8372540   9.1471324  52.4507838  37.3637975   9.2806296  51.8858055
  44.7203946   5.2140683  50.1484442  44.4057387   5.9044162  50.5804865
  44.2030888   5.1585466  49.4469943  44.5968416   5.3075572  50.1081391
  49.5164433  20.7891489  51.6354897  48.6862136  21.0002132  51.7988314
  49.4673685  19.9628543  51.3597181  49.3871168  20.6981095  51.6192263
  35.9515988  19.1108401  45.0629321  35.3673203  19.6158432  45.4695185
  35.5486083  18.8850788  44.3225913  35.8055291  19.1516649  45.0134346
  31.5060016  24.8263162  51.8652992  31.0227595  25.5513652  51.8412576
  32.3183335  25.1239292  51.9763150  31.5550764  24.9765516  51.8780272
  37.5774170  23.6195343  54.4702807  37.0601112  23.2602758  53.8664115
  38.2748562  23.0957517  54.4808873  37.6039751  23.4893031  54.3833065
  41.2337762  24.0690157  60.4318980  41.3221108  23.8816297  61.2797190
  41.6627475  23.4227587  60.0323827  41.3099865  23.9453165  60.4990731
  38.8008222  23.3521317  59.4136642  38.2379057  22.9393927  59.9376303
  39.5629246  23.2774223  59.8329785  38.8302671  23.2798718  59.5529642
  40.4093202  15.3574053  43.5398241  40.6489206  15.5652037  42.7273584
  40.7309043  14.5531562  43.6487186  40.4930360  15.2688154  43.4358794
  35.7183492   7.2867449  47.3857779  36.4729460   7.6545766  47.1474830
  35.5411027   7.6607003  48.1536959  35.8037971   7.3965637  47.4642668
  34.3604214  25.3419338  52.0173272  35.0624793  24.8271327  52.0746029
  34.2801697  25.6693489  52.8220147  34.4527974  25.3133564  52.1446064
  49.0118391  13.4361889  55.4305319  48.1746812  13.5064077  55.6652913
  48.9806622  13.4386384  54.5579621  48.8836673  13.4472116  55.3364867
  35.4083120  15.5794925  61.1453687  35.5803624  15.4700820  61.9938969
  35.9452478  16.2249331  60.9084880  35.5128124  15.6586927  61.2358784
  34.0740557   9.6937768  44.0835892  33.8916130   9.9109649  43.2576885
  34.9366170   9.8076781  44.1394507  34.1745146   9.7427666  43.9690379
  33.6854989  21.5325690  51.5258880  34.5243888  21.7648623  51.5732642
  33.7166758  20.6630002  51.4565916  33.8136707  21.4382637  51.5223525
  34.3107692  21.9526565  55.8272186  34.8505917  21.8097696  56.4975558
  33.6277638  22.3523316  56.1956212  34.2899846  21.9906236  55.9806607
  39.7540276   6.6964179  47.1184916  40.4826437   6.5180134  46.6723072
  39.8435169   7.5382258  47.3292094  39.8746938   6.7948057  47.0838434
  43.7348577  17.6317566  51.0217210  44.4906092  18.0649080  51.0606119
  43.8410901  16.9822336  51.5951846  43.8618747  17.5995050  51.1115236
  46.7728748  21.4590843  51.7719613  46.3363980  21.4627586  52.5278585
  46.4391663  22.1396342  51.3399191  46.6591368  21.5603299  51.8200446
  41.3457822  23.4999176  63.0962763  42.1298238  23.6130024  63.4618506
  41.1454416  22.6740313  63.2921449  41.4323847  23.3945895  63.1797149
  29.7144837  18.1726856  55.9806607  29.4483252  17.3565973  56.1397598
  29.7283401  18.2180012  55.1102123  29.6769559  18.0583761  55.8760089
  46.6926231   8.5004671  54.0149041  47.3352139   8.5702776  54.6010956
  46.9449252   7.8333894  53.5128583  46.8248363   8.4131020  54.0276320
  33.6202584  12.9711941  42.5958365  32.9060761  12.6850120  43.0080798
  34.1046553  13.3108566  43.2364753  33.5861947  12.9793590  42.7514000
  34.4643443  11.7105234  58.6273615  33.7715240  11.2402214  58.8734347
  35.0803771  11.4843539  59.2015322  34.4527973  11.6072366  58.7482768
  41.5028215  25.4109278  56.7429219  40.7043461  25.1708778  57.0003088
  41.9514226  25.4623671  57.4896267  41.4502826  25.3831669  56.8914143
  49.9073094  18.1771763  50.6639250  50.5689528  17.6162432  50.5635159
  49.2664506  17.6823794  50.9891941  49.9101962  18.0208172  50.6971591
  30.1238251  18.9585636  53.2618352  29.9413824  18.9332522  52.4090644
  30.8587920  19.4284573  53.3007260  30.2052315  19.0246998  53.1416270
  46.1937925  19.1937145  50.4051239  46.4293514  19.3382344  49.5778090
  46.3427489  19.9579554  50.7982753  46.2503728  19.3276200  50.3414843
  33.1884002  15.6770638  59.7700460  33.9123975  15.6623669  60.2565355
  33.2900139  16.3865994  59.2722428  33.3102211  15.7795342  59.7679247
  40.5628952  19.1569723  64.6349407  39.7701933  19.4713235  64.8202027
  40.6777879  19.3721191  63.7970192  40.4624362  19.2353560  64.5387742
  43.2360271  15.8803714  48.9244423  43.3307125  16.6193008  49.3784049
  42.6119114  15.4521190  49.3578988  43.1569301  15.9265035  49.0552571
  41.4912745  19.0589927  59.5734704  42.0651606  18.4217171  59.7283268
  41.4127548  19.0594009  58.7044362  41.5645979  18.9655038  59.4681115
  30.0909161  15.8379136  53.4117418  30.6682664  15.7015587  54.0509663
  29.3923223  15.3814920  53.6663002  30.0730182  15.7501402  53.5439708
  36.8476463  17.4913192  51.6255901  36.5895707  16.6584927  51.5987201
  36.9024946  17.7170805  50.7848402  36.8176241  17.4010963  51.4976038
  41.9277513   9.5941643  51.7259994  41.2233840   9.1050828  51.8843913
  41.9762488   9.6064117  50.8548438  41.8307565   9.5231291  51.6199334
  35.8211175  15.0450954  52.1120796  35.2460767  15.2043123  52.7484757
  35.4446852  14.4086363  51.6489247  35.6813988  14.9748767  52.1375354
  39.4884464  13.5174304  56.9713175  39.0998897  13.0928521  56.3165366
  38.8239162  13.7656453  57.4790201  39.3331392  13.4913025  56.9501042
  49.1307733  13.2749308  49.7461005  48.8744298  12.4629250  49.5558887
  49.9737047  13.2826875  49.5191192  49.2173759  13.1561306  49.6845822
  25.5667994  14.6891029  50.1265237  25.6528246  14.3122897  50.9078767
  26.1943792  14.3151475  49.6485195  25.6724545  14.5776511  50.1710714
  43.3110826   7.2148932  54.4837159  43.6921337   6.5327103  54.8705033
  42.5074110   6.9258534  54.3012823  43.2487287   7.0715981  54.5141215
  40.5923402  17.7472908  45.1689981  41.4064041  18.0387801  45.0572753
  40.5282544  17.0932771  44.5948274  40.7026141  17.6938103  45.0678819
  46.8132892  20.4298904  59.5819557  46.5771530  19.5986969  59.4631618
  47.4576121  20.3784512  60.1674401  46.8727563  20.2996592  59.6505451
  36.4631311  21.2194426  50.2962294  37.1005257  20.9806173  50.8414087
  36.8886382  21.4231585  49.5615454  36.6207477  21.2145436  50.2679451
  31.1543953  23.4582762  54.1796597  31.1948098  23.7297613  53.3516377
  31.7138477  23.9824670  54.5954385  31.2427299  23.5758517  54.1188486
  37.1034126  16.4396715  44.6337183  37.4879278  16.2204422  45.3853728
  36.8545746  17.2659661  44.7638259  37.1236198  16.5294862  44.7638259
  37.2702666   9.7203131  64.3499767  36.9556107  10.4902693  64.0869330
  36.9492599   9.1573387  63.7651994  37.1761585   9.7513399  64.2241117
  47.8369313  20.2143353  55.6447852  47.5315130  20.9471410  56.0061167
  47.1175529  19.8081283  55.3640638  47.6856655  20.2625086  55.6560989
  38.8452782  21.6966848  51.9756080  38.9191791  21.5342020  52.8297930
  39.6622289  21.8857038  51.7316561  38.9769141  21.7003591  52.0654105
  53.5371105  16.8536354  54.9716196  53.4695605  16.8732313  54.1018782
  53.5226768  17.6966681  55.1971866  53.5249862  16.9810088  54.8768673
  32.6058539  22.0424711  49.0050523  31.7796657  22.2886448  48.8784802
  32.6670530  21.9636792  49.8712581  32.4932706  22.0669660  49.1139468
  34.8234563   8.1093652  49.9645963  33.9556988   8.1816252  50.0303573
  35.1109767   8.9115731  50.1533939  34.7374311   8.2387799  50.0020730
  43.9467452   8.2571511  58.2957285  44.6921044   8.0681322  57.8820711
  43.5304756   8.7829749  57.7371142  43.9952426   8.3073657  58.1521859
  51.3229723  15.6280740  53.2462790  51.8737644  14.9948809  53.4859882
  51.3073838  16.1596133  53.9378295  51.4014919  15.6129688  53.3841648
  37.9752113  19.4619337  57.7922684  37.4763807  20.1735105  57.8707572
  38.7852338  19.7820004  57.7540846  38.0208220  19.6146186  57.7979252
  34.2380231  18.7242290  52.0385405  33.9493480  18.0979762  52.5731132
  35.1063579  18.6662578  52.1050085  34.3240483  18.6229835  52.1276359
  45.0258129  13.8677074  52.3567386  44.6822895  13.1467409  52.7074636
  45.1251171  13.6590925  51.5145745  44.9900172  13.7301277  52.2839066
  45.4871158  20.3302778  47.8991375  46.0529190  20.9895988  47.8149918
  44.8399061  20.6752476  48.3707777  45.4749914  20.4784719  47.9564131
  36.9019171  12.3200382  63.0884982  36.0918947  12.6258161  62.9774824
  37.3793858  13.0405964  63.2037566  36.8522650  12.4714983  63.0892053
  35.7610731  21.5346103  53.3367885  35.2391484  21.6746394  54.0219750
  36.1484751  20.7756767  53.5270002  35.7414432  21.4431627  53.4668962
  32.7501915  11.5851911  47.4062840  32.4626711  11.2153182  46.6694787
  33.4372383  12.0546767  47.1446545  32.8090812  11.5998881  47.2577915
  37.1877057  18.5650122  48.7349376  36.9919839  19.1724856  48.1409679
  37.4111402  17.8718066  48.2541050  37.1911698  18.5527647  48.5765457
  35.5855587  15.4504860  48.8530244  36.3078238  15.6146018  48.3934050
  35.1063579  16.1714524  48.7469584  35.6219317  15.5803089  48.7695858
  43.5449094  11.7868658  54.2326929  42.7060195  11.8129937  53.9965193
  43.6153461  12.4339394  54.8132276  43.4317488  11.8864784  54.2836046
  33.2363203  17.8562932  57.9584384  33.7484300  18.1347185  57.3093144
  32.9499546  18.5952226  58.3247197  33.2698066  18.0065286  57.9174262
  41.9918372   8.6854035  48.9654545  42.6944725   8.4861784  48.4874504
  41.7262561   7.9129978  49.2723389  42.0565005   8.5417001  48.9399987
  47.4206618  16.9936645  51.5188171  47.3340593  17.1492071  52.3722950
  46.9657098  17.6374721  51.1447576  47.3409875  17.1112400  51.5895278
  30.3230110  12.3633124  48.2548121  30.4246246  13.1659285  48.5829096
  31.1185996  12.1620460  47.9571201  30.4558015  12.4519023  48.2583476
  36.7546929   9.9489321  58.0185426  36.5630126   9.9644455  58.8684849
  37.6045525  10.1452995  57.9952081  36.8522651   9.9803672  58.1408721
  31.1393842  12.4780302  55.9969242  30.9979333  11.6264243  56.1213750
  31.4234405  12.5208963  55.1731448  31.1601688  12.3580052  55.8936866
  41.2932434  14.3147392  50.1413731  41.0467148  14.2343143  50.9750520
  41.6217557  13.5300860  49.9476258  41.3053678  14.1873658  50.2361254
  45.1880483  21.0230752  53.9300512  45.0494842  21.7211797  54.4349254
  44.4080481  20.8679408  53.5736694  45.0523710  21.1030918  53.9526786
  43.5258568  17.3227127  60.1822894  43.5206606  16.4506944  60.1865320
  44.2319562  17.5215296  59.7092349  43.6303572  17.2231001  60.1129929
  37.2529461  17.0504111  59.5536714  37.3972837  17.6305319  58.9179824
  37.6005110  17.4280408  60.2586568  37.3256923  17.1924815  59.5635709
  39.4249379  16.2494279  57.3361845  38.6772693  16.4425294  56.9310123
  39.5790904  15.4239499  57.0985967  39.3371806  16.1559391  57.2407251
  36.3257216  25.2406883  56.4197741  36.4746780  24.6809799  55.7671145
  37.1057218  25.3198884  56.8030259  36.4631310  25.1692448  56.3794690
  38.8510517  25.4121526  57.6982231  38.7754188  24.7430336  58.2533020
  38.7800376  26.1139314  58.2122898  38.8291124  25.4166433  57.8559079
  39.6651156  10.1444830  58.2257249  40.1223770  10.8768804  58.3530041
  39.7407484   9.7211295  58.9844505  39.7442126  10.1902068  58.3558326
  31.9084147  10.3910650  59.3146693  31.3726336   9.7791008  59.6307460
  31.9701912  10.9658786  59.9680359  31.8379780  10.3857577  59.4582119
  44.1378482   3.3234705  52.0951092  44.2562050   3.7811168  51.3618395
  43.9640657   2.5179966  51.8087310  44.1297653   3.2728477  51.9452026
  37.5433534  12.1346934  55.0699073  36.7529608  11.9538394  55.3916409
  37.9394156  11.3573886  55.0529368  37.4850410  11.9934395  55.1151621
  42.9277220  19.7689364  52.7958519  42.2522222  19.5374596  53.2971906
  42.9369596  19.1610547  52.1700624  42.8295724  19.6448289  52.7774671
  40.0571364  14.6107193  59.5522572  39.9930505  15.4717149  59.4242709
  40.1968552  14.2939186  58.7518123  40.0686834  14.6907360  59.4150785
  38.7390458  17.3039332  53.6938775  38.3152707  17.5043831  52.9577793
  38.5635313  16.4568180  53.8063075  38.6501338  17.2088114  53.6012465
  38.2402151  28.8189845  56.1560232  38.7298082  28.1200635  55.9735897
  37.6686384  28.5213715  56.7436290  38.2286681  28.6716069  56.2161273
  34.0272903  17.7991384  49.1266747  34.1837522  17.7338187  49.9822739
  34.3673496  18.5739936  48.9145427  34.1006138  17.9040582  49.2221342
  40.5652047  17.1749267  47.9960111  41.1067593  16.6719648  48.4598731
  40.8798606  17.1214462  47.1849596  40.6916444  17.0928688  47.9443923
  44.4369155  21.3851915  65.1087023  45.2504020  21.1137064  65.2692155
  44.2764121  21.0859455  64.3047219  44.5339103  21.3006841  65.0132429
  41.7141317  12.0685572  58.0482411  41.9283286  11.4296486  57.4945765
  41.0975216  12.5131396  57.6190273  41.6546646  12.0395716  57.9032842
  30.6007164  14.9826334  49.4427515  30.9806129  15.4010879  48.7787782
  30.0262529  15.5639790  49.7496358  30.5718489  15.1304193  49.3904256
  43.8780405  13.6774637  58.9865718  43.0657086  13.3700527  59.0678891
  44.3370339  13.1973637  59.5508430  43.8260790  13.5611129  59.0820312
  43.2885659  21.5554309  49.4342663  42.9300314  21.7268952  50.2106695
  42.8024370  22.0167515  48.8770661  43.1644356  21.6493280  49.4667932
  41.1056045   5.1785508  53.0369754  40.2349603   5.1524229  52.9903063
  41.3596387   5.0062700  52.2195600  41.0149605   5.1495651  52.9089891
  38.0774025  17.2353474  41.9742897  38.3666550  18.0118357  42.2486471
  38.1645824  16.7242206  42.6757396  38.1328281  17.2745393  42.1185395
  40.9733912  15.0834709  63.7694420  41.4433543  15.7076825  64.1562295
  41.0195792  14.4151684  64.3287635  41.0501788  15.0769389  63.9094492
  38.1305186   7.1891736  54.4943224  37.6143674   6.4971927  54.6194803
  37.5699115   7.8562513  54.4405823  37.9711699   7.1854994  54.5049290
  40.1997419   7.7284696  56.3236077  39.8129172   7.7533728  57.1049607
  39.7130357   7.1626375  55.8710593  40.0709928   7.6480447  56.3723981
  44.4490399  22.4458205  60.3809863  45.0870119  21.9518401  60.0472319
  43.8064490  22.3735605  59.7962090  44.4484625  22.3617213  60.2452218
  46.1747399  14.2947351  54.9475779  45.7475007  14.2073700  54.1923879
  45.5373452  14.4025126  55.5330623  46.0177006  14.2980011  54.9221221
  39.8654561   4.6151682  58.6146337  40.4947679   5.1511982  58.3367407
  40.0340424   4.5229040  59.4659902  39.9832356   4.6813044  58.6994865
  39.6668476   9.4022876  60.8872748  40.4941905   9.1308025  60.9431363
  39.6876322  10.1983718  61.2436566  39.7921326   9.4802630  60.9487931
  44.5044655  23.1378013  57.0215220  45.2937034  22.7867078  57.1417302
  44.6788253  23.9514402  56.7591854  44.6464937  23.2063870  57.0003088
  34.2437966  16.5486739  54.0743009  33.4025972  16.4490613  54.2821903
  34.4527974  17.3182219  54.4257330  34.1502658  16.6478782  54.1570324
  31.7213533  14.1706276  51.9027760  31.3270230  14.2449288  51.1277869
  31.1653650  14.5564222  52.4536121  31.5816345  14.2388051  51.8695419
  43.3578480   7.1487570  51.5831639  43.5628073   7.0809878  52.4288636
  43.0304904   7.9546391  51.5152816  43.3393727   7.2573510  51.6991294
  38.0554631  14.4768138  53.3240607  37.7517768  13.9224126  53.9251014
  37.3534051  14.6560348  52.8368641  37.9070840  14.4212921  53.3410312
  37.1120728  11.7868658  47.8885308  37.3880462  11.0687571  47.4762876
  37.7119397  12.3853578  47.6806414  37.2413992  11.7689029  47.7966070
  36.1172982  21.6917859  58.0312704  36.0093337  21.7019921  58.8974762
  36.3268763  22.5172639  57.8417658  36.1323093  21.8158934  58.1316796
  46.6112167   7.7019334  51.0634404  45.9986481   8.1889736  51.4488136
  46.7076342   7.0262825  51.6072055  46.5350065   7.6737643  51.2013262
  40.6131248   9.4582175  46.1631903  41.0674995   9.6292736  46.8879748
  41.0871294   8.8450286  45.7629679  40.7499568   9.3933061  46.2105665
  34.1346774  18.9430501  55.4934642  33.5434707  19.5839999  55.4637657
  34.8967797  19.3668119  55.4665941  34.1595034  19.1006340  55.4849789
  34.5307396  10.1032499  56.1602659  34.9908878  10.1771428  56.8977783
  34.5763503  10.9013753  55.8102481  34.6057952  10.2326646  56.2175416
  36.1790746  10.7699194  60.7274687  35.7876311  10.1232541  61.1630464
  36.3476609  11.3610629  61.3468942  36.1461657  10.7613462  60.8837393
  50.2537195  18.7736271  56.4911920  50.3120319  19.2222920  57.2371897
  49.6203663  19.1835084  56.0542000  50.1688490  18.9010006  56.5364468
  43.8936290  24.3939813  52.9266666  43.6955979  24.8830627  52.2322878
  43.2724001  24.5981054  53.5050800  43.7723854  24.4956351  52.9089890
  37.9544268  16.1624710  47.2676911  38.6986313  16.5498986  47.5059861
  38.1004964  15.3182135  47.4317398  38.0854853  16.0955183  47.3270880
  39.8723844   7.9574969  52.3008772  39.0259889   8.1297776  52.1750122
  39.8694976   7.1524312  52.6374600  39.7470994   7.8635998  52.3319899
  40.9422144  11.7350183  53.1670830  40.4682098  11.2091945  53.6776141
  41.3140280  11.1879656  52.5985691  40.9272033  11.5766180  53.1585977
  31.3195174  13.7321690  58.5354376  32.1820787  13.6317399  58.4491706
  30.9886957  13.1516399  57.9739948  31.3980371  13.6313316  58.4399782
  47.2058875  16.7952559  54.5777610  46.9657098  15.9558974  54.5820037
  47.6850882  16.8752725  55.3018384  47.2411058  16.6833958  54.6852413
  42.8705644  12.6286738  46.2296584  42.3428662  12.7115482  45.5402293
  43.3301352  13.3704609  46.2261228  42.8607494  12.7507400  46.1271279
  49.2064062  13.5754016  52.5306870  48.9673832  13.5349850  51.6927654
  49.3697963  14.4225168  52.6572591  49.1954365  13.6946101  52.4260352
  45.8110092  17.9603965  58.4611915  46.5344291  17.5076492  58.2822935
  45.5460054  18.2408631  57.6784243  45.8791365  17.9354934  58.3190630
  34.6796960  12.5564139  55.1964794  34.0550030  12.5682531  54.5890747
  34.3442555  13.0324314  55.8456034  34.5382452  12.6282656  55.2021362
  34.8638709  10.8989257  41.2537479  34.5151513  11.5508982  41.7169028
  34.3835155  10.8846370  40.5261350  34.7408953  10.9932311  41.2148570
  31.3922636  20.6164599  56.6368558  30.8622560  19.9257038  56.6863533
  31.6647729  20.6074784  55.8081267  31.3547358  20.5131731  56.5215974
  41.5928881  18.0587843  56.6106930  40.9785874  17.5145894  56.9055565
  42.1096166  17.5452080  56.1312746  41.5784544  17.9024252  56.5831158
  40.8325179  19.1292113  54.3451228  40.4052787  18.5041832  53.9116664
  40.8250123  18.8467035  55.1710236  40.7684320  18.9944894  54.4031056
  33.9487706  14.1657287  57.4139662  34.1081192  13.4100611  57.8191384
  33.7680599  14.7148226  58.0680400  33.9453065  14.1351100  57.5702368
  41.8908009   6.3318522  57.9690452  41.3948570   6.5282196  57.2782019
  42.6477071   6.7311190  57.7979254  41.9294833   6.4196256  57.8410589
  39.1610888  10.0060868  54.5593762  39.1853375   9.4720980  53.8706542
  39.4122362   9.4978177  55.2219353  39.2020807   9.8521772  54.5558407
  26.6718478  17.2892363  53.9936906  26.5661927  17.2439207  53.1288991
  25.9218698  17.6346144  54.2751191  26.5454081  17.3333271  53.9074236
  35.4412210   8.7331686  53.9399507  35.4810582   9.2340893  54.6534214
  34.6161875   8.8242080  53.6705430  35.3251736   8.8213503  54.0050045
  37.6241823  18.2992426  62.0419801  36.7737454  18.4364140  62.1777446
  37.7869951  17.5656204  62.4867503  37.5225687  18.2106527  62.1275400
  36.8626574  15.2492196  56.2373406  36.0318503  15.4166014  56.0308654
  36.8078091  14.8728147  57.0222291  36.7315989  15.2181927  56.3221934
  34.6710357   8.7401089  61.8729816  35.2963060   8.1963222  62.1459249
  34.2160837   8.2596007  61.3037607  34.6958618   8.5890570  61.8291410
  35.2362618  13.5247788  46.7663523  35.3765579  14.0220252  47.4692165
  35.7345150  12.8234082  46.9077737  35.3303699  13.4949766  46.8915102
  35.2662840  14.3914899  44.0956100  35.9007919  14.9875324  44.0305562
  35.3488451  14.0918356  44.9101970  35.3719391  14.4355807  44.2059187
  48.2445406  16.9230376  56.9642464  48.8363246  17.5627627  56.9960663
  48.6804400  16.2253413  57.2534531  48.3963837  16.9148726  57.0123297
  36.8441823  10.3228874  44.0701542  37.1657664   9.8431957  43.4160805
  37.1068767  11.1328520  43.8792354  36.9307848  10.3718772  43.9457034
  40.0738796  21.3447748  57.5900358  39.5663887  21.8983595  58.0340989
  39.7765442  21.4056038  56.7719133  39.9543681  21.4354060  57.5348815
  42.2400978   9.7101068  56.4325021  42.6656049   9.2573594  55.8208548
  41.6257971   9.1561139  56.7089809  42.2129623   9.5615044  56.3830047
  31.7715828  16.5882739  47.3645646  32.2808057  17.1847247  47.7456952
  32.2450100  16.3208713  46.6822066  31.9159204  16.6368555  47.3200169
  40.6795201   6.1816168  49.8415598  40.0363519   6.0313814  50.4100737
  40.3394608   5.9358513  49.0764703  40.5340278   6.1228290  49.8118614
  45.2694547  14.1375595  49.2645607  44.5985737  14.6805297  49.1358672
  45.9634297  14.6070450  49.0227302  45.2723415  14.2873866  49.2101135
  39.3181281  26.2772307  54.4957365  39.0946935  25.5191136  54.8641392
  38.8291124  26.3070328  53.7737805  39.2124730  26.1694531  54.4434106
  45.4322675  10.5931478  52.1735980  45.7850285  10.1661201  52.8481779
  44.5737476  10.5082322  52.3037057  45.3572119  10.5176219  52.2930991
  34.1306360  13.2238998  50.2318827  33.4118349  13.6403131  50.4991690
  34.5018722  13.7893237  49.6810465  34.0798291  13.3688279  50.1901634
  43.4305940  13.8566847  56.1220822  43.4103868  13.6750142  56.9755601
  43.4785141  14.7278865  56.0980406  43.4340581  13.9583385  56.2444117
  41.3752270  20.4454039  62.0469299  41.3348125  19.8003716  61.4614455
  42.1875589  20.3890656  62.3594711  41.4895424  20.3413006  62.0066248
  41.3325032  25.6562850  52.7018066  40.9341315  25.7665120  51.9338887
  40.7176252  25.8644916  53.2844626  41.1823921  25.7036418  52.6749366
  39.9052934  12.2636998  45.5692206  39.3117773  12.5853994  45.0176773
  39.9428212  11.4178093  45.3613312  39.8227323  12.1861326  45.4574977
  46.8646735   5.7149890  53.1020293  46.3577599   5.0079030  53.0341470
  47.6614168   5.3843079  53.2321369  46.9073974   5.5623041  53.1119288
  42.7810751  12.2216502  48.9993956  42.5524444  12.2449204  48.1572315
  43.0408827  11.3973969  49.1188967  42.7856939  12.1032582  48.8919154
  37.0629979  14.0750975  58.6019057  36.5508882  13.4672158  58.9604088
  36.8909475  14.7907568  59.0693032  36.9619616  14.0914275  58.7235280
  31.9095694  12.5188551  61.2521418  31.7398284  13.1789926  60.7069625
  31.4661644  12.7295112  61.9733908  31.8195027  12.6474533  61.2783048
  35.8355513  10.7593049  50.2948152  36.3112879  11.1210128  49.6598333
  35.3344113  11.4149516  50.5748295  35.8320872  10.9087237  50.2424893
  40.9399049  11.9975220  61.0421312  41.4970480  11.7689030  60.4099778
  40.6160114  12.7580886  60.7656525  40.9745460  12.0759057  60.9077809
  28.8097758  15.4235416  56.5109908  28.2624478  14.7536062  56.6290777
  29.5990136  15.0565264  56.5753376  28.8449942  15.2700403  56.5378609
  38.6582167  15.0842873  62.0073319  39.4093494  15.3994550  62.3212873
  38.8504743  14.8822044  61.1807241  38.7973581  15.1010255  61.9316715
  37.8782166  12.9034248  43.6621536  38.2581131  12.9213878  42.8772651
  37.1374762  13.3488237  43.5412383  37.8251004  12.9716023  43.5285104
  45.5067457  11.2116440  49.2497115  45.5061683  11.0565096  50.1081391
  45.3023637  12.0579427  49.1938500  45.4767235  11.3137060  49.3685054
  27.5684728  14.6356224  53.6655931  27.3906489  14.1832833  54.3910847
  27.2803750  15.4382385  53.8494409  27.4997681  14.6878782  53.7999434
  43.2308309  15.8913941  52.9033322  43.7261974  15.1736936  52.8637342
  42.4208085  15.5884739  52.7887809  43.1852202  15.7411588  52.8807047
  29.3057198  17.1683948  50.7777690  28.4402717  17.1569638  50.6660462
  29.4056013  16.9814171  51.6248830  29.1931365  17.1390009  50.8866635
  45.2960128  18.6417629  55.5910450  45.7215199  18.1192051  55.0380875
  44.9317048  19.2398466  55.0699073  45.3046730  18.6527856  55.4319460
  34.9314207  26.9381846  54.3507796  35.2460766  27.7518235  54.3585578
  35.3407621  26.5532065  55.0189955  35.0382305  27.0010549  54.4511888
  41.8838727  22.3551893  51.9211608  42.3549905  23.0692156  52.0901593
  42.2198906  21.7550643  52.4571477  42.0033842  22.3723358  52.0243984
  43.9715712  23.9653207  64.1003680  44.0812677  23.1761767  64.4560427
  44.3006608  23.8759143  63.2978018  44.0368118  23.8359060  64.0346071
  38.8008222   7.1279364  58.8769703  38.9336128   6.3310357  59.2050678
  39.1853375   7.6545767  59.4567978  38.8764551   7.0879281  59.0113206
  42.5212673  22.1469827  58.6839300  41.9733619  21.5227711  58.4159366
  42.9825702  22.3364099  57.9683380  42.5079883  22.0828878  58.5389732
  41.8740577   4.0509690  55.4750796  41.0686541   3.9407420  55.7918634
  41.7447313   4.1522146  54.6180662  41.7360710   4.0493360  55.3958836
  45.3306538  10.2155182  56.0690493  44.7469527  10.7164388  55.6568060
  45.6510832   9.7084738  55.4354816  45.2919713  10.2147017  55.9149000
  37.8701337   9.1295777  46.3449168  38.6917031   9.2994090  46.1030862
  37.4070988   9.2843038  45.6215465  37.9232499   9.1777510  46.2020812
  36.4596669   7.1238539  57.1247596  37.0041082   6.7829666  57.7151938
  36.5133605   7.9824000  57.2668881  36.5485788   7.1993798  57.2329470
  32.2727228  20.8854955  53.9986404  32.8772085  20.8450789  53.3700225
  32.0654540  21.7326107  54.0290460  32.3316125  21.0042957  53.9102521
  42.0871000  23.1520900  55.2148642  42.9069374  23.0083866  55.4764937
  41.8065077  23.7767099  55.7565080  42.1667743  23.2231252  55.3336581
  27.5078510  19.8689572  53.8685327  27.4102788  19.0585844  54.1775384
  28.2907380  19.8481366  53.4831596  27.6094646  19.7456663  53.8572190
  58.5584650  30.8085752  48.1791518  58.5278654  31.6630388  48.3509787
  59.1565999  30.5081044  48.7377662  58.6421808  30.8902248  48.2866320
  51.7584335  29.8961403  52.9344448  50.9022231  30.0569901  52.9853565
  51.8051989  29.0253467  52.9549509  51.6383446  29.7912205  52.9450514
  55.0678052  36.1647928  62.5404905  55.7744819  35.6699959  62.6691839
  55.2565987  36.6057010  61.8107563  55.2005957  36.1566279  62.4513950
  54.6036156  31.9553447  55.5776100  55.1492116  32.6338533  55.6370070
  54.5453032  31.8140908  54.7177682  54.6752070  32.0345448  55.4588161
  43.2165363  27.6348530  53.4881094  42.5970394  27.0441177  53.3191109
  43.1149226  28.2259965  52.8545417  43.1103038  27.6352612  53.3686083
  50.3133258  29.3748072  47.8213557  51.0113423  29.5536199  48.3135020
  50.6285591  28.8518411  47.1983946  50.4628595  29.3241844  47.8015567
  42.9434496  31.1800812  55.7324663  42.8193192  31.7663257  56.3674482
  43.5952780  30.6861007  56.0336938  43.0208145  31.1939616  55.8710592
  48.4860122  24.7440468  51.9034832  48.1563452  25.1951612  51.2338530
  47.8105124  24.6656632  52.4507838  48.3370558  24.7991604  51.8858055
  55.6936530  20.7325991  50.1484442  55.3789971  21.4229470  50.5804865
  55.1763471  20.6770774  49.4469943  55.5701000  20.8260880  50.1081391
  60.4897016  36.3076797  51.6354897  59.6594719  36.5187440  51.7988314
  60.4406269  35.4813851  51.3597181  60.3603752  36.2166403  51.6192263
  59.9850975  28.9547197  55.4305319  59.1479396  29.0249384  55.6652913
  59.9539206  28.9571692  54.5579621  59.8569257  28.9657424  55.3364867
  46.3815704  31.0980233  61.1453687  46.5536207  30.9886128  61.9938969
  46.9185061  31.7434638  60.9084880  46.4860708  31.1772235  61.2358784
  57.7461332  36.9776151  51.7719613  57.3096563  36.9812894  52.5278585
  57.4124247  37.6581650  51.3399191  57.6323951  37.0788607  51.8200446
  52.3190405  39.0184484  63.0962763  53.1030822  39.1315332  63.4618506
  52.1187000  38.1925621  63.2921449  52.4056431  38.9131203  63.1797149
  57.6658814  24.0189979  54.0149041  58.3084723  24.0888084  54.6010956
  57.9181835  23.3519202  53.5128583  57.7980947  23.9316328  54.0276320
  45.4376027  27.2290542  58.6273615  44.7447824  26.7587522  58.8734347
  46.0536354  27.0028847  59.2015322  45.4260557  27.1257674  58.7482768
  60.8805678  33.6957071  50.6639250  61.5422112  33.1347739  50.5635159
  60.2397090  33.2009102  50.9891941  60.8834545  33.5393480  50.6971591
  57.1670508  34.7122453  50.4051239  57.4026098  34.8567652  49.5778090
  57.3160072  35.4764861  50.7982753  57.2236312  34.8461508  50.3414843
  44.1616586  31.1955946  59.7700460  44.8856558  31.1808977  60.2565355
  44.2632722  31.9051302  59.2722428  44.2834795  31.2980650  59.7679247
  58.9960965  33.5524119  48.2420843  59.3269182  34.0851759  47.6360938
  59.5694053  33.6063007  48.8982794  59.1294644  33.6393688  48.2498625
  51.5361535  34.6755031  64.6349407  50.7434516  34.9898543  64.8202027
  51.6510462  34.8906499  63.7970192  51.4356946  34.7538868  64.5387742
  52.4645328  34.5775235  59.5734704  53.0384190  33.9402479  59.7283268
  52.3860132  34.5779317  58.7044362  52.5378563  34.4840346  59.4681115
  52.9010097  25.1126950  51.7259994  52.1966424  24.6236136  51.8843913
  52.9495071  25.1249425  50.8548438  52.8040148  25.0416598  51.6199334
  50.4617048  29.0359612  56.9713175  50.0731480  28.6113829  56.3165366
  49.7971746  29.2841761  57.4790201  50.3063975  29.0098333  56.9501042
  60.1040317  28.7934616  49.7461005  59.8476882  27.9814558  49.5558887
  60.9469631  28.8012183  49.5191192  60.1906342  28.6746614  49.6845822
  54.2843409  22.7334240  54.4837159  54.6653921  22.0512411  54.8705033
  53.4806693  22.4443842  54.3012823  54.2219871  22.5901289  54.5141215
  57.7865476  35.9484212  59.5819557  57.5504113  35.1172277  59.4631618
  58.4308705  35.8969819  60.1674401  57.8460147  35.8181900  59.6505451
  48.2435250  25.2388439  64.3499767  47.9288691  26.0088001  64.0869330
  47.9225182  24.6758695  63.7651994  48.1494169  25.2698707  64.2241117
  58.8101897  35.7328661  55.6447852  58.5047714  36.4656718  56.0061167
  58.0908112  35.3266591  55.3640638  58.6589239  35.7810394  55.6560989
  64.5103689  32.3721662  54.9716196  64.4428189  32.3917621  54.1018782
  64.4959351  33.2151989  55.1971866  64.4982445  32.4995396  54.8768673
  45.7967146  23.6278960  49.9645963  44.9289572  23.7001560  50.0303573
  46.0842351  24.4301039  50.1533939  45.7106895  23.7573107  50.0020730
  54.9200035  23.7756819  58.2957285  55.6653627  23.5866630  57.8820711
  54.5037340  24.3015057  57.7371142  54.9685009  23.8258965  58.1521859
  62.2962306  31.1466048  53.2462790  62.8470228  30.5134117  53.4859882
  62.2806421  31.6781441  53.9378295  62.3747502  31.1314996  53.3841648
  48.9484697  34.9804645  57.7922684  48.4496391  35.6920413  57.8707572
  49.7584921  35.3005312  57.7540846  48.9940804  35.1331494  57.7979252
  55.9990712  29.3862382  52.3567386  55.6555478  28.6652717  52.7074636
  56.0983755  29.1776233  51.5145745  55.9632755  29.2486585  52.2839066
  47.8751755  27.8385690  63.0884982  47.0651531  28.1443469  62.9774824
  48.3526442  28.5591272  63.2037566  47.8255234  27.9900291  63.0892053
  54.5181678  27.3053966  54.2326929  53.6792778  27.3315245  53.9965193
  54.5886045  27.9524702  54.8132276  54.4050071  27.4050092  54.2836046
  44.2095787  33.3748240  57.9584384  44.7216884  33.6532493  57.3093144
  43.9232129  34.1137534  58.3247197  44.2430650  33.5250594  57.9174262
  52.9650956  24.2039343  48.9654545  53.6677309  24.0047092  48.4874504
  52.6995145  23.4315286  49.2723389  53.0297588  24.0602309  48.9399987
  58.3939202  32.5121953  51.5188171  58.3073176  32.6677379  52.3722950
  57.9389681  33.1560029  51.1447576  58.3142458  32.6297708  51.5895278
  47.7279512  25.4674629  58.0185426  47.5362709  25.4829763  58.8684849
  48.5778108  25.6638303  57.9952081  47.8255234  25.4988980  58.1408721
  42.1126425  27.9965610  55.9969242  41.9711917  27.1449551  56.1213750
  42.3966989  28.0394271  55.1731448  42.1334271  27.8765360  55.8936866
  52.2665018  29.8332700  50.1413731  52.0199732  29.7528451  50.9750520
  52.5950141  29.0486168  49.9476258  52.2786261  29.7058966  50.2361254
  56.1613066  36.5416060  53.9300512  56.0227426  37.2397105  54.4349254
  55.3813064  36.3864716  53.5736694  56.0256293  36.6216226  53.9526786
  54.4991152  32.8412435  60.1822894  54.4939190  31.9692251  60.1865320
  55.2052145  33.0400604  59.7092349  54.6036156  32.7416309  60.1129929
  48.2262045  32.5689419  59.5536714  48.3705421  33.1490627  58.9179824
  48.5737693  32.9465716  60.2586568  48.2989506  32.7110123  59.5635709
  50.3981962  31.7679587  57.3361845  49.6505276  31.9610602  56.9310123
  50.5523487  30.9424807  57.0985967  50.3104390  31.6744699  57.2407251
  50.6383739  25.6630138  58.2257249  51.0956353  26.3954112  58.3530041
  50.7140068  25.2396603  58.9844505  50.7174709  25.7087376  58.3558326
  42.8816731  25.9095958  59.3146693  42.3458920  25.2976316  59.6307460
  42.9434495  26.4844094  59.9680359  42.8112363  25.9042885  59.4582119
  55.1111065  18.8420013  52.0951092  55.2294633  19.2996476  51.3618395
  54.9373241  18.0365274  51.8087310  55.1030236  18.7913785  51.9452026
  48.5166117  27.6532242  55.0699073  47.7262192  27.4723702  55.3916409
  48.9126740  26.8759194  55.0529368  48.4582993  27.5119703  55.1151621
  51.0303947  30.1292501  59.5522572  50.9663089  30.9902457  59.4242709
  51.1701135  29.8124494  58.7518123  51.0419418  30.2092668  59.4150785
  55.4101738  36.9037223  65.1087023  56.2236604  36.6322372  65.2692155
  55.2496705  36.6044763  64.3047219  55.5071687  36.8192149  65.0132429
  52.6873900  27.5870880  58.0482411  52.9015870  26.9481794  57.4945765
  52.0707800  28.0316704  57.6190273  52.6279230  27.5581024  57.9032842
  54.8512988  29.1959945  58.9865718  54.0389670  28.8885835  59.0678891
  55.3102923  28.7158945  59.5508430  54.7993373  29.0796437  59.0820312
  52.0788629  20.6970815  53.0369754  51.2082187  20.6709537  52.9903063
  52.3328970  20.5248008  52.2195600  51.9882189  20.6680959  52.9089891
  51.9466496  30.6020016  63.7694420  52.4166127  31.2262133  64.1562295
  51.9928376  29.9336992  64.3287635  52.0234372  30.5954697  63.9094492
  49.1037769  22.7077044  54.4943224  48.5876258  22.0157235  54.6194803
  48.5431698  23.3747821  54.4405823  48.9444283  22.7040302  54.5049290
  51.1730003  23.2470004  56.3236077  50.7861756  23.2719035  57.1049607
  50.6862940  22.6811683  55.8710593  51.0442512  23.1665755  56.3723981
  55.4222982  37.9643513  60.3809863  56.0602703  37.4703709  60.0472319
  54.7797074  37.8920913  59.7962090  55.4217209  37.8802521  60.2452218
  57.1479982  29.8132659  54.9475779  56.7207591  29.7259007  54.1923879
  56.5106035  29.9210434  55.5330623  56.9909590  29.8165319  54.9221221
  50.8387145  20.1336989  58.6146337  51.4680263  20.6697289  58.3367407
  51.0073007  20.0414348  59.4659902  50.9564939  20.1998352  58.6994865
  50.6401060  24.9208184  60.8872748  51.4674489  24.6493333  60.9431363
  50.6608906  25.7169026  61.2436566  50.7653910  24.9987938  60.9487931
  55.4777239  38.6563321  57.0215220  56.2669617  38.3052386  57.1417302
  55.6520837  39.4699710  56.7591854  55.6197521  38.7249178  57.0003088
  54.3311063  22.6672878  51.5831639  54.5360656  22.5995186  52.4288636
  54.0037487  23.4731699  51.5152816  54.3126311  22.7758818  51.6991294
  49.0287214  29.9953446  53.3240607  48.7250352  29.4409434  53.9251014
  48.3266635  30.1745656  52.8368641  48.8803424  29.9398228  53.3410312
  57.5844751  23.2204642  51.0634404  56.9719064  23.7075044  51.4488136
  57.6808926  22.5448133  51.6072055  57.5082648  23.1922951  51.2013262
  51.5863832  24.9767483  46.1631903  52.0407578  25.1478044  46.8879748
  52.0603878  24.3635594  45.7629679  51.7232152  24.9118369  46.2105665
  45.5039980  25.6217807  56.1602659  45.9641462  25.6956736  56.8977783
  45.5496087  26.4199061  55.8102481  45.5790535  25.7511954  56.2175416
  47.1523330  26.2884502  60.7274687  46.7608895  25.6417849  61.1630464
  47.3209193  26.8795937  61.3468942  47.1194240  26.2798770  60.8837393
  61.2269779  34.2921579  56.4911920  61.2852903  34.7408228  57.2371897
  60.5936246  34.7020392  56.0542000  61.1421074  34.4195314  56.5364468
  54.8668873  39.9125121  52.9266666  54.6688562  40.4015935  52.2322878
  54.2456585  40.1166362  53.5050800  54.7456438  40.0141659  52.9089890
  50.8456427  23.4760277  52.3008772  49.9992472  23.6483084  52.1750122
  50.8427560  22.6709620  52.6374600  50.7203577  23.3821306  52.3319899
  51.9154728  27.2535491  53.1670830  51.4414682  26.7277253  53.6776141
  52.2872863  26.7064964  52.5985691  51.9004617  27.0951488  53.1585977
  42.2927758  29.2506998  58.5354376  43.1553371  29.1502707  58.4491706
  41.9619541  28.6701707  57.9739948  42.3712954  29.1498624  58.4399782
  58.1791458  32.3137867  54.5777610  57.9389681  31.4744282  54.5820037
  58.6583465  32.3938033  55.3018384  58.2143642  32.2019266  54.6852413
  53.8438227  28.1472046  46.2296584  53.3161246  28.2300790  45.5402293
  54.3033936  28.8889917  46.2261228  53.8340078  28.2692708  46.1271279
  60.1796645  29.0939324  52.5306870  59.9406415  29.0535158  51.6927654
  60.3430547  29.9410476  52.6572591  60.1686949  29.2131409  52.4260352
  56.7842675  33.4789273  58.4611915  57.5076874  33.0261800  58.2822935
  56.5192638  33.7593939  57.6784243  56.8523949  33.4540242  58.3190630
  45.6529544  28.0749447  55.1964794  45.0282614  28.0867839  54.5890747
  45.3175139  28.5509622  55.8456034  45.5115036  28.1467964  55.2021362
  52.5661465  33.5773151  56.6106930  51.9518458  33.0331202  56.9055565
  53.0828750  33.0637388  56.1312746  52.5517127  33.4209560  56.5831158
  44.9220289  29.6842594  57.4139662  45.0813776  28.9285919  57.8191384
  44.7413183  30.2333534  58.0680400  44.9185648  29.6536408  57.5702368
  52.8640592  21.8503830  57.9690452  52.3681153  22.0467504  57.2782019
  53.6209654  22.2496498  57.7979254  52.9027417  21.9381564  57.8410589
  50.1343472  25.5246176  54.5593762  50.1585959  24.9906288  53.8706542
  50.3854945  25.0163485  55.2219353  50.1753390  25.3707080  54.5558407
  46.4144794  24.2516994  53.9399507  46.4543166  24.7526201  54.6534214
  45.5894459  24.3427388  53.6705430  46.2984320  24.3398811  54.0050045
  48.5974407  33.8177734  62.0419801  47.7470037  33.9549448  62.1777446
  48.7602535  33.0841512  62.4867503  48.4958270  33.7291835  62.1275400
  47.8359157  30.7677504  56.2373406  47.0051087  30.9351322  56.0308654
  47.7810675  30.3913455  57.0222291  47.7048572  30.7367235  56.3221934
  45.6442941  24.2586397  61.8729816  46.2695644  23.7148530  62.1459249
  45.1893421  23.7781315  61.3037607  45.6691201  24.1075878  61.8291410
  59.2177989  32.4415684  56.9642464  59.8095830  33.0812935  56.9960663
  59.6536984  31.7438721  57.2534531  59.3696421  32.4334034  57.0123297
  51.0471379  36.8633056  57.5900358  50.5396470  37.4168903  58.0340989
  50.7498025  36.9241346  56.7719133  50.9276264  36.9539368  57.5348815
  53.2133561  25.2286376  56.4325021  53.6388633  24.7758902  55.8208548
  52.5990555  24.6746447  56.7089809  53.1862207  25.0800352  56.3830047
  51.6527784  21.7001476  49.8415598  51.0096102  21.5499122  50.4100737
  51.3127191  21.4543821  49.0764703  51.5072862  21.6413598  49.8118614
  56.2427131  29.6560903  49.2645607  55.5718321  30.1990605  49.1358672
  56.9366881  30.1255758  49.0227302  56.2455998  29.8059174  49.2101135
  56.4055258  26.1116786  52.1735980  56.7582868  25.6846509  52.8481779
  55.5470060  26.0267630  52.3037057  56.3304703  26.0361527  52.2930991
  54.4038524  29.3752155  56.1220822  54.3836451  29.1935450  56.9755601
  54.4517725  30.2464173  56.0980406  54.4073165  29.4768693  56.2444117
  52.3484854  35.9639347  62.0469299  52.3080709  35.3189024  61.4614455
  53.1608172  35.9075964  62.3594711  52.4628007  35.8598314  62.0066248
  50.8785518  27.7822306  45.5692206  50.2850357  28.1039302  45.0176773
  50.9160795  26.9363401  45.3613312  50.7959907  27.7046634  45.4574977
  57.8379318  21.2335198  53.1020293  57.3310183  20.5264338  53.0341470
  58.6346752  20.9028387  53.2321369  57.8806558  21.0808349  53.1119288
  53.7543334  27.7401810  48.9993956  53.5257027  27.7634512  48.1572315
  54.0141410  26.9159277  49.1188967  53.7589522  27.6217890  48.8919154
  48.0362563  29.5936283  58.6019057  47.5241466  28.9857466  58.9604088
  47.8642059  30.3092876  59.0693032  47.9352200  29.6099583  58.7235280
  42.8828277  28.0373859  61.2521418  42.7130868  28.6975233  60.7069625
  42.4394227  28.2480420  61.9733908  42.7927611  28.1659841  61.2783048
  46.8088097  26.2778357  50.2948152  47.2845463  26.6395436  49.6598333
  46.3076696  26.9334824  50.5748295  46.8053456  26.4272545  50.2424893
  60.0399458  35.7500125  46.0861157  60.4233064  36.4991481  46.3159254
  59.2443572  35.9965944  45.8273146  59.9793240  35.8969819  46.0818731
  51.9131633  27.5160528  61.0421312  52.4703063  27.2874338  60.4099778
  51.5892698  28.2766194  60.7656525  51.9478043  27.5944365  60.9077809
  39.7830342  30.9420724  56.5109908  39.2357061  30.2721370  56.6290777
  40.5722720  30.5750572  56.5753376  39.8182525  30.7885711  56.5378609
  49.6314750  30.6028181  62.0073319  50.3826077  30.9179858  62.3212873
  49.8237327  30.4007352  61.1807241  49.7706164  30.6195563  61.9316715
  56.4800040  26.7301748  49.2497115  56.4794267  26.5750404  50.1081391
  56.2756220  27.5764735  49.1938500  56.4499818  26.8322368  49.3685054
  38.5417311  30.1541532  53.6655931  38.3639072  29.7018141  54.3910847
  38.2536333  30.9567693  53.8494409  38.4730264  30.2064090  53.7999434
  54.2040892  31.4099249  52.9033322  54.6994558  30.6922244  52.8637342
  53.3940668  31.1070047  52.7887809  54.1584786  31.2596896  52.8807047
  56.2692711  34.1602937  55.5910450  56.6947783  33.6377359  55.0380875
  55.9049631  34.7583774  55.0699073  56.2779314  34.1713164  55.4319460
  54.9448295  39.4838515  64.1003680  55.0545261  38.6947075  64.4560427
  55.2739192  39.3944451  63.2978018  55.0100701  39.3544367  64.0346071
  49.7740806  22.6464672  58.8769703  49.9068711  21.8495665  59.2050678
  50.1585958  23.1731075  59.4567978  49.8497135  22.6064588  59.0113206
  53.4945257  37.6655135  58.6839300  52.9466203  37.0413019  58.4159366
  53.9558286  37.8549407  57.9683380  53.4812467  37.6014185  58.5389732
  52.8473161  19.5694998  55.4750796  52.0419125  19.4592728  55.7918634
  52.7179896  19.6707454  54.6180662  52.7093294  19.5678668  55.3958836
  56.3039121  25.7340490  56.0690493  55.7202110  26.2349696  55.6568060
  56.6243415  25.2270046  55.4354816  56.2652297  25.7332325  55.9149000
  47.4329252  22.6423847  57.1247596  47.9773665  22.3014974  57.7151938
  47.4866188  23.5009308  57.2668881  47.5218372  22.7179106  57.2329470
  53.0603583  38.6706208  55.2148642  53.8801957  38.5269174  55.4764937
  52.7797661  39.2952407  55.7565080  53.1400327  38.7416560  55.3336581
  69.5317234  46.3271060  48.1791518  69.5011238  47.1815696  48.3509787
  70.1298582  46.0266352  48.7377662  69.6154392  46.4087556  48.2866320
  62.7316919  45.4146711  52.9344448  61.8754814  45.5755209  52.9853565
  62.7784572  44.5438775  52.9549509  62.6116030  45.3097513  52.9450514
  57.1158058  54.9509429  48.6981680  56.3640958  54.5724967  48.4697725
  57.5644070  54.9827862  47.9500490  57.0707725  54.8995036  48.5539182
  66.0410635  51.6833236  62.5404905  66.7477402  51.1885267  62.6691839
  66.2298571  52.1242318  61.8107563  66.1738541  51.6751587  62.4513950
  62.1087309  57.3249067  50.0678339  62.4926689  57.8935965  49.5283114
  62.0446451  56.5998577  49.5884155  62.1560737  57.3024530  49.9172201
  65.5768740  47.4738755  55.5776100  66.1224700  48.1523841  55.6370070
  65.5185616  47.3326216  54.7177682  65.6484654  47.5530756  55.4588161
  58.6942814  54.9627821  50.9644452  58.7953177  54.1528175  51.2741580
  58.0984560  54.8684767  50.3344131  58.6215353  54.8292849  50.9170691
  67.3533808  48.9023362  46.4509828  67.2373334  49.6531048  46.8801966
  68.1489695  48.6447315  46.7005915  67.4538398  48.9758209  46.5513920
  58.5343554  59.8805410  52.3659309  59.1781010  60.3218574  52.7555467
  58.8599810  59.0758836  52.2789567  58.6775383  59.8270605  52.4104786
  59.2364134  52.8917385  47.7379170  59.5579975  53.4322592  47.1340478
  59.8836230  52.3214156  47.8701460  59.3790189  52.8876560  47.6686206
  61.4753777  51.2803825  47.8093348  61.9147413  50.6720925  48.2548121
  61.3258440  50.9011198  47.0378813  61.5175243  51.1342296  47.7612516
  58.9425420  49.8747837  55.0112174  59.5874423  49.3820280  54.6923122
  59.1827197  50.0172623  55.8378252  59.0736005  49.8225279  55.0861707
  61.4811512  52.7202742  54.6619066  61.7634754  51.9254148  54.4405822
  62.2097672  53.1983330  54.6824128  61.6301075  52.6737339  54.6322082
  59.4592705  40.2625776  51.9034832  59.1296035  40.7136920  51.2338530
  58.7837707  40.1841940  52.4507838  59.3103142  40.3176912  51.8858055
  65.0763114  49.6331006  44.7624118  64.9914409  50.4891973  44.9073687
  65.5647497  49.3575330  45.4306277  65.1352011  49.7188327  44.8826199
  66.6669113  36.2511299  50.1484442  66.3522554  36.9414778  50.5804865
  66.1496055  36.1956082  49.4469943  66.5433584  36.3446188  50.1081391
  66.0081547  46.2515800  46.2621853  65.4793018  46.4675434  46.9219159
  66.5306567  46.9451939  46.1822822  66.0070000  46.3858937  46.3477452
  71.4629600  51.8262105  51.6354897  70.6327303  52.0372748  51.7988314
  71.4138852  50.9999159  51.3597181  71.3336335  51.7351711  51.6192263
  53.4525183  55.8633778  51.8652992  52.9692762  56.5884268  51.8412576
  54.2648502  56.1609908  51.9763150  53.5015931  56.0136132  51.8780272
  59.5239337  54.6565959  54.4702807  59.0066279  54.2973374  53.8664115
  60.2213729  54.1328133  54.4808873  59.5504919  54.5263647  54.3833065
  63.1802929  55.1060773  60.4318980  63.2686275  54.9186913  61.2797190
  63.6092642  54.4598202  60.0323827  63.2565032  54.9823781  60.4990731
  60.7473389  54.3891933  59.4136642  60.1844224  53.9764543  59.9376303
  61.5094413  54.3144838  59.8329785  60.7767838  54.3169333  59.5529642
  56.3069381  56.3789954  52.0173272  57.0089960  55.8641943  52.0746029
  56.2266864  56.7064105  52.8220147  56.3993141  56.3504180  52.1446064
  70.9583558  44.4732505  55.4305319  70.1211979  44.5434692  55.6652913
  70.9271789  44.4757000  54.5579621  70.8301841  44.4842732  55.3364867
  57.3548287  46.6165541  61.1453687  57.5268791  46.5071436  61.9938969
  57.8917645  47.2619946  60.9084880  57.4593291  46.6957543  61.2358784
  56.2572859  52.9897181  55.8272186  56.7971084  52.8468312  56.4975558
  55.5742805  53.3893932  56.1956212  56.2365013  53.0276852  55.9806607
  61.7005443  37.7334794  47.1184916  62.4291604  37.5550749  46.6723072
  61.7900336  38.5752874  47.3292094  61.8212105  37.8318673  47.0838434
  65.6813744  48.6688182  51.0217210  66.4371259  49.1019696  51.0606119
  65.7876068  48.0192952  51.5951846  65.8083915  48.6365666  51.1115236
  68.7193915  52.4961459  51.7719613  68.2829147  52.4998201  52.5278585
  68.3856831  53.1766958  51.3399191  68.6056535  52.5973915  51.8200446
  63.2922989  54.5369792  63.0962763  64.0763405  54.6500640  63.4618506
  63.0919583  53.7110929  63.2921449  63.3789014  54.4316511  63.1797149
  68.6391398  39.5375287  54.0149041  69.2817306  39.6073391  54.6010956
  68.8914419  38.8704510  53.5128583  68.7713530  39.4501636  54.0276320
  71.8538261  49.2142379  50.6639250  72.5154695  48.6533047  50.5635159
  71.2129673  48.7194410  50.9891941  71.8567129  49.0578788  50.6971591
  62.7415069  52.5112510  42.9720174  63.1566218  52.1797534  42.2804669
  61.9106999  52.2781413  42.8440310  62.6803078  52.4283766  42.8511021
  68.1403092  50.2307761  50.4051239  68.3758681  50.3752960  49.5778090
  68.2892656  50.9950169  50.7982753  68.1968895  50.3646816  50.3414843
  69.9693549  49.0709427  48.2420843  70.3001766  49.6037067  47.6360938
  70.5426637  49.1248315  48.8982794  70.1027228  49.1578996  48.2498625
  62.5094119  50.1940339  64.6349407  61.7167100  50.5083851  64.8202027
  62.6243046  50.4091807  63.7970192  62.4089529  50.2724176  64.5387742
  65.1825438  46.9174330  48.9244423  65.2772292  47.6563624  49.3784049
  64.5584281  46.4891805  49.3578988  65.1034468  46.9635651  49.0552571
  63.4377912  50.0960543  59.5734704  64.0116773  49.4587787  59.7283268
  63.3592715  50.0964625  58.7044362  63.5111147  50.0025654  59.4681115
  65.4348459  48.7623070  42.1581375  65.3528622  48.8325257  43.0236362
  66.0728180  49.3252814  41.9665116  65.5168297  48.8562041  42.2571325
  58.7941630  48.5283808  51.6255901  58.5360875  47.6955543  51.5987201
  58.8490113  48.7541421  50.7848402  58.7641408  48.4381579  51.4976038
  63.8742681  40.6312258  51.7259994  63.1699007  40.1421444  51.8843913
  63.9227655  40.6434733  50.8548438  63.7772732  40.5601906  51.6199334
  61.4349631  44.5544919  56.9713175  61.0464064  44.1299137  56.3165366
  60.7704330  44.8027069  57.4790201  61.2796559  44.5283641  56.9501042
  71.0772900  44.3119924  49.7461005  70.8209465  43.4999866  49.5558887
  71.9202214  44.3197491  49.5191192  71.1638926  44.1931922  49.6845822
  65.2575993  38.2519548  54.4837159  65.6386504  37.5697719  54.8705033
  64.4539277  37.9629150  54.3012823  65.1952454  38.1086597  54.5141215
  68.7598060  51.4669520  59.5819557  68.5236697  50.6357585  59.4631618
  69.4041289  51.4155127  60.1674401  68.8192730  51.3367208  59.6505451
  58.4096478  52.2565042  50.2962294  59.0470425  52.0176789  50.8414087
  58.8351549  52.4602200  49.5615454  58.5672644  52.2516052  50.2679451
  53.1009120  54.4953378  54.1796597  53.1413265  54.7668229  53.3516377
  53.6603644  55.0195286  54.5954385  53.1892466  54.6129133  54.1188486
  59.2167833  40.7573746  64.3499767  58.9021274  41.5273309  64.0869330
  58.8957766  40.1944003  63.7651994  59.1226752  40.7884015  64.2241117
  69.7834480  51.2513969  55.6447852  69.4780297  51.9842026  56.0061167
  69.0640696  50.8451898  55.3640638  69.6321822  51.2995702  55.6560989
  60.7917950  52.7337464  51.9756080  60.8656958  52.5712636  52.8297930
  61.6087456  52.9227654  51.7316561  60.9234308  52.7374206  52.0654105
  75.4836272  47.8906970  54.9716196  75.4160773  47.9102929  54.1018782
  75.4691935  48.7337297  55.1971866  75.4715029  48.0180704  54.8768673
  65.8932619  39.2942127  58.2957285  66.6386211  39.1051938  57.8820711
  65.4769923  39.8200365  57.7371142  65.9417593  39.3444273  58.1521859
  59.3322535  55.6972207  46.7069553  59.6220834  55.3061189  45.9828780
  60.0626016  55.8788912  47.1474829  59.4829420  55.6666021  46.6652360
  73.2694890  46.6651356  53.2462790  73.8202811  46.0319425  53.4859882
  73.2539005  47.1966749  53.9378295  73.3480086  46.6500304  53.3841648
  59.9217281  50.4989953  57.7922684  59.4228974  51.2105721  57.8707572
  60.7317505  50.8190620  57.7540846  59.9673387  50.6516802  57.7979252
  57.2728451  57.6739590  49.7729703  57.0528746  57.3836944  50.5656370
  57.0522973  57.0154545  49.2447615  57.2076045  57.5339298  49.8118612
  66.9723296  44.9047690  52.3567386  66.6288062  44.1838025  52.7074636
  67.0716338  44.6961541  51.5145745  66.9365339  44.7671893  52.2839066
  59.4396407  59.0468980  48.5560395  60.0920465  58.5145422  48.7851421
  58.7422015  58.6937632  48.9428269  59.4327125  58.9158503  48.6472563
  67.4336325  51.3673394  47.8991375  67.9994358  52.0266603  47.8149918
  66.7864228  51.7123092  48.3707777  67.4215081  51.5155335  47.9564131
  58.8484339  43.3570998  63.0884982  58.0384114  43.6628777  62.9774824
  59.3259025  44.0776580  63.2037566  58.7987817  43.5085599  63.0892053
  57.7075898  52.5716719  53.3367885  57.1856652  52.7117010  54.0219750
  58.0949918  51.8127383  53.5270002  57.6879599  52.4802242  53.4668962
  63.9042903  54.3112178  47.3228454  63.6629579  53.5780038  46.9155519
  64.0844236  54.8599035  46.6694787  63.8950527  54.2834569  47.1658677
  59.1342224  49.6020738  48.7349376  58.9385006  50.2095472  48.1409679
  59.3576569  48.9088682  48.2541050  59.1376865  49.5898263  48.5765457
  65.4914261  42.8239274  54.2326929  64.6525362  42.8500553  53.9965193
  65.5618629  43.4710010  54.8132276  65.3782655  42.9235400  54.2836046
  63.9383540  39.7224651  48.9654545  64.6409892  39.5232400  48.4874504
  63.6727728  38.9500594  49.2723389  64.0030172  39.5787617  48.9399987
  69.3671785  48.0307261  51.5188171  69.2805760  48.1862687  52.3722950
  68.9122265  48.6745337  51.1447576  69.2875042  48.1483016  51.5895278
  58.7012096  40.9859936  58.0185426  58.5095293  41.0015071  58.8684849
  59.5510692  41.1823611  57.9952081  58.7987818  41.0174288  58.1408721
  63.2397601  45.3518008  50.1413731  62.9932315  45.2713759  50.9750520
  63.5682724  44.5671476  49.9476258  63.2518845  45.2244273  50.2361254
  67.1345650  52.0601367  53.9300512  66.9960009  52.7582413  54.4349254
  66.3545648  51.9050024  53.5736694  66.9988877  52.1401534  53.9526786
  65.4723735  48.3597743  60.1822894  65.4671774  47.4877559  60.1865320
  66.1784729  48.5585912  59.7092349  65.5768739  48.2601617  60.1129929
  59.1994628  48.0874727  59.5536714  59.3438004  48.6675935  58.9179824
  59.5470277  48.4651023  60.2586568  59.2722090  48.2295431  59.5635709
  61.3714546  47.2864895  57.3361845  60.6237860  47.4795909  56.9310123
  61.5256071  46.4610115  57.0985967  61.2836973  47.1930007  57.2407251
  58.2722383  56.2777499  56.4197741  58.4211947  55.7180414  55.7671145
  59.0522386  56.3569500  56.8030259  58.4096477  56.2063064  56.3794690
  68.6299023  51.4179621  44.6917011  68.2505832  50.6316759  44.6846300
  67.9665268  51.9666478  44.5488655  68.4757498  51.3824445  44.6697808
  60.7975684  56.4492141  57.6982231  60.7219355  55.7800952  58.2533020
  60.7265543  57.1509930  58.2122898  60.7756291  56.4537049  57.8559079
  61.6116323  41.1815446  58.2257249  62.0688937  41.9139420  58.3530041
  61.6872652  40.7581911  58.9844505  61.6907293  41.2272684  58.3558326
  66.0843649  34.3605321  52.0951092  66.2027217  34.8181784  51.3618395
  65.9105825  33.5550582  51.8087310  66.0762820  34.3099093  51.9452026
  61.4545931  54.9693140  48.5305837  62.2195822  54.7002784  48.2088502
  61.3524021  54.4843151  49.2475900  61.5527426  54.8582705  48.5885665
  59.4898701  43.1717550  55.0699073  58.6994776  42.9909010  55.3916409
  59.8859324  42.3944502  55.0529368  59.4315577  43.0305011  55.1151621
  63.9764592  52.0005324  40.5105787  64.7437577  52.0605449  40.1011638
  63.5295901  51.4285765  40.0262105  64.0238019  51.9241900  40.3783497
  64.8742387  50.8059980  52.7958519  64.1987389  50.5745212  53.2971906
  64.8834763  50.1981163  52.1700624  64.7760892  50.6818905  52.7774671
  62.0036531  45.6477809  59.5522572  61.9395672  46.5087765  59.4242709
  62.1433719  45.3309802  58.7518123  62.0152001  45.7277976  59.4150785
  66.8759122  53.6625112  45.0268697  66.9578959  54.4692098  44.7030148
  67.3608864  53.6821072  45.7509470  66.9596280  53.7845775  45.0855596
  60.6855625  48.3409948  53.6938775  60.2617874  48.5414447  52.9577793
  60.5100480  47.4938796  53.8063075  60.5966506  48.2458730  53.6012465
  60.1867318  59.8560461  56.1560232  60.6763249  59.1571250  55.9735897
  59.6151551  59.5584331  56.7436290  60.1751848  59.7086685  56.2161273
  66.3834322  52.4222531  65.1087023  67.1969187  52.1507679  65.2692155
  66.2229288  52.1230071  64.3047219  66.4804270  52.3377457  65.0132429
  60.6803664  53.6037235  45.2800139  60.7496485  52.7451773  45.4193139
  61.4592119  53.8209116  44.9519163  60.8056514  53.5090099  45.2517296
  63.6606484  43.1056188  58.0482411  63.8748453  42.4667102  57.4945765
  63.0440383  43.5502012  57.6190273  63.6011813  43.0766331  57.9032842
  65.0711152  56.0274936  49.4936632  64.6790944  55.7241651  48.7759498
  65.2264224  56.8644026  49.3041586  65.0364742  56.1058773  49.3593129
  65.8245572  44.7145253  58.9865718  65.0122254  44.4071143  59.0678891
  66.2835507  44.2344253  59.5508430  65.7725957  44.5981745  59.0820312
  65.2350827  52.5924925  49.4342663  64.8765481  52.7639568  50.2106695
  64.7489537  53.0538131  48.8770661  65.1109523  52.6863896  49.4667932
  63.0521213  36.2156123  53.0369754  62.1814771  36.1894845  52.9903063
  63.3061554  36.0433316  52.2195600  62.9614773  36.1866267  52.9089891
  62.9199079  46.1205324  63.7694420  63.3898711  46.7447441  64.1562295
  62.9660960  45.4522300  64.3287635  62.9966955  46.1140005  63.9094492
  60.0770353  38.2262352  54.4943224  59.5608842  37.5342543  54.6194803
  59.5164282  38.8933129  54.4405823  59.9176866  38.2225609  54.5049290
  62.1462587  38.7655312  56.3236077  61.7594340  38.7904343  57.1049607
  61.6595524  38.1996991  55.8710593  62.0175095  38.6851063  56.3723981
  66.3955566  53.4828821  60.3809863  67.0335286  52.9889017  60.0472319
  65.7529658  53.4106221  59.7962090  66.3949792  53.3987829  60.2452218
  68.1212566  45.3317967  54.9475779  67.6940174  45.2444315  54.1923879
  67.4838619  45.4395742  55.5330623  67.9642173  45.3350627  54.9221221
  61.8119728  35.6522297  58.6146337  62.4412846  36.1882597  58.3367407
  61.9805591  35.5599656  59.4659902  61.9297523  35.7183660  58.6994865
  61.6133643  40.4393492  60.8872748  62.4407072  40.1678641  60.9431363
  61.6341489  41.2354334  61.2436566  61.7386493  40.5173246  60.9487931
  66.4509823  54.1748629  57.0215220  67.2402201  53.8237694  57.1417302
  66.6253420  54.9885018  56.7591854  66.5930104  54.2434486  57.0003088
  56.1903133  47.5857355  54.0743009  55.3491140  47.4861229  54.2821903
  56.3993141  48.3552835  54.4257330  56.0967826  47.6849398  54.1570324
  65.3043647  38.1858186  51.5831639  65.5093240  38.1180494  52.4288636
  64.9770071  38.9917007  51.5152816  65.2858895  38.2944126  51.6991294
  60.0019798  45.5138754  53.3240607  59.6982935  44.9594742  53.9251014
  59.2999219  45.6930964  52.8368641  59.8536008  45.4583536  53.3410312
  58.0638149  52.7288475  58.0312704  57.9558504  52.7390537  58.8974762
  58.2733930  53.5543255  57.8417658  58.0788260  52.8529550  58.1316796
  68.5577334  38.7389950  51.0634404  67.9451648  39.2260352  51.4488136
  68.6541509  38.0633441  51.6072055  68.4815232  38.7108259  51.2013262
  56.0811941  49.9801117  55.4934642  55.4899874  50.6210615  55.4637657
  56.8432964  50.4038734  55.4665941  56.1060201  50.1376956  55.4849789
  56.4772564  41.1403115  56.1602659  56.9374045  41.2142044  56.8977783
  56.5228670  41.9384369  55.8102481  56.5523119  41.2697262  56.2175416
  58.1255913  41.8069810  60.7274687  57.7341478  41.1603157  61.1630464
  58.2941776  42.3981245  61.3468942  58.0926824  41.7984078  60.8837393
  72.2002362  49.8106887  56.4911920  72.2585486  50.2593536  57.2371897
  71.5668830  50.2205700  56.0542000  72.1153657  49.9380622  56.5364468
  65.8401457  55.4310429  52.9266666  65.6421146  55.9201243  52.2322878
  65.2189168  55.6351670  53.5050800  65.7189022  55.5326967  52.9089890
  61.8189011  38.9945584  52.3008772  60.9725056  39.1668392  52.1750122
  61.8160143  38.1894928  52.6374600  61.6936161  38.9006613  52.3319899
  62.8887311  42.7720799  53.1670830  62.4147266  42.2462561  53.6776141
  63.2605447  42.2250272  52.5985691  62.8737200  42.6136796  53.1585977
  69.1524042  47.8323175  54.5777610  68.9122265  46.9929590  54.5820037
  69.6316049  47.9123341  55.3018384  69.1876226  47.7204574  54.6852413
  64.8170811  43.6657353  46.2296584  64.2893830  43.7486097  45.5402293
  65.2766519  44.4075225  46.2261228  64.8072661  43.7878016  46.1271279
  71.1529229  44.6124632  52.5306870  70.9138999  44.5720466  51.6927654
  71.3163130  45.4595784  52.6572591  71.1419532  44.7316717  52.4260352
  67.7575259  48.9974581  58.4611915  68.4809458  48.5447107  58.2822935
  67.4925221  49.2779247  57.6784243  67.8256532  48.9725550  58.3190630
  64.3707893  52.2360917  45.3606241  65.0942092  52.7019030  45.2170814
  63.9308484  52.3034527  44.6103838  64.4123586  52.3144754  45.2291022
  63.5394048  49.0958459  56.6106930  62.9251042  48.5516510  56.9055565
  64.0561333  48.5822696  56.1312746  63.5249711  48.9394868  56.5831158
  62.7790346  50.1662729  54.3451228  62.3517954  49.5412448  53.9116664
  62.7715290  49.8837651  55.1710236  62.7149487  50.0315510  54.4031056
  63.8373176  37.3689138  57.9690452  63.3413737  37.5652812  57.2782019
  64.5942238  37.7681806  57.7979254  63.8760000  37.4566872  57.8410589
  61.1076055  41.0431484  54.5593762  61.1318543  40.5091596  53.8706542
  61.3587529  40.5348793  55.2219353  61.1485974  40.8892388  54.5558407
  57.3877378  39.7702302  53.9399507  57.4275749  40.2711509  54.6534214
  56.5627042  39.8612696  53.6705430  57.2716904  39.8584118  54.0050045
  59.5706990  49.3363042  62.0419801  58.7202621  49.4734756  62.1777446
  59.7335118  48.6026820  62.4867503  59.4690854  49.2477143  62.1275400
  58.8091741  46.2862812  56.2373406  57.9783671  46.4536630  56.0308654
  58.7543258  45.9098763  57.0222291  58.6781156  46.2552543  56.3221934
  56.6175524  39.7771705  61.8729816  57.2428228  39.2333838  62.1459249
  56.1626004  39.2966622  61.3037607  56.6423785  39.6261186  61.8291410
  70.1910573  47.9600992  56.9642464  70.7828413  48.5998243  56.9960663
  70.6269567  47.2624029  57.2534531  70.3429004  47.9519342  57.0123297
  62.0203963  52.3818364  57.5900358  61.5129054  52.9354211  58.0340989
  61.7230609  52.4426654  56.7719133  61.9008848  52.4724675  57.5348815
  64.1866145  40.7471684  56.4325021  64.6121217  40.2944210  55.8208548
  63.5723138  40.1931755  56.7089809  64.1594790  40.5985660  56.3830047
  64.6311743  56.2981622  45.5204302  63.9141053  56.1242484  45.0551539
  65.2818481  56.0634194  44.9879788  64.6213594  56.2377414  45.3733520
  62.6260368  37.2186784  49.8415598  61.9828686  37.0684430  50.4100737
  62.2859775  36.9729129  49.0764703  62.4805445  37.1598906  49.8118614
  67.2159714  45.1746211  49.2645607  66.5450904  45.7175913  49.1358672
  67.9099465  45.6441066  49.0227302  67.2188582  45.3244482  49.2101135
  61.2646448  57.3142923  54.4957365  61.0412103  56.5561752  54.8641392
  60.7756291  57.3440944  53.7737805  61.1589897  57.2065147  54.4434106
  67.3787842  41.6302094  52.1735980  67.7315452  41.2031817  52.8481779
  66.5202643  41.5452938  52.3037057  67.3037286  41.5546835  52.2930991
  65.3771108  44.8937463  56.1220822  65.3569035  44.7120758  56.9755601
  65.4250308  45.7649481  56.0980406  65.3805749  44.9954001  56.2444117
  63.3217437  51.4824655  62.0469299  63.2813292  50.8374332  61.4614455
  64.1340756  51.4261272  62.3594711  63.4360591  51.3783622  62.0066248
  59.9124905  57.5343381  51.9494450  59.4985304  56.8717511  51.5598292
  60.5972279  57.6821239  51.4290144  59.9523277  57.4584039  51.8150947
  63.2790199  56.6933466  52.7018066  62.8806482  56.8035736  51.9338887
  62.6641419  56.9015532  53.2844626  63.1289088  56.7407034  52.6749366
  68.8111902  36.7520506  53.1020293  68.3042767  36.0449646  53.0341470
  69.6079336  36.4213695  53.2321369  68.8539141  36.5993657  53.1119288
  64.7275918  43.2587118  48.9993956  64.4989611  43.2819820  48.1572315
  64.9873994  42.4344585  49.1188967  64.7322106  43.1403198  48.8919154
  59.0095146  45.1121591  58.6019057  58.4974049  44.5042774  58.9604088
  58.8374642  45.8278184  59.0693032  58.9084783  45.1284891  58.7235280
  53.8560861  43.5559167  61.2521418  53.6863451  44.2160541  60.7069625
  53.4126811  43.7665728  61.9733908  53.7660194  43.6845149  61.2783048
  71.0132042  51.2685433  46.0861157  71.3965648  52.0176789  46.3159254
  70.2176155  51.5151252  45.8273146  70.9525824  51.4155126  46.0818731
  62.8864217  43.0345836  61.0421312  63.4435647  42.8059645  60.4099778
  62.5625282  43.7951502  60.7656525  62.9210627  43.1129673  60.9077809
  60.6047334  46.1213489  62.0073319  61.3558661  46.4365166  62.3212873
  60.7969910  45.9192660  61.1807241  60.7438748  46.1380871  61.9316715
  67.4532624  42.2487056  49.2497115  67.4526850  42.0935712  50.1081391
  67.2488804  43.0950043  49.1938500  67.4232402  42.3507676  49.3685054
  65.1773476  46.9284557  52.9033322  65.6727141  46.2107552  52.8637342
  64.3673252  46.6255355  52.7887809  65.1317369  46.7782204  52.8807047
  67.2425295  49.6788245  55.5910450  67.6680366  49.1562667  55.0380875
  66.8782215  50.2769082  55.0699073  67.2511897  49.6898472  55.4319460
  56.8779375  57.9752462  54.3507796  57.1925934  58.7888851  54.3585578
  57.2872788  57.5902681  55.0189955  56.9847473  58.0381165  54.4511888
  63.8303894  53.3922509  51.9211608  64.3015072  54.1062772  52.0901593
  64.1664073  52.7921259  52.4571477  63.9499009  53.4093973  52.0243984
  65.9180879  55.0023822  64.1003680  66.0277844  54.2132383  64.4560427
  66.2471775  54.9129759  63.2978018  65.9833285  54.8729675  64.0346071
  60.7473389  38.1649980  58.8769703  60.8801295  37.3680973  59.2050678
  61.1318542  38.6916383  59.4567978  60.8229718  38.1249896  59.0113206
  64.4677841  53.1840443  58.6839300  63.9198787  52.5598327  58.4159366
  64.9290869  53.3734715  57.9683380  64.4545050  53.1199493  58.5389732
  63.8205744  35.0880306  55.4750796  63.0151708  34.9778035  55.7918634
  63.6912480  35.1892761  54.6180662  63.6825877  35.0863976  55.3958836
  67.2771705  41.2525798  56.0690493  66.6934694  41.7535004  55.6568060
  67.5975999  40.7455354  55.4354816  67.2384880  41.2517633  55.9149000
  58.4061836  38.1609155  57.1247596  58.9506249  37.8200282  57.7151938
  58.4598772  39.0194616  57.2668881  58.4950955  38.2364414  57.2329470
  54.2192395  51.9225571  53.9986404  54.8237252  51.8821405  53.3700225
  54.0119707  52.7696723  54.0290460  54.2781292  52.0413573  53.9102521
  64.0336167  54.1891516  55.2148642  64.8534541  54.0454482  55.4764937
  63.7530245  54.8137715  55.7565080  64.1132910  54.2601868  55.3336581
  73.7049502  60.9332019  52.9344448  72.8487398  61.0940517  52.9853565
  73.7517156  60.0624083  52.9549509  73.5848614  60.8282821  52.9450514
  68.0890642  70.4694737  48.6981680  67.3373541  70.0910275  48.4697725
  68.5376654  70.5013170  47.9500490  68.0440309  70.4180344  48.5539182
  76.5501323  62.9924063  55.5776100  77.0957283  63.6709149  55.6370070
  76.4918199  62.8511523  54.7177682  76.6217238  63.0716064  55.4588161
  69.6675398  70.4813129  50.9644452  69.7685761  69.6713483  51.2741580
  69.0717143  70.3870075  50.3344131  69.5947937  70.3478157  50.9170691
  62.8640442  66.5033415  50.5896786  62.6290627  65.6701068  50.4829055
  63.0026083  66.7838081  49.7757987  62.8496105  66.4216919  50.4539141
  65.1630530  58.6719146  53.4881094  64.5435561  58.0811793  53.3191109
  65.0614393  59.2630581  52.8545417  65.0568205  58.6723228  53.3686083
  70.2096717  68.4102693  47.7379170  70.5312558  68.9507900  47.1340478
  70.8568814  67.8399464  47.8701460  70.3522773  68.4061868  47.6686206
  72.2598425  60.4118688  47.8213557  72.9578590  60.5906815  48.3135020
  72.5750758  59.8889027  47.1983946  72.4093763  60.3612460  47.8015567
  64.8899663  62.2171428  55.7324663  64.7658360  62.8033873  56.3674482
  65.5417947  61.7231623  56.0336938  64.9673312  62.2310232  55.8710592
  72.4486361  66.7989133  47.8093348  72.8879996  66.1906233  48.2548121
  72.2991024  66.4196506  47.0378813  72.4907826  66.6527604  47.7612516
  69.9158004  65.3933144  55.0112174  70.5607006  64.9005588  54.6923122
  70.1559781  65.5357931  55.8378252  70.0468589  65.3410587  55.0861707
  72.4544095  68.2388050  54.6619066  72.7367338  67.4439456  54.4405822
  73.1830256  68.7168638  54.6824128  72.6033659  68.1922647  54.6322082
  70.4325289  55.7811084  51.9034832  70.1028619  56.2322228  51.2338530
  69.7570291  55.7027248  52.4507838  70.2835725  55.8362219  51.8858055
  76.0495697  65.1516314  44.7624118  75.9646992  66.0077281  44.9073687
  76.5380081  64.8760638  45.4306277  76.1084595  65.2373635  44.8826199
  77.6401697  51.7696607  50.1484442  77.3255138  52.4600086  50.5804865
  77.1228638  51.7141389  49.4469943  77.5166167  51.8631496  50.1081391
  76.9814131  61.7701108  46.2621853  76.4525602  61.9860742  46.9219159
  77.5039151  62.4637247  46.1822822  76.9802584  61.9044245  46.3477452
  68.8713738  65.6664325  45.0629321  68.2870954  66.1714356  45.4695185
  68.4683834  65.4406712  44.3225913  68.7253042  65.7072573  45.0134346
  64.4257767  71.3819086  51.8652992  63.9425345  72.1069576  51.8412576
  65.2381085  71.6795216  51.9763150  64.4748515  71.5321440  51.8780272
  70.4971921  70.1751267  54.4702807  69.9798863  69.8158682  53.8664115
  71.1946312  69.6513441  54.4808873  70.5237502  70.0448955  54.3833065
  73.3290953  61.9129977  43.5398241  73.5686956  62.1207961  42.7273584
  73.6506794  61.1087486  43.6487186  73.4128111  61.8244078  43.4358794
  68.6381243  53.8423373  47.3857779  69.3927211  54.2101690  47.1474830
  68.4608778  54.2162927  48.1536959  68.7235721  53.9521561  47.4642668
  67.2801964  71.8975262  52.0173272  67.9822544  71.3827251  52.0746029
  67.1999447  72.2249413  52.8220147  67.3725725  71.8689488  52.1446064
  68.3280871  62.1350849  61.1453687  68.5001375  62.0256743  61.9938969
  68.8650228  62.7805254  60.9084880  68.4325875  62.2142851  61.2358784
  66.9938308  56.2493692  44.0835892  66.8113881  56.4665573  43.2576885
  67.8563921  56.3632704  44.1394507  67.0942897  56.2983590  43.9690379
  66.6052740  68.0881614  51.5258880  67.4441639  68.3204547  51.5732642
  66.6364509  67.2185925  51.4565916  66.7334457  67.9938560  51.5223525
  67.2305443  68.5082489  55.8272186  67.7703668  68.3653620  56.4975558
  66.5475389  68.9079240  56.1956212  67.2097597  68.5462160  55.9806607
  72.6738027  53.2520102  47.1184916  73.4024187  53.0736057  46.6723072
  72.7632920  54.0938182  47.3292094  72.7944689  53.3503981  47.0838434
  76.6546328  64.1873490  51.0217210  77.4103843  64.6205004  51.0606119
  76.7608652  63.5378259  51.5951846  76.7816498  64.1550974  51.1115236
  62.6342588  64.7282780  55.9806607  62.3681003  63.9121897  56.1397598
  62.6481152  64.7735935  55.1102123  62.5967310  64.6139685  55.8760089
  66.5400335  59.5267864  42.5958365  65.8258512  59.2406044  43.0080798
  67.0244303  59.8664490  43.2364753  66.5059698  59.5349514  42.7514000
  67.3841194  58.2661158  58.6273615  66.6912991  57.7958138  58.8734347
  68.0001521  58.0399463  59.2015322  67.3725724  58.1628290  58.7482768
  73.7147653  68.0297818  42.9720174  74.1298801  67.6982842  42.2804669
  72.8839582  67.7966721  42.8440310  73.6535661  67.9469074  42.8511021
  63.0436001  65.5141559  53.2618352  62.8611575  65.4888445  52.4090644
  63.7785670  65.9840497  53.3007260  63.1250065  65.5802922  53.1416270
  66.1081753  62.2326562  59.7700460  66.8321725  62.2179593  60.2565355
  66.2097890  62.9421917  59.2722428  66.2299962  62.3351265  59.7679247
  76.1558021  62.4359638  48.9244423  76.2504876  63.1748932  49.3784049
  75.5316865  62.0077113  49.3578988  76.0767052  62.4820959  49.0552571
  63.0106912  62.3935060  53.4117418  63.5880414  62.2571511  54.0509663
  62.3120973  61.9370844  53.6663002  62.9927933  62.3057326  53.5439708
  76.4081043  64.2808378  42.1581375  76.3261205  64.3510565  43.0236362
  77.0460763  64.8438122  41.9665116  76.4900880  64.3747349  42.2571325
  69.7674214  64.0469116  51.6255901  69.5093458  63.2140851  51.5987201
  69.8222697  64.2726729  50.7848402  69.7373992  63.9566887  51.4976038
  74.8475264  56.1497566  51.7259994  74.1431591  55.6606752  51.8843913
  74.8960238  56.1620041  50.8548438  74.7505316  56.0787214  51.6199334
  68.7408926  61.6006878  52.1120796  68.1658517  61.7599046  52.7484757
  68.3644602  60.9642287  51.6489247  68.6011738  61.5304691  52.1375354
  72.4082215  60.0730227  56.9713175  72.0196647  59.6484445  56.3165366
  71.7436913  60.3212377  57.4790201  72.2529143  60.0468949  56.9501042
  58.4865745  61.2446953  50.1265237  58.5725997  60.8678821  50.9078767
  59.1141542  60.8707399  49.6485195  58.5922296  61.1332435  50.1710714
  76.2308576  53.7704856  54.4837159  76.6119088  53.0883027  54.8705033
  75.4271861  53.4814458  54.3012823  76.1685038  53.6271905  54.5141215
  73.5121153  64.3028832  45.1689981  74.3261792  64.5943725  45.0572753
  73.4480294  63.6488694  44.5948274  73.6223892  64.2494027  45.0678819
  69.3829061  67.7750349  50.2962294  70.0203008  67.5362097  50.8414087
  69.8084133  67.9787508  49.5615454  69.5405227  67.7701360  50.2679451
  64.0741704  70.0138686  54.1796597  64.1145849  70.2853537  53.3516377
  64.6336228  70.5380594  54.5954385  64.1625050  70.1314441  54.1188486
  70.0231876  62.9952639  44.6337183  70.4077029  62.7760346  45.3853728
  69.7743497  63.8215585  44.7638259  70.0433949  63.0850785  44.7638259
  70.1900417  56.2759054  64.3499767  69.8753858  57.0458617  64.0869330
  69.8690349  55.7129310  63.7651994  70.0959336  56.3069323  64.2241117
  71.7650533  68.2522772  51.9756080  71.8389541  68.0897944  52.8297930
  72.5820040  68.4412962  51.7316561  71.8966892  68.2559514  52.0654105
  65.5256290  68.5980635  49.0050523  64.6994408  68.8442372  48.8784802
  65.5868281  68.5192716  49.8712581  65.4130457  68.6225584  49.1139468
  67.7432314  54.6649576  49.9645963  66.8754739  54.7372175  50.0303573
  68.0307518  55.4671655  50.1533939  67.6572062  54.7943723  50.0020730
  76.8665202  54.8127435  58.2957285  77.6118794  54.6237246  57.8820711
  76.4502507  55.3385673  57.7371142  76.9150177  54.8629581  58.1521859
  70.3055119  71.2157515  46.7069553  70.5953417  70.8246496  45.9828780
  71.0358600  71.3974220  47.1474829  70.4562003  71.1851329  46.6652360
  70.8949864  66.0175261  57.7922684  70.3961558  66.7291029  57.8707572
  71.7050088  66.3375928  57.7540846  70.9405971  66.1702110  57.7979252
  68.2461035  73.1924898  49.7729703  68.0261330  72.9022252  50.5656370
  68.0255557  72.5339853  49.2447615  68.1808629  73.0524606  49.8118612
  67.1577982  65.2798214  52.0385405  66.8691230  64.6535685  52.5731132
  68.0261330  65.2218501  52.1050085  67.2438234  65.1785758  52.1276359
  77.9455879  60.4232997  52.3567386  77.6020645  59.7023333  52.7074636
  78.0448922  60.2146849  51.5145745  77.9097922  60.2857201  52.2839066
  67.3610255  66.9193465  47.9627770  68.1156223  67.3006504  48.1763232
  66.7680868  67.3704609  48.4174466  67.3846969  67.0422292  48.0610648
  69.8216922  58.8756305  63.0884982  69.0116698  59.1814085  62.9774824
  70.2991609  59.5961888  63.2037566  69.7720401  59.0270907  63.0892053
  68.6808482  68.0902026  53.3367885  68.1589235  68.2302318  54.0219750
  69.0682502  67.3312691  53.5270002  68.6612183  67.9987550  53.4668962
  65.6699666  58.1407835  47.4062840  65.3824461  57.7709106  46.6694787
  66.3570134  58.6102691  47.1446545  65.7288563  58.1554805  47.2577915
  70.1074807  65.1206045  48.7349376  69.9117590  65.7280780  48.1409679
  70.3309153  64.4273989  48.2541050  70.1109448  65.1083571  48.5765457
  68.5053337  62.0060783  48.8530244  69.2275989  62.1701942  48.3934050
  68.0261330  62.7270448  48.7469584  68.5417068  62.1359013  48.7695858
  76.4646845  58.3424582  54.2326929  75.6257946  58.3685861  53.9965193
  76.5351212  58.9895318  54.8132276  76.3515238  58.4420708  54.2836046
  66.1560954  64.4118856  57.9584384  66.6682051  64.6903109  57.3093144
  65.8697297  65.1508150  58.3247197  66.1895817  64.5621209  57.9174262
  74.9116123  55.2409959  48.9654545  75.6142476  55.0417708  48.4874504
  74.6460312  54.4685902  49.2723389  74.9762755  55.0972925  48.9399987
  63.2427860  58.9189048  48.2548121  63.3443997  59.7215209  48.5829096
  64.0383747  58.7176384  47.9571201  63.3755766  59.0074946  48.2583476
  69.6744679  56.5045244  58.0185426  69.4827876  56.5200379  58.8684849
  70.5243275  56.7008919  57.9952081  69.7720401  56.5359596  58.1408721
  64.0591592  59.0336226  55.9969242  63.9177084  58.1820167  56.1213750
  64.3432156  59.0764887  55.1731448  64.0799438  58.9135976  55.8936866
  74.2130185  60.8703316  50.1413731  73.9664899  60.7899067  50.9750520
  74.5415308  60.0856784  49.9476258  74.2251428  60.7429581  50.2361254
  70.1727212  63.6060035  59.5536714  70.3170588  64.1861243  58.9179824
  70.5202861  63.9836331  60.2586568  70.2454673  63.7480739  59.5635709
  72.3447129  62.8050203  57.3361845  71.5970443  62.9981217  56.9310123
  72.4988655  61.9795423  57.0985967  72.2569557  62.7115314  57.2407251
  72.5848906  56.7000754  58.2257249  73.0421521  57.4324728  58.3530041
  72.6605235  56.2767219  58.9844505  72.6639876  56.7457992  58.3558326
  64.8281898  56.9466573  59.3146693  64.2924087  56.3346932  59.6307460
  64.8899662  57.5214709  59.9680359  64.7577530  56.9413501  59.4582119
  77.0576232  49.8790629  52.0951092  77.1759800  50.3367092  51.3618395
  76.8838408  49.0735890  51.8087310  77.0495403  49.8284401  51.9452026
  72.4278515  70.4878448  48.5305837  73.1928406  70.2188092  48.2088502
  72.3256605  70.0028459  49.2475900  72.5260010  70.3768013  48.5885665
  70.4631284  58.6902858  55.0699073  69.6727359  58.5094318  55.3916409
  70.8591907  57.9129810  55.0529368  70.4048161  58.5490319  55.1151621
  74.9497175  67.5190632  40.5105787  75.7170160  67.5790757  40.1011638
  74.5028484  66.9471073  40.0262105  74.9970602  67.4427208  40.3783497
  75.8474971  66.3245288  52.7958519  75.1719972  66.0930520  53.2971906
  75.8567347  65.7166471  52.1700624  75.7493475  66.2004213  52.7774671
  72.9769115  61.1663117  59.5522572  72.9128256  62.0273073  59.4242709
  73.1166302  60.8495110  58.7518123  72.9884585  61.2463283  59.4150785
  71.6588209  63.8595256  53.6938775  71.2350458  64.0599755  52.9577793
  71.4833064  63.0124104  53.8063075  71.5699089  63.7644038  53.6012465
  66.9470654  64.3547308  49.1266747  67.1035273  64.2894110  49.9822739
  67.2871247  65.1295860  48.9145427  67.0203888  64.4596506  49.2221342
  73.4849798  63.7305191  47.9960111  74.0265344  63.2275572  48.4598731
  73.7996357  63.6770386  47.1849596  73.6114195  63.6484612  47.9443923
  71.6536248  69.1222543  45.2800139  71.7229068  68.2637081  45.4193139
  72.4324703  69.3394424  44.9519163  71.7789098  69.0275407  45.2517296
  74.6339067  58.6241496  58.0482411  74.8481037  57.9852410  57.4945765
  74.0172967  59.0687320  57.6190273  74.5744397  58.5951639  57.9032842
  63.5204915  61.5382258  49.4427515  63.9003880  61.9566803  48.7787782
  62.9460280  62.1195714  49.7496358  63.4916240  61.6860117  49.3904256
  76.7978156  60.2330561  58.9865718  75.9854837  59.9256451  59.0678891
  77.2568090  59.7529561  59.5508430  76.7458540  60.1167053  59.0820312
  76.2083410  68.1110233  49.4342663  75.8498065  68.2824876  50.2106695
  75.7222121  68.5723438  48.8770661  76.0842107  68.2049204  49.4667932
  74.0253796  51.7341431  53.0369754  73.1547354  51.7080152  52.9903063
  74.2794137  51.5618623  52.2195600  73.9347356  51.7051575  52.9089891
  70.9971776  63.7909398  41.9742897  71.2864300  64.5674281  42.2486471
  71.0843574  63.2798130  42.6757396  71.0526032  63.8301317  42.1185395
  71.0502937  53.7447660  54.4943224  70.5341425  53.0527851  54.6194803
  70.4896866  54.4118437  54.4405823  70.8909450  53.7410917  54.5049290
  73.1195170  54.2840620  56.3236077  72.7326923  54.3089651  57.1049607
  72.6328107  53.7182298  55.8710593  72.9907679  54.2036371  56.3723981
  72.7852312  51.1707605  58.6146337  73.4145430  51.7067905  58.3367407
  72.9538175  51.0784964  59.4659902  72.9030106  51.2368968  58.6994865
  72.5866227  55.9578800  60.8872748  73.4139656  55.6863949  60.9431363
  72.6074073  56.7539642  61.2436566  72.7119077  56.0358554  60.9487931
  67.1635717  63.1042663  54.0743009  66.3223723  63.0046537  54.2821903
  67.3725724  63.8738143  54.4257330  67.0700409  63.2034706  54.1570324
  64.6411283  60.7262200  51.9027760  64.2467981  60.8005212  51.1277869
  64.0851400  61.1120146  52.4536121  64.5014096  60.7943974  51.8695419
  76.2776230  53.7043494  51.5831639  76.4825824  53.6365802  52.4288636
  75.9502654  54.5102315  51.5152816  76.2591478  53.8129434  51.6991294
  70.9752381  61.0324062  53.3240607  70.6715519  60.4780050  53.9251014
  70.2731802  61.2116272  52.8368641  70.8268591  60.9768844  53.3410312
  70.0318479  58.3424582  47.8885308  70.3078213  57.6243494  47.4762876
  70.6317148  58.9409502  47.6806414  70.1611743  58.3244953  47.7966070
  69.0370732  68.2473783  58.0312704  68.9291087  68.2575845  58.8974762
  69.2466514  69.0728563  57.8417658  69.0520843  68.3714857  58.1316796
  73.5328999  56.0138099  46.1631903  73.9872746  56.1848660  46.8879748
  74.0069045  55.4006210  45.7629679  73.6697319  55.9488984  46.2105665
  67.0544524  65.4986425  55.4934642  66.4632458  66.1395923  55.4637657
  67.8165548  65.9224042  55.4665941  67.0792785  65.6562264  55.4849789
  67.4505147  56.6588423  56.1602659  67.9106629  56.7327352  56.8977783
  67.4961254  57.4569677  55.8102481  67.5255703  56.7882570  56.2175416
  69.0988497  57.3255118  60.7274687  68.7074062  56.6788465  61.1630464
  69.2674360  57.9166553  61.3468942  69.0659407  57.3169386  60.8837393
  70.8742019  62.7180634  47.2676911  71.6184064  63.1054910  47.5059861
  71.0202715  61.8738059  47.4317398  71.0052604  62.6511106  47.3270880
  72.7921594  54.5130892  52.3008772  71.9457640  54.6853700  52.1750122
  72.7892727  53.7080236  52.6374600  72.6668744  54.4191921  52.3319899
  73.8619895  58.2906107  53.1670830  73.3879849  57.7647869  53.6776141
  74.2338031  57.7435580  52.5985691  73.8469784  58.1322103  53.1585977
  64.2392925  60.2877614  58.5354376  65.1018538  60.1873323  58.4491706
  63.9084708  59.7072323  57.9739948  64.3178121  60.1869240  58.4399782
  75.7903395  59.1842661  46.2296584  75.2626413  59.2671405  45.5402293
  76.2499103  59.9260533  46.2261228  75.7805245  59.3063324  46.1271279
  67.5994711  59.1120063  55.1964794  66.9747781  59.1238455  54.5890747
  67.2640306  59.5880238  55.8456034  67.4580203  59.1838580  55.2021362
  67.7836460  57.4545181  41.2537479  67.4349264  58.1064906  41.7169028
  67.3032905  57.4402294  40.5261350  67.6606704  57.5488235  41.2148570
  64.3120387  67.1720523  56.6368558  63.7820311  66.4812962  56.6863533
  64.5845480  67.1630708  55.8081267  64.2745109  67.0687654  56.5215974
  75.3440477  67.7546225  45.3606241  76.0674676  68.2204338  45.2170814
  74.9041068  67.8219835  44.6103838  75.3856169  67.8330062  45.2291022
  74.5126632  64.6143767  56.6106930  73.8983625  64.0701818  56.9055565
  75.0293917  64.1008004  56.1312746  74.4982295  64.4580176  56.5831158
  73.7522929  65.6848037  54.3451228  73.3250537  65.0597756  53.9116664
  73.7447874  65.4022959  55.1710236  73.6882070  65.5500818  54.4031056
  66.8685456  60.7213210  57.4139662  67.0278943  59.9656534  57.8191384
  66.6878350  61.2704150  58.0680400  66.8650815  60.6907024  57.5702368
  74.8105759  52.8874446  57.9690452  74.3146321  53.0838120  57.2782019
  75.5674821  53.2867114  57.7979254  74.8492584  52.9752180  57.8410589
  72.0808639  56.5616792  54.5593762  72.1051126  56.0276904  53.8706542
  72.3320113  56.0534101  55.2219353  72.1218558  56.4077696  54.5558407
  59.5916229  63.8448287  53.9936906  59.4859678  63.7995131  53.1288991
  58.8416449  64.1902067  54.2751191  59.4651832  63.8889195  53.9074236
  68.3609961  55.2887610  53.9399507  68.4008333  55.7896817  54.6534214
  67.5359626  55.3798004  53.6705430  68.2449487  55.3769426  54.0050045
  69.7824325  61.8048120  56.2373406  68.9516254  61.9721938  56.0308654
  69.7275842  61.4284071  57.0222291  69.6513739  61.7737851  56.3221934
  67.5908108  55.2957013  61.8729816  68.2160811  54.7519146  62.1459249
  67.1358588  54.8151930  61.3037607  67.6156368  55.1446494  61.8291410
  68.1560368  60.0803711  46.7663523  68.2963329  60.5776176  47.4692165
  68.6542901  59.3790006  46.9077737  68.2501449  60.0505690  46.8915102
  68.1860591  60.9470822  44.0956100  68.8205670  61.5431247  44.0305562
  68.2686202  60.6474280  44.9101970  68.2917142  60.9911731  44.2059187
  69.7639574  56.8784798  44.0701542  70.0855415  56.3987880  43.4160805
  70.0266517  57.6884444  43.8792354  69.8505599  56.9274696  43.9457034
  75.1598729  56.2656992  56.4325021  75.5853800  55.8129518  55.8208548
  74.5455722  55.7117063  56.7089809  75.1327374  56.1170968  56.3830047
  64.6913579  63.1438663  47.3645646  65.2005808  63.7403171  47.7456952
  65.1647851  62.8764637  46.6822066  64.8356954  63.1924479  47.3200169
  73.5992951  52.7372092  49.8415598  72.9561269  52.5869738  50.4100737
  73.2592358  52.4914437  49.0764703  73.4538029  52.6784214  49.8118614
  67.0504110  59.7794922  50.2318827  66.3316100  60.1959054  50.4991690
  67.4216473  60.3449161  49.6810465  66.9996042  59.9244203  50.1901634
  76.3503691  60.4122771  56.1220822  76.3301619  60.2306066  56.9755601
  76.3982892  61.2834789  56.0980406  76.3538332  60.5139309  56.2444117
  72.8250685  58.8192922  45.5692206  72.2315524  59.1409918  45.0176773
  72.8625962  57.9734017  45.3613312  72.7425074  58.7417250  45.4574977
  75.7008501  58.7772426  48.9993956  75.4722194  58.8005128  48.1572315
  75.9606578  57.9529893  49.1188967  75.7054689  58.6588506  48.8919154
  69.9827730  60.6306899  58.6019057  69.4706633  60.0228082  58.9604088
  69.8107226  61.3463492  59.0693032  69.8817367  60.6470198  58.7235280
  64.8293444  59.0744475  61.2521418  64.6596035  59.7345849  60.7069625
  64.3859394  59.2851036  61.9733908  64.7392778  59.2030457  61.2783048
  68.7553264  57.3148972  50.2948152  69.2310630  57.6766052  49.6598333
  68.2541863  57.9705440  50.5748295  68.7518623  57.4643161  50.2424893
  73.8596800  58.5531144  61.0421312  74.4168230  58.3244953  60.4099778
  73.5357865  59.3136809  60.7656525  73.8943210  58.6314981  60.9077809
  61.7295509  61.9791340  56.5109908  61.1822228  61.3091986  56.6290777
  62.5187887  61.6121188  56.5753376  61.7647693  61.8256326  56.5378609
  70.7979917  59.4590172  43.6621536  71.1778882  59.4769801  42.8772651
  70.0572513  59.9044161  43.5412383  70.7448755  59.5271947  43.5285104
  78.4265208  57.7672363  49.2497115  78.4259434  57.6121020  50.1081391
  78.2221388  58.6135351  49.1938500  78.3964985  57.8692984  49.3685054
  60.4882478  61.1912148  53.6655931  60.3104240  60.7388757  54.3910847
  60.2001501  61.9938309  53.8494409  60.4195432  61.2434706  53.7999434
  76.1506060  62.4469865  52.9033322  76.6459725  61.7292860  52.8637342
  75.3405835  62.1440663  52.7887809  76.1049953  62.2967512  52.8807047
  71.5964671  66.2967678  45.0530326  70.7875994  65.9734352  45.0063636
  72.1039580  65.5900901  44.9858575  71.5514338  66.1448995  45.0360620
  62.2254948  63.7239872  50.7777690  61.3600468  63.7125562  50.6660462
  62.3253764  63.5370095  51.6248830  62.1129115  63.6945933  50.8866635
  67.8511958  73.4937770  54.3507796  68.1658517  74.3074159  54.3585578
  68.2605372  73.1087989  55.0189955  67.9580056  73.5566473  54.4511888
  74.8036478  68.9107817  51.9211608  75.2747656  69.6248080  52.0901593
  75.1396656  68.3106567  52.4571477  74.9231593  68.9279281  52.0243984
  71.7205973  53.6835288  58.8769703  71.8533878  52.8866281  59.2050678
  72.1051126  54.2101691  59.4567978  71.7962302  53.6435204  59.0113206
  74.7938328  50.6065614  55.4750796  73.9884292  50.4963343  55.7918634
  74.6645063  50.7078069  54.6180662  74.6558461  50.6049284  55.3958836
  78.2504289  56.7711106  56.0690493  77.6667277  57.2720312  55.6568060
  78.5708583  56.2640662  55.4354816  78.2117464  56.7702941  55.9149000
  70.7899088  55.6851700  46.3449168  71.6114782  55.8550013  46.1030862
  70.3268739  55.8398961  45.6215465  70.8430250  55.7333433  46.2020812
  69.3794420  53.6794463  57.1247596  69.9238833  53.3385589  57.7151938
  69.4331355  54.5379924  57.2668881  69.4683539  53.7549722  57.2329470
  65.1924978  67.4410879  53.9986404  65.7969836  67.4006713  53.3700225
  64.9852291  68.2882031  54.0290460  65.2513876  67.5598881  53.9102521
  60.4276261  66.4245496  53.8685327  60.3300539  65.6141768  54.1775384
  61.2105130  66.4037290  53.4831596  60.5292397  66.3012586  53.8572190
  34.8643715   0.8516944  35.6321727  34.1126615   0.4732482  35.4037772
  35.3129727   0.8835378  34.8840537  34.8193382   0.8002551  35.4879229
  40.3168675   1.2742313  31.0607274  39.9820043   1.9519235  30.6251496
  40.8295545   0.8847625  30.4724146  40.3434256   1.3166892  30.9094065
  39.8572966   3.2256582  37.0018385  40.2412346   3.7943481  36.4623161
  39.7932107   2.5006092  36.5224202  39.9046393   3.2032046  36.8512248
  36.4428471   0.8635336  37.8984499  36.5438834   0.0535690  38.2081627
  35.8470217   0.7692282  37.2684178  36.3701010   0.7300364  37.8510738
  36.2829211   5.7812925  39.2999355  36.9266666   6.2226089  39.6895514
  36.6085466   4.9766351  39.2129614  36.4261040   5.7278120  39.3444833
  29.6393516  -3.1144377  37.5236833  29.4043700  -3.9476725  37.4169102
  29.7779156  -2.8339712  36.7098034  29.6249178  -3.1960874  37.3879188
  36.9849791  -1.2075100  34.6719217  37.3065632  -0.6669893  34.0680525
  37.6321887  -1.7778329  34.8041507  37.1275846  -1.2115925  34.6026252
  31.2010840   1.7641293  38.7993039  30.7178418   2.4891783  38.7752623
  32.0134158   2.0617423  38.9103197  31.2501588   1.9143647  38.8120318
  37.2724994   0.5573474  41.4042854  36.7551936   0.1980889  40.8004162
  37.9699386   0.0335649  41.4148920  37.2990575   0.4271162  41.3173112
  40.9288586   1.0068288  47.3659027  41.0171932   0.8194429  48.2137237
  41.3578299   0.3605718  46.9663873  41.0050689   0.8831296  47.4330778
  38.4959046   0.2899448  46.3476689  37.9329881  -0.1227942  46.8716350
  39.2580070   0.2152354  46.7669832  38.5253495   0.2176849  46.4869689
  34.0555037   2.2797469  38.9513319  34.7575617   1.7649458  39.0086076
  33.9752521   2.6071621  39.7560194  34.1478798   2.2511696  39.0786111
  33.3805813  -1.5296179  38.4598927  34.2194712  -1.2973246  38.5072689
  33.4117582  -2.3991867  38.3905962  33.5087530  -1.6239232  38.4563572
  34.0058516  -1.1095303  42.7612233  34.5456741  -1.2524172  43.4315605
  33.3228462  -0.7098553  43.1296259  33.9850670  -1.0715633  42.9146654
  41.0408646   0.4377307  50.0302810  41.8249062   0.5508155  50.3958552
  40.8405240  -0.3881556  50.2261496  41.1274671   0.3324027  50.1137196
  41.1979039   2.3487409  43.6769266  40.3994285   2.1086909  43.9343134
  41.6465050   2.4001802  44.4236313  41.1453650   2.3209800  43.8254190
  29.8189075  -4.1036233  40.1958398  29.6364648  -4.1289347  39.3430691
  30.5538744  -3.6337295  40.2347307  29.9003139  -4.0374871  40.0756317
  36.1582134  -1.8427443  37.2302340  36.7956081  -2.0815696  37.7754134
  36.5837206  -1.6390284  36.4955501  36.3158301  -1.8476433  37.2019498
  30.8494777   0.3960893  41.1136644  30.8898922   0.6675744  40.2856424
  31.4089301   0.9202801  41.5294432  30.9378123   0.5136648  41.0528532
  38.5403606  -1.3655021  38.9096127  38.6142615  -1.5279849  39.7637977
  39.3573113  -1.1764831  38.6656608  38.6719965  -1.3618278  38.9994152
  32.3009363  -1.0197158  35.9390570  31.4747481  -0.7735421  35.8124849
  32.3621354  -1.0985077  36.8052628  32.1883530  -0.9952209  36.0479515
  37.0808192   1.5979723  33.6409600  37.3706491   1.2068704  32.9168827
  37.8111673   1.7796427  34.0814875  37.2315076   1.5673536  33.5992407
  35.0214108   3.5747105  36.7069750  34.8014403   3.2844460  37.4996417
  34.8008630   2.9162060  36.1787662  34.9561702   3.4346813  36.7458658
  37.1882063   4.9476495  35.4900442  37.8406121   4.4152937  35.7191468
  36.4907672   4.5945147  35.8768316  37.1812781   4.8166018  35.5812610
  34.1363328  -2.6984327  34.8967816  34.8909296  -2.3171288  35.1103279
  33.5433941  -2.2473184  35.3514513  34.1600042  -2.5755500  34.9950695
  35.4561555  -1.5275766  40.2707932  34.9342308  -1.3875474  40.9559797
  35.8435575  -2.2865102  40.4610049  35.4365256  -1.6190242  40.4009008
  41.6528560   0.2119693  34.2568501  41.4115236  -0.5212446  33.8495566
  41.8329893   0.7606550  33.6034834  41.6436184   0.1842084  34.0998724
  36.0208040   2.1785014  43.3537787  36.1697604   1.6187930  42.7011192
  36.8008042   2.2577016  43.7370306  36.1582134   2.1070579  43.3134737
  38.5461341   2.3499657  44.6322278  38.4705012   1.6808467  45.1873066
  38.4751200   3.0517445  45.1462944  38.5241948   2.3544564  44.7899126
  39.2031588   0.8700656  35.4645884  39.9681479   0.6010299  35.1428548
  39.1009678   0.3850666  36.1815947  39.3013083   0.7590220  35.5225712
  37.9352975   5.7567977  43.0900279  38.4248905   5.0578766  42.9075944
  37.3637207   5.4591847  43.6776336  37.9237505   5.6094200  43.1501320
  38.4289321  -0.4955250  32.2140185  38.4982141  -1.3540711  32.3533186
  39.2077776  -0.2783369  31.8859210  38.5542171  -0.5902386  32.1857343
  42.8196809   1.9282451  36.4276679  42.4276600   1.6249167  35.7099545
  42.9749881   2.7651541  36.2381633  42.7850398   2.0066288  36.2933176
  35.8123806  -1.3704010  44.9652751  35.7044161  -1.3601948  45.8314809
  36.0219587  -0.5449230  44.7757705  35.8273917  -1.2462935  45.0656843
  43.5887114   1.3317944  39.8606713  43.3906803   1.8208759  39.1662924
  42.9674825   1.5359186  40.4390847  43.4674678   1.4334482  39.8429936
  31.0873460  -2.4457270  43.5708605  30.5573384  -3.1364831  43.6203580
  31.3598553  -2.4547085  42.7421314  31.0498182  -2.5490138  43.4556021
  26.3669302  -5.7729506  40.9276953  26.2612751  -5.8182661  40.0629037
  25.6169522  -5.4275725  41.2091238  26.2404905  -5.7288598  40.8414283
  42.3797400   2.1989137  32.4544349  41.6626710   2.0250000  31.9891586
  43.0304138   1.9641710  31.9219835  42.3699250   2.1384930  32.3073567
  39.0132105   3.2150438  41.4297412  38.7897759   2.4569267  41.7981438
  38.5241948   3.2448459  40.7077852  38.9075554   3.1072662  41.3774153
  37.6610562   3.4350896  38.8834497  37.2470960   2.7725026  38.4938338
  38.3457936   3.5828755  38.3630191  37.7008934   3.3591554  38.7490994
  41.0275856   2.5940981  39.6358113  40.6292139   2.7043252  38.8678934
  40.4127076   2.8023048  40.2184673  40.8774745   2.6414549  39.6089413
  34.6265031   3.8759978  41.2847843  34.9411590   4.6896366  41.2925624
  35.0358445   3.4910196  41.9530002  34.7333129   3.9388680  41.3851934
  43.6666536   0.9031338  51.0343727  43.7763501   0.1139898  51.3900474
  43.9957432   0.8137274  50.2318065  43.7318941   0.7737191  50.9686117
  31.9678052  -2.1766914  40.9326451  32.5722909  -2.2171080  40.3040272
  31.7605364  -1.3295762  40.9630507  32.0266949  -2.0578911  40.8442568
  41.7821824   0.0899031  42.1488688  42.6020198  -0.0538003  42.4104984
  41.5015901   0.7145230  42.6905126  41.8618567   0.1609383  42.2676628
  27.2029334  -3.1932296  40.8025374  27.1053612  -4.0036025  41.1115431
  27.9858204  -3.2140503  40.4171642  27.3045470  -3.3165206  40.7912237
  58.2535474   7.7463883  35.1131565  58.2229478   8.6008520  35.2849834
  58.8516823   7.4459176  35.6717708  58.3372632   7.8280380  35.2206367
  51.4535159   6.8339534  39.8684495  50.5973054   6.9948032  39.9193612
  51.5002813   5.9631598  39.8889556  51.3334270   6.7290336  39.8790561
  54.7628875  13.1026060  49.4744951  55.4695643  12.6078090  49.6031886
  54.9516811  13.5435141  48.7447609  54.8956781  13.0944410  49.3853997
  51.2901259  16.7927621  31.0607274  50.9552627  17.4704543  30.6251496
  51.8028129  16.4032933  30.4724146  51.3166840  16.8352200  30.9094065
  50.8305550  18.7441890  37.0018385  51.2144929  19.3128789  36.4623161
  50.7664691  18.0191400  36.5224202  50.8778977  18.7217353  36.8512248
  54.2986980   8.8931578  42.5116147  54.8442940   9.5716664  42.5710117
  54.2403856   8.7519039  41.6517728  54.3702894   8.9723580  42.3928207
  56.0752049  10.3216185  33.3849875  55.9591575  11.0723871  33.8142013
  56.8707935  10.0640138  33.6345962  56.1756638  10.3951032  33.4853966
  40.6126099  12.4040931  37.5236833  40.3776284  11.5708583  37.4169102
  40.7511740  12.6845596  36.7098034  40.5981762  12.3224434  37.3879188
  42.9116187   4.5726661  40.4221141  42.2921218   3.9819308  40.2531155
  42.8100050   5.1638096  39.7885464  42.8053862   4.5730744  40.3026130
  50.0084082   6.3126203  34.7553604  50.7064247   6.4914330  35.2475067
  50.3236415   5.7896542  34.1323993  50.1579419   6.2619975  34.7355614
  42.6385320   8.1178943  42.6664710  42.5144016   8.7041388  43.3014529
  43.2903604   7.6239139  42.9676985  42.7158969   8.1317747  42.8050639
  47.6643661  11.2940660  41.9452221  48.3092663  10.8013103  41.6263169
  47.9045438  11.4365446  42.7718299  47.7954246  11.2418102  42.0201754
  50.2029752  14.1395566  41.5959113  50.4852995  13.3446971  41.3745869
  50.9315912  14.6176153  41.6164174  50.3519316  14.0930163  41.5662128
  48.1810946   1.6818600  38.8374878  47.8514276   2.1329743  38.1678577
  47.5055948   1.6034763  39.3847885  48.0321382   1.7369735  38.8198102
  53.7981354  11.0523829  31.6964164  53.7132649  11.9084796  31.8413733
  54.2865737  10.7768153  32.3646324  53.8570251  11.1381151  31.8166246
  54.7299787   7.6708623  33.1961900  54.2011259   7.8868257  33.8559206
  55.2524807   8.3644762  33.1162869  54.7288240   7.8051760  33.2817499
  60.1847840  13.2454928  38.5694944  59.3545543  13.4565572  38.7328361
  60.1357093  12.4191982  38.2937228  60.0554576  13.1544534  38.5532310
  46.6199395  11.5671840  31.9969368  46.0356610  12.0721872  32.4035232
  46.2169490  11.3414227  31.2565960  46.4738699  11.6080089  31.9474393
  51.9021170  16.5253596  47.3659027  51.9904516  16.3379737  48.2137237
  52.3310882  15.8791026  46.9663873  51.9783272  16.4016604  47.4330778
  51.0776610   7.8137492  30.4738288  51.3172613   8.0215476  29.6613631
  51.3992451   7.0095001  30.5827233  51.1613767   7.7251593  30.3698841
  59.6801799   5.8925329  42.3645365  58.8430220   5.9627516  42.5992960
  59.6490029   5.8949823  41.4919668  59.5520081   5.9035556  42.2704913
  46.0766528   8.0358364  48.0793734  46.2487031   7.9264259  48.9279015
  46.6135885   8.6812770  47.8424926  46.1811532   8.1150366  48.1698831
  44.7423964   2.1501207  31.0175939  44.5599538   2.3673088  30.1916932
  45.6049578   2.2640220  31.0734554  44.8428554   2.1991105  30.9030426
  54.4031984  10.0881005  37.9557257  55.1589499  10.5212519  37.9946166
  54.5094309   9.4385775  38.5291893  54.5302155  10.0558489  38.0455283
  57.4412155  13.9154282  38.7059660  57.0047387  13.9191025  39.4618631
  57.1075071  14.5959781  38.2739237  57.3274775  14.0166738  38.7540492
  52.0141229  15.9562615  50.0302810  52.7981646  16.0693463  50.3958552
  51.8137824  15.1303752  50.2261496  52.1007254  15.8509335  50.1137196
  40.3828245  10.6290295  42.9146654  40.1166660   9.8129412  43.0737644
  40.3966809  10.6743451  42.0442170  40.3452967  10.5147200  42.8100136
  44.2885992   5.4275380  29.5298412  43.5744169   5.1413559  29.9420845
  44.7729960   5.7672005  30.1704800  44.2545355   5.4357029  29.6854047
  45.1326851   4.1668674  45.5613662  44.4398648   3.6965653  45.8074393
  45.7487178   3.9406978  46.1355369  45.1211381   4.0635805  45.6822814
  60.5756502  10.6335202  37.5979297  61.2372936  10.0725871  37.4975206
  59.9347914  10.1387233  37.9231988  60.5785369  10.4771611  37.6311637
  51.4633309  13.9305334  29.9060220  51.8784458  13.5990357  29.2144716
  50.6325239  13.6974236  29.7780357  51.4021318  13.8476590  29.7851068
  40.7921658  11.4149075  40.1958398  40.6097231  11.3895961  39.3430691
  41.5271327  11.8848012  40.2347307  40.8735722  11.4810437  40.0756317
  56.8621332  11.6500585  37.3391286  57.0976922  11.7945783  36.5118137
  57.0110896  12.4142993  37.7322800  56.9187136  11.7839639  37.2754890
  43.8567410   8.1334077  46.7040507  44.5807382   8.1187108  47.1905402
  43.9583546   8.8429433  46.2062475  43.9785619   8.2358781  46.7019294
  58.6911789  10.4902251  35.1760890  59.0220006  11.0229891  34.5700985
  59.2644877  10.5441138  35.8322841  58.8245468  10.5771819  35.1838671
  51.2312359  11.6133162  51.5689454  50.4385340  11.9276674  51.7542074
  51.3461286  11.8284631  50.7310239  51.1307770  11.6916999  51.4727789
  53.9043678   8.3367153  35.8584470  53.9990533   9.0756447  36.3124095
  53.2802522   7.9084629  36.2919034  53.8252708   8.3828474  35.9892617
  52.1596152  11.5153366  46.5074751  52.7335014  10.8780610  46.6623315
  52.0810956  11.5157448  45.6384408  52.2329387  11.4218477  46.4021162
  40.7592569   8.2942575  40.3457465  41.3366071   8.1579026  40.9849710
  40.0606630   7.8378359  40.6003049  40.7413590   8.2064842  40.4779755
  54.1566700  10.1815893  29.0921422  54.0746862  10.2518080  29.9576409
  54.7946420  10.7445637  28.9005162  54.2386537  10.2754864  29.1911371
  46.4894583   7.5014393  39.0460843  45.9144174   7.6606562  39.6824804
  46.1130259   6.8649803  38.5829293  46.3497395   7.4312206  39.0715401
  50.1567872   5.9737743  43.9053221  49.7682304   5.5491960  43.2505413
  49.4922570   6.2219892  44.4130248  50.0014799   5.9476464  43.8841089
  36.2351402   7.1454468  37.0605284  36.3211654   6.7686337  37.8418813
  36.8627199   6.7714914  36.5825242  36.3407953   7.0339950  37.1050761
  51.2606810  10.2036347  32.1030028  52.0747449  10.4951240  31.9912800
  51.1965951   9.5496210  31.5288321  51.3709549  10.1501542  32.0018866
  57.4816300  12.8862343  46.5159604  57.2454937  12.0550408  46.3971665
  58.1259529  12.8347951  47.1014448  57.5410971  12.7560031  46.5845498
  47.7717533   8.8960155  31.5677230  48.1562686   8.6767861  32.3193775
  47.5229153   9.7223100  31.6978306  47.7919606   8.9858301  31.6978306
  47.9386073   2.1766570  51.2839814  47.6239515   2.9466132  51.0209377
  47.6176006   1.6136826  50.6992041  47.8444993   2.2076838  51.1581164
  58.5052721  12.6706792  42.5787898  58.1998538  13.4034849  42.9401214
  57.7858936  12.2644722  42.2980684  58.3540063  12.7188525  42.5901036
  64.2054513   9.3099793  41.9056243  64.1379013   9.3295752  41.0358829
  64.1910175  10.1530120  42.1311913  64.1933269   9.4373528  41.8108720
  43.2741947  14.4988150  35.9390570  42.4480064  14.7449887  35.8124849
  43.3353938  14.4200231  36.8052628  43.1616114  14.5233099  36.0479515
  45.4917970   0.5657091  36.8986010  44.6240396   0.6379691  36.9643620
  45.7793175   1.3679170  37.0873985  45.4057719   0.6951238  36.9360777
  61.9913130   8.0844179  40.1802837  62.5421052   7.4512248  40.4199929
  61.9757245   8.6159572  40.8718341  62.0698326   8.0693127  40.3181695
  48.6435521  11.9182776  44.7262731  48.1447215  12.6298544  44.8047619
  49.4535745  12.2383443  44.6880893  48.6891628  12.0709625  44.7319299
  44.9063638  11.1805729  38.9725451  44.6176887  10.5543201  39.5071179
  45.7746987  11.1226017  39.0390132  44.9923890  11.0793274  39.0616406
  55.6941536   6.3240513  39.2907433  55.3506302   5.6030848  39.6414683
  55.7934579   6.1154364  38.4485792  55.6583579   6.1864716  39.2179113
  45.1095912  12.8200980  34.8967816  45.8641880  13.2014019  35.1103279
  44.5166525  13.2712124  35.3514513  45.1332625  12.9429808  34.9950695
  56.1554565  12.7866217  34.8331421  56.7212598  13.4459427  34.7489964
  55.5082469  13.1315915  35.3047824  56.1433322  12.9348158  34.8904178
  47.5702579   4.7763821  50.0225029  46.7602355   5.0821600  49.9114871
  48.0477266   5.4969403  50.1377613  47.5206058   4.9278422  50.0232100
  43.4185323   4.0415351  34.3402887  43.1310118   3.6716621  33.6034834
  44.1055791   4.5110206  34.0786591  43.4774220   4.0562320  34.1917962
  52.6261143  15.7305001  34.2568501  52.3847819  14.9972862  33.8495566
  52.8062476  16.2791858  33.6034834  52.6168767  15.7027392  34.0998724
  46.2538994   7.9068299  35.7870291  46.9761646   8.0709457  35.3274097
  45.7746987   8.6277964  35.6809631  46.2902725   8.0366528  35.7035905
  54.2132502   4.2432098  41.1666976  53.3743602   4.2693376  40.9305239
  54.2836869   4.8902833  41.7472323  54.1000895   4.3428223  41.2176093
  43.9046611  10.3126371  44.8924431  44.4167708  10.5910624  44.2433191
  43.6182953  11.0515665  45.2587244  43.9381474  10.4628725  44.8514309
  58.0890026   9.4500084  38.4528218  58.0024000   9.6055510  39.3062997
  57.6340505  10.0938160  38.0787623  58.0093282   9.5675839  38.5235325
  40.9913517   4.8196563  35.1888168  41.0929654   5.6222724  35.5169143
  41.7869404   4.6183899  34.8911248  41.1241423   4.9082462  35.1923523
  47.4230336   2.4052760  44.9525473  47.2313533   2.4207894  45.8024896
  48.2728932   2.6016434  44.9292128  47.5206058   2.4367111  45.0748767
  41.8077249   4.9343741  42.9309289  41.6662741   4.0827682  43.0553797
  42.0917813   4.9772402  42.1071495  41.8285095   4.8143491  42.8276913
  51.9615842   6.7710831  37.0753777  51.7150556   6.6906582  37.9090566
  52.2900965   5.9864299  36.8816305  51.9737085   6.6437097  37.1701301
  55.8563890  13.4794191  40.8640559  55.7178250  14.1775237  41.3689301
  55.0763888  13.3242847  40.5076740  55.7207117  13.5594357  40.8866833
  54.1941976   9.7790566  47.1162940  54.1890014   8.9070383  47.1205367
  54.9002969   9.9778735  46.6432396  54.2986980   9.6794440  47.0469976
  47.9212869   9.5067550  46.4876761  48.0656245  10.0868758  45.8519871
  48.2688517   9.8843847  47.1926615  47.9940330   9.6488254  46.4975755
  50.0932786   8.7057718  44.2701892  49.3456100   8.8988733  43.8650170
  50.2474311   7.8802938  44.0326013  50.0055214   8.6122830  44.1747298
  57.3517263  12.8372445  31.6257058  56.9724072  12.0509582  31.6186347
  56.6883509  13.3859302  31.4828702  57.1975738  12.8017268  31.6037855
  50.3334563   2.6008269  45.1597296  50.7907177   3.3332243  45.2870088
  50.4090892   2.1774734  45.9184552  50.4125533   2.6465507  45.2898372
  42.5767554   2.8474089  46.2486740  42.0409744   2.2354447  46.5647507
  42.6385319   3.4222225  46.9020406  42.5063187   2.8421017  46.3922166
  48.2116941   4.5910373  42.0039120  47.4213016   4.4101833  42.3256456
  48.6077564   3.8137326  41.9869414  48.1533817   4.4497834  42.0491668
  52.6982832  13.4198147  27.4445833  53.4655817  13.4798272  27.0351685
  52.2514141  12.8478589  26.9602152  52.7456259  13.3434723  27.3123544
  53.5960627  12.2252803  39.7298566  52.9205629  11.9938035  40.2311953
  53.6053004  11.6173986  39.1040671  53.4979132  12.1011728  39.7114718
  50.7254771   7.0670632  46.4862619  50.6613913   7.9280589  46.3582755
  50.8651959   6.7502625  45.6858170  50.7370241   7.1470799  46.3490832
  55.5977362  15.0817936  31.9608744  55.6797199  15.8884922  31.6370195
  56.0827104  15.1013895  32.6849517  55.6814520  15.2038598  32.0195642
  49.4073865   9.7602771  40.6278822  48.9836114   9.9607271  39.8917840
  49.2318720   8.9131619  40.7403122  49.3184746   9.6651553  40.5352512
  44.6956310  10.2554823  36.0606794  44.8520929  10.1901626  36.9162786
  45.0356903  11.0303375  35.8485474  44.7689545  10.3604021  36.1561388
  51.2335455   9.6312706  34.9300157  51.7751000   9.1283088  35.3938778
  51.5482014   9.5777901  34.1189643  51.3599852   9.5492127  34.8783970
  55.1052562  13.8415354  52.0427070  55.9187428  13.5700503  52.2032202
  54.9447529  13.5422894  51.2387266  55.2022511  13.7570280  51.9472476
  52.3824724   4.5249011  44.9822458  52.5966694   3.8859925  44.4285812
  51.7658623   4.9694835  44.5530320  52.3230054   4.4959155  44.8372889
  53.7929392  17.4467759  36.4276679  53.4009184  17.1434474  35.7099545
  53.9482464  18.2836849  36.2381633  53.7582982  17.5251596  36.2933176
  41.2690572   7.4389773  36.3767561  41.6489537   7.8574318  35.7127829
  40.6945937   8.0203229  36.6836405  41.2401897   7.5867632  36.3244302
  54.5463812   6.1338076  45.9205765  53.7340494   5.8263967  46.0018938
  55.0053747   5.6537076  46.4848477  54.4944197   6.0174569  46.0160359
  53.9569067  14.0117748  36.3682709  53.5983722  14.1832391  37.1446742
  53.4707778  14.4730954  35.8110708  53.8327764  14.1056719  36.4007978
  48.7457432   9.6916914  28.9082944  49.0349957  10.4681796  29.1826518
  48.8329231   9.1805645  29.6097443  48.8011689   9.7308832  29.0525442
  51.6417320   7.5398148  50.7034467  52.1116951   8.1640264  51.0902341
  51.6879200   6.8715123  51.2627682  51.7185196   7.5332828  50.8434539
  55.1173806  14.9021644  47.3149910  55.7553527  14.4081840  46.9812366
  54.4747898  14.8299045  46.7302137  55.1168033  14.8180653  47.1792265
  56.8430806   6.7510790  41.8815826  56.4158414   6.6637139  41.1263925
  56.2056859   6.8588566  42.4670670  56.6860414   6.7543450  41.8561267
  55.1728063  15.5941452  43.9555267  55.9620441  15.2430517  44.0757349
  55.3471661  16.4077841  43.6931901  55.3148345  15.6627310  43.9343135
  44.9121373   9.0050178  41.0083056  44.0709380   8.9054052  41.2161950
  45.1211381   9.7745658  41.3597376  44.8186066   9.1042221  41.0910371
  42.3896940   6.6269715  38.8367806  41.9953638   6.7012727  38.0617916
  41.8337057   7.0127661  39.3876168  42.2499753   6.6951490  38.8035466
  48.7238038   6.9331577  40.2580653  48.4201176   6.3787566  40.8591061
  48.0217459   7.1123787  39.7708688  48.5754248   6.8776360  40.2750359
  47.7804135   4.2432097  34.8225355  48.0563870   3.5251010  34.4102923
  48.3802805   4.8417017  34.6146461  47.9097400   4.2252468  34.7306116
  44.8030181  11.3993940  42.4274689  44.2118114  12.0403439  42.3977704
  45.5651205  11.8231558  42.4005988  44.8278442  11.5569779  42.4189836
  45.1990804   2.5595938  43.0942706  45.6592286   2.6334868  43.8317830
  45.2446911   3.3577192  42.7442528  45.2741359   2.6890085  43.1515463
  46.8474154   3.2262633  47.6614733  46.4559719   2.5795980  48.0970511
  47.0160016   3.8174068  48.2808989  46.8145064   3.2176901  47.8177439
  60.9220603  11.2299710  43.4251967  60.9803726  11.6786359  44.1711943
  60.2887070  11.6398523  42.9882047  60.8371898  11.3573445  43.4704515
  54.5619697  16.8503252  39.8606713  54.3639386  17.3394066  39.1662924
  53.9407408  17.0544494  40.4390847  54.4407262  16.9519790  39.8429936
  48.6227676   8.6188149  34.2016957  49.3669721   9.0062425  34.4399907
  48.7688372   7.7745574  34.3657445  48.7538261   8.5518622  34.2610927
  51.6105552   4.1913622  40.1010877  51.1365506   3.6655384  40.6116188
  51.9823687   3.6443095  39.5325738  51.5955441   4.0329619  40.0926024
  41.9878582   6.1885129  45.4694423  42.8504195   6.0880838  45.3831752
  41.6570365   5.6079838  44.9079995  42.0663778   6.0876756  45.3739828
  57.8742282   9.2515998  41.5117657  57.6340505   8.4122413  41.5160084
  58.3534289   9.3316165  42.2358431  57.9094466   9.1397398  41.6192460
  53.5389051   5.0850177  33.1636631  53.0112070   5.1678921  32.4742339
  53.9984759   5.8268048  33.1601275  53.5290902   5.2070839  33.0611326
  59.8747469   6.0317455  39.4646916  59.6357239   5.9913289  38.6267701
  60.0381370   6.8788607  39.5912637  59.8637773   6.1509540  39.3600398
  56.4793499  10.4167404  45.3951962  57.2027698   9.9639931  45.2162981
  56.2143462  10.6972070  44.6124289  56.5474773  10.3918373  45.2530677
  45.3480368   5.0127578  42.1304841  44.7233438   5.0245970  41.5230793
  45.0125963   5.4887753  42.7796081  45.2065860   5.0846095  42.1361409
  45.5322116   3.3552696  28.1877526  45.1834921   4.0072422  28.6509075
  45.0518562   3.3409809  27.4601397  45.4092360   3.4495750  28.1488617
  42.0606043  13.0728038  43.5708605  41.5305968  12.3820477  43.6203580
  42.3331137  13.0638223  42.7421314  42.0230766  12.9695170  43.4556021
  53.0926134  13.6553740  32.2946288  53.8160333  14.1211853  32.1510861
  52.6526725  13.7227350  31.5443885  53.1341826  13.7337577  32.1631069
  52.2612289  10.5151283  43.5446977  51.6469282   9.9709333  43.8395612
  52.7779574  10.0015519  43.0652793  52.2467951  10.3587692  43.5171205
  51.5008586  11.5855553  41.2791275  51.0736194  10.9605271  40.8456711
  51.4933530  11.3030474  42.1050282  51.4367727  11.4508333  41.3371103
  44.6171113   6.6220726  44.3479709  44.7764600   5.8664050  44.7531431
  44.4364007   7.1711665  45.0020447  44.6136472   6.5914539  44.5042415
  49.8294296   2.4624307  41.4933809  49.8536783   1.9284419  40.8046589
  50.0805769   1.9541616  42.1559400  49.8704214   2.3085211  41.4898454
  37.3401886   9.7455802  40.9276953  37.2345335   9.7002646  40.0629037
  36.5902106  10.0909583  41.2091238  37.2137488   9.7896710  40.8414283
  46.1095618   1.1895125  40.8739554  46.1493990   1.6904332  41.5874261
  45.2845283   1.2805519  40.6045477  45.9935144   1.2776942  40.9390092
  48.2925231  10.7555865  48.9759848  47.4420861  10.8927580  49.1117493
  48.4553359  10.0219644  49.4207550  48.1909094  10.6669967  49.0615447
  47.5309981   7.7055635  43.1713453  46.7001911   7.8729453  42.9648701
  47.4761499   7.3291586  43.9562338  47.3999396   7.6745366  43.2561981
  45.3393765   1.1964528  48.8069863  45.9646468   0.6526661  49.0799296
  44.8844245   0.7159446  48.2377654  45.3642025   1.0454009  48.7631457
  45.9046025   5.9811227  33.7003570  46.0448986   6.4783691  34.4032212
  46.4028558   5.2797521  33.8417784  45.9987106   5.9513205  33.8255149
  45.9346248   6.8478338  31.0296147  46.5691327   7.4438763  30.9645609
  46.0171858   6.5481795  31.8442017  46.0402799   6.8919246  31.1399234
  58.9128813   9.3793815  43.8982511  59.5046654  10.0191066  43.9300709
  59.3487808   8.6816852  44.1874578  59.0647245   9.3712165  43.9463344
  47.5125230   2.7792313  31.0041589  47.8341071   2.2995396  30.3500851
  47.7752174   3.5891959  30.8132401  47.5991256   2.8282211  30.8797081
  50.7422203  13.8011188  44.5240405  50.2347294  14.3547034  44.9681036
  50.4448849  13.8619477  43.7059180  50.6227088  13.8917499  44.4688862
  42.4399235   9.0446178  34.2985693  42.9491465   9.6410686  34.6796999
  42.9133508   8.7772152  33.6162113  42.5842611   9.0931994  34.2540216
  53.3529983  17.7174445  32.4544349  52.6359293  17.5435307  31.9891586
  54.0036721  17.4827017  31.9219835  53.3431834  17.6570238  32.3073567
  55.9377955   6.5939034  36.1985654  55.2669145   7.1368736  36.0698719
  56.6317705   7.0633889  35.9567349  55.9406822   6.7437305  36.1441182
  44.7989767   5.6802437  37.1658874  44.0801756   6.0966570  37.4331737
  45.1702129   6.2456676  36.6150512  44.7481699   5.8251719  37.1241681
  54.0989348   6.3130286  43.0560869  54.0787275   6.1313581  43.9095648
  54.1468549   7.1842304  43.0320453  54.1023989   6.4146824  43.1784164
  52.0435678  12.9017478  48.9809346  52.0031533  12.2567155  48.3954502
  52.8558996  12.8454095  49.2934758  52.1578831  12.7976445  48.9406295
  52.0008440  18.1126289  39.6358113  51.6024723  18.2228559  38.8678934
  51.3859659  18.3208355  40.2184673  51.8507329  18.1599857  39.6089413
  50.5736342   4.7200437  32.5032253  49.9801181   5.0417433  31.9516820
  50.6111619   3.8741532  32.2953359  50.4910731   4.6424765  32.3915024
  53.4494158   4.6779941  35.9334003  53.2207851   4.7012643  35.0912361
  53.7092234   3.8537408  36.0529014  53.4540346   4.5596021  35.8259201
  47.7313387   6.5314414  45.5359103  47.2192290   5.9235597  45.8944135
  47.5592883   7.2471007  46.0033079  47.6303024   6.5477714  45.6575327
  42.5779101   4.9751990  48.1861465  42.4081692   5.6353365  47.6409672
  42.1345051   5.1858551  48.9073954  42.4878435   5.1037972  48.2123095
  46.5038921   3.2156488  37.2288199  46.9796287   3.5773568  36.5938380
  46.0027520   3.8712955  37.5088342  46.5004280   3.3650677  37.1764940
  59.7350282  12.6878256  33.0201204  60.1183888  13.4369612  33.2499301
  58.9394396  12.9344076  32.7613193  59.6744064  12.8347950  33.0158777
  51.6082457   4.4538659  47.9761359  52.1653887   4.2252469  47.3439824
  51.2843522   5.2144325  47.6996571  51.6428867   4.5322496  47.8417856
  39.4781166   7.8798855  43.4449955  38.9307885   7.2099501  43.5630823
  40.2673544   7.5128703  43.5093422  39.5133349   7.7263842  43.4718656
  49.3265574   7.5406312  48.9413366  50.0776901   7.8557989  49.2552920
  49.5188151   7.3385483  48.1147288  49.4656988   7.5573694  48.8656762
  48.5465574   5.3597688  30.5961583  48.9264539   5.3777317  29.8112698
  47.8058170   5.8051676  30.4752430  48.4934412   5.4279462  30.4625151
  38.2368135   7.0919663  40.5995978  38.0589896   6.6396272  41.3250894
  37.9487157   7.8945825  40.7834456  38.1681088   7.1442221  40.7339481
  53.8991716   8.3477381  39.8373368  54.3945382   7.6300376  39.7977389
  53.0891492   8.0448178  39.7227855  53.8535610   8.1975027  39.8147094
  49.3450328  12.1975194  31.9870373  48.5361651  11.8741867  31.9403682
  49.8525237  11.4908416  31.9198622  49.2999995  12.0456510  31.9700667
  39.9740605   9.6247387  37.7117737  39.1086125   9.6133077  37.6000508
  40.0739421   9.4377610  38.5588876  39.8614772   9.5953448  37.8206682
  55.9643535  11.0981068  42.5250497  56.3898607  10.5755490  41.9720922
  55.6000455  11.6961905  42.0039120  55.9730138  11.1091295  42.3659507
  52.5522135  14.8115332  38.8551655  53.0233313  15.5255595  39.0241640
  52.8882313  14.2114082  39.3911524  52.6717250  14.8286797  38.9584031
  54.6399119  16.4216646  51.0343727  54.7496085  15.6325206  51.3900474
  54.9690016  16.3322582  50.2318065  54.7051525  16.2922499  50.9686117
  53.1896081  14.6033266  45.6179347  52.6417027  13.9791150  45.3499413
  53.6509110  14.7927539  44.9023427  53.1763290  14.5392317  45.4729778
  48.5384744   1.5859216  33.2789214  49.3600439   1.7557529  33.0370909
  48.0754395   1.7406477  32.5555512  48.5915907   1.6340949  33.1360859
  42.9410635  13.3418394  40.9326451  43.5455493  13.3014228  40.3040272
  42.7337948  14.1889546  40.9630507  42.9999532  13.4606397  40.8442568
  52.7554407  15.6084339  42.1488688  53.5752781  15.4647305  42.4104984
  52.4748485  16.2330538  42.6905126  52.8351151  15.6794691  42.2676628
  38.1761917  12.3253012  40.8025374  38.0786195  11.5149283  41.1115431
  38.9590787  12.3044805  40.4171642  38.2778054  12.2020102  40.7912237
  69.2268058  23.2649191  35.1131565  69.1962062  24.1193828  35.2849834
  69.8249406  22.9644483  35.6717708  69.3105216  23.3465687  35.2206367
  62.4267743  22.3524842  39.8684495  61.5705638  22.5133340  39.9193612
  62.4735396  21.4816906  39.8889556  62.3066854  22.2475644  39.8790561
  65.7361459  28.6211368  49.4744951  66.4428226  28.1263398  49.6031886
  65.9249394  29.0620449  48.7447609  65.8689365  28.6129718  49.3853997
  62.2633842  32.3112929  31.0607274  61.9285211  32.9889851  30.6251496
  62.7760713  31.9218241  30.4724146  62.2899423  32.3537507  30.9094065
  61.8038133  34.2627198  37.0018385  62.1877513  34.8314097  36.4623161
  61.7397275  33.5376708  36.5224202  61.8511561  34.2402661  36.8512248
  65.2719564  24.4116886  42.5116147  65.8175524  25.0901972  42.5710117
  65.2136440  24.2704347  41.6517728  65.3435478  24.4908887  42.3928207
  58.3893638  31.9005952  37.8984499  58.4904001  31.0906306  38.2081627
  57.7935384  31.8062898  37.2684178  58.3166177  31.7670980  37.8510738
  67.0484632  25.8401493  33.3849875  66.9324158  26.5909179  33.8142013
  67.8440519  25.5825446  33.6345962  67.1489222  25.9136340  33.4853966
  53.8848770  20.0911969  40.4221141  53.2653802  19.5004616  40.2531155
  53.7832634  20.6823404  39.7885464  53.7786446  20.0916052  40.3026130
  58.9314958  29.8295516  34.6719217  59.2530799  30.3700723  34.0680525
  59.5787054  29.2592287  34.8041507  59.0741013  29.8254691  34.6026252
  60.9816666  21.8311511  34.7553604  61.6796830  22.0099638  35.2475067
  61.2968998  21.3081850  34.1323993  61.1312003  21.7805283  34.7355614
  53.6117903  23.6364251  42.6664710  53.4876600  24.2226696  43.3014529
  54.2636188  23.1424447  42.9676985  53.6891552  23.6503055  42.8050639
  61.1704601  28.2181956  34.7433395  61.6098237  27.6099056  35.1888168
  61.0209264  27.8389329  33.9718860  61.2126067  28.0720427  34.6952563
  58.6376244  26.8125968  41.9452221  59.2825247  26.3198411  41.6263169
  58.8778021  26.9550754  42.7718299  58.7686829  26.7603410  42.0201754
  61.1762336  29.6580874  41.5959113  61.4585578  28.8632279  41.3745869
  61.9048496  30.1361461  41.6164174  61.3251899  29.6115471  41.5662128
  59.1543529  17.2003908  38.8374878  58.8246859  17.6515051  38.1678577
  58.4788531  17.1220071  39.3847885  59.0053966  17.2555043  38.8198102
  64.7713938  26.5709137  31.6964164  64.6865233  27.4270104  31.8413733
  65.2598321  26.2953461  32.3646324  64.8302835  26.6566459  31.8166246
  66.3619937  13.1889430  37.0824489  66.0473378  13.8792909  37.5144911
  65.8446879  13.1334213  36.3809990  66.2384408  13.2824319  37.0421438
  65.7032371  23.1893931  33.1961900  65.1743842  23.4053565  33.8559206
  66.2257391  23.8830070  33.1162869  65.7020824  23.3237068  33.2817499
  71.1580424  28.7640236  38.5694944  70.3278127  28.9750879  38.7328361
  71.1089676  27.9377290  38.2937228  71.0287159  28.6729842  38.5532310
  57.5931979  27.0857148  31.9969368  57.0089194  27.5907180  32.4035232
  57.1902074  26.8599535  31.2565960  57.4471283  27.1265396  31.9474393
  59.2190161  31.5944090  41.4042854  58.7017103  31.2351505  40.8004162
  59.9164553  31.0706264  41.4148920  59.2455743  31.4641778  41.3173112
  62.8753753  32.0438904  47.3659027  62.9637099  31.8565044  48.2137237
  63.3043466  31.3976334  46.9663873  62.9515856  31.9201912  47.4330778
  60.4424213  31.3270064  46.3476689  59.8795048  30.9142674  46.8716350
  61.2045237  31.2522970  46.7669832  60.4718662  31.2547465  46.4869689
  62.0509193  23.3322800  30.4738288  62.2905197  23.5400784  29.6613631
  62.3725034  22.5280309  30.5827233  62.1346351  23.2436901  30.3698841
  57.3599483  15.2616196  34.3197826  58.1145451  15.6294513  34.0814876
  57.1827018  15.6355750  35.0877006  57.4453962  15.3714384  34.3982715
  70.6534382  21.4110636  42.3645365  69.8162803  21.4812824  42.5992960
  70.6222613  21.4135131  41.4919668  70.5252665  21.4220863  42.2704913
  57.0499111  23.5543672  48.0793734  57.2219615  23.4449567  48.9279015
  57.5868469  24.1998078  47.8424926  57.1544115  23.6335674  48.1698831
  55.7156548  17.6686515  31.0175939  55.5332121  17.8858396  30.1916932
  56.5782161  17.7825528  31.0734554  55.8161138  17.7176413  30.9030426
  55.9523683  29.9275312  42.7612233  56.4921908  29.7846443  43.4315605
  55.2693629  30.3272063  43.1296259  55.9315837  29.9654983  42.9146654
  61.3956267  14.6712926  34.0524963  62.1242428  14.4928881  33.6063119
  61.4851160  15.5131005  34.2632141  61.5162929  14.7696804  34.0178481
  65.3764568  25.6066313  37.9557257  66.1322083  26.0397827  37.9946166
  65.4826892  24.9571083  38.5291893  65.5034739  25.5743797  38.0455283
  68.4144739  29.4339590  38.7059660  67.9779971  29.4376333  39.4618631
  68.0807655  30.1145089  38.2739237  68.3007359  29.5352046  38.7540492
  62.9873813  31.4747923  50.0302810  63.7714229  31.5878771  50.3958552
  62.7870407  30.6489060  50.2261496  63.0739838  31.3694642  50.1137196
  51.3560828  26.1475603  42.9146654  51.0899243  25.3314720  43.0737644
  51.3699392  26.1928759  42.0442170  51.3185550  26.0332508  42.8100136
  68.3342222  16.4753418  40.9489088  68.9768130  16.5451523  41.5351003
  68.5865243  15.8082641  40.4468630  68.4664354  16.3879767  40.9616367
  55.2618575  20.9460688  29.5298412  54.5476752  20.6598867  29.9420845
  55.7462544  21.2857313  30.1704800  55.2277938  20.9542337  29.6854047
  56.1059435  19.6853981  45.5613662  55.4131231  19.2150961  45.8074393
  56.7219762  19.4592286  46.1355369  56.0943964  19.5821113  45.6822814
  63.1444206  33.3858025  43.6769266  62.3459452  33.1457525  43.9343134
  63.5930218  33.4372418  44.4236313  63.0918817  33.3580416  43.8254190
  71.5489085  26.1520510  37.5979297  72.2105519  25.5911179  37.4975206
  70.9080497  25.6572541  37.9231988  71.5517953  25.9956919  37.6311637
  62.4365893  29.4490642  29.9060220  62.8517042  29.1175665  29.2144716
  61.6057823  29.2159544  29.7780357  62.3753902  29.3661897  29.7851068
  67.8353916  27.1685893  37.3391286  68.0709505  27.3131091  36.5118137
  67.9843480  27.9328301  37.7322800  67.8919719  27.3024947  37.2754890
  54.8299993  23.6519385  46.7040507  55.5539966  23.6372416  47.1905402
  54.9316130  24.3614741  46.2062475  54.9518203  23.7544089  46.7019294
  69.6644373  26.0087558  35.1760890  69.9952590  26.5415199  34.5700985
  70.2377461  26.0626446  35.8322841  69.7978052  26.0957127  35.1838671
  62.2044943  27.1318470  51.5689454  61.4117924  27.4461982  51.7542074
  62.3193870  27.3469938  50.7310239  62.1040353  27.2102307  51.4727789
  64.8776262  23.8552461  35.8584470  64.9723116  24.5941755  36.3124095
  64.2535105  23.4269937  36.2919034  64.7985292  23.9013782  35.9892617
  63.1328736  27.0338674  46.5074751  63.7067597  26.3965918  46.6623315
  63.0543539  27.0342756  45.6384408  63.2061971  26.9403785  46.4021162
  65.1299283  25.7001201  29.0921422  65.0479446  25.7703388  29.9576409
  65.7679004  26.2630945  28.9005162  65.2119121  25.7940172  29.1911371
  58.4892454  25.4661939  38.5595948  58.2311699  24.6333674  38.5327248
  58.5440937  25.6919552  37.7188449  58.4592232  25.3759710  38.4316085
  63.5693504  17.5690390  38.6600041  62.8649831  17.0799575  38.8183960
  63.6178479  17.5812864  37.7888485  63.4723556  17.4980038  38.5539381
  57.4627166  23.0199701  39.0460843  56.8876758  23.1791870  39.6824804
  57.0862843  22.3835110  38.5829293  57.3229979  22.9497514  39.0715401
  61.1300455  21.4923051  43.9053221  60.7414888  21.0677268  43.2505413
  60.4655153  21.7405200  44.4130248  60.9747383  21.4661772  43.8841089
  70.7723724  21.2498055  36.6801051  70.5160289  20.4377997  36.4898934
  71.6153038  21.2575622  36.4531239  70.8589750  21.1310053  36.6185868
  64.9526817  15.1897679  41.4177206  65.3337328  14.5075851  41.8045080
  64.1490101  14.9007282  41.2352870  64.8903278  15.0464728  41.4481261
  62.2339393  25.7221655  32.1030028  63.0480032  26.0136548  31.9912800
  62.1698535  25.0681518  31.5288321  62.3442132  25.6686850  32.0018866
  68.4548883  28.4047651  46.5159604  68.2187521  27.5735716  46.3971665
  69.0992112  28.3533259  47.1014448  68.5143554  28.2745339  46.5845498
  58.1047302  29.1943173  37.2302340  58.7421249  28.9554920  37.7754134
  58.5302373  29.3980332  36.4955501  58.2623468  29.1894183  37.2019498
  58.7450117  24.4145462  31.5677230  59.1295269  24.1953169  32.3193775
  58.4961737  25.2408408  31.6978306  58.7652189  24.5043609  31.6978306
  58.9118657  17.6951878  51.2839814  58.5972098  18.4651440  51.0209377
  58.5908590  17.1322134  50.6992041  58.8177576  17.7262146  51.1581164
  69.4785304  28.1892100  42.5787898  69.1731121  28.9220157  42.9401214
  68.7591520  27.7830030  42.2980684  69.3272646  28.2373833  42.5901036
  60.4868774  29.6715595  38.9096127  60.5607782  29.5090767  39.7637977
  61.3038280  29.8605785  38.6656608  60.6185132  29.6752338  38.9994152
  75.1787096  24.8285101  41.9056243  75.1111597  24.8481060  41.0358829
  75.1642759  25.6715428  42.1311913  75.1665853  24.9558835  41.8108720
  56.4650554  16.0842399  36.8986010  55.5972979  16.1564999  36.9643620
  56.7525758  16.8864478  37.0873985  56.3790302  16.2136546  36.9360777
  65.5883443  16.2320259  45.2297332  66.3337035  16.0430069  44.8160758
  65.1720747  16.7578496  44.6711188  65.6368417  16.2822404  45.0861905
  59.0273359  32.6350338  33.6409600  59.3171658  32.2439320  32.9168827
  59.7576840  32.8167043  34.0814875  59.1780243  32.6044152  33.5992407
  72.9645714  23.6029487  40.1802837  73.5153635  22.9697556  40.4199929
  72.9489829  24.1344880  40.8718341  73.0430910  23.5878435  40.3181695
  59.6168104  27.4368084  44.7262731  59.1179798  28.1483852  44.8047619
  60.4268329  27.7568751  44.6880893  59.6624211  27.5894933  44.7319299
  55.8796222  26.6991037  38.9725451  55.5909471  26.0728509  39.5071179
  56.7479570  26.6411325  39.0390132  55.9656474  26.5978582  39.0616406
  66.6674120  21.8425821  39.2907433  66.3238886  21.1216156  39.6414683
  66.7667162  21.6339672  38.4485792  66.6316163  21.7050024  39.2179113
  59.1347231  35.9847111  35.4900442  59.7871289  35.4523553  35.7191468
  58.4372839  35.6315763  35.8768316  59.1277949  35.8536634  35.5812610
  56.0828495  28.3386288  34.8967816  56.8374463  28.7199327  35.1103279
  55.4899108  28.7897432  35.3514513  56.1065209  28.4615116  34.9950695
  67.1287149  28.3051525  34.8331421  67.6945182  28.9644735  34.7489964
  66.4815052  28.6501223  35.3047824  67.1165905  28.4533466  34.8904178
  58.5435162  20.2949129  50.0225029  57.7334938  20.6006908  49.9114871
  59.0209849  21.0154711  50.1377613  58.4938641  20.4463730  50.0232100
  57.4026722  29.5094850  40.2707932  56.8807476  29.6495141  40.9559797
  57.7900742  28.7505514  40.4610049  57.3830423  29.4180374  40.4009008
  54.3917906  19.5600658  34.3402887  54.1042702  19.1901929  33.6034834
  55.0788374  20.0295514  34.0786591  54.4506803  19.5747628  34.1917962
  63.5993727  31.2490309  34.2568501  63.3580403  30.5158170  33.8495566
  63.7795060  31.7977166  33.6034834  63.5901351  31.2212700  34.0998724
  58.8293048  26.5398869  35.6689423  58.6335830  27.1473603  35.0749726
  59.0527393  25.8466813  35.1881097  58.8327689  26.5276394  35.5105504
  57.2271578  23.4253607  35.7870291  57.9494230  23.5894765  35.3274097
  56.7479570  24.1463271  35.6809631  57.2635308  23.5551836  35.7035905
  65.1865085  19.7617405  41.1666976  64.3476186  19.7878684  40.9305239
  65.2569453  20.4088141  41.7472323  65.0733479  19.8613531  41.2176093
  54.8779194  25.8311679  44.8924431  55.3900291  26.1095932  44.2433191
  54.5915537  26.5700973  45.2587244  54.9114058  25.9814033  44.8514309
  63.6334364  16.6602782  35.8994592  64.3360716  16.4610531  35.4214550
  63.3678552  15.8878725  36.2063436  63.6980996  16.5165748  35.8740034
  69.0622609  24.9685392  38.4528218  68.9756584  25.1240818  39.3062997
  68.6073089  25.6123468  38.0787623  68.9825866  25.0861147  38.5235325
  51.9646101  20.3381871  35.1888168  52.0662237  21.1408032  35.5169143
  52.7601987  20.1369207  34.8911248  52.0974006  20.4267770  35.1923523
  58.3962920  17.9238068  44.9525473  58.2046117  17.9393202  45.8024896
  59.2461516  18.1201742  44.9292128  58.4938642  17.9552419  45.0748767
  52.7809833  20.4529049  42.9309289  52.6395325  19.6012990  43.0553797
  53.0650396  20.4957710  42.1071495  52.8017679  20.3328799  42.8276913
  62.9348425  22.2896139  37.0753777  62.6883139  22.2091890  37.9090566
  63.2633548  21.5049607  36.8816305  62.9469669  22.1622405  37.1701301
  66.8296474  28.9979499  40.8640559  66.6910833  29.6960544  41.3689301
  66.0496472  28.8428155  40.5076740  66.6939701  29.0779665  40.8866833
  65.1674559  25.2975874  47.1162940  65.1622598  24.4255691  47.1205367
  65.8735553  25.4964043  46.6432396  65.2719563  25.1979748  47.0469976
  58.8945452  25.0252858  46.4876761  59.0388828  25.6054066  45.8519871
  59.2421101  25.4029155  47.1926615  58.9672914  25.1673562  46.4975755
  61.0665370  24.2243026  44.2701892  60.3188684  24.4174041  43.8650170
  61.2206895  23.3988246  44.0326013  60.9787797  24.1308138  44.1747298
  57.9673207  33.2155630  43.3537787  58.1162771  32.6558546  42.7011192
  58.7473209  33.2947631  43.7370306  58.1047301  33.1441195  43.3134737
  68.3249847  28.3557752  31.6257058  67.9456656  27.5694890  31.6186347
  67.6616092  28.9044609  31.4828702  68.1708322  28.3202576  31.6037855
  60.4926508  33.3870273  44.6322278  60.4170179  32.7179083  45.1873066
  60.4216367  34.0888061  45.1462944  60.4707115  33.3915180  44.7899126
  61.3067147  18.1193577  45.1597296  61.7639761  18.8517551  45.2870088
  61.3823476  17.6960042  45.9184552  61.3858117  18.1650815  45.2898372
  53.5500138  18.3659397  46.2486740  53.0142327  17.7539755  46.5647507
  53.6117903  18.9407533  46.9020406  53.4795771  18.3606324  46.3922166
  65.7794473  11.2983452  39.0291139  65.8978041  11.7559915  38.2958441
  65.6056648  10.4928713  38.7427356  65.7713644  11.2477224  38.8792072
  61.1496755  31.9071271  35.4645884  61.9146646  31.6380915  35.1428548
  61.0474845  31.4221282  36.1815947  61.2478250  31.7960836  35.5225712
  59.1849525  20.1095681  42.0039120  58.3945599  19.9287141  42.3256456
  59.5810148  19.3322633  41.9869414  59.1266401  19.9683142  42.0491668
  63.6715415  28.9383455  27.4445833  64.4388401  28.9983580  27.0351685
  63.2246724  28.3663897  26.9602152  63.7188843  28.8620031  27.3123544
  64.5693211  27.7438111  39.7298566  63.8938213  27.5123343  40.2311953
  64.5785587  27.1359294  39.1040671  64.4711716  27.6197036  39.7114718
  61.6987355  22.5855940  46.4862619  61.6346496  23.4465896  46.3582755
  61.8384543  22.2687933  45.6858170  61.7102825  22.6656107  46.3490832
  66.5709946  30.6003243  31.9608744  66.6529783  31.4070230  31.6370195
  67.0559688  30.6199203  32.6849517  66.6547103  30.7223906  32.0195642
  60.3806449  25.2788079  40.6278822  59.9568698  25.4792578  39.8917840
  60.2051304  24.4316927  40.7403122  60.2917329  25.1836861  40.5352512
  55.6688894  25.7740131  36.0606794  55.8253513  25.7086934  36.9162786
  56.0089487  26.5488683  35.8485474  55.7422129  25.8789329  36.1561388
  62.2068038  25.1498014  34.9300157  62.7483584  24.6468395  35.3938778
  62.5214598  25.0963209  34.1189643  62.3332436  25.0677435  34.8783970
  66.0785146  29.3600662  52.0427070  66.8920011  29.0885811  52.2032202
  65.9180112  29.0608202  51.2387266  66.1755094  29.2755588  51.9472476
  60.3754488  30.5415366  32.2140185  60.4447308  29.6829904  32.3533186
  61.1542943  30.7587247  31.8859210  60.5007338  30.4468230  32.1857343
  63.3557308  20.0434319  44.9822458  63.5699277  19.4045233  44.4285812
  62.7391207  20.4880143  44.5530320  63.2962637  20.0144463  44.8372889
  64.7661976  32.9653067  36.4276679  64.3741767  32.6619782  35.7099545
  64.9215048  33.8022157  36.2381633  64.7315566  33.0436904  36.2933176
  52.2423155  22.9575081  36.3767561  52.6222120  23.3759626  35.7127829
  51.6678520  23.5388537  36.6836405  52.2134480  23.1052940  36.3244302
  65.5196396  21.6523384  45.9205765  64.7073078  21.3449274  46.0018938
  65.9786330  21.1722384  46.4848477  65.4676781  21.5359876  46.0160359
  64.9301651  29.5303056  36.3682709  64.5716305  29.7017699  37.1446742
  64.4440361  29.9916262  35.8110708  64.8060347  29.6242027  36.4007978
  62.7472037  13.1534255  39.9709801  61.8765594  13.1272976  39.9243110
  63.0012378  12.9811447  39.1535646  62.6565597  13.1244398  39.8429937
  59.7190016  25.2102221  28.9082944  60.0082541  25.9867104  29.1826518
  59.8061815  24.6990953  29.6097443  59.7744272  25.2494140  29.0525442
  62.6149903  23.0583456  50.7034467  63.0849535  23.6825572  51.0902341
  62.6611784  22.3900431  51.2627682  62.6917779  23.0518136  50.8434539
  59.7721177  15.1640483  41.4283271  59.2559666  14.4720674  41.5534850
  59.2115106  15.8311260  41.3745870  59.6127690  15.1603741  41.4389337
  61.8413410  15.7033443  43.2576124  61.4545164  15.7282475  44.0389654
  61.3546348  15.1375122  42.8050640  61.7125919  15.6229194  43.3064027
  66.0906390  30.4206952  47.3149910  66.7286110  29.9267148  46.9812366
  65.4480481  30.3484353  46.7302137  66.0900616  30.3365961  47.1792265
  67.8163390  22.2696098  41.8815826  67.3890998  22.1822447  41.1263925
  67.1789443  22.3773874  42.4670670  67.6592997  22.2728758  41.8561267
  61.5070552  12.5900429  45.5486384  62.1363670  13.1260729  45.2707454
  61.6756415  12.4977787  46.3999949  61.6248347  12.6561791  45.6334912
  61.3084467  17.3771623  47.8212795  62.1357896  17.1056772  47.8771410
  61.3292313  18.1732465  48.1776613  61.4337317  17.4551377  47.8827978
  66.1460646  31.1126760  43.9555267  66.9353025  30.7615825  44.0757349
  66.3204244  31.9263149  43.6931901  66.2880928  31.1812617  43.9343135
  55.8853957  24.5235486  41.0083056  55.0441963  24.4239360  41.2161950
  56.0943965  25.2930966  41.3597376  55.7918649  24.6227529  41.0910371
  53.3629524  22.1455023  38.8367806  52.9686222  22.2198035  38.0617916
  52.8069641  22.5312969  39.3876168  53.2232336  22.2136798  38.8035466
  64.9994471  15.1236317  38.5171685  65.2044064  15.0558625  39.3628683
  64.6720895  15.9295138  38.4492863  64.9809719  15.2322257  38.6331341
  59.6970622  22.4516885  40.2580653  59.3933759  21.8972873  40.8591061
  58.9950043  22.6309095  39.7708688  59.5486832  22.3961668  40.2750359
  58.7536719  19.7617405  34.8225355  59.0296453  19.0436318  34.4102923
  59.3535388  20.3602325  34.6146461  58.8829983  19.7437776  34.7306116
  57.7588973  29.6666606  44.9652751  57.6509328  29.6768668  45.8314809
  57.9684754  30.4921386  44.7757705  57.7739084  29.7907681  45.0656843
  68.2528158  15.6768081  37.9974451  67.6402472  16.1638483  38.3828183
  68.3492333  15.0011572  38.5412102  68.1766056  15.6486390  38.1353309
  62.2547239  17.4330922  33.0971950  62.7090986  17.6041483  33.8219795
  62.7287285  16.8199033  32.6969726  62.3915559  17.3681808  33.1445712
  55.7762765  26.9179248  42.4274689  55.1850698  27.5588747  42.3977704
  56.5383788  27.3416866  42.4005988  55.8011025  27.0755087  42.4189836
  56.1723388  18.0781246  43.0942706  56.6324869  18.1520176  43.8317830
  56.2179494  18.8762500  42.7442528  56.2473943  18.2075393  43.1515463
  57.8206737  18.7447941  47.6614733  57.4292302  18.0981288  48.0970511
  57.9892600  19.3359376  48.2808989  57.7877648  18.7362209  47.8177439
  71.8953186  26.7485018  43.4251967  71.9536310  27.1971667  44.1711943
  71.2619654  27.1583831  42.9882047  71.8104481  26.8758753  43.4704515
  65.5352281  32.3688560  39.8606713  65.3371970  32.8579374  39.1662924
  64.9139992  32.5729801  40.4390847  65.4139845  32.4705098  39.8429936
  59.5960259  24.1373457  34.2016957  60.3402304  24.5247733  34.4399907
  59.7420956  23.2930882  34.3657445  59.7270844  24.0703930  34.2610927
  61.5139835  15.9323716  39.2348819  60.6675880  16.1046523  39.1090169
  61.5110967  15.1273059  39.5714647  61.3886985  15.8384745  39.2659946
  62.5838135  19.7098930  40.1010877  62.1098089  19.1840692  40.6116188
  62.9556271  19.1628403  39.5325738  62.5688024  19.5514927  40.0926024
  52.9611165  21.7070437  45.4694423  53.8236778  21.6066146  45.3831752
  52.6302948  21.1265146  44.9079995  53.0396362  21.6062063  45.3739828
  68.8474866  24.7701306  41.5117657  68.6073089  23.9307721  41.5160084
  69.3266873  24.8501472  42.2358431  68.8827049  24.6582705  41.6192460
  64.5121635  20.6035485  33.1636631  63.9844653  20.6864229  32.4742339
  64.9717343  21.3453356  33.1601275  64.5023485  20.7256147  33.0611326
  70.8480053  21.5502763  39.4646916  70.6089823  21.5098597  38.6267701
  71.0113954  22.3973915  39.5912637  70.8370356  21.6694848  39.3600398
  67.4526083  25.9352712  45.3951962  68.1760282  25.4825239  45.2162981
  67.1876045  26.2157378  44.6124289  67.5207356  25.9103681  45.2530677
  56.3212951  20.5312886  42.1304841  55.6966021  20.5431278  41.5230793
  55.9858546  21.0073061  42.7796081  56.1798443  20.6031403  42.1361409
  56.5054700  18.8738004  28.1877526  56.1567504  19.5257729  28.6509075
  56.0251146  18.8595117  27.4601397  56.3824944  18.9681058  28.1488617
  53.0338627  28.5913346  43.5708605  52.5038551  27.9005785  43.6203580
  53.3063720  28.5823531  42.7421314  52.9963349  28.4880478  43.4556021
  64.0658717  29.1739048  32.2946288  64.7892916  29.6397161  32.1510861
  63.6259308  29.2412658  31.5443885  64.1074410  29.2522885  32.1631069
  63.2344872  26.0336590  43.5446977  62.6201866  25.4894641  43.8395612
  63.7512157  25.5200827  43.0652793  63.2200535  25.8773000  43.5171205
  62.4741170  27.1040860  41.2791275  62.0468778  26.4790579  40.8456711
  62.4666114  26.8215782  42.1050282  62.4100311  26.9693641  41.3371103
  55.5903697  22.1406034  44.3479709  55.7497183  21.3849358  44.7531431
  55.4096590  22.6896973  45.0020447  55.5869056  22.1099847  44.5042415
  63.5324000  14.3067269  44.9030499  63.0364561  14.5030943  44.2122065
  64.2893062  14.7059937  44.7319300  63.5710824  14.3945003  44.7750635
  60.8026879  17.9809615  41.4933809  60.8269366  17.4469727  40.8046589
  61.0538353  17.4726924  42.1559400  60.8436798  17.8270519  41.4898454
  57.0828202  16.7080433  40.8739554  57.1226573  17.2089640  41.5874261
  56.2577866  16.7990827  40.6045477  56.9667727  16.7962250  40.9390092
  59.2657814  26.2741173  48.9759848  58.4153445  26.4112888  49.1117493
  59.4285942  25.5404952  49.4207550  59.1641678  26.1855274  49.0615447
  58.5042565  23.2240943  43.1713453  57.6734495  23.3914761  42.9648701
  58.4494082  22.8476894  43.9562338  58.3731980  23.1930674  43.2561981
  56.3126348  16.7149836  48.8069863  56.9379052  16.1711969  49.0799296
  55.8576828  16.2344754  48.2377654  56.3374609  16.5639317  48.7631457
  56.8778609  21.4996535  33.7003570  57.0181570  21.9968999  34.4032212
  57.3761142  20.7982829  33.8417784  56.9719690  21.4698513  33.8255149
  56.9078831  22.3663646  31.0296147  57.5423911  22.9624071  30.9645609
  56.9904442  22.0667103  31.8442017  57.0135382  22.4104554  31.1399234
  69.8861397  24.8979123  43.8982511  70.4779237  25.5376374  43.9300709
  70.3220391  24.2002160  44.1874578  70.0379828  24.8897473  43.9463344
  58.4857814  18.2977621  31.0041589  58.8073655  17.8180704  30.3500851
  58.7484758  19.1077267  30.8132401  58.5723839  18.3467519  30.8797081
  61.7154787  29.3196495  44.5240405  61.2079878  29.8732342  44.9681036
  61.4181433  29.3804785  43.7059180  61.5959672  29.4102807  44.4688862
  63.8816969  17.6849815  43.3665068  64.3072041  17.2322341  42.7548595
  63.2673962  17.1309886  43.6429856  63.8545614  17.5363791  43.3170093
  53.4131819  24.5631486  34.2985693  53.9224048  25.1595994  34.6796999
  53.8866091  24.2957460  33.6162113  53.5575195  24.6117302  34.2540216
  64.3262567  33.2359753  32.4544349  63.6091877  33.0620615  31.9891586
  64.9769305  33.0012325  31.9219835  64.3164418  33.1755546  32.3073567
  62.3211192  14.1564915  36.7755645  61.6779510  14.0062561  37.3440784
  61.9810599  13.9107260  36.0104750  62.1756269  14.0977037  36.7458660
  66.9110538  22.1124342  36.1985654  66.2401728  22.6554044  36.0698719
  67.6050289  22.5819197  35.9567349  66.9139406  22.2622613  36.1441182
  60.9597272  34.2521054  41.4297412  60.7362926  33.4939883  41.7981438
  60.4707115  34.2819075  40.7077852  60.8540721  34.1443278  41.3774153
  67.0738666  18.5680225  39.1076027  67.4266276  18.1409948  39.7821826
  66.2153467  18.4831069  39.2377103  66.9988110  18.4924966  39.2271037
  55.7722351  21.1987745  37.1658874  55.0534340  21.6151878  37.4331737
  56.1434713  21.7641984  36.6150512  55.7214283  21.3437026  37.1241681
  65.0721932  21.8315594  43.0560869  65.0519859  21.6498889  43.9095648
  65.1201132  22.7027612  43.0320453  65.0756573  21.9332132  43.1784164
  63.0168261  28.4202786  48.9809346  62.9764116  27.7752463  48.3954502
  63.8291580  28.3639403  49.2934758  63.1311415  28.3161753  48.9406295
  59.6075729  34.4721512  38.8834497  59.1936128  33.8095642  38.4938338
  60.2923103  34.6199371  38.3630191  59.6474101  34.3962170  38.7490994
  62.9741023  33.6311597  39.6358113  62.5757306  33.7413867  38.8678934
  62.3592243  33.8393663  40.2184673  62.8239912  33.6785165  39.6089413
  61.5468925  20.2385745  32.5032253  60.9533764  20.5602741  31.9516820
  61.5844203  19.3926840  32.2953359  61.4643314  20.1610073  32.3915024
  68.5062726  13.6898637  40.0360339  67.9993590  12.9827777  39.9681517
  69.3030160  13.3591826  40.1661416  68.5489965  13.5371789  40.0459334
  64.4226742  20.1965249  35.9334003  64.1940435  20.2197951  35.0912361
  64.6824818  19.3722716  36.0529014  64.4272930  20.0781329  35.8259201
  58.7045970  22.0499722  45.5359103  58.1924873  21.4420905  45.8944135
  58.5325466  22.7656315  46.0033079  58.6035607  22.0663022  45.6575327
  53.5511685  20.4937298  48.1861465  53.3814275  21.1538673  47.6409672
  53.1077635  20.7043859  48.9073954  53.4611018  20.6223280  48.2123095
  57.4771504  18.7341796  37.2288199  57.9528870  19.0958876  36.5938380
  56.9760104  19.3898263  37.5088342  57.4736863  18.8835984  37.1764940
  70.7082866  28.2063564  33.0201204  71.0916472  28.9554920  33.2499301
  69.9126979  28.4529383  32.7613193  70.6476648  28.3533258  33.0158777
  62.5815040  19.9723967  47.9761359  63.1386471  19.7437777  47.3439824
  62.2576105  20.7329633  47.6996571  62.6161451  20.0507804  47.8417856
  60.2998158  23.0591620  48.9413366  61.0509485  23.3743297  49.2552920
  60.4920734  22.8570791  48.1147288  60.4389572  23.0759002  48.8656762
  59.5198157  20.8782995  30.5961583  59.8997122  20.8962625  29.8112698
  58.7790753  21.3236984  30.4752430  59.4666995  20.9464770  30.4625151
  67.1483448  19.1865187  36.1837162  67.1477674  19.0313843  37.0421438
  66.9439628  20.0328174  36.1278547  67.1183226  19.2885807  36.3025101
  60.3182911  27.7160502  31.9870373  59.5094234  27.3927175  31.9403682
  60.8257820  27.0093724  31.9198622  60.2732578  27.5641818  31.9700667
  66.9376119  26.6166376  42.5250497  67.3631190  26.0940798  41.9720922
  66.5733039  27.2147213  42.0039120  66.9462721  26.6276603  42.3659507
  63.5254718  30.3300640  38.8551655  63.9965896  31.0440903  39.0241640
  63.8614897  29.7299390  39.3911524  63.6449833  30.3472105  38.9584031
  65.6131703  31.9401954  51.0343727  65.7228668  31.1510514  51.3900474
  65.9422599  31.8507890  50.2318065  65.6784109  31.8107807  50.9686117
  60.4424213  15.1028111  45.8109749  60.5752119  14.3059104  46.1390725
  60.8269366  15.6294514  46.3908025  60.5180542  15.0628028  45.9453252
  64.1628665  30.1218574  45.6179347  63.6149611  29.4976458  45.3499413
  64.6241693  30.3112846  44.9023427  64.1495874  30.0577625  45.4729778
  63.5156568  12.0258437  42.4090843  62.7102532  11.9156167  42.7258681
  63.3863304  12.1270893  41.5520708  63.3776701  12.0242107  42.3298883
  66.9722529  18.1903929  43.0030540  66.3885518  18.6913135  42.5908107
  67.2926823  17.6833485  42.3694863  66.9335704  18.1895764  42.8489047
  59.5117328  17.1044524  33.2789214  60.3333022  17.2742837  33.0370909
  59.0486979  17.2591785  32.5555512  59.5648490  17.1526257  33.1360859
  58.1012660  15.0987286  44.0587643  58.6457073  14.7578413  44.6491985
  58.1549596  15.9572747  44.2008928  58.1901779  15.1742545  44.1669517
  53.9143219  28.8603702  40.9326451  54.5188076  28.8199536  40.3040272
  53.7070531  29.7074854  40.9630507  53.9732116  28.9791704  40.8442568
  63.7286991  31.1269647  42.1488688  64.5485365  30.9832613  42.4104984
  63.4481069  31.7515846  42.6905126  63.8083734  31.1979999  42.2676628
  73.4000326  37.8710150  39.8684495  72.5438222  38.0318648  39.9193612
  73.4467980  37.0002214  39.8889556  73.2799438  37.7660952  39.8790561
  76.7094043  44.1396675  49.4744951  77.4160810  43.6448706  49.6031886
  76.8981978  44.5805757  48.7447609  76.8421948  44.1315026  49.3853997
  73.2366426  47.8298237  31.0607274  72.9017794  48.5075159  30.6251496
  73.7493296  47.4403548  30.4724146  73.2632007  47.8722815  30.9094065
  72.7770717  49.7812506  37.0018385  73.1610096  50.3499405  36.4623161
  72.7129858  49.0562016  36.5224202  72.8244144  49.7587969  36.8512248
  76.2452147  39.9302194  42.5116147  76.7908107  40.6087280  42.5710117
  76.1869023  39.7889655  41.6517728  76.3168061  40.0094195  42.3928207
  69.3626222  47.4191260  37.8984499  69.4636585  46.6091614  38.2081627
  68.7667967  47.3248206  37.2684178  69.2898761  47.2856288  37.8510738
  69.2026962  52.3368849  39.2999355  69.8464417  52.7782013  39.6895514
  69.5283217  51.5322275  39.2129614  69.3458790  52.2834044  39.3444833
  64.8581354  35.6097277  40.4221141  64.2386385  35.0189924  40.2531155
  64.7565217  36.2008712  39.7885464  64.7519029  35.6101360  40.3026130
  69.9047541  45.3480824  34.6719217  70.2263382  45.8886031  34.0680525
  70.5519638  44.7777595  34.8041507  70.0473596  45.3439999  34.6026252
  71.9549249  37.3496819  34.7553604  72.6529414  37.5284946  35.2475067
  72.2701582  36.8267158  34.1323993  72.1044587  37.2990591  34.7355614
  72.1437185  43.7367264  34.7433395  72.5830820  43.1284364  35.1888168
  71.9941848  43.3574637  33.9718860  72.1858650  43.5905735  34.6952563
  69.6108828  42.3311276  41.9452221  70.2557830  41.8383719  41.6263169
  69.8510605  42.4736062  42.7718299  69.7419413  42.2788718  42.0201754
  72.1494919  45.1766181  41.5959113  72.4318162  44.3817587  41.3745869
  72.8781079  45.6546769  41.6164174  72.2984483  45.1300778  41.5662128
  70.1276113  32.7189215  38.8374878  69.7979443  33.1700359  38.1678577
  69.4521115  32.6405379  39.3847885  69.9786549  32.7740351  38.8198102
  75.7446521  42.0894445  31.6964164  75.6597816  42.9455412  31.8413733
  76.2330905  41.8138769  32.3646324  75.8035419  42.1751767  31.8166246
  77.3352521  28.7074738  37.0824489  77.0205962  29.3978217  37.5144911
  76.8179462  28.6519521  36.3809990  77.2116991  28.8009627  37.0421438
  76.6764955  38.7079239  33.1961900  76.1476426  38.9238873  33.8559206
  77.1989974  39.4015378  33.1162869  76.6753407  38.8422376  33.2817499
  68.5664562  42.6042456  31.9969368  67.9821778  43.1092487  32.4035232
  68.1634657  42.3784843  31.2565960  68.4203866  42.6450704  31.9474393
  64.1208591  48.3197217  38.7993039  63.6376169  49.0447707  38.7752623
  64.9331909  48.6173347  38.9103197  64.1699339  48.4699571  38.8120318
  70.1922745  47.1129398  41.4042854  69.6749687  46.7536813  40.8004162
  70.8897136  46.5891572  41.4148920  70.2188326  46.9827086  41.3173112
  73.8486337  47.5624212  47.3659027  73.9369683  47.3750352  48.2137237
  74.2776050  46.9161642  46.9663873  73.9248439  47.4387220  47.4330778
  71.4156797  46.8455372  46.3476689  70.8527632  46.4327982  46.8716350
  72.1777820  46.7708278  46.7669832  71.4451245  46.7732772  46.4869689
  73.0241777  38.8508108  30.4738288  73.2637780  39.0586092  29.6613631
  73.3457618  38.0465617  30.5827233  73.1078935  38.7622209  30.3698841
  68.3332067  30.7801504  34.3197826  69.0878035  31.1479821  34.0814876
  68.1559602  31.1541058  35.0877006  68.4186545  30.8899692  34.3982715
  66.9752788  48.8353393  38.9513319  67.6773367  48.3205382  39.0086076
  66.8950271  49.1627544  39.7560194  67.0676549  48.8067619  39.0786111
  68.0231695  39.0728980  48.0793734  68.1952198  38.9634875  48.9279015
  68.5601052  39.7183385  47.8424926  68.1276699  39.1520982  48.1698831
  66.6889132  33.1871823  31.0175939  66.5064705  33.4043704  30.1916932
  67.5514745  33.3010836  31.0734554  66.7893721  33.2361721  30.9030426
  66.9256267  45.4460620  42.7612233  67.4654492  45.3031751  43.4315605
  66.2426213  45.8457371  43.1296259  66.9048421  45.4840291  42.9146654
  72.3688851  30.1898234  34.0524963  73.0975011  30.0114189  33.6063119
  72.4583744  31.0316313  34.2632141  72.4895513  30.2882112  34.0178481
  76.3497152  41.1251621  37.9557257  77.1054667  41.5583135  37.9946166
  76.4559476  40.4756391  38.5291893  76.4767322  41.0929105  38.0455283
  73.9606396  46.9933231  50.0302810  74.7446813  47.1064079  50.3958552
  73.7602991  46.1674368  50.2261496  74.0472422  46.8879950  50.1137196
  66.2351159  36.4645996  29.5298412  65.5209336  36.1784175  29.9420845
  66.7195127  36.8042621  30.1704800  66.2010522  36.4727645  29.6854047
  67.0792018  35.2039289  45.5613662  66.3863815  34.7336269  45.8074393
  67.6952345  34.9777594  46.1355369  67.0676548  35.1006421  45.6822814
  74.1176790  48.9043333  43.6769266  73.3192035  48.6642833  43.9343134
  74.5662801  48.9557726  44.4236313  74.0651401  48.8765724  43.8254190
  73.4098477  44.9675949  29.9060220  73.8249625  44.6360973  29.2144716
  72.5790406  44.7344852  29.7780357  73.3486485  44.8847205  29.7851068
  65.8032577  39.1704693  46.7040507  66.5272549  39.1557724  47.1905402
  65.9048714  39.8800049  46.2062475  65.9250786  39.2729397  46.7019294
  73.1777526  42.6503778  51.5689454  72.3850507  42.9647290  51.7542074
  73.2926454  42.8655246  50.7310239  73.0772937  42.7287615  51.4727789
  75.8508845  39.3737769  35.8584470  75.9455700  40.1127063  36.3124095
  75.2267689  38.9455245  36.2919034  75.7717876  39.4199090  35.9892617
  74.1061319  42.5523982  46.5074751  74.6800181  41.9151226  46.6623315
  74.0276123  42.5528064  45.6384408  74.1794554  42.4589093  46.4021162
  76.1031867  41.2186509  29.0921422  76.0212029  41.2888696  29.9576409
  76.7411587  41.7816253  28.9005162  76.1851704  41.3125480  29.1911371
  69.4625038  40.9847247  38.5595948  69.2044282  40.1518982  38.5327248
  69.5173521  41.2104860  37.7188449  69.4324816  40.8945018  38.4316085
  74.5426088  33.0875698  38.6600041  73.8382415  32.5984883  38.8183960
  74.5911062  33.0998172  37.7888485  74.4456140  33.0165345  38.5539381
  68.4359750  38.5385009  39.0460843  67.8609341  38.6977178  39.6824804
  68.0595426  37.9020418  38.5829293  68.2962562  38.4682822  39.0715401
  72.1033039  37.0108359  43.9053221  71.7147471  36.5862576  43.2505413
  71.4387737  37.2590508  44.4130248  71.9479966  36.9847080  43.8841089
  75.9259400  30.7082987  41.4177206  76.3069912  30.0261158  41.8045080
  75.1222684  30.4192589  41.2352870  75.8635862  30.5650036  41.4481261
  73.2071977  41.2406963  32.1030028  74.0212616  41.5321856  31.9912800
  73.1431118  40.5866826  31.5288321  73.3174716  41.1872158  32.0018866
  69.0779885  44.7128481  37.2302340  69.7153832  44.4740228  37.7754134
  69.5034957  44.9165640  36.4955501  69.2356051  44.7079491  37.2019498
  69.7182700  39.9330770  31.5677230  70.1027853  39.7138477  32.3193775
  69.4694321  40.7593716  31.6978306  69.7384773  40.0228917  31.6978306
  69.8851241  33.2137186  51.2839814  69.5704682  33.9836748  51.0209377
  69.5641173  32.6507442  50.6992041  69.7910160  33.2447454  51.1581164
  71.4601357  45.1900903  38.9096127  71.5340365  45.0276075  39.7637977
  72.2770863  45.3791093  38.6656608  71.5917716  45.1937646  38.9994152
  67.4383138  31.6027707  36.8986010  66.5705563  31.6750307  36.9643620
  67.7258342  32.4049786  37.0873985  67.3522886  31.7321854  36.9360777
  76.5616026  31.7505566  45.2297332  77.3069618  31.5615377  44.8160758
  76.1453331  32.2763804  44.6711188  76.6101001  31.8007712  45.0861905
  70.0005943  48.1535646  33.6409600  70.2904241  47.7624628  32.9168827
  70.7309424  48.3352351  34.0814875  70.1512827  48.1229460  33.5992407
  70.5900688  42.9553392  44.7262731  70.0912382  43.6669160  44.8047619
  71.4000912  43.2754059  44.6880893  70.6356795  43.1080241  44.7319299
  67.9411858  50.1303029  36.7069750  67.7212154  49.8400383  37.4996417
  67.7206380  49.4717984  36.1787662  67.8759453  49.9902737  36.7458658
  77.6406703  37.3611129  39.2907433  77.2971469  36.6401464  39.6414683
  77.7399746  37.1524980  38.4485792  77.6048746  37.2235332  39.2179113
  70.1079814  51.5032419  35.4900442  70.7603872  50.9708861  35.7191468
  69.4105423  51.1501071  35.8768316  70.1010532  51.3721942  35.5812610
  69.5167746  35.8134437  50.0225029  68.7067522  36.1192216  49.9114871
  69.9942433  36.5340019  50.1377613  69.4671225  35.9649038  50.0232100
  68.3759306  45.0280158  40.2707932  67.8540059  45.1680449  40.9559797
  68.7633326  44.2690822  40.4610049  68.3563007  44.9365681  40.4009008
  65.3650490  35.0785966  34.3402887  65.0775285  34.7087237  33.6034834
  66.0520958  35.5480822  34.0786591  65.4239387  35.0932936  34.1917962
  74.5726311  46.7675617  34.2568501  74.3312987  46.0343478  33.8495566
  74.7527643  47.3162474  33.6034834  74.5633935  46.7398008  34.0998724
  69.8025631  42.0584177  35.6689423  69.6068414  42.6658911  35.0749726
  70.0259977  41.3652121  35.1881097  69.8060272  42.0461702  35.5105504
  68.2004161  38.9438915  35.7870291  68.9226813  39.1080073  35.3274097
  67.7212154  39.6648579  35.6809631  68.2367892  39.0737144  35.7035905
  76.1597669  35.2802713  41.1666976  75.3208769  35.3063992  40.9305239
  76.2302036  35.9273449  41.7472323  76.0466062  35.3798839  41.2176093
  65.8511778  41.3496987  44.8924431  66.3632875  41.6281240  44.2433191
  65.5648121  42.0886281  45.2587244  65.8846641  41.4999341  44.8514309
  74.6066947  32.1788090  35.8994592  75.3093300  31.9795839  35.4214550
  74.3411136  31.4064033  36.2063436  74.6713579  32.0351056  35.8740034
  62.9378684  35.8567179  35.1888168  63.0394821  36.6593340  35.5169143
  63.7334571  35.6554515  34.8911248  63.0706590  35.9453078  35.1923523
  69.3695503  33.4423376  44.9525473  69.1778700  33.4578510  45.8024896
  70.2194099  33.6387050  44.9292128  69.4671225  33.4737727  45.0748767
  63.7542416  35.9714357  42.9309289  63.6127908  35.1198298  43.0553797
  64.0382980  36.0143018  42.1071495  63.7750262  35.8514107  42.8276913
  73.9081009  37.8081447  37.0753777  73.6615723  37.7277198  37.9090566
  74.2366132  37.0234915  36.8816305  73.9202252  37.6807713  37.1701301
  77.8029058  44.5164807  40.8640559  77.6643417  45.2145852  41.3689301
  77.0229055  44.3613463  40.5076740  77.6672284  44.5964973  40.8866833
  76.1407143  40.8161182  47.1162940  76.1355181  39.9440998  47.1205367
  76.8468137  41.0149351  46.6432396  76.2452147  40.7165056  47.0469976
  69.8678036  40.5438166  46.4876761  70.0121412  41.1239374  45.8519871
  70.2153685  40.9214463  47.1926615  69.9405497  40.6858870  46.4975755
  72.0397953  39.7428334  44.2701892  71.2921267  39.9359349  43.8650170
  72.1939479  38.9173554  44.0326013  71.9520381  39.6493446  44.1747298
  68.9405791  48.7340938  43.3537787  69.0895355  48.1743854  42.7011192
  69.7205793  48.8132939  43.7370306  69.0779885  48.6626503  43.3134737
  71.4659092  48.9055581  44.6322278  71.3902763  48.2364391  45.1873066
  71.3948951  49.6073369  45.1462944  71.4439699  48.9100488  44.7899126
  72.2799730  33.6378885  45.1597296  72.7372344  34.3702859  45.2870088
  72.3556059  33.2145350  45.9184552  72.3590700  33.6836123  45.2898372
  64.5232722  33.8844705  46.2486740  63.9874911  33.2725063  46.5647507
  64.5850486  34.4592841  46.9020406  64.4528354  33.8791632  46.3922166
  76.7527056  26.8168760  39.0291139  76.8710624  27.2745223  38.2958441
  76.5789232  26.0114021  38.7427356  76.7446227  26.7662532  38.8792072
  72.1229339  47.4256579  35.4645884  72.8879230  47.1566223  35.1428548
  72.0207429  46.9406590  36.1815947  72.2210834  47.3146144  35.5225712
  70.1582108  35.6280989  42.0039120  69.3678183  35.4472449  42.3256456
  70.5542731  34.8507941  41.9869414  70.0998985  35.4868450  42.0491668
  74.6447999  44.4568763  27.4445833  75.4120984  44.5168888  27.0351685
  74.1979308  43.8849205  26.9602152  74.6921426  44.3805339  27.3123544
  75.5425795  43.2623419  39.7298566  74.8670796  43.0308651  40.2311953
  75.5518171  42.6544602  39.1040671  75.4444299  43.1382344  39.7114718
  72.6719939  38.1041248  46.4862619  72.6079080  38.9651204  46.3582755
  72.8117126  37.7873241  45.6858170  72.6835409  38.1841415  46.3490832
  77.5442529  46.1188551  31.9608744  77.6262367  46.9255538  31.6370195
  78.0292271  46.1384511  32.6849517  77.6279687  46.2409214  32.0195642
  71.3539032  40.7973387  40.6278822  70.9301282  40.9977886  39.8917840
  71.1783888  39.9502235  40.7403122  71.2649913  40.7022169  40.5352512
  70.8550726  52.3123900  43.0900279  71.3446656  51.6134690  42.9075944
  70.2834958  52.0147770  43.6776336  70.8435256  52.1650124  43.1501320
  66.6421477  41.2925439  36.0606794  66.7986097  41.2272242  36.9162786
  66.9822071  42.0673991  35.8485474  66.7154712  41.3974637  36.1561388
  73.1800622  40.6683322  34.9300157  73.7216168  40.1653703  35.3938778
  73.4947181  40.6148517  34.1189643  73.3065019  40.5862743  34.8783970
  77.0517729  44.8785970  52.0427070  77.8652595  44.6071119  52.2032202
  76.8912696  44.5793510  51.2387266  77.1487678  44.7940896  51.9472476
  71.3487072  46.0600674  32.2140185  71.4179892  45.2015212  32.3533186
  72.1275527  46.2772555  31.8859210  71.4739922  45.9653538  32.1857343
  74.3289891  35.5619627  44.9822458  74.5431861  34.9230541  44.4285812
  73.7123791  36.0065451  44.5530320  74.2695221  35.5329771  44.8372889
  75.7394559  48.4838375  36.4276679  75.3474351  48.1805090  35.7099545
  75.8947632  49.3207465  36.2381633  75.7048149  48.5622212  36.2933176
  63.2155739  38.4760389  36.3767561  63.5954704  38.8944934  35.7127829
  62.6411104  39.0573845  36.6836405  63.1867064  38.6238248  36.3244302
  76.4928979  37.1708692  45.9205765  75.6805661  36.8634582  46.0018938
  76.9518914  36.6907692  46.4848477  76.4409364  37.0545184  46.0160359
  75.9034234  45.0488364  36.3682709  75.5448889  45.2203007  37.1446742
  75.4172945  45.5101570  35.8110708  75.7792931  45.1427335  36.4007978
  73.7204620  28.6719563  39.9709801  72.8498178  28.6458284  39.9243110
  73.9744961  28.4996755  39.1535646  73.6298180  28.6429706  39.8429937
  70.6922600  40.7287529  28.9082944  70.9815124  41.5052412  29.1826518
  70.7794398  40.2176261  29.6097443  70.7476856  40.7679448  29.0525442
  73.5882487  38.5768763  50.7034467  74.0582118  39.2010880  51.0902341
  73.6344367  37.9085739  51.2627682  73.6650363  38.5703444  50.8434539
  70.7453761  30.6825791  41.4283271  70.2292249  29.9905982  41.5534850
  70.1847689  31.3496568  41.3745870  70.5860274  30.6789049  41.4389337
  72.8145994  31.2218751  43.2576124  72.4277747  31.2467782  44.0389654
  72.3278931  30.6560430  42.8050640  72.6858503  31.1414502  43.3064027
  77.0638973  45.9392260  47.3149910  77.7018694  45.4452456  46.9812366
  76.4213065  45.8669660  46.7302137  77.0633200  45.8551268  47.1792265
  72.4803136  28.1085736  45.5486384  73.1096254  28.6446037  45.2707454
  72.6488998  28.0163095  46.3999949  72.5980930  28.1747099  45.6334912
  72.2817051  32.8956931  47.8212795  73.1090480  32.6242080  47.8771410
  72.3024897  33.6917773  48.1776613  72.4069901  32.9736685  47.8827978
  77.1193230  46.6312068  43.9555267  77.9085608  46.2801133  44.0757349
  77.2936828  47.4448457  43.6931901  77.2613512  46.6997925  43.9343135
  66.8586540  40.0420794  41.0083056  66.0174547  39.9424668  41.2161950
  67.0676548  40.8116274  41.3597376  66.7651233  40.1412837  41.0910371
  64.3362107  37.6640331  38.8367806  63.9418805  37.7383343  38.0617916
  63.7802224  38.0498277  39.3876168  64.1964920  37.7322106  38.8035466
  75.9727054  30.6421625  38.5171685  76.1776648  30.5743933  39.3628683
  75.6453478  31.4480446  38.4492863  75.9542302  30.7507565  38.6331341
  70.6703205  37.9702193  40.2580653  70.3666343  37.4158181  40.8591061
  69.9682626  38.1494403  39.7708688  70.5219415  37.9146975  40.2750359
  69.7269302  35.2802713  34.8225355  70.0029037  34.5621625  34.4102923
  70.3267972  35.8787633  34.6146461  69.8562567  35.2623084  34.7306116
  68.7321556  45.1851914  44.9652751  68.6241911  45.1953976  45.8314809
  68.9417338  46.0106694  44.7757705  68.7471667  45.3092989  45.0656843
  73.2279823  32.9516230  33.0971950  73.6823569  33.1226791  33.8219795
  73.7019869  32.3384341  32.6969726  73.3648143  32.8867116  33.1445712
  67.1455971  33.5966554  43.0942706  67.6057453  33.6705483  43.8317830
  67.1912078  34.3947808  42.7442528  67.2206526  33.7260701  43.1515463
  68.7939321  34.2633249  47.6614733  68.4024886  33.6166596  48.0970511
  68.9625184  34.8544684  48.2808989  68.7610231  34.2547517  47.8177439
  76.5084865  47.8873868  39.8606713  76.3104553  48.3764682  39.1662924
  75.8872576  48.0915109  40.4390847  76.3872429  47.9890406  39.8429936
  70.5692843  39.6558765  34.2016957  71.3134888  40.0433041  34.4399907
  70.7153539  38.8116190  34.3657445  70.7003428  39.5889237  34.2610927
  72.4872418  31.4509024  39.2348819  71.6408463  31.6231831  39.1090169
  72.4843551  30.6458367  39.5714647  72.3619568  31.3570053  39.2659946
  73.5570719  35.2284238  40.1010877  73.0830673  34.7026000  40.6116188
  73.9288855  34.6813711  39.5325738  73.5420608  35.0700235  40.0926024
  63.9343749  37.2255745  45.4694423  64.7969362  37.1251454  45.3831752
  63.6035532  36.6450454  44.9079995  64.0128945  37.1247371  45.3739828
  75.4854218  36.1220793  33.1636631  74.9577237  36.2049537  32.4742339
  75.9449927  36.8638664  33.1601275  75.4756069  36.2441455  33.0611326
  67.2945535  36.0498194  42.1304841  66.6698605  36.0616586  41.5230793
  66.9591130  36.5258369  42.7796081  67.1531027  36.1216711  42.1361409
  67.4787284  34.3923312  28.1877526  67.1300088  35.0443037  28.6509075
  66.9983729  34.3780425  27.4601397  67.3557528  34.4866366  28.1488617
  75.0391301  44.6924356  32.2946288  75.7625500  45.1582469  32.1510861
  74.5991892  44.7597966  31.5443885  75.0806993  44.7708193  32.1631069
  74.2077456  41.5521898  43.5446977  73.5934449  41.0079949  43.8395612
  74.7244741  41.0386135  43.0652793  74.1933118  41.3958307  43.5171205
  73.4473753  42.6226168  41.2791275  73.0201361  41.9975887  40.8456711
  73.4398698  42.3401090  42.1050282  73.3832894  42.4878949  41.3371103
  66.5636280  37.6591341  44.3479709  66.7229767  36.9034666  44.7531431
  66.3829174  38.2082281  45.0020447  66.5601639  37.6285155  44.5042415
  74.5056583  29.8252577  44.9030499  74.0097145  30.0216251  44.2122065
  75.2625645  30.2245245  44.7319300  74.5443408  29.9130311  44.7750635
  71.7759463  33.4994923  41.4933809  71.8001950  32.9655035  40.8046589
  72.0270936  32.9912232  42.1559400  71.8169382  33.3455827  41.4898454
  68.0560785  32.2265741  40.8739554  68.0959157  32.7274948  41.5874261
  67.2310450  32.3176135  40.6045477  67.9400311  32.3147558  40.9390092
  70.2390398  41.7926481  48.9759848  69.3886029  41.9298195  49.1117493
  70.4018526  41.0590259  49.4207550  70.1374262  41.7040582  49.0615447
  69.4775148  38.7426251  43.1713453  68.6467078  38.9100069  42.9648701
  69.4226666  38.3662202  43.9562338  69.3464563  38.7115982  43.2561981
  67.2858932  32.2335144  48.8069863  67.9111635  31.6897277  49.0799296
  66.8309412  31.7530062  48.2377654  67.3107192  32.0824625  48.7631457
  67.8511192  37.0181843  33.7003570  67.9914153  37.5154307  34.4032212
  68.3493725  36.3168137  33.8417784  67.9452273  36.9883821  33.8255149
  69.4590398  33.8162929  31.0041589  69.7806239  33.3366012  30.3500851
  69.7217341  34.6262575  30.8132401  69.5456423  33.8652827  30.8797081
  72.6887370  44.8381803  44.5240405  72.1812461  45.3917650  44.9681036
  72.3914017  44.8990093  43.7059180  72.5692255  44.9288115  44.4688862
  74.8549553  33.2035123  43.3665068  75.2804624  32.7507649  42.7548595
  74.2406546  32.6495194  43.6429856  74.8278198  33.0549099  43.3170093
  75.2995151  48.7545061  32.4544349  74.5824460  48.5805923  31.9891586
  75.9501888  48.5197633  31.9219835  75.2897001  48.6940854  32.3073567
  73.2943775  29.6750223  36.7755645  72.6512093  29.5247869  37.3440784
  72.9543182  29.4292568  36.0104750  73.1488853  29.6162345  36.7458660
  77.8843122  37.6309650  36.1985654  77.2134312  38.1739352  36.0698719
  78.5782872  38.1004505  35.9567349  77.8871989  37.7807921  36.1441182
  71.9329856  49.7706362  41.4297412  71.7095510  49.0125191  41.7981438
  71.4439699  49.8004383  40.7077852  71.8273305  49.6628586  41.3774153
  78.0471249  34.0865533  39.1076027  78.3998859  33.6595256  39.7821826
  77.1886051  34.0016377  39.2377103  77.9720694  34.0110274  39.2271037
  66.7454934  36.7173053  37.1658874  66.0266923  37.1337186  37.4331737
  67.1167297  37.2827292  36.6150512  66.6946866  36.8622334  37.1241681
  76.0454515  37.3500902  43.0560869  76.0252442  37.1684197  43.9095648
  76.0933716  38.2212920  43.0320453  76.0489156  37.4517440  43.1784164
  73.9900845  43.9388094  48.9809346  73.9496700  43.2937771  48.3954502
  74.8024163  43.8824711  49.2934758  74.1043999  43.8347061  48.9406295
  70.5808313  49.9906820  38.8834497  70.1668711  49.3280950  38.4938338
  71.2655687  50.1384679  38.3630191  70.6206684  49.9147478  38.7490994
  73.9473607  49.1496905  39.6358113  73.5489890  49.2599175  38.8678934
  73.3324826  49.3578971  40.2184673  73.7972496  49.1970473  39.6089413
  72.5201509  35.7571053  32.5032253  71.9266348  36.0788049  31.9516820
  72.5576786  34.9112148  32.2953359  72.4375898  35.6795381  32.3915024
  75.3959325  35.7150557  35.9334003  75.1673018  35.7383259  35.0912361
  75.6557401  34.8908024  36.0529014  75.4005513  35.5966637  35.8259201
  69.6778554  37.5685030  45.5359103  69.1657457  36.9606213  45.8944135
  69.5058050  38.2841623  46.0033079  69.5768191  37.5848330  45.6575327
  64.5244268  36.0122606  48.1861465  64.3546859  36.6723981  47.6409672
  64.0810218  36.2229167  48.9073954  64.4343602  36.1408588  48.2123095
  68.4504088  34.2527104  37.2288199  68.9261454  34.6144183  36.5938380
  67.9492687  34.9083571  37.5088342  68.4469447  34.4021292  37.1764940
  73.5547624  35.4909275  47.9761359  74.1119054  35.2623085  47.3439824
  73.2308689  36.2514941  47.6996571  73.5894034  35.5693112  47.8417856
  71.2730741  38.5776928  48.9413366  72.0242068  38.8928605  49.2552920
  71.4653318  38.3756099  48.1147288  71.4122155  38.5944310  48.8656762
  70.4930741  36.3968303  30.5961583  70.8729706  36.4147933  29.8112698
  69.7523337  36.8422292  30.4752430  70.4399579  36.4650078  30.4625151
  78.1216031  34.7050495  36.1837162  78.1210258  34.5499151  37.0421438
  77.9172212  35.5513482  36.1278547  78.0915809  34.8071115  36.3025101
  75.8456883  39.3847996  39.8373368  76.3410549  38.6670991  39.7977389
  75.0356659  39.0818794  39.7227855  75.8000777  39.2345643  39.8147094
  71.2915495  43.2345810  31.9870373  70.4826818  42.9112483  31.9403682
  71.7990404  42.5279032  31.9198622  71.2465162  43.0827126  31.9700667
  77.9108702  42.1351684  42.5250497  78.3363774  41.6126106  41.9720922
  77.5465622  42.7332521  42.0039120  77.9195305  42.1461911  42.3659507
  67.5462782  50.4315901  41.2847843  67.8609341  51.2452290  41.2925624
  67.9556196  50.0466120  41.9530002  67.6530880  50.4944604  41.3851934
  74.4987302  45.8485948  38.8551655  74.9698480  46.5626211  39.0241640
  74.8347480  45.2484698  39.3911524  74.6182417  45.8657412  38.9584031
  76.5864286  47.4587262  51.0343727  76.6961252  46.6695822  51.3900474
  76.9155183  47.3693198  50.2318065  76.6516692  47.3293114  50.9686117
  71.4156797  30.6213419  45.8109749  71.5484702  29.8244412  46.1390725
  71.8001950  31.1479822  46.3908025  71.4913126  30.5813335  45.9453252
  75.1361248  45.6403882  45.6179347  74.5882194  45.0161766  45.3499413
  75.5974277  45.8298154  44.9023427  75.1228458  45.5762933  45.4729778
  74.4889152  27.5443745  42.4090843  73.6835116  27.4341475  42.7258681
  74.3595887  27.6456201  41.5520708  74.3509285  27.5427415  42.3298883
  77.9455112  33.7089237  43.0030540  77.3618101  34.2098443  42.5908107
  78.2659407  33.2018793  42.3694863  77.9068288  33.7081072  42.8489047
  70.4849912  32.6229832  33.2789214  71.3065606  32.7928144  33.0370909
  70.0219563  32.7777093  32.5555512  70.5381074  32.6711565  33.1360859
  69.0745244  30.6172594  44.0587643  69.6189657  30.2763721  44.6491985
  69.1282179  31.4758055  44.2008928  69.1634363  30.6927853  44.1669517
  74.7019574  46.6454955  42.1488688  75.5217948  46.5017921  42.4104984
  74.4213652  47.2701154  42.6905126  74.7816318  46.7165307  42.2676628
  73.5323850  58.9596854  37.5236833  73.2974034  58.1264507  37.4169102
  73.6709491  59.2401520  36.7098034  73.5179512  58.8780358  37.3879188
  75.8313937  51.1282585  40.4221141  75.2118969  50.5375232  40.2531155
  75.7297801  51.7194020  39.7885464  75.7251613  51.1286667  40.3026130
  75.5583070  54.6734867  42.6664710  75.4341767  55.2597312  43.3014529
  76.2101355  54.1795062  42.9676985  75.6356720  54.6873671  42.8050639
  75.0941175  63.8382525  38.7993039  74.6108753  64.5633015  38.7752623
  75.9064493  64.1358655  38.9103197  75.1431922  63.9884879  38.8120318
  77.6621715  48.7057131  31.0175939  77.4797288  48.9229012  30.1916932
  78.5247328  48.8196144  31.0734554  77.7626305  48.7547029  30.9030426
  77.2736147  60.5445053  38.4598927  78.1125047  60.7767986  38.5072689
  77.3047916  59.6749364  38.3905962  77.4017865  60.4501999  38.4563572
  77.8988850  60.9645928  42.7612233  78.4387075  60.8217059  43.4315605
  77.2158796  61.3642679  43.1296259  77.8781004  61.0025599  42.9146654
  73.3025995  57.1846219  42.9146654  73.0364411  56.3685336  43.0737644
  73.3164559  57.2299375  42.0442170  73.2650718  57.0703124  42.8100136
  77.2083742  51.9831303  29.5298412  76.4941919  51.6969483  29.9420845
  77.6927711  52.3227929  30.1704800  77.1743106  51.9912953  29.6854047
  73.7119409  57.9704998  40.1958398  73.5294982  57.9451884  39.3430691
  74.4469078  58.4403936  40.2347307  73.7933473  58.0366361  40.0756317
  76.7765161  54.6890001  46.7040507  77.5005133  54.6743032  47.1905402
  76.8781297  55.3985357  46.2062475  76.8983370  54.7914704  46.7019294
  73.6790319  54.8498499  40.3457465  74.2563822  54.7134950  40.9849710
  72.9804381  54.3934283  40.6003049  73.6611341  54.7620765  40.4779755
  69.1549152  53.7010392  37.0605284  69.2409404  53.3242260  37.8418813
  69.7824950  53.3270838  36.5825242  69.2605703  53.5895874  37.1050761
  74.7425111  62.4702125  41.1136644  74.7829256  62.7416976  40.2856424
  75.3019635  62.9944033  41.5294432  74.8308457  62.5877880  41.0528532
  76.1939697  61.0544074  35.9390570  75.3677815  61.3005811  35.8124849
  76.2551689  60.9756155  36.8052628  76.0813864  61.0789023  36.0479515
  76.3383073  50.5971274  34.3402887  76.0507869  50.2272545  33.6034834
  77.0253541  51.0666130  34.0786591  76.3971971  50.6118244  34.1917962
  76.8244361  56.8682295  44.8924431  77.3365458  57.1466548  44.2433191
  76.5380704  57.6071589  45.2587244  76.8579225  57.0184649  44.8514309
  73.9111268  51.3752487  35.1888168  74.0127404  52.1778648  35.5169143
  74.7067155  51.1739823  34.8911248  74.0439173  51.4638386  35.1923523
  74.7275000  51.4899665  42.9309289  74.5860492  50.6383606  43.0553797
  75.0115563  51.5328326  42.1071495  74.7482846  51.3699415  42.8276913
  75.4965305  49.4030013  46.2486740  74.9607495  48.7910371  46.5647507
  75.5583070  49.9778149  46.9020406  75.4260938  49.3976940  46.3922166
  77.6154061  56.8110747  36.0606794  77.7718680  56.7457549  36.9162786
  77.9554654  57.5859299  35.8485474  77.6887296  56.9159945  36.1561388
  74.1888323  53.9945697  36.3767561  74.5687287  54.4130242  35.7127829
  73.6143687  54.5759153  36.6836405  74.1599647  54.1423556  36.3244302
  77.8319124  55.5606102  41.0083056  76.9907131  55.4609976  41.2161950
  78.0409132  56.3301582  41.3597376  77.7383817  55.6598145  41.0910371
  75.3094691  53.1825639  38.8367806  74.9151389  53.2568651  38.0617916
  74.7534808  53.5683585  39.3876168  75.1697503  53.2507413  38.8035466
  77.7227932  57.9549864  42.4274689  77.1315865  58.5959362  42.3977704
  78.4848955  58.3787481  42.4005988  77.7476193  58.1125703  42.4189836
  78.1188555  49.1151862  43.0942706  78.5790036  49.1890791  43.8317830
  78.1644661  49.9133116  42.7442528  78.1939110  49.2446009  43.1515463
  74.9076333  52.7441053  45.4694423  75.7701946  52.6436762  45.3831752
  74.5768116  52.1635762  44.9079995  74.9861529  52.6432679  45.3739828
  78.2678118  51.5683502  42.1304841  77.6431189  51.5801894  41.5230793
  77.9323713  52.0443677  42.7796081  78.1263610  51.6402019  42.1361409
  78.4519867  49.9108620  28.1877526  78.1032671  50.5628345  28.6509075
  77.9716313  49.8965733  27.4601397  78.3290111  50.0051674  28.1488617
  74.9803794  59.6283962  43.5708605  74.4503719  58.9376401  43.6203580
  75.2528887  59.6194147  42.7421314  74.9428516  59.5251094  43.4556021
  77.5368864  53.1776649  44.3479709  77.6962351  52.4219974  44.7531431
  77.3561757  53.7267589  45.0020447  77.5334223  53.1470463  44.5042415
  70.2599636  56.3011726  40.9276953  70.1543085  56.2558570  40.0629037
  69.5099856  56.6465506  41.2091238  70.1335239  56.3452634  40.8414283
  75.3596986  55.6002102  34.2985693  75.8689216  56.1966610  34.6796999
  75.8331258  55.3328076  33.6162113  75.5040362  55.6487918  34.2540216
  77.7187518  52.2358361  37.1658874  76.9999507  52.6522493  37.4331737
  78.0899880  52.8012600  36.6150512  77.6679450  52.3807642  37.1241681
  75.4976852  51.5307914  48.1861465  75.3279442  52.1909288  47.6409672
  75.0542802  51.7414475  48.9073954  75.4076186  51.6593896  48.2123095
  72.3978916  54.4354779  43.4449955  71.8505636  53.7655425  43.5630823
  73.1871295  54.0684627  43.5093422  72.4331100  54.2819766  43.4718656
  71.1565886  53.6475587  40.5995978  70.9787647  53.1952196  41.3250894
  70.8684908  54.4501748  40.7834456  71.0878839  53.6998145  40.7339481
  72.8938356  56.1803311  37.7117737  72.0283875  56.1689001  37.6000508
  72.9937172  55.9933534  38.5588876  72.7812523  56.1509372  37.8206682
  75.8608386  59.8974318  40.9326451  76.4653243  59.8570152  40.3040272
  75.6535698  60.7445470  40.9630507  75.9197283  60.0162320  40.8442568
  71.0959668  58.8808935  40.8025374  70.9983946  58.0705207  41.1115431
  71.8788538  58.8600729  40.4171642  71.1975805  58.7576026  40.7912237
  56.5059706   8.8265691  22.5661774  55.7542606   8.4481229  22.3377819
  56.9545718   8.8584125  21.8180584  56.4609373   8.7751298  22.4219276
  61.9584666   9.2491060  17.9947321  61.6236035   9.9267982  17.5591543
  62.4711536   8.8596372  17.4064192  61.9850247   9.2915639  17.8434112
  61.4988957  11.2005329  23.9358432  61.8828337  11.7692228  23.3963208
  61.4348099  10.4754839  23.4564248  61.5462385  11.1780793  23.7852295
  58.0844462   8.8384083  24.8324546  58.1854825   8.0284437  25.1421674
  57.4886208   8.7441029  24.2024225  58.0117001   8.7049111  24.7850785
  57.9245202  13.7561672  26.2339402  58.5682657  14.1974836  26.6235561
  58.2501457  12.9515098  26.1469661  58.0677031  13.7026867  26.2784879
  51.2809507   4.8604370  24.4576880  51.0459691   4.0272022  24.3509149
  51.4195147   5.1409035  23.6438081  51.2665169   4.7787873  24.3219235
  58.6265782   6.7673647  21.6059264  58.9481623   7.3078854  21.0020572
  59.2737878   6.1970418  21.7381554  58.7691837   6.7632822  21.5366299
  60.8713159   6.5959005  28.5299160  61.1536402   5.8010411  28.3085916
  61.5999320   7.0739592  28.5504221  61.0202723   6.5493602  28.5002175
  52.8426831   9.7390040  25.7333086  52.3594410  10.4640530  25.7092670
  53.6550150  10.0366170  25.8443244  52.8917579   9.8892394  25.7460365
  58.9140985   8.5322221  28.3382900  58.3967927   8.1729636  27.7344208
  59.6115377   8.0084396  28.3488967  58.9406566   8.4019909  28.2513159
  62.5704577   8.9817035  34.2999073  62.6587923   8.7943176  35.1477284
  62.9994290   8.3354465  33.9003920  62.6466680   8.8580043  34.3670825
  60.1375037   8.2648195  33.2816736  59.5745872   7.8520805  33.8056397
  60.8996061   8.1901101  33.7009879  60.1669486   8.1925596  33.4209736
  55.6971029  10.2546216  25.8853366  56.3991608   9.7398205  25.9426122
  55.6168512  10.5820368  26.6900241  55.7894789  10.2260443  26.0126158
  55.0221804   6.4452568  25.3938974  55.8610703   6.6775501  25.4412735
  55.0533573   5.5756880  25.3246009  55.1503522   6.3509515  25.3903619
  55.6474507   6.8653444  29.6952279  56.1872732   6.7224575  30.3655652
  54.9644453   7.2650194  30.0636306  55.6266661   6.9033114  29.8486701
  62.6824637   8.4126054  36.9642857  63.4665053   8.5256902  37.3298599
  62.4821231   7.5867191  37.1601543  62.7690662   8.3072774  37.0477243
  51.0511652   3.0853734  29.8486701  50.7850067   2.2692851  30.0077691
  51.0650216   3.1306890  28.9782216  51.0136374   2.9710639  29.7440183
  62.8395030  10.3236156  30.6109313  62.0410276  10.0835656  30.8683181
  63.2881041  10.3750549  31.3576360  62.7869641  10.2958547  30.7594237
  51.4605066   3.8712514  27.1298445  51.2780639   3.8459400  26.2770737
  52.1954735   4.3411452  27.1687354  51.5419130   3.9373876  27.0096364
  57.7998126   6.1321304  24.1642387  58.4372072   5.8933051  24.7094181
  58.2253197   6.3358463  23.4295548  57.9574292   6.1272314  24.1359544
  52.4910768   8.3709640  28.0476691  52.5314913   8.6424491  27.2196471
  53.0505292   8.8951548  28.4634479  52.5794114   8.4885395  27.9868579
  60.1819598   6.6093726  25.8436173  60.2558606   6.4468898  26.6978023
  60.9989104   6.7983916  25.5996655  60.3135956   6.6130469  25.9334199
  53.9425354   6.9551589  22.8730617  53.1163472   7.2013327  22.7464896
  54.0037345   6.8763670  23.7392675  53.8299521   6.9796538  22.9819561
  58.7224183   9.5728470  20.5749647  59.0122482   9.1817451  19.8508873
  59.4527664   9.7545174  21.0154922  58.8731067   9.5422283  20.5332454
  56.6630099  11.5495852  23.6409797  56.4430394  11.2593207  24.4336464
  56.4424621  10.8910807  23.1127709  56.5977693  11.4095560  23.6798705
  58.8298055  12.9225242  22.4240489  59.4822113  12.3901684  22.6531515
  58.1323663  12.5693894  22.8108363  58.8228772  12.7914765  22.5152657
  55.7779319   5.2764420  21.8307863  56.5325287   5.6577459  22.0443326
  55.1849932   5.7275563  22.2854560  55.8016033   5.3993247  21.9290742
  57.0977546   6.4472981  27.2047979  56.5758299   6.5873273  27.8899843
  57.4851566   5.6883645  27.3950096  57.0781247   6.3558505  27.3349055
  63.2944551   8.1868440  21.1908547  63.0531227   7.4536301  20.7835612
  63.4745884   8.7355297  20.5374881  63.2852175   8.1590831  21.0338770
  57.6624031  10.1533761  30.2877834  57.8113595   9.5936677  29.6351239
  58.4424033  10.2325763  30.6710353  57.7998125  10.0819326  30.2474783
  60.1877332  10.3248404  31.5662325  60.1121003   9.6557214  32.1213113
  60.1167191  11.0266192  32.0802991  60.1657939  10.3293311  31.7239173
  60.8447579   8.8449403  22.3985931  61.6097470   8.5759046  22.0768595
  60.7425669   8.3599413  23.1155994  60.9429074   8.7338967  22.4565759
  59.5768966  13.7316724  30.0240326  60.0664897  13.0327513  29.8415990
  59.0053199  13.4340594  30.6116383  59.5653496  13.5842947  30.0841367
  60.0705312   7.4793497  19.1480232  60.1398132   6.6208036  19.2873233
  60.8493767   7.6965378  18.8199257  60.1958162   7.3846361  19.1197390
  64.4612800   9.9031198  23.3616726  64.0692591   9.5997914  22.6439592
  64.6165872  10.7400288  23.1721679  64.4266390   9.9815035  23.2273223
  65.8411470   8.0504891  30.8895314  66.6303849   7.6993956  31.0097395
  66.0155068   8.8641280  30.6271948  65.9831752   8.1190749  30.8683182
  57.4539797   6.6044737  31.8992798  57.3460152   6.6146799  32.7654856
  57.6635578   7.4299518  31.7097752  57.4689908   6.7285812  31.9996890
  55.4713589   3.8557380  29.3614736  54.8801522   4.4966878  29.3317751
  56.2334612   4.2794997  29.3346035  55.4961849   4.0133218  29.3529883
  65.2303105   9.3066691  26.7946760  65.0322794   9.7957506  26.1002971
  64.6090816   9.5107933  27.3730893  65.1090669   9.4083229  26.7769983
  52.7289451   5.5291477  30.5048652  52.1989375   4.8383916  30.5543627
  53.0014544   5.5201662  29.6761360  52.6914173   5.4258609  30.3896068
  48.0085293   2.2019241  27.8617000  47.9028742   2.1566086  26.9969084
  47.2585513   2.5473022  28.1431285  47.8820896   2.2460149  27.7754330
  61.4105611   6.2574627  31.4580452  60.9030702   6.8110473  31.9021083
  61.1132257   6.3182917  30.6399227  61.2910496   6.3480938  31.4028909
  64.0213391  10.1737884  19.3884396  63.3042701   9.9998747  18.9231633
  64.6720129   9.9390457  18.8559882  64.0115241  10.1133677  19.2413613
  60.6548096  11.1899185  28.3637459  60.4313750  10.4318014  28.7321485
  60.1657939  11.2197206  27.6417899  60.5491545  11.0821409  28.3114200
  59.3026553  11.4099643  25.8174544  58.8886952  10.7473773  25.4278385
  59.9873927  11.5577502  25.2970238  59.3424925  11.3340301  25.6831041
  62.6691847  10.5689728  26.5698160  62.2708130  10.6791999  25.8018980
  62.0543067  10.7771795  27.1524720  62.5190736  10.6163296  26.5429459
  56.2681023  11.8508725  28.2187890  56.5827581  12.6645113  28.2265671
  56.6774436  11.4658943  28.8870049  56.3749121  11.9137427  28.3191981
  63.2205542   7.2678771  25.7891701  63.6916720   7.9819034  25.9581687
  63.5565721   6.6677522  26.3251571  63.3400657   7.2850236  25.8924077
  65.3082527   8.8780085  37.9683774  65.4179492   8.0888645  38.3240521
  65.6373423   8.7886021  37.1658112  65.3734933   8.7485938  37.9026164
  53.6094043   5.7981833  27.8666498  54.2138900   5.7577667  27.2380319
  53.4021355   6.6452985  27.8970554  53.6682940   5.9169836  27.7782614
  63.4237815   8.0647778  29.0828735  64.2436189   7.9210744  29.3445030
  63.1431892   8.6893977  29.6245173  63.5034558   8.1358130  29.2016675
  48.8445325   4.7816451  27.7365421  48.7469603   3.9712722  28.0455478
  49.6274195   4.7608244  27.3511689  48.9461461   4.6583541  27.7252284
  73.0951150  14.8088281  26.8024542  72.2389046  14.9696779  26.8533659
  73.1418804  13.9380345  26.8229603  72.9750261  14.7039083  26.8130608
  67.4792290  24.3450999  22.5661774  66.7275189  23.9666537  22.3377819
  67.9278301  24.3769432  21.8180584  67.4341957  24.2936606  22.4219276
  76.4044867  21.0774807  36.4084998  77.1111634  20.5826837  36.5371933
  76.5932802  21.5183888  35.6787656  76.5372772  21.0693157  36.3194044
  72.9317250  24.7676368  17.9947321  72.5968618  25.4453290  17.5591543
  73.4444120  24.3781680  17.4064192  72.9582831  24.8100947  17.8434112
  72.4721541  26.7190637  23.9358432  72.8560920  27.2877536  23.3963208
  72.4080682  25.9940147  23.4564248  72.5194968  26.6966100  23.7852295
  75.9402971  16.8680325  29.4456194  76.4858931  17.5465412  29.5050163
  75.8819847  16.7267786  28.5857775  76.0118885  16.9472327  29.3268254
  69.0577046  24.3569391  24.8324546  69.1587409  23.5469745  25.1421674
  68.4618791  24.2626337  24.2024225  68.9849585  24.2234419  24.7850785
  77.7168040  18.2964932  20.3189922  77.6007566  19.0472618  20.7482060
  78.5123926  18.0388885  20.5686009  77.8172629  18.3699779  20.4194013
  68.8977786  29.2746980  26.2339402  69.5415241  29.7160144  26.6235561
  69.2234041  28.4700406  26.1469661  69.0409614  29.2212175  26.2784879
  62.2542090  20.3789678  24.4576880  62.0192275  19.5457330  24.3509149
  62.3927731  20.6594343  23.6438081  62.2397753  20.2973181  24.3219235
  64.5532178  12.5475408  27.3561188  63.9337209  11.9568055  27.1871202
  64.4516041  13.1386843  26.7225511  64.4469853  12.5479491  27.2366177
  69.5998365  22.2858955  21.6059264  69.9214206  22.8264162  21.0020572
  70.2470462  21.7155726  21.7381554  69.7424420  22.2818130  21.5366299
  71.6500073  14.2874950  21.6893651  72.3480238  14.4663078  22.1815114
  71.9652406  13.7645289  21.0664040  71.7995410  14.2368722  21.6695661
  64.2801311  16.0927690  29.6004756  64.1560008  16.6790135  30.2354575
  64.9319595  15.5987886  29.9017031  64.3574960  16.1066494  29.7390686
  71.8388009  20.6745395  21.6773442  72.2781644  20.0662496  22.1228215
  71.6892672  20.2952768  20.9058907  71.8809474  20.5283866  21.6292609
  69.3059652  19.2689407  28.8792268  69.9508654  18.7761850  28.5603216
  69.5461429  19.4114193  29.7058346  69.4370237  19.2166849  28.9541801
  71.8445743  22.1144313  28.5299160  72.1268986  21.3195718  28.3085916
  72.5731903  22.5924900  28.5504221  71.9935307  22.0678910  28.5002175
  69.8226937   9.6567347  25.7714925  69.4930267  10.1078490  25.1018624
  69.1471939   9.5783510  26.3187932  69.6737373   9.7118482  25.7538149
  75.4397345  19.0272576  18.6304211  75.3548640  19.8833543  18.7753780
  75.9281728  18.7516900  19.2986370  75.4986243  19.1129898  18.7506293
  76.3715778  15.6457370  20.1301946  75.8427250  15.8617004  20.7899253
  76.8940798  16.3393509  20.0502916  76.3704231  15.7800507  20.2157546
  68.2615386  19.5420587  18.9309414  67.6772601  20.0470619  19.3375278
  67.8585481  19.3162974  18.1906006  68.1154690  19.5828836  18.8814440
  63.8159415  25.2575348  25.7333086  63.3326993  25.9825838  25.7092670
  64.6282733  25.5551478  25.8443244  63.8650163  25.4077702  25.7460365
  69.8873569  24.0507529  28.3382900  69.3700511  23.6914944  27.7344208
  70.5847960  23.5269704  28.3488967  69.9139150  23.9205217  28.2513159
  73.5437161  24.5002343  34.2999073  73.6320507  24.3128484  35.1477284
  73.9726873  23.8539773  33.9003920  73.6199263  24.3765351  34.3670825
  71.1107621  23.7833503  33.2816736  70.5478455  23.3706113  33.8056397
  71.8728644  23.7086409  33.7009879  71.1402069  23.7110904  33.4209736
  72.7192601  15.7886239  17.4078335  72.9588604  15.9964223  16.5953678
  73.0408442  14.9843748  17.5167280  72.8029759  15.7000341  17.3038888
  66.6703612  25.7731524  25.8853366  67.3724191  25.2583513  25.9426122
  66.5901095  26.1005676  26.6900241  66.7627373  25.7445750  26.0126158
  67.7182519  16.0107111  35.0133781  67.8903022  15.9013006  35.8619062
  68.2551876  16.6561517  34.7764973  67.8227523  16.0899113  35.1038878
  66.3839956  10.1249954  17.9515986  66.2015529  10.3421835  17.1256979
  67.2465569  10.2388967  18.0074600  66.4844545  10.1739852  17.8370473
  65.9954388  21.9637876  25.3938974  66.8343287  22.1960809  25.4412735
  66.0266157  21.0942188  25.3246009  66.1236105  21.8694823  25.3903619
  66.6207091  22.3838751  29.6952279  67.1605316  22.2409882  30.3655652
  65.9377037  22.7835502  30.0636306  66.5999244  22.4218422  29.8486701
  76.0447975  18.0629752  24.8897304  76.8005490  18.4961266  24.9286212
  76.1510300  17.4134522  25.4631940  76.1718146  18.0307236  24.9795329
  73.6557220  23.9311362  36.9642857  74.4397637  24.0442210  37.3298599
  73.4553815  23.1052499  37.1601543  73.7423246  23.8258082  37.0477243
  62.0244236  18.6039042  29.8486701  61.7582651  17.7878159  30.0077691
  62.0382800  18.6492198  28.9782216  61.9868958  18.4895947  29.7440183
  65.9301983  13.4024127  16.4638459  65.2160160  13.1162306  16.8760891
  66.4145951  13.7420752  17.1044846  65.8961346  13.4105776  16.6194094
  66.7742842  12.1417421  32.4953709  66.0814639  11.6714400  32.7414440
  67.3903169  11.9155725  33.0695416  66.7627372  12.0384552  32.6162861
  73.8127614  25.8421464  30.6109313  73.0142859  25.6020964  30.8683181
  74.2613625  25.8935857  31.3576360  73.7602225  25.8143855  30.7594237
  73.1049301  21.9054081  16.8400267  73.5200449  21.5739104  16.1484763
  72.2741230  21.6722983  16.7120404  73.0437309  21.8225337  16.7191115
  62.4337649  19.3897822  27.1298445  62.2513223  19.3644708  26.2770737
  63.1687318  19.8596759  27.1687354  62.5151713  19.4559184  27.0096364
  65.4983401  16.1082825  33.6380554  66.2223373  16.0935855  34.1245449
  65.5999537  16.8178180  33.1402522  65.6201610  16.2107528  33.6359341
  72.8728350  19.5881909  38.5029501  72.0801331  19.9025421  38.6882120
  72.9877278  19.8033378  37.6650285  72.7723761  19.6665746  38.4067836
  75.5459669  16.3115900  22.7924517  75.6406524  17.0505194  23.2464142
  74.9218513  15.8833376  23.2259081  75.4668699  16.3577221  22.9232664
  73.8012143  19.4902113  33.4414798  74.3751005  18.8529357  33.5963361
  73.7226947  19.4906195  32.5724455  73.8745378  19.3967224  33.3361208
  62.4008560  16.2691322  27.2797512  62.9782062  16.1327773  27.9189757
  61.7022621  15.8127106  27.5343096  62.3829581  16.1813589  27.4119801
  69.1575862  17.9225378  25.4935995  68.8995106  17.0897113  25.4667294
  69.2124345  18.1482991  24.6528495  69.1275640  17.8323149  25.3656132
  68.1310574  15.4763140  25.9800890  67.5560165  15.6355309  26.6164851
  67.7546250  14.8398550  25.5169340  67.9913386  15.4060953  26.0055448
  71.7983863  13.9486490  30.8393268  71.4098295  13.5240708  30.1845459
  71.1338561  14.1968639  31.3470295  71.6430790  13.9225211  30.8181136
  57.8767393  15.1203215  23.9945330  57.9627645  14.7435084  24.7758860
  58.5043190  14.7463661  23.5165289  57.9823944  15.0088697  24.0390808
  72.9022801  18.1785094  19.0370075  73.7163440  18.4699987  18.9252846
  72.8381942  17.5244957  18.4628368  73.0125540  18.1250289  18.9358912
  68.7730709  21.6506612  24.1642387  69.4104656  21.4118359  24.7094181
  69.1985781  21.8543771  23.4295548  68.9306875  21.6457622  24.1359544
  63.4643352  23.8894948  28.0476691  63.5047497  24.1609799  27.2196471
  64.0237876  24.4136856  28.4634479  63.5526697  24.0070703  27.9868579
  69.4133524  16.8708902  18.5017277  69.7978677  16.6516608  19.2533822
  69.1645144  17.6971847  18.6318353  69.4335597  16.9607048  18.6318353
  69.5802065  10.1515317  38.2179861  69.2655506  10.9214880  37.9549423
  69.2591997   9.5885573  37.6332088  69.4860984  10.1825585  38.0921211
  71.1552181  22.1279034  25.8436173  71.2291189  21.9654206  26.6978023
  71.9721687  22.3169224  25.5996655  71.2868540  22.1315777  25.9334199
  64.9157938  22.4736897  22.8730617  64.0896055  22.7198634  22.7464896
  64.9769929  22.3948978  23.7392675  64.8032105  22.4981846  22.9819561
  67.1333962   8.5405838  23.8326057  66.2656387   8.6128438  23.8983666
  67.4209166   9.3427917  24.0214032  67.0473710   8.6699985  23.8700824
  69.6956767  25.0913777  20.5749647  69.9855065  24.7002759  19.8508873
  70.4260248  25.2730482  21.0154922  69.8463651  25.0607591  20.5332454
  70.2851512  19.8931523  31.6602777  69.7863206  20.6047291  31.7387666
  71.0951736  20.2132190  31.6220940  70.3307619  20.0458372  31.6659346
  67.6362682  27.0681160  23.6409797  67.4162978  26.7778515  24.4336464
  67.4157204  26.4096115  23.1127709  67.5710277  26.9280868  23.6798705
  66.5479630  19.1554476  25.9065498  66.2592878  18.5291948  26.4411226
  67.4162978  19.0974764  25.9730179  66.6339881  19.0542021  25.9956453
  77.3357527  14.2989260  26.2247480  76.9922293  13.5779595  26.5754730
  77.4350570  14.0903111  25.3825838  77.2999570  14.1613463  26.1519160
  69.8030638  28.4410550  22.4240489  70.4554696  27.9086992  22.6531515
  69.1056247  28.0879202  22.8108363  69.7961356  28.3100073  22.5152657
  66.7511903  20.7949727  21.8307863  67.5057871  21.1762767  22.0443326
  66.1582516  21.2460871  22.2854560  66.7748617  20.9178555  21.9290742
  77.7970556  20.7614964  21.7671468  78.3628589  21.4208174  21.6830011
  77.1498460  21.1064662  22.2387870  77.7849313  20.9096905  21.8244225
  69.2118570  12.7512568  36.9565076  68.4018346  13.0570348  36.8454918
  69.6893257  13.4718150  37.0717660  69.1622049  12.9027169  36.9572147
  68.0710130  21.9658289  27.2047979  67.5490883  22.1058580  27.8899843
  68.4584150  21.2068953  27.3950096  68.0513830  21.8743813  27.3349055
  65.0601314  12.0164098  21.2742933  64.7726109  11.6465368  20.5374881
  65.7471782  12.4858953  21.0126638  65.1190211  12.0311067  21.1258009
  74.2677135  23.7053748  21.1908547  74.0263810  22.9721609  20.7835612
  74.4478467  24.2540605  20.5374881  74.2584759  23.6776139  21.0338770
  69.4976455  18.9962308  22.6029470  69.3019238  19.6037042  22.0089773
  69.7210801  18.3030252  22.1221144  69.5011096  18.9839833  22.4445551
  67.8954985  15.8817046  22.7210338  68.6177637  16.0458204  22.2614144
  67.4162978  16.6026711  22.6149678  67.9318716  16.0115275  22.6375952
  75.8548493  12.2180845  28.1007023  75.0159593  12.2442123  27.8645286
  75.9252860  12.8651580  28.6812370  75.7416886  12.3176970  28.1516140
  65.5462602  18.2875118  31.8264478  66.0583699  18.5659371  31.1773238
  65.2598944  19.0264412  32.1927291  65.5797465  18.4377472  31.7854356
  62.6329508  12.7945310  22.1228214  62.7345645  13.5971471  22.4509190
  63.4285395  12.5932646  21.8251295  62.7657414  12.8831209  22.1263570
  69.0646327  10.3801507  31.8865520  68.8729524  10.3956641  32.7364943
  69.9144923  10.5765181  31.8632174  69.1622049  10.4115858  32.0088814
  63.4493240  12.9092488  29.8649336  63.3078732  12.0576429  29.9893844
  63.7333804  12.9521149  29.0411542  63.4701086  12.7892238  29.7616960
  73.6031833  14.7459578  24.0093824  73.3566547  14.6655329  24.8430613
  73.9316956  13.9613046  23.8156352  73.6153076  14.6185844  24.1041347
  77.4979881  21.4542938  27.7980606  77.3594241  22.1523984  28.3029348
  76.7179879  21.2991594  27.4416787  77.3623108  21.5343104  27.8206880
  75.8357967  17.7539313  34.0502987  75.8306005  16.8819130  34.0545414
  76.5418960  17.9527482  33.5772443  75.9402971  17.6543187  33.9810023
  69.5628860  17.4816297  33.4216807  69.7072236  18.0617505  32.7859917
  69.9104508  17.8592594  34.1266662  69.6356321  17.6237001  33.4315802
  71.7348777  16.6806465  31.2041939  70.9872091  16.8737480  30.7990217
  71.8890303  15.8551685  30.9666060  71.6471205  16.5871577  31.1087345
  68.6356615  25.6719069  30.2877834  68.7846179  25.1121985  29.6351239
  69.4156617  25.7511071  30.6710353  68.7730709  25.6004634  30.2474783
  71.1609916  25.8433712  31.5662325  71.0853587  25.1742522  32.1213113
  71.0899775  26.5451500  32.0802991  71.1390522  25.8478619  31.7239173
  71.9750554  10.5757016  32.0937343  72.4323168  11.3080990  32.2210135
  72.0506883  10.1523481  32.8524598  72.0541524  10.6214254  32.2238419
  64.2183546  10.8222836  33.1826786  63.6825735  10.2103194  33.4987554
  64.2801310  11.3970972  33.8360453  64.1479178  10.8169764  33.3262213
  71.8180162  24.3634711  22.3985931  72.5830054  24.0944354  22.0768595
  71.7158252  23.8784721  23.1155994  71.9161658  24.2524275  22.4565759
  75.2376619  20.2001550  26.6638613  74.5621620  19.9686782  27.1652000
  75.2468995  19.5922733  26.0380718  75.1395123  20.0760475  26.6454765
  72.3670763  15.0419379  33.4202666  72.3029904  15.9029336  33.2922802
  72.5067950  14.7251372  32.6198217  72.3786233  15.1219546  33.2830878
  77.2393353  23.0566683  18.8948791  77.3213191  23.8633669  18.5710241
  77.7243095  23.0762642  19.6189564  77.3230511  23.1787345  18.9535689
  71.0489856  17.7351518  27.5618869  70.6252106  17.9356018  26.8257887
  70.8734712  16.8880366  27.6743168  70.9600737  17.6400300  27.4692559
  70.5501550  29.2502031  30.0240326  71.0397480  28.5512821  29.8415990
  69.9785782  28.9525901  30.6116383  70.5386080  29.1028255  30.0841367
  66.3372301  18.2303570  22.9946841  66.4936921  18.1650373  23.8502833
  66.6772894  19.0052122  22.7825521  66.4105536  18.3352768  23.0901435
  72.8751446  17.6061454  21.8640204  73.4166991  17.1031835  22.3278825
  73.1898005  17.5526648  21.0529690  73.0015843  17.5240874  21.8124016
  76.7468553  21.8164101  38.9767116  77.5603419  21.5449250  39.1372249
  76.5863520  21.5171641  38.1727312  76.8438502  21.7319027  38.8812522
  71.0437896  22.9978805  19.1480232  71.1130716  22.1393344  19.2873233
  71.8226351  23.2150686  18.8199257  71.1690746  22.9031669  19.1197390
  74.0240715  12.4997758  31.9162505  74.2382685  11.8608672  31.3625859
  73.4074615  12.9443582  31.4870366  73.9646045  12.4707902  31.7712936
  75.4345383  25.4216506  23.3616726  75.0425175  25.1183221  22.6439592
  75.5898456  26.2585596  23.1721679  75.3998973  25.5000343  23.2273223
  62.9106563  15.4138520  23.3107608  63.2905528  15.8323065  22.6467876
  62.3361928  15.9951976  23.6176452  62.8817888  15.5616379  23.2584349
  76.1879803  14.1086823  32.8545812  75.3756485  13.8012714  32.9358985
  76.6469738  13.6285823  33.4188524  76.1360188  13.9923316  32.9500406
  75.5985058  21.9866495  23.3022756  75.2399713  22.1581138  24.0786789
  75.1123769  22.4479701  22.7450755  75.4743755  22.0805466  23.3348025
  70.3873423  17.6665661  15.8422991  70.6765948  18.4430543  16.1166565
  70.4745222  17.1554392  16.5437490  70.4427680  17.7057579  15.9865488
  73.2833311  15.5146895  37.6374514  73.7532942  16.1389011  38.0242388
  73.3295191  14.8463870  38.1967729  73.3601187  15.5081575  37.7774586
  76.7589797  22.8770391  34.2489957  77.3969518  22.3830587  33.9152413
  76.1163889  22.8047792  33.6642184  76.7584024  22.7929400  34.1132312
  78.4846797  14.7259537  28.8155873  78.0574406  14.6385886  28.0603972
  77.8472850  14.8337313  29.4010717  78.3276405  14.7292197  28.7901314
  76.8144054  23.5690199  30.8895314  77.6036432  23.2179264  31.0097395
  76.9887652  24.3826588  30.6271948  76.9564336  23.6376057  30.8683182
  66.5537364  16.9798925  27.9423103  65.7125371  16.8802799  28.1501996
  66.7627372  17.7494405  28.2937423  66.4602057  17.0790968  28.0250418
  64.0312931  14.6018462  25.7707853  63.6369629  14.6761474  24.9957963
  63.4753048  14.9876408  26.3216215  63.8915744  14.6700237  25.7375513
  70.3654029  14.9080324  27.1920700  70.0617167  14.3536313  27.7931108
  69.6633450  15.0872534  26.7048734  70.2170239  14.8525107  27.2090406
  69.4220126  12.2180844  21.7565402  69.6979861  11.4999757  21.3442970
  70.0218796  12.8165764  21.5486508  69.5513391  12.2001215  21.6646163
  68.4272380  22.1230045  31.8992798  68.3192735  22.1332107  32.7654856
  68.6368162  22.9484825  31.7097752  68.4422491  22.2471120  31.9996890
  66.4446172  19.3742687  29.3614736  65.8534106  20.0152186  29.3317751
  67.2067196  19.7980305  29.3346035  66.4694433  19.5318526  29.3529883
  66.8406795  10.5344685  30.0282753  67.3008277  10.6083615  30.7657877
  66.8862902  11.3325939  29.6782575  66.9157350  10.6638832  30.0855510
  68.4890145  11.2011380  34.5954780  68.0975710  10.5544727  35.0310558
  68.6576008  11.7922815  35.2149036  68.4561055  11.1925648  34.7517486
  76.2035689  24.8251999  26.7946760  76.0055377  25.3142814  26.1002971
  75.5823400  25.0293241  27.3730893  76.0823253  24.9268537  26.7769983
  70.2643667  16.5936896  21.1357004  71.0085712  16.9811172  21.3739954
  70.4104363  15.7494321  21.2997492  70.3954252  16.5267369  21.1950974
  73.2521543  12.1662369  27.0350924  72.7781497  11.6404131  27.5456235
  73.6239679  11.6191842  26.4665785  73.2371432  12.0078366  27.0266071
  63.6294573  14.1633876  32.4034469  64.4920186  14.0629585  32.3171799
  63.2986356  13.5828585  31.8420042  63.7079769  14.0625503  32.3079875
  66.9896359  12.9876325  29.0644888  66.3649429  12.9994717  28.4570840
  66.6541954  13.4636500  29.7136128  66.8481851  13.0594842  29.0701456
  67.1738108  11.3301443  15.1217573  66.8250912  11.9821169  15.5849122
  66.6934553  11.3158556  14.3941444  67.0508351  11.4244497  15.0828664
  63.7022034  21.0476785  30.5048652  63.1721959  20.3569224  30.5543627
  63.9747128  21.0386970  29.6761360  63.6646757  20.9443917  30.3896068
  74.7342125  21.6302487  19.2286334  75.4576324  22.0960600  19.0850908
  74.2942716  21.6976097  18.4783931  74.7757817  21.7086324  19.0971116
  73.9028280  18.4900030  30.4787023  73.2885273  17.9458080  30.7735659
  74.4195565  17.9764266  29.9992840  73.8883942  18.3336439  30.4511252
  73.1424577  19.5604300  28.2131322  72.7152185  18.9354018  27.7796757
  73.1349522  19.2779221  29.0390329  73.0783718  19.4257080  28.2711150
  66.2587104  14.5969473  31.2819756  66.4180591  13.8412797  31.6871478
  66.0779998  15.1460412  31.9360494  66.2552463  14.5663286  31.4382462
  71.4710287  10.4373054  28.4273856  71.4952774   9.9033166  27.7386636
  71.7221760   9.9290363  29.0899447  71.5120205  10.2833958  28.4238501
  58.9817877  17.7204549  27.8617000  58.8761326  17.6751393  26.9969084
  58.2318097  18.0658330  28.1431285  58.8553480  17.7645457  27.7754330
  67.7511609   9.1643872  27.8079600  67.7909981   9.6653079  28.5214308
  66.9261274   9.2554266  27.5385523  67.6351135   9.2525689  27.8730139
  69.9341222  18.7304612  35.9099895  69.0836852  18.8676327  36.0457540
  70.0969350  17.9968391  36.3547597  69.8325085  18.6418714  35.9955494
  69.1725972  15.6804382  30.1053499  68.3417902  15.8478200  29.8988747
  69.1177490  15.3040333  30.8902385  69.0415387  15.6494114  30.1902028
  66.9809756   9.1713275  35.7409910  67.6062459   8.6275408  36.0139342
  66.5260236   8.6908193  35.1717700  67.0058016   9.0202756  35.6971504
  67.5462016  13.9559974  20.6343617  67.6864977  14.4532438  21.3372258
  68.0444549  13.2546268  20.7757831  67.6403097  13.9261953  20.7595196
  67.5762239  14.8227085  17.9636194  68.2107318  15.4187510  17.8985656
  67.6587849  14.5230542  18.7782064  67.6818790  14.8667993  18.0739280
  69.1541221  10.7541060  17.9381636  69.4757063  10.2744143  17.2840898
  69.4168165  11.5640706  17.7472448  69.2407247  10.8030958  17.8137128
  72.3838194  21.7759935  31.4580452  71.8763285  22.3295781  31.9021083
  72.0864840  21.8368224  30.6399227  72.2643079  21.8666246  31.4028909
  64.0815227  17.0194926  21.2325740  64.5907456  17.6159433  21.6137045
  64.5549499  16.7520899  20.5502160  64.2258602  17.0680741  21.1880263
  74.9945975  25.6923192  19.3884396  74.2775284  25.5184054  18.9231633
  75.6452712  25.4575765  18.8559882  74.9847825  25.6318985  19.2413613
  77.5793946  14.5687781  23.1325701  76.9085136  15.1117483  23.0038766
  78.2733696  15.0382636  22.8907395  77.5822813  14.7186052  23.0781228
  71.6280680  26.7084493  28.3637459  71.4046334  25.9503322  28.7321485
  71.1390523  26.7382514  27.6417899  71.5224129  26.6006717  28.3114200
  66.4405758  13.6551184  24.0998920  65.7217747  14.0715317  24.3671784
  66.8118121  14.2205423  23.5490559  66.3897690  13.8000466  24.0581727
  75.7405339  14.2879033  29.9900916  75.7203266  14.1062328  30.8435695
  75.7884540  15.1591052  29.9660500  75.7439980  14.3895571  30.1124211
  73.6851669  20.8766225  35.9149393  73.6447524  20.2315902  35.3294549
  74.4974987  20.8202842  36.2274805  73.7994822  20.7725192  35.8746342
  70.2759136  26.9284951  25.8174544  69.8619535  26.2659081  25.4278385
  70.9606511  27.0762810  25.2970238  70.3157508  26.8525609  25.6831041
  73.6424431  26.0875036  26.5698160  73.2440714  26.1977307  25.8018980
  73.0275650  26.2957102  27.1524720  73.4923320  26.1348604  26.5429459
  72.2152333  12.6949184  19.4372300  71.6217172  13.0166180  18.8856867
  72.2527610  11.8490279  19.2293406  72.1326722  12.6173512  19.3255071
  75.0910149  12.6528688  22.8674050  74.8623842  12.6761390  22.0252408
  75.3508225  11.8286156  22.9869061  75.0956337  12.5344768  22.7599248
  69.3729378  14.5063162  32.4699150  68.8608281  13.8984345  32.8284182
  69.2008874  15.2219754  32.9373126  69.2719015  14.5226461  32.5915374
  64.2195092  12.9500737  35.1201512  64.0497683  13.6102112  34.5749719
  63.7761042  13.1607298  35.8414001  64.1294426  13.0786719  35.1463142
  68.1454912  11.1905235  24.1628246  68.6212278  11.5522315  23.5278427
  67.6443511  11.8461702  24.4428388  68.1420271  11.3399424  24.1104987
  73.2498448  12.4287406  34.9101406  73.8069878  12.2001216  34.2779871
  72.9259513  13.1893072  34.6336618  73.2844858  12.5071243  34.7757903
  61.1197157  15.8547602  30.3790002  60.5723876  15.1848248  30.4970870
  61.9089535  15.4877450  30.4433469  61.1549341  15.7012589  30.4058702
  70.9681565  15.5155059  35.8753413  71.7192892  15.8306736  36.1892967
  71.1604142  15.3134230  35.0487335  71.1072979  15.5322441  35.7996809
  70.1881565  13.3346435  17.5301630  70.5680530  13.3526064  16.7452744
  69.4474161  13.7800423  17.4092477  70.1350403  13.4028209  17.3965198
  59.8784126  15.0668410  27.5336025  59.7005887  14.6145019  28.2590941
  59.5903148  15.8694572  27.7174502  59.8097080  15.1190968  27.6679528
  75.5407707  16.3226128  26.7713415  76.0361373  15.6049123  26.7317436
  74.7307483  16.0196925  26.6567902  75.4951601  16.1723774  26.7487141
  70.9866319  20.1723941  18.9210420  70.1777642  19.8490614  18.8743729
  71.4941228  19.4657163  18.8538668  70.9415986  20.0205257  18.9040714
  61.6156596  17.5996134  24.6457784  60.7502116  17.5881824  24.5340555
  61.7155412  17.4126357  25.4928923  61.5030763  17.5702195  24.7546728
  77.6059526  19.0729815  29.4590544  78.0314598  18.5504237  28.9060969
  77.2416446  19.6710653  28.9379167  77.6146129  19.0840042  29.2999554
  67.2413606  27.3694033  28.2187890  67.5560165  28.1830421  28.2265671
  67.6507019  26.9844251  28.8870049  67.3481704  27.4322735  28.3191981
  74.1938126  22.7864079  25.7891701  74.6649304  23.5004342  25.9581687
  74.5298304  22.1862830  26.3251571  74.3133241  22.8035544  25.8924077
  76.2815110  24.3965393  37.9683774  76.3912076  23.6073953  38.3240521
  76.6106007  24.3071329  37.1658112  76.3467516  24.2671246  37.9026164
  74.8312072  22.5782014  32.5519394  74.2833018  21.9539897  32.2839459
  75.2925101  22.7676286  31.8363473  74.8179282  22.5141064  32.4069825
  70.1800736   9.5607963  20.2129261  71.0016430   9.7306276  19.9710956
  69.7170386   9.7155224  19.4895559  70.2331898   9.6089696  20.0700906
  64.5826626  21.3167141  27.8666498  65.1871484  21.2762975  27.2380319
  64.3753939  22.1638293  27.8970554  64.6415524  21.4355144  27.7782614
  74.3970398  23.5833086  29.0828735  75.2168772  23.4396052  29.3445030
  74.1164476  24.2079285  29.6245173  74.4767142  23.6543438  29.2016675
  59.8177909  20.3001759  27.7365421  59.7202187  19.4898030  28.0455478
  60.6006778  20.2793552  27.3511689  59.9194045  20.1768849  27.7252284
  73.2274674  35.8974985  24.4576880  72.9924858  35.0642638  24.3509149
  73.3660315  36.1779651  23.6438081  73.2130336  35.8158489  24.3219235
  75.5264761  28.0660716  27.3561188  74.9069793  27.4753363  27.1871202
  75.4248625  28.6572151  26.7225511  75.4202437  28.0664799  27.2366177
  75.2533894  31.6112998  29.6004756  75.1292591  32.1975443  30.2354575
  75.9052179  31.1173194  29.9017031  75.3307544  31.6251802  29.7390686
  74.7891998  40.7760656  25.7333086  74.3059577  41.5011146  25.7092670
  75.6015317  41.0736786  25.8443244  74.8382746  40.9263010  25.7460365
  77.6436196  41.2916832  25.8853366  78.3456775  40.7768821  25.9426122
  77.5633679  41.6190984  26.6900241  77.7359956  41.2631058  26.0126158
  77.3572539  25.6435262  17.9515986  77.1748112  25.8607143  17.1256979
  78.2198152  25.7574275  18.0074600  77.4577129  25.6925160  17.8370473
  76.9686971  37.4823184  25.3938974  77.8075871  37.7146117  25.4412735
  76.9998740  36.6127496  25.3246009  77.0968689  37.3880131  25.3903619
  77.5939674  37.9024059  29.6952279  78.1337899  37.7595190  30.3655652
  76.9109620  38.3020810  30.0636306  77.5731828  37.9403730  29.8486701
  72.9976819  34.1224350  29.8486701  72.7315234  33.3063467  30.0077691
  73.0115383  34.1677506  28.9782216  72.9601542  34.0081255  29.7440183
  76.9034566  28.9209435  16.4638459  76.1892743  28.6347614  16.8760891
  77.3878535  29.2606060  17.1044846  76.8693930  28.9291084  16.6194094
  77.7475426  27.6602728  32.4953709  77.0547222  27.1899708  32.7414440
  78.3635753  27.4341033  33.0695416  77.7359956  27.5569860  32.6162861
  73.4070233  34.9083130  27.1298445  73.2245806  34.8830016  26.2770737
  74.1419902  35.3782067  27.1687354  73.4884297  34.9744492  27.0096364
  76.4715985  31.6268132  33.6380554  77.1955957  31.6121163  34.1245449
  76.5732121  32.3363488  33.1402522  76.5934194  31.7292836  33.6359341
  73.3741143  31.7876630  27.2797512  73.9514646  31.6513081  27.9189757
  72.6755205  31.3312414  27.5343096  73.3562165  31.6998896  27.4119801
  68.8499976  30.6388523  23.9945330  68.9360228  30.2620392  24.7758860
  69.4775774  30.2648969  23.5165289  68.9556527  30.5274005  24.0390808
  74.4375935  39.4080256  28.0476691  74.4780080  39.6795107  27.2196471
  74.9970459  39.9322164  28.4634479  74.5259281  39.5256011  27.9868579
  75.8890521  37.9922205  22.8730617  75.0628639  38.2383942  22.7464896
  75.9502513  37.9134286  23.7392675  75.7764688  38.0167154  22.9819561
  78.1066545  24.0591146  23.8326057  77.2388971  24.1313746  23.8983666
  78.3941749  24.8613225  24.0214032  78.0206293  24.1885293  23.8700824
  78.6095266  42.5866468  23.6409797  78.3895561  42.2963823  24.4336464
  78.3889788  41.9281423  23.1127709  78.5442860  42.4466176  23.6798705
  77.5212213  34.6739784  25.9065498  77.2325462  34.0477256  26.4411226
  78.3895561  34.6160072  25.9730179  77.6072465  34.5727329  25.9956453
  77.7244487  36.3135035  21.8307863  78.4790455  36.6948074  22.0443326
  77.1315099  36.7646179  22.2854560  77.7481200  36.4363863  21.9290742
  76.0333897  27.5349405  21.2742933  75.7458693  27.1650676  20.5374881
  76.7204365  28.0044261  21.0126638  76.0922794  27.5496375  21.1258009
  76.5195185  33.8060426  31.8264478  77.0316282  34.0844679  31.1773238
  76.2331528  34.5449720  32.1927291  76.5530049  33.9562780  31.7854356
  73.6062092  28.3130618  22.1228214  73.7078228  29.1156779  22.4509190
  74.4017979  28.1117954  21.8251295  73.7389997  28.4016517  22.1263570
  74.4225824  28.4277796  29.8649336  74.2811316  27.5761737  29.9893844
  74.7066387  28.4706457  29.0411542  74.4433670  28.3077546  29.7616960
  75.1916129  26.3408144  33.1826786  74.6558319  25.7288502  33.4987554
  75.2533894  26.9156280  33.8360453  75.1211762  26.3355072  33.3262213
  77.3104885  33.7488878  22.9946841  77.4669504  33.6835681  23.8502833
  77.6505478  34.5237430  22.7825521  77.3838120  33.8538076  23.0901435
  73.8839146  30.9323828  23.3107608  74.2638111  31.3508373  22.6467876
  73.3094511  31.5137284  23.6176452  73.8550471  31.0801687  23.2584349
  77.5269948  32.4984233  27.9423103  76.6857955  32.3988107  28.1501996
  77.7359956  33.2679713  28.2937423  77.4334641  32.5976276  28.0250418
  75.0045515  30.1203770  25.7707853  74.6102213  30.1946782  24.9957963
  74.4485632  30.5061716  26.3216215  74.8648327  30.1885545  25.7375513
  77.4178756  34.8927995  29.3614736  76.8266689  35.5337494  29.3317751
  78.1799779  35.3165613  29.3346035  77.4427016  35.0503834  29.3529883
  77.8139379  26.0529993  30.0282753  78.2740860  26.1268923  30.7657877
  77.8595485  26.8511247  29.6782575  77.8889934  26.1824140  30.0855510
  74.6027156  29.6819184  32.4034469  75.4652769  29.5814893  32.3171799
  74.2718939  29.1013893  31.8420042  74.6812353  29.5810811  32.3079875
  77.9628942  28.5061633  29.0644888  77.3382013  28.5180025  28.4570840
  77.6274537  28.9821808  29.7136128  77.8214434  28.5780150  29.0701456
  78.1470691  26.8486751  15.1217573  77.7983495  27.5006477  15.5849122
  77.6667137  26.8343864  14.3941444  78.0240935  26.9429805  15.0828664
  74.6754618  36.5662093  30.5048652  74.1454542  35.8754532  30.5543627
  74.9479711  36.5572278  29.6761360  74.6379340  36.4629225  30.3896068
  77.2319688  30.1154781  31.2819756  77.3913175  29.3598105  31.6871478
  77.0512581  30.6645720  31.9360494  77.2285047  30.0848594  31.4382462
  69.9550460  33.2389857  27.8617000  69.8493909  33.1936701  26.9969084
  69.2050680  33.5843638  28.1431285  69.8286063  33.2830765  27.7754330
  77.9542339  24.6898583  35.7409910  78.5795043  24.1460716  36.0139342
  77.4992819  24.2093501  35.1717700  77.9790600  24.5388064  35.6971504
  75.0547810  32.5380233  21.2325740  75.5640039  33.1344741  21.6137045
  75.5282082  32.2706207  20.5502160  75.1991186  32.5866049  21.1880263
  77.4138342  29.1736492  24.0998920  76.6950331  29.5900625  24.3671784
  77.7850704  29.7390731  23.5490559  77.3630274  29.3185773  24.0581727
  75.1927676  28.4686045  35.1201512  75.0230266  29.1287420  34.5749719
  74.7493626  28.6792606  35.8414001  75.1027010  28.5972027  35.1463142
  72.0929740  31.3732910  30.3790002  71.5456460  30.7033556  30.4970870
  72.8822119  31.0062758  30.4433469  72.1281924  31.2197897  30.4058702
  70.8516710  30.5853718  27.5336025  70.6738471  30.1330327  28.2590941
  70.5635732  31.3879880  27.7174502  70.7829663  30.6376276  27.6679528
  72.5889180  33.1181442  24.6457784  71.7234699  33.1067132  24.5340555
  72.6887996  32.9311665  25.4928923  72.4763347  33.0887503  24.7546728
  78.2146190  42.8879341  28.2187890  78.5292749  43.7015729  28.2265671
  78.6239603  42.5029559  28.8870049  78.3214288  42.9508043  28.3191981
  75.5559210  36.8352449  27.8666498  76.1604067  36.7948283  27.2380319
  75.3486522  37.6823601  27.8970554  75.6148107  36.9540451  27.7782614
  70.7910492  35.8187067  27.7365421  70.6934770  35.0083338  28.0455478
  71.5739362  35.7978860  27.3511689  70.8926629  35.6954157  27.7252284
   4.3836442  22.5603660  60.9716832   4.3530446  23.4148297  61.1435101
   4.9817790  22.2598953  61.5302975   4.4673599  22.6420156  61.0791634
   2.2053016  25.1355962  59.2435142   2.0892542  25.8863648  59.6727280
   3.0008903  24.8779915  59.4931229   2.3057606  25.2090809  59.3439233
   0.8600755  22.4848400  59.0547166   0.3312226  22.7008034  59.7144473
   1.3825775  23.1784539  58.9748136   0.8589208  22.6191537  59.1402766
   6.3148808  28.0594705  64.4280211   5.4846511  28.2705349  64.5913627
   6.2658060  27.2331759  64.1522495   6.1855543  27.9684311  64.4117576
   3.5713123  28.7294059  64.5644927   3.1348355  28.7330802  65.3203898
   3.2376038  29.4099558  64.1324504   3.4575743  28.8306515  64.6125759
   6.7057469  25.4474979  63.4564564   7.3673903  24.8865648  63.3560472
   6.0648881  24.9527010  63.7817255   6.7086337  25.2911388  63.4896904
   2.9922300  26.4640362  63.1976553   3.2277889  26.6085560  62.3703403
   3.1411864  27.2282770  63.5908066   3.0488103  26.5979416  63.1340157
   4.8212757  25.3042028  61.0346157   5.1520974  25.8369668  60.4286251
   5.3945845  25.3580915  61.6908108   4.9546436  25.3911596  61.0423938
   2.2855533  27.6005994  60.6916688   2.8513566  28.2599204  60.6075231
   1.6383436  27.9455692  61.1633090   2.2734289  27.7487935  60.7489445
   3.4818231  27.6512221  57.4842325   3.1025039  26.8649359  57.4771614
   2.8184476  28.1999079  57.3413969   3.3276706  27.6157045  57.4623122
   1.7278330  29.8957713  57.8194011   1.8098167  30.7024699  57.4955461
   2.2128072  29.9153672  58.5434784   1.8115487  30.0178375  57.8780909
   5.8651250  27.5018033  58.8786471   6.2484855  28.2509389  59.1084568
   5.0695363  27.7483853  58.6198460   5.8045032  27.6487727  58.8744044
  15.3569025  38.0788968  60.9716832  15.3263030  38.9333605  61.1435101
  15.9550374  37.7784260  61.5302975  15.4406183  38.1605464  61.0791634
   8.5568710  37.1664619  65.7269762   7.7006606  37.3273117  65.7778879
   8.6036364  36.2956683  65.7474823   8.4367821  37.0615421  65.7375828
   2.9409850  46.7027337  61.4906994   2.1892749  46.3242875  61.2623039
   3.3895861  46.7345770  60.7425804   2.8959517  46.6512944  61.3464496
  11.8662427  43.4351145  75.3330218  12.5729194  42.9403175  75.4617153
  12.0550362  43.8760226  74.6032876  11.9990332  43.4269495  75.2439264
   8.3934810  47.1252706  56.9192541   8.0586178  47.8029628  56.4836763
   8.9061680  46.7358018  56.3309412   8.4200391  47.1677284  56.7679332
   7.9339101  49.0766975  62.8603652   8.3178480  49.6453874  62.3208428
   7.8698242  48.3516485  62.3809468   7.9812528  49.0542438  62.7097515
  11.4020531  39.2256663  68.3701414  11.9476491  39.9041749  68.4295383
  11.3437407  39.0844124  67.5102995  11.4736445  39.3048664  68.2513474
   4.5194606  46.7145729  63.7569766   4.6204969  45.9046083  64.0666894
   3.9236351  46.6202675  63.1269445   4.4467145  46.5810757  63.7096005
  13.1785600  40.6541270  59.2435142  13.0625126  41.4048956  59.6727280
  13.9741486  40.3965223  59.4931229  13.2790189  40.7276117  59.3439233
   4.3595346  51.6323318  65.1584622   5.0032801  52.0736482  65.5480781
   4.6851601  50.8276744  65.0714881   4.5027174  51.5788513  65.2030099
   5.0615925  44.6435293  60.5304484   5.3831766  45.1840500  59.9265792
   5.7088022  44.0732064  60.6626774   5.2041980  44.6394468  60.4611519
   7.1117633  36.6451288  60.6138871   7.8097798  36.8239415  61.1060334
   7.4269966  36.1221627  59.9909260   7.2612970  36.5945060  60.5940881
   7.3005569  43.0321733  60.6018662   7.7399204  42.4238833  61.0473435
   7.1510232  42.6529106  59.8304127   7.3427034  42.8860204  60.5537829
   4.7677212  41.6265745  67.8037488   5.4126214  41.1338188  67.4848436
   5.0078989  41.7690531  68.6303566   4.8987797  41.5743187  67.8787021
   7.3063303  44.4720651  67.4544380   7.5886546  43.6772056  67.2331136
   8.0349463  44.9501238  67.4749441   7.4552867  44.4255248  67.4247395
   5.2844497  32.0143685  64.6960145   4.9547827  32.4654828  64.0263844
   4.6089499  31.9359848  65.2433152   5.1354933  32.0694820  64.6783369
  10.9014905  41.3848914  57.5549431  10.8166200  42.2409881  57.6999000
  11.3899288  41.1093238  58.2231590  10.9603803  41.4706236  57.6751513
  12.4920905  28.0029207  62.9409756  12.1774346  28.6932686  63.3730178
  11.9747846  27.9473990  62.2395257  12.3685375  28.0964096  62.9006705
  11.8333338  38.0033708  59.0547166  11.3044810  38.2193342  59.7144473
  12.3558358  38.6969847  58.9748136  11.8321791  38.1376845  59.1402766
  17.2881391  43.5780013  64.4280211  16.4579094  43.7890656  64.5913627
  17.2390644  42.7517067  64.1522495  17.1588127  43.4869619  64.4117576
   3.7232946  41.8996925  57.8554634   3.1390161  42.4046957  58.2620498
   3.3203041  41.6739312  57.1151226   3.5772250  41.9405173  57.8059660
   5.3491129  46.4083867  67.2628120   4.8318071  46.0491282  66.6589429
   6.0465520  45.8846041  67.2734187   5.3756710  46.2781555  67.1758379
   9.0054721  46.8578681  73.2244293   9.0938067  46.6704821  74.0722504
   9.4344433  46.2116111  72.8249140   9.0816823  46.7341689  73.2916045
   6.5725181  46.1409841  72.2061956   6.0096015  45.7282451  72.7301617
   7.3346204  46.0662747  72.6255099   6.6019629  46.0687242  72.3454956
   8.1810161  38.1462577  56.3323555   8.4206164  38.3540561  55.5198898
   8.5026002  37.3420086  56.4412500   8.2647319  38.0576678  56.2284108
   3.4900451  30.0755973  60.1783093   4.2446419  30.4434290  59.9400143
   3.3127986  30.4495527  60.9462273   3.5754929  30.1854161  60.2567981
   2.1321172  48.1307862  64.8098586   2.8341751  47.6159851  64.8671342
   2.0518655  48.4582014  65.6145461   2.2244933  48.1022088  64.9371378
  16.7835350  36.2250413  68.2230632  15.9463771  36.2952601  68.4578227
  16.7523581  36.2274908  67.3504935  16.6553632  36.2360640  68.1290180
   1.8457516  32.4826292  56.8761206   1.6633089  32.6998173  56.0502199
   2.7083129  32.5965305  56.9319820   1.9462105  32.5316190  56.7615693
   1.4571948  44.3214214  64.3184194   2.2960847  44.5537147  64.3657955
   1.4883717  43.4518526  64.2491229   1.5853665  44.2271161  64.3148839
   2.0824651  44.7415089  68.6197499   2.6222876  44.5986220  69.2900872
   1.3994597  45.1411840  68.9881526   2.0616804  44.7794760  68.7731921
   7.5257235  29.4852703  59.9110230   8.2543395  29.3068658  59.4648386
   7.6152128  30.3270782  60.1217408   7.6463897  29.5836581  59.8763747
  11.5065535  40.4206090  63.8142524  12.2623050  40.8537604  63.8531432
  11.6127860  39.7710860  64.3877160  11.6335706  40.3883574  63.9040549
  14.5445707  44.2479367  64.5644927  14.1080938  44.2516110  65.3203898
  14.2108622  44.9284866  64.1324504  14.4308327  44.3491823  64.6125759
  14.4643189  31.2893195  66.8074355  15.1069098  31.3591300  67.3936270
  14.7166210  30.6222418  66.3053897  14.5965322  31.2019544  66.8201634
   1.3919543  35.7600465  55.3883679   0.6777720  35.4738644  55.8006112
   1.8763511  36.0997090  56.0290066   1.3578906  35.7682114  55.5439314
   9.2745174  48.1997802  69.5354533   8.4760419  47.9597302  69.7928401
   9.7231185  48.2512195  70.2821580   9.2219785  48.1720193  69.6839457
  17.6790053  40.9660287  63.4564564  18.3406487  40.4050956  63.3560472
  17.0381465  40.4712318  63.7817255  17.6818920  40.8096696  63.4896904
   8.5666861  44.2630419  55.7645487   8.9818009  43.9315442  55.0729983
   7.7358790  44.0299321  55.6365624   8.5054869  44.1801674  55.6436335
  13.9654883  41.9825670  63.1976553  14.2010473  42.1270868  62.3703403
  14.1144447  42.7468078  63.5908066  14.0220687  42.1164724  63.1340157
  15.7945340  40.8227335  61.0346157  16.1253557  41.3554976  60.4286251
  16.3678428  40.8766223  61.6908108  15.9279019  40.9096904  61.0423938
  11.0077229  38.6692238  61.7169737  11.1024084  39.4081532  62.1709362
  10.3836073  38.2409714  62.1504301  10.9286259  38.7153559  61.8477884
   9.2629703  41.8478451  72.3660018   9.8368565  41.2105695  72.5208581
   9.1844507  41.8482533  71.4969675   9.3362938  41.7543562  72.2606428
  11.2600251  40.5140978  54.9506689  11.1780413  40.5843165  55.8161676
  11.8979971  41.0770722  54.7590429  11.3420088  40.6079949  55.0496638
   4.6193422  40.2801716  64.4181215   4.3612666  39.4473451  64.3912514
   4.6741905  40.5059329  63.5773715   4.5893200  40.1899487  64.2901352
   9.6994472  32.3830167  64.5185308   8.9950799  31.8939352  64.6769227
   9.7479446  32.3952641  63.6473752   9.6024524  32.3119815  64.4124647
   3.5928134  37.8339478  64.9046110   3.0177725  37.9931647  65.5410071
   3.2163810  37.1974887  64.4414560   3.4530946  37.7637291  64.9300668
   7.2601423  36.3062828  69.7638488   6.8715855  35.8817045  69.1090679
   6.5956121  36.5544977  70.2715515   7.1048350  36.2801549  69.7426356
  16.9024692  36.0637832  62.5386318  16.6461257  35.2517774  62.3484201
  17.7454006  36.0715399  62.3116505  16.9890717  35.9449830  62.4771135
  11.0827784  30.0037456  67.2762472  11.4638296  29.3215627  67.6630347
  10.2791068  29.7147058  67.0938137  11.0204246  29.8604505  67.3066528
   8.3640361  40.5361432  57.9615295   9.1781000  40.8276325  57.8498066
   8.2999502  39.8821295  57.3873588   8.4743100  40.4826627  57.8604132
  14.5849851  43.2187428  72.3744871  14.3488488  42.3875493  72.2556931
  15.2293080  43.1673036  72.9599715  14.6444522  43.0885116  72.4430764
   4.2348269  44.0082950  63.0887607   4.8722216  43.7694697  63.6339401
   4.6603341  44.2120109  62.3540768   4.3924435  44.0033960  63.0604765
   4.8751084  39.2285239  57.4262497   5.2596237  39.0092946  58.1779042
   4.6262704  40.0548185  57.5563573   4.8953157  39.3183386  57.5563573
  15.6086272  43.0031877  68.4373165  15.3032089  43.7359934  68.7986481
  14.8892487  42.5969807  68.1565951  15.4573614  43.0513610  68.4486302
   6.6169741  44.4855372  64.7681393   6.6908749  44.3230544  65.6223243
   7.4339247  44.6745562  64.5241875   6.7486100  44.4892115  64.8579419
  21.3088064  39.6424878  67.7641509  21.2412564  39.6620837  66.8944096
  21.2943726  40.4855205  67.9897180  21.2966820  39.7698612  67.6693986
   2.5951522  30.8982176  62.7571277   1.7273947  30.9704776  62.8228886
   2.8826726  31.7004255  62.9459252   2.5091270  31.0276323  62.7946044
  11.7184410  31.0460036  71.0882599  12.4638002  30.8569846  70.6746024
  11.3021715  31.5718273  70.5296455  11.7669385  31.0962181  70.9447172
   5.1574327  47.4490115  59.4994867   5.4472625  47.0579097  58.7754093
   5.8877808  47.6306820  59.9400142   5.3081211  47.4183929  59.4577674
  19.0946681  38.4169264  66.0388104  19.6454603  37.7837333  66.2785196
  19.0790797  38.9484657  66.7303608  19.1731877  38.4018212  66.1766962
   5.7469072  42.2507861  70.5847997   5.2480766  42.9623629  70.6632886
   6.5569296  42.5708528  70.5466160   5.7925179  42.4034710  70.5904566
   3.0980242  49.4257498  62.5655017   2.8780538  49.1354853  63.3581684
   2.8774764  48.7672453  62.0372929   3.0327837  49.2857206  62.6043925
   2.0097190  41.5130814  64.8310718   1.7210438  40.8868286  65.3656446
   2.8780538  41.4551102  64.8975399   2.0957441  41.4118359  64.9201673
  12.7975087  36.6565598  65.1492700  12.4539853  35.9355933  65.4999950
  12.8968130  36.4479449  64.3071058  12.7617130  36.5189801  65.0764380
   5.2648198  50.7986888  61.3485709   5.9172256  50.2663330  61.5776735
   4.5673807  50.4455540  61.7353583   5.2578916  50.6676411  61.4397877
   2.2129463  43.1526065  60.7553083   2.9675431  43.5339104  60.9688546
   1.6200076  43.6037209  61.2099780   2.2366177  43.2754893  60.8535962
  13.2588116  43.1191302  60.6916688  13.8246149  43.7784512  60.6075231
  12.6116020  43.4641000  61.1633090  13.2466873  43.2673243  60.7489445
   3.5327690  44.3234627  66.1293199   3.0108443  44.4634918  66.8145063
   3.9201710  43.5645291  66.3195316   3.5131390  44.2320151  66.2594275
   9.7294695  46.0630086  60.1153767   9.4881370  45.3297947  59.7080832
   9.9096027  46.6116943  59.4620101   9.7202319  46.0352477  59.9583990
   4.9594015  41.3538646  61.5274690   4.7636798  41.9613380  60.9334993
   5.1828361  40.6606590  61.0466364   4.9628656  41.3416171  61.3690771
   3.3572545  38.2393384  61.6455558   4.0795197  38.4034542  61.1859364
   2.8780538  38.9603048  61.5394898   3.3936276  38.3691613  61.5621172
  11.3166053  34.5757182  67.0252243  10.4777153  34.6018461  66.7890506
  11.3870420  35.2227918  67.6057590  11.2034446  34.6753308  67.0761360
   9.7635331  31.4742559  61.7579859  10.4661684  31.2750308  61.2799817
   9.4979520  30.7018502  62.0648702   9.8281963  31.3305525  61.7325301
  15.1923577  39.7825169  64.3113485  15.1057551  39.9380595  65.1648264
  14.7374057  40.4263245  63.9372890  15.1126833  39.9000924  64.3820592
   9.0649393  37.1035916  62.9339044   8.8184107  37.0231667  63.7675833
   9.3934516  36.3189384  62.7401572   9.0770636  36.9762182  63.0286567
  12.9597441  43.8119276  66.7225826  12.8211801  44.5100321  67.2274568
  12.1797439  43.6567932  66.3662007  12.8240668  43.8919442  66.7452100
  11.2975527  40.1115651  72.9748207  11.2923565  39.2395468  72.9790634
  12.0036520  40.3103820  72.5017663  11.4020531  40.0119525  72.9055243
   5.0246420  39.8392635  72.3462027   5.1689796  40.4193843  71.7105137
   5.3722068  40.2168932  73.0511882   5.0973881  39.9813339  72.3561022
   7.1966337  39.0382803  70.1287159   6.4489651  39.2313818  69.7235437
   7.3507863  38.2128023  69.8911280   7.1088765  38.9447915  70.0332565
   4.0974175  48.0295407  69.2123054   4.2463739  47.4698323  68.5596459
   4.8774177  48.1087408  69.5955573   4.2348269  47.9580972  69.1720003
  14.4550814  43.1697529  57.4842325  14.0757623  42.3834667  57.4771614
  13.7917060  43.7184386  57.3413969  14.3009289  43.1342353  57.4623122
   6.6227476  48.2010050  70.4907545   6.5471147  47.5318860  71.0458333
   6.5517335  48.9027838  71.0048211   6.6008082  48.2054957  70.6484393
  11.9095440  26.1123229  64.8876406  12.0279008  26.5699692  64.1543708
  11.7357616  25.3068490  64.6012623  11.9014611  26.0617001  64.7377339
   7.2797723  46.7211048  61.3231151   8.0447614  46.4520692  61.0013815
   7.1775812  46.2361059  62.0401214   7.3779218  46.6100613  61.3810979
   5.3150492  34.9235458  67.8624387   4.5246567  34.7426918  68.1841723
   5.7111115  34.1462410  67.8454681   5.2567368  34.7822919  67.9076935
   9.8016383  43.7523232  53.3031100  10.5689368  43.8123357  52.8936952
   9.3547692  43.1803674  52.8187419   9.8489810  43.6759808  53.1708811
  10.6994179  42.5577888  65.5883833  10.0239180  42.3263120  66.0897220
  10.7086555  41.9499071  64.9625938  10.6012683  42.4336813  65.5699985
   7.8288323  37.3995717  72.3447886   7.7647464  38.2605673  72.2168022
   7.9685510  37.0827710  71.5443437   7.8403793  37.4795884  72.2076098
  12.7010913  45.4143020  57.8194011  12.7830751  46.2210007  57.4955461
  13.1860655  45.4338980  58.5434784  12.7848071  45.5363683  57.8780909
   6.5107416  40.0927856  66.4864089   6.0869666  40.2932355  65.7503107
   6.3352272  39.2456704  66.5988388   6.4218297  39.9976638  66.3937779
   1.7989861  40.5879908  61.9192061   1.9554481  40.5226711  62.7748053
   2.1390454  41.3628460  61.7070741   1.8723096  40.6929106  62.0146655
   8.3369006  39.9637791  60.7885424   8.8784551  39.4608172  61.2524045
   8.6515565  39.9102986  59.9774910   8.4633403  39.8817212  60.7369236
  12.2086113  44.1740439  77.9012336  13.0220979  43.9025588  78.0617469
  12.0481080  43.8747979  77.0972532  12.3056062  44.0895365  77.8057742
   6.5055456  45.3555143  58.0725452   6.5748276  44.4969681  58.2118453
   7.2843911  45.5727024  57.7444477   6.6308306  45.2608007  58.0442610
   9.4858275  34.8574096  70.8407725   9.7000245  34.2185010  70.2871079
   8.8692175  35.3019920  70.4115586   9.4263605  34.8284240  70.6958156
  10.8962943  47.7792844  62.2861946  10.5042735  47.4759559  61.5684812
  11.0516016  48.6161934  62.0966899  10.8616533  47.8576681  62.1518443
  11.6497363  36.4663161  71.7791032  10.8374045  36.1589051  71.8604205
  12.1087298  35.9862161  72.3433744  11.5977748  36.3499653  71.8745626
  11.0602618  44.3442833  62.2267976  10.7017273  44.5157476  63.0032009
  10.5741329  44.8056039  61.6695975  10.9361315  44.4381804  62.2593245
   8.8773004  27.9674032  65.8295068   8.0066562  27.9412753  65.7828377
   9.1313345  27.7951224  65.0120913   8.7866564  27.9384175  65.7015204
   5.8490983  40.0241998  54.7668211   6.1383508  40.8006881  55.0411785
   5.9362782  39.5130730  55.4682710   5.9045240  40.0633917  54.9110708
   5.9022145  29.9780260  67.2868538   5.3860633  29.2860451  67.4120117
   5.3416073  30.6451037  67.2331137   5.7428658  29.9743518  67.2974604
  12.2207357  45.2346729  73.1735177  12.8587078  44.7406925  72.8397633
  11.5781449  45.1624129  72.5887404  12.2201584  45.1505738  73.0377532
  13.9464357  37.0835875  67.7401093  13.5191966  36.9962224  66.9849192
  13.3090410  37.1913650  68.3255937  13.7893965  37.0868535  67.7146534
  12.2761614  45.9266537  69.8140534  13.0653992  45.5755602  69.9342615
  12.4505212  46.7402926  69.5517168  12.4181896  45.9952394  69.7928402
   2.0154924  39.3375263  66.8668323   1.1742931  39.2379137  67.0747216
   2.2244932  40.1070743  67.2182643   1.9219617  39.4367306  66.9495638
  11.1295438  29.9376094  64.3756952  11.3345032  29.8698402  65.2213949
  10.8021862  30.7434915  64.3078130  11.1110686  30.0462034  64.4916607
   5.8271589  37.2656662  66.1165920   5.5234727  36.7112650  66.7176328
   5.1251010  37.4448872  65.6293954   5.6787799  37.2101445  66.1335626
   4.8837686  34.5757182  60.6810622   5.1597421  33.8576095  60.2688190
   5.4836356  35.1742102  60.4731728   5.0130951  34.5577553  60.5891383
  14.3829126  30.4907858  63.8559718  13.7703439  30.9778260  64.2413450
  14.4793301  29.8151349  64.3997369  14.3067024  30.4626167  63.9938576
   8.3848207  32.2470699  58.9557217   8.8391953  32.4181260  59.6805062
   8.8588253  31.6338810  58.5554993   8.5216527  32.1821585  59.0030979
   1.9063732  41.7319025  68.2859956   1.3151666  42.3728524  68.2562971
   2.6684756  42.1556643  68.2591255   1.9311993  41.8894864  68.2775103
  18.0254154  41.5624795  69.2837234  18.0837278  42.0111444  70.0297210
  17.3920621  41.9723608  68.8467314  17.9405449  41.6898530  69.3289782
  11.6653249  47.1828337  65.7191980  11.4672937  47.6719151  65.0248191
  11.0440960  47.3869578  66.2976113  11.5440813  47.2844875  65.7015203
   5.7261227  38.9513234  60.0602224   6.4703272  39.3387510  60.2985174
   5.8721923  38.1070659  60.2242712   5.8571812  38.8843707  60.1196194
   7.6440802  30.7463493  65.0934086   6.7976847  30.9186300  64.9675436
   7.6411935  29.9412836  65.4299914   7.5187952  30.6524522  65.1245213
   8.7139103  34.5238707  65.9596144   8.2399057  33.9980469  66.4701455
   9.0857239  33.9768180  65.3911005   8.6988992  34.3654704  65.9511291
  14.9775833  39.5841083  67.3702924  14.7374056  38.7447498  67.3745351
  15.4567840  39.6641249  68.0943698  15.0128017  39.4722482  67.4777726
  10.6422602  35.4175262  59.0221897  10.1145621  35.5004006  58.3327606
  11.1018311  36.1593133  59.0186542  10.6324453  35.5395924  58.9196593
  16.9781020  36.3642540  65.3232183  16.7390790  36.3238374  64.4852968
  17.1414922  37.2113692  65.4497904  16.9671324  36.4834625  65.2185665
  13.5827050  40.7492489  71.2537228  14.3061249  40.2965016  71.0748248
  13.3177013  41.0297155  70.4709556  13.6508324  40.7243458  71.1115944
   2.4513919  35.3452663  67.9890108   1.8266989  35.3571055  67.3816060
   2.1159514  35.8212838  68.6381348   2.3099411  35.4171180  67.9946676
   2.6355668  33.6877781  54.0462793   2.2868472  34.3397506  54.5094342
   2.1552113  33.6734894  53.3186664   2.5125911  33.7820835  54.0073884
  10.1959685  43.9878825  58.1531554  10.9193884  44.4536938  58.0096128
   9.7560276  44.0552435  57.4029151  10.2375377  44.0662662  58.0216336
   9.3645840  40.8476367  69.4032243   8.7502833  40.3034418  69.6980879
   9.8813125  40.3340604  68.9238060   9.3501502  40.6912777  69.3756472
   8.6042137  41.9180637  67.1376542   8.1769745  41.2930356  66.7041977
   8.5967082  41.6355559  67.9635549   8.5401278  41.7833418  67.1956370
   6.9327847  32.7949392  67.3519076   6.9570334  32.2609504  66.6631856
   7.1839320  32.2866701  68.0144667   6.9737766  32.6410296  67.3483721
   3.2129169  31.5220210  66.7324820   3.2527541  32.0229417  67.4459528
   2.3878834  31.6130604  66.4630743   3.0968695  31.6102027  66.7975359
   4.6343532  38.0380720  69.0298719   3.8035462  38.2054538  68.8233968
   4.5795050  37.6616671  69.8147605   4.5032947  38.0070451  69.1147248
   3.0079576  36.3136312  59.5588837   3.1482537  36.8108776  60.2617478
   3.5062109  35.6122606  59.7003051   3.1020657  36.2838290  59.6840416
   3.0379799  37.1803423  56.8881414   3.6724878  37.7763848  56.8230876
   3.1205409  36.8806880  57.7027284   3.1436350  37.2244331  56.9984500
  16.0162364  39.7118900  69.7567778  16.6080205  40.3516151  69.7885976
  16.4521359  39.0141937  70.0459845  16.1680796  39.7037250  69.8048611
   4.6158782  33.1117398  56.8626856   4.9374623  32.6320481  56.2086118
   4.8785725  33.9217044  56.6717668   4.7024807  33.1607296  56.7382348
   7.8455754  44.1336272  70.3825672   7.3380845  44.6872119  70.8266303
   7.5482400  44.1944562  69.5644447   7.7260639  44.2242584  70.3274129
  10.0117936  32.4989592  69.2250335  10.4373008  32.0462118  68.6133861
   9.3974930  31.9449663  69.5015122   9.9846582  32.3503568  69.1755360
  10.4563535  48.0499530  58.3129616   9.7392844  47.8760392  57.8476853
  11.1070272  47.8152102  57.7805102  10.4465385  47.9895323  58.1658833
   8.4512159  28.9704692  62.6340912   7.8080477  28.8202338  63.2026050
   8.1111566  28.7247037  61.8690017   8.3057237  28.9116814  62.6043927
  13.0411506  36.9264119  62.0570921  12.3702696  37.4693821  61.9283986
  13.7351256  37.3958974  61.8152615  13.0440373  37.0762390  62.0026448
   7.0898240  49.0660831  67.2882679   6.8663894  48.3079660  67.6566705
   6.6008083  49.0958852  66.5663119   6.9841689  48.9583055  67.2359420
  13.2039633  33.3820002  64.9661294  13.5567243  32.9549725  65.6407093
  12.3454435  33.2970846  65.0962370  13.1289078  33.3064743  65.0856304
   1.9023318  36.0127522  63.0244140   1.1835307  36.4291655  63.2917004
   2.2735681  36.5781761  62.4735779   1.8515250  36.1576803  62.9826947
  11.2022899  36.6455371  68.9146136  11.1820826  36.4638666  69.7680915
  11.2502100  37.5167389  68.8905720  11.2057540  36.7471909  69.0369431
   9.1469229  43.2342563  74.8394613   9.1065084  42.5892240  74.2539769
   9.9592547  43.1779180  75.1520025   9.2612382  43.1301530  74.7991562
   5.7376696  49.2861289  64.7419764   5.3237095  48.6235419  64.3523605
   6.4224071  49.4339148  64.2215458   5.7775068  49.2101947  64.6076261
   9.1041991  48.4451374  65.4943380   8.7058274  48.5553644  64.7264200
   8.4893210  48.6533440  66.0769940   8.9540880  48.4924942  65.4674679
   7.6769893  35.0525522  58.3617520   7.0834732  35.3742518  57.8102087
   7.7145170  34.2066617  58.1538626   7.5944282  34.9749850  58.2500291
  14.6363693  28.5038414  65.8945606  14.1294558  27.7967554  65.8266784
  15.4331127  28.1731603  66.0246683  14.6790933  28.3511566  65.9044601
  10.5527709  35.0105026  61.7919270  10.3241402  35.0337728  60.9497628
  10.8125785  34.1862493  61.9114281  10.5573897  34.8921106  61.6844468
   3.6072472  33.5481573  63.0873466   4.0829838  33.9098653  62.4523647
   3.1061071  34.2038040  63.3673608   3.6037831  33.6975761  63.0350207
  16.8383833  43.0203341  58.8786471  17.2217439  43.7694697  59.1084568
  16.0427947  43.2669160  58.6198460  16.7777616  43.1673035  58.8744044
   5.6499125  35.6922772  56.4546850   6.0298090  35.7102402  55.6697964
   4.9091721  36.1376761  56.3337697   5.5967963  35.7604547  56.3210418
  13.2784415  34.0004964  62.0422428  13.2778642  33.8453620  62.9006705
  13.0740595  34.8467951  61.9863814  13.2484193  34.1025584  62.1610368
  11.0025267  38.6802465  65.6958635  11.4978933  37.9625461  65.6562656
  10.1925043  38.3773263  65.5813122  10.9569161  38.5300112  65.6732361
   6.4483879  42.5300279  57.8455640   5.6395202  42.2066952  57.7988949
   6.9558788  41.8233501  57.7783888   6.4033546  42.3781595  57.8285934
  13.0677086  41.4306153  68.3835764  13.4932158  40.9080575  67.8306189
  12.7034006  42.0286990  67.8624387  13.0763689  41.4416380  68.2244774
   2.7031166  49.7270370  67.1433110   3.0177725  50.5406759  67.1510891
   3.1124579  49.3420589  67.8115269   2.8099264  49.7899073  67.2437201
   9.6555686  45.1440417  64.7136921  10.1266864  45.8580680  64.8826907
   9.9915864  44.5439167  65.2496791   9.7750801  45.1611882  64.8169297
  10.2929632  44.9358351  71.4764614   9.7450578  44.3116235  71.2084679
  10.7542661  45.1252623  70.7608694  10.2796842  44.8717402  71.3315045
  13.1023496  33.0043706  68.8615806  12.5186485  33.5052912  68.4493374
  13.4227790  32.4973262  68.2280130  13.0636672  33.0035541  68.7074314
   5.6418296  31.9184301  59.1374481   6.4633990  32.0882614  58.8956176
   5.1787946  32.0731562  58.4140779   5.6949458  31.9666034  58.9946126
   9.8587958  45.9409424  68.0073955  10.6786332  45.7972390  68.2690250
   9.5782036  46.5655623  68.5490393   9.9384702  46.0119776  68.1261895
  26.3301609  53.5974276  60.9716832  26.2995613  54.4518912  61.1435101
  26.9282958  53.2969568  61.5302975  26.4138767  53.6790772  61.0791634
  19.5301294  52.6849927  65.7269762  18.6739189  52.8458425  65.7778879
  19.5768947  51.8141991  65.7474823  19.4100405  52.5800729  65.7375828
  13.9142433  62.2212645  61.4906994  13.1625333  61.8428183  61.2623039
  14.3628445  62.2531078  60.7425804  13.8692100  62.1698252  61.3464496
  22.8395010  58.9536452  75.3330218  23.5461777  58.4588483  75.4617153
  23.0282946  59.3945534  74.6032876  22.9722916  58.9454803  75.2439264
  19.3667393  62.6438014  56.9192541  19.0318762  63.3214936  56.4836763
  19.8794264  62.2543325  56.3309412  19.3932974  62.6862592  56.7679332
  18.9071684  64.5952283  62.8603652  19.2911064  65.1639182  62.3208428
  18.8430826  63.8701793  62.3809468  18.9545112  64.5727746  62.7097515
  22.3753115  54.7441971  68.3701414  22.9209075  55.4227057  68.4295383
  22.3169991  54.6029432  67.5102995  22.4469029  54.8233972  68.2513474
  15.4927189  62.2331037  63.7569766  15.5937552  61.4231391  64.0666894
  14.8968935  62.1387983  63.1269445  15.4199728  62.0996065  63.7096005
  24.1518183  56.1726578  59.2435142  24.0357709  56.9234264  59.6727280
  24.9474070  55.9150531  59.4931229  24.2522773  56.2461425  59.3439233
  15.3327929  67.1508626  65.1584622  15.9765385  67.5921790  65.5480781
  15.6584185  66.3462052  65.0714881  15.4759758  67.0973821  65.2030099
   8.6892234  58.2551323  63.3822100   8.4542418  57.4218976  63.2754369
   8.8277875  58.5355989  62.5683301   8.6747896  58.1734827  63.2464455
  10.9882321  50.4237054  66.2806408  10.3687353  49.8329701  66.1116422
  10.8866185  51.0148489  65.6470731  10.8819997  50.4241136  66.1611397
  16.0348509  60.1620601  60.5304484  16.3564350  60.7025808  59.9265792
  16.6820605  59.5917372  60.6626774  16.1774564  60.1579776  60.4611519
  18.0850217  52.1636596  60.6138871  18.7830382  52.3424723  61.1060334
  18.4002549  51.6406935  59.9909260  18.2345554  52.1130368  60.5940881
  10.7151454  53.9689336  68.5249976  10.5910151  54.5551781  69.1599795
  11.3669739  53.4749531  68.8262251  10.7925104  53.9828140  68.6635906
  18.2738152  58.5507041  60.6018662  18.7131788  57.9424141  61.0473435
  18.1242815  58.1714414  59.8304127  18.3159618  58.4045512  60.5537829
  15.7409795  57.1451053  67.8037488  16.3858798  56.6523496  67.4848436
  15.9811572  57.2875839  68.6303566  15.8720380  57.0928495  67.8787021
  18.2795887  59.9905958  67.4544380  18.5619129  59.1957364  67.2331136
  19.0082047  60.4686546  67.4749441  18.4285450  59.9440555  67.4247395
  16.2577080  47.5328992  64.6960145  15.9280410  47.9840136  64.0263844
  15.5822082  47.4545156  65.2433152  16.1087517  47.5880128  64.6783369
  21.8747489  56.9034222  57.5549431  21.7898784  57.7595189  57.6999000
  22.3631872  56.6278546  58.2231590  21.9336386  56.9891544  57.6751513
  23.4653488  43.5214515  62.9409756  23.1506929  44.2117994  63.3730178
  22.9480430  43.4659298  62.2395257  23.3417959  43.6149404  62.9006705
  22.8065922  53.5219016  59.0547166  22.2777393  53.7378650  59.7144473
  23.3290942  54.2155155  58.9748136  22.8054375  53.6562153  59.1402766
  28.2613975  59.0965321  64.4280211  27.4311678  59.3075964  64.5913627
  28.2123227  58.2702375  64.1522495  28.1320710  59.0054927  64.4117576
  14.6965530  57.4182233  57.8554634  14.1122745  57.9232264  58.2620498
  14.2935625  57.1924620  57.1151226  14.5504834  57.4590481  57.8059660
  10.2509558  63.1336994  64.6578306   9.7677137  63.8587484  64.6337890
  11.0632877  63.4313124  64.7688464  10.3000306  63.2839348  64.6705585
  16.3223713  61.9269175  67.2628120  15.8050654  61.5676590  66.6589429
  17.0198104  61.4031349  67.2734187  16.3489294  61.7966863  67.1758379
  19.9787304  62.3763989  73.2244293  20.0670650  62.1890129  74.0722504
  20.4077017  61.7301419  72.8249140  20.0549407  62.2526997  73.2916045
  17.5457764  61.6595149  72.2061956  16.9828599  61.2467759  72.7301617
  18.3078788  61.5848055  72.6255099  17.5752213  61.5872549  72.3454956
  19.1542744  53.6647885  56.3323555  19.3938748  53.8725869  55.5198898
  19.4758585  52.8605394  56.4412500  19.2379902  53.5761986  56.2284108
  14.4633035  45.5941281  60.1783093  15.2179003  45.9619598  59.9400143
  14.2860569  45.9680835  60.9462273  14.5487513  45.7039469  60.2567981
  13.1053756  63.6493170  64.8098586  13.8074335  63.1345159  64.8671342
  13.0251239  63.9767321  65.6145461  13.1977516  63.6207396  64.9371378
  27.7567933  51.7435721  68.2230632  26.9196354  51.8137908  68.4578227
  27.7256164  51.7460216  67.3504935  27.6286216  51.7545948  68.1290180
  14.1532662  53.8868757  73.9379001  14.3253166  53.7774652  74.7864282
  14.6902020  54.5323162  73.7010193  14.2577666  53.9660759  74.0284098
  12.8190099  48.0011600  56.8761206  12.6365672  48.2183481  56.0502199
  13.6815712  48.1150613  56.9319820  12.9194689  48.0501498  56.7615693
  12.4304531  59.8399522  64.3184194  13.2693431  60.0722455  64.3657955
  12.4616300  58.9703833  64.2491229  12.5586249  59.7456469  64.3148839
  13.0557234  60.2600397  68.6197499  13.5955459  60.1171528  69.2900872
  12.3727180  60.6597148  68.9881526  13.0349388  60.2980068  68.7731921
  18.4989818  45.0038011  59.9110230  19.2275979  44.8253965  59.4648386
  18.5884711  45.8456090  60.1217408  18.6196480  45.1021889  59.8763747
  22.4798119  55.9391398  63.8142524  23.2355634  56.3722912  63.8531432
  22.5860443  55.2896168  64.3877160  22.6068290  55.9068882  63.9040549
  25.5178290  59.7664675  64.5644927  25.0813522  59.7701418  65.3203898
  25.1841206  60.4470174  64.1324504  25.4040910  59.8677131  64.6125759
  25.4375773  46.8078503  66.8074355  26.0801681  46.8776608  67.3936270
  25.6898794  46.1407726  66.3053897  25.5697905  46.7204852  66.8201634
  12.3652126  51.2785772  55.3883679  11.6510303  50.9923952  55.8006112
  12.8496095  51.6182398  56.0290066  12.3311490  51.2867422  55.5439314
  13.2092986  50.0179066  71.4198929  12.5164782  49.5476046  71.6659660
  13.8253313  49.7917371  71.9940636  13.1977516  49.9146198  71.5408081
  20.2477757  63.7183110  69.5354533  19.4493003  63.4782610  69.7928401
  20.6963769  63.7697503  70.2821580  20.1952368  63.6905501  69.6839457
  28.6522636  56.4845595  63.4564564  29.3139070  55.9236264  63.3560472
  28.0114048  55.9897626  63.7817255  28.6551504  56.3282004  63.4896904
  19.5399444  59.7815726  55.7645487  19.9550593  59.4500750  55.0729983
  18.7091374  59.5484629  55.6365624  19.4787453  59.6986982  55.6436335
   8.8687793  57.2659467  66.0543665   8.6863366  57.2406353  65.2015957
   9.6037462  57.7358405  66.0932574   8.9501857  57.3320830  65.9341584
  24.9387467  57.5010977  63.1976553  25.1743056  57.6456176  62.3703403
  25.0877031  58.2653385  63.5908066  24.9953270  57.6350032  63.1340157
  11.9333545  53.9844470  72.5625774  12.6573517  53.9697501  73.0490669
  12.0349681  54.6939826  72.0647742  12.0551754  54.0869174  72.5604561
  26.7677924  56.3412643  61.0346157  27.0986141  56.8740284  60.4286251
  27.3411012  56.3951531  61.6908108  26.9011603  56.4282212  61.0423938
  21.9809813  54.1877546  61.7169737  22.0756667  54.9266840  62.1709362
  21.3568656  53.7595022  62.1504301  21.9018843  54.2338867  61.8477884
  20.2362287  57.3663759  72.3660018  20.8101148  56.7291003  72.5208581
  20.1577090  57.3667841  71.4969675  20.3095522  57.2728870  72.2606428
   8.8358703  54.1452968  66.2042732   9.4132206  54.0089419  66.8434977
   8.1372765  53.6888752  66.4588316   8.8179725  54.0575234  66.3365021
  22.2332834  56.0326286  54.9506689  22.1512997  56.1028473  55.8161676
  22.8712555  56.5956030  54.7590429  22.3152672  56.1265257  55.0496638
  15.5926005  55.7987024  64.4181215  15.3345250  54.9658759  64.3912514
  15.6474488  56.0244637  63.5773715  15.5625783  55.7084795  64.2901352
  20.6727056  47.9015475  64.5185308  19.9683382  47.4124660  64.6769227
  20.7212030  47.9137949  63.6473752  20.5757107  47.8305122  64.4124647
  14.5660718  53.3524786  64.9046110  13.9910309  53.5116955  65.5410071
  14.1896394  52.7160195  64.4414560  14.4263530  53.2822599  64.9300668
  18.2334006  51.8248136  69.7638488  17.8448439  51.4002353  69.1090679
  17.5688705  52.0730285  70.2715515  18.0780934  51.7986857  69.7426356
  27.8757275  51.5823140  62.5386318  27.6193840  50.7703082  62.3484201
  28.7186589  51.5900707  62.3116505  27.9623301  51.4635138  62.4771135
   4.3117536  52.9964861  62.9190550   4.3977788  52.6196729  63.7004080
   4.9393334  52.6225307  62.4410509   4.4174087  52.8850343  62.9636028
  22.0560368  45.5222764  67.2762472  22.4370879  44.8400935  67.6630347
  21.2523652  45.2332366  67.0938137  21.9936829  45.3789813  67.3066528
  19.3372944  56.0546740  57.9615295  20.1513583  56.3461633  57.8498066
  19.2732086  55.4006603  57.3873588  19.4475683  56.0011935  57.8604132
  25.5582435  58.7372736  72.3744871  25.3221072  57.9060801  72.2556931
  26.2025664  58.6858343  72.9599715  25.6177105  58.6070424  72.4430764
  15.2080853  59.5268258  63.0887607  15.8454800  59.2880005  63.6339401
  15.6335924  59.7305417  62.3540768  15.3657019  59.5219268  63.0604765
  15.8483668  54.7470547  57.4262497  16.2328820  54.5278254  58.1779042
  15.5995288  55.5733493  57.5563573  15.8685740  54.8368694  57.5563573
  16.0152208  48.0276963  77.1425081  15.7005649  48.7976525  76.8794644
  15.6942141  47.4647219  76.5577308  15.9211127  48.0587231  77.0166431
  26.5818855  58.5217185  68.4373165  26.2764672  59.2545242  68.7986481
  25.8625071  58.1155115  68.1565951  26.4306198  58.5698918  68.4486302
  17.5902325  60.0040680  64.7681393  17.6641333  59.8415852  65.6223243
  18.4071831  60.1930870  64.5241875  17.7218683  60.0077423  64.8579419
  32.2820647  55.1610186  67.7641509  32.2145148  55.1806145  66.8944096
  32.2676310  56.0040513  67.9897180  32.2699404  55.2883920  67.6693986
  11.3508081  60.3498543  61.7975837  10.5246199  60.5960280  61.6710116
  11.4120073  60.2710624  62.6637895  11.2382248  60.3743492  61.9064781
  13.5684105  46.4167484  62.7571277  12.7006531  46.4890084  62.8228886
  13.8559309  47.2189563  62.9459252  13.4823853  46.5461631  62.7946044
  22.6916994  46.5645343  71.0882599  23.4370586  46.3755154  70.6746024
  22.2754298  47.0903581  70.5296455  22.7401968  46.6147489  70.9447172
  16.1306910  62.9675423  59.4994867  16.4205209  62.5764405  58.7754093
  16.8610391  63.1492128  59.9400142  16.2813795  62.9369237  59.4577674
  30.0679265  53.9354572  66.0388104  30.6187186  53.3022641  66.2785196
  30.0523380  54.4669965  66.7303608  30.1464461  53.9203520  66.1766962
  16.7201656  57.7693169  70.5847997  16.2213349  58.4808937  70.6632886
  17.5301880  58.0893836  70.5466160  16.7657762  57.9220018  70.5904566
  14.0712826  64.9442806  62.5655017  13.8513121  64.6540160  63.3581684
  13.8507348  64.2857761  62.0372929  14.0060420  64.8042514  62.6043925
  12.9829773  57.0316122  64.8310718  12.6943022  56.4053593  65.3656446
  13.8513121  56.9736410  64.8975399  13.0690025  56.9303666  64.9201673
  23.7707671  52.1750906  65.1492700  23.4272437  51.4541241  65.4999950
  23.8700713  51.9664757  64.3071058  23.7349714  52.0375109  65.0764380
  16.2380782  66.3172196  61.3485709  16.8904840  65.7848638  61.5776735
  15.5406390  65.9640848  61.7353583  16.2311500  66.1861719  61.4397877
  13.1862047  58.6711373  60.7553083  13.9408015  59.0524412  60.9688546
  12.5932659  59.1222517  61.2099780  13.2098760  58.7940201  60.8535962
  24.2320700  58.6376610  60.6916688  24.7978733  59.2969820  60.6075231
  23.5848603  58.9826308  61.1633090  24.2199456  58.7858551  60.7489445
  15.6468714  50.6274214  75.8810296  14.8368489  50.9331993  75.7700138
  16.1243400  51.3479796  75.9962880  15.5972192  50.7788815  75.8817367
  14.5060273  59.8419935  66.1293199  13.9841027  59.9820226  66.8145063
  14.8934293  59.0830599  66.3195316  14.4863974  59.7505458  66.2594275
  11.4951457  49.8925743  60.1988153  11.2076253  49.5227014  59.4620101
  12.1821925  50.3620599  59.9371858  11.5540354  49.9072713  60.0503229
  20.7027278  61.5815394  60.1153767  20.4613954  60.8483255  59.7080832
  20.8828611  62.1302251  59.4620101  20.6934902  61.5537785  59.9583990
  15.9326599  56.8723954  61.5274690  15.7369381  57.4798688  60.9334993
  16.1560944  56.1791898  61.0466364  15.9361240  56.8601479  61.3690771
  14.3305129  53.7578692  61.6455558  15.0527781  53.9219850  61.1859364
  13.8513122  54.4788356  61.5394898  14.3668859  53.8876921  61.5621172
  22.2898636  50.0942490  67.0252243  21.4509737  50.1203769  66.7890506
  22.3603004  50.7413226  67.6057590  22.1767030  50.1938616  67.0761360
  20.7367915  46.9927867  61.7579859  21.4394267  46.7935616  61.2799817
  20.4712103  46.2203810  62.0648702  20.8014547  46.8490833  61.7325301
  26.1656160  55.3010477  64.3113485  26.0790135  55.4565903  65.1648264
  25.7106640  55.9448553  63.9372890  26.0859417  55.4186232  64.3820592
   9.0679652  50.6706956  61.0473434   9.1695788  51.4733117  61.3754410
   9.8635539  50.4694292  60.7496515   9.2007557  50.7592855  61.0508790
  15.4996471  48.2563153  70.8110740  15.3079668  48.2718287  71.6610163
  16.3495067  48.4526827  70.7877394  15.5972193  48.2877504  70.9334034
   9.8843384  50.7854134  68.7894556   9.7428876  49.9338075  68.9139064
  10.1683947  50.8282795  67.9656762   9.9051230  50.6653884  68.6862180
  20.0381976  52.6221224  62.9339044  19.7916691  52.5416975  63.7675833
  20.3667099  51.8374692  62.7401572  20.0503220  52.4947490  63.0286567
  23.9330025  59.3304584  66.7225826  23.7944384  60.0285629  67.2274568
  23.1530023  59.1753240  66.3662007  23.7973252  59.4104750  66.7452100
  22.2708110  55.6300959  72.9748207  22.2656149  54.7580775  72.9790634
  22.9769104  55.8289128  72.5017663  22.3753114  55.5304833  72.9055243
  15.9979004  55.3577943  72.3462027  16.1422379  55.9379151  71.7105137
  16.3454652  55.7354240  73.0511882  16.0706465  55.4998647  72.3561022
  18.1698921  54.5568111  70.1287159  17.4222235  54.7499126  69.7235437
  18.3240446  53.7313331  69.8911280  18.0821348  54.4633223  70.0332565
  15.0706758  63.5480715  69.2123054  15.2196322  62.9883631  68.5596459
  15.8506761  63.6272716  69.5955573  15.2080852  63.4766280  69.1720003
  25.4283398  58.6882837  57.4842325  25.0490207  57.9019975  57.4771614
  24.7649643  59.2369694  57.3413969  25.2741873  58.6527661  57.4623122
  17.5960059  63.7195358  70.4907545  17.5203730  63.0504168  71.0458333
  17.5249918  64.4213146  71.0048211  17.5740666  63.7240265  70.6484393
  18.4100698  48.4518662  71.0182563  18.8673312  49.1842636  71.1455355
  18.4857027  48.0285127  71.7769818  18.4891668  48.4975900  71.1483639
  10.6533689  48.6984482  72.1072006  10.1175879  48.0864840  72.4232774
  10.7151454  49.2732618  72.7605673  10.5829322  48.6931409  72.2507433
  22.8828024  41.6308537  64.8876406  23.0011592  42.0885000  64.1543708
  22.7090200  40.8253798  64.6012623  22.8747195  41.5802309  64.7377339
  18.2530306  62.2396356  61.3231151  19.0180197  61.9706000  61.0013815
  18.1508396  61.7546367  62.0401214  18.3511802  62.1285921  61.3810979
  16.2883076  50.4420766  67.8624387  15.4979151  50.2612226  68.1841723
  16.6843699  49.6647718  67.8454681  16.2299952  50.3008227  67.9076935
  20.7748967  59.2708540  53.3031100  21.5421952  59.3308665  52.8936952
  20.3280276  58.6988982  52.8187419  20.8222394  59.1945116  53.1708811
  21.6726762  58.0763196  65.5883833  20.9971764  57.8448428  66.0897220
  21.6819138  57.4684379  64.9625938  21.5745267  57.9522121  65.5699985
  18.8020906  52.9181025  72.3447886  18.7380047  53.7790981  72.2168022
  18.9418094  52.6013018  71.5443437  18.8136376  52.9981192  72.2076098
  23.6743497  60.9328328  57.8194011  23.7563334  61.7395315  57.4955461
  24.1593239  60.9524288  58.5434784  23.7580655  61.0548991  57.8780909
  17.4840000  55.6113164  66.4864089  17.0602249  55.8117663  65.7503107
  17.3084855  54.7642012  66.5988388  17.3950881  55.5161946  66.3937779
  12.7722445  56.1065216  61.9192061  12.9287064  56.0412019  62.7748053
  13.1123038  56.8813768  61.7070741  12.8455680  56.2114414  62.0146655
  19.3101590  55.4823099  60.7885424  19.8517135  54.9793480  61.2524045
  19.6248149  55.4288294  59.9774910  19.4365987  55.4002520  60.7369236
  23.1818697  59.6925747  77.9012336  23.9953562  59.4210896  78.0617469
  23.0213663  59.3933287  77.0972532  23.2788645  59.6080673  77.8057742
  17.4788039  60.8740451  58.0725452  17.5480860  60.0154989  58.2118453
  18.2576494  61.0912332  57.7444477  17.6040889  60.7793315  58.0442610
  20.4590859  50.3759404  70.8407725  20.6732829  49.7370318  70.2871079
  19.8424758  50.8205228  70.4115586  20.3996188  50.3469548  70.6958156
  21.8695527  63.2978152  62.2861946  21.4775319  62.9944867  61.5684812
  22.0248599  64.1347242  62.0966899  21.8349117  63.3761989  62.1518443
   9.3456706  53.2900166  62.2352828   9.7255671  53.7084711  61.5713096
   8.7712071  53.8713622  62.5421672   9.3168031  53.4378025  62.1829569
  22.6229947  51.9848469  71.7791032  21.8106629  51.6774359  71.8604205
  23.0819882  51.5047469  72.3433744  22.5710332  51.8684961  71.8745626
  22.0335202  59.8628141  62.2267976  21.6749856  60.0342784  63.0032009
  21.5473912  60.3241347  61.6695975  21.9093899  59.9567112  62.2593245
  19.8505588  43.4859340  65.8295068  18.9799146  43.4598061  65.7828377
  20.1045929  43.3136532  65.0120913  19.7599148  43.4569483  65.7015204
  16.8223567  55.5427306  54.7668211  17.1116092  56.3192189  55.0411785
  16.9095366  55.0316038  55.4682710  16.8777823  55.5819225  54.9110708
  19.7183454  53.3908540  76.5619734  20.1883086  54.0150657  76.9487608
  19.7645335  52.7225516  77.1212949  19.7951330  53.3843221  76.7019806
  16.8754728  45.4965568  67.2868538  16.3593217  44.8045759  67.4120117
  16.3148657  46.1636345  67.2331137  16.7161241  45.4928826  67.2974604
  18.9446962  46.0358528  69.1161390  18.5578715  46.0607559  69.8974920
  18.4579899  45.4700207  68.6635907  18.8159470  45.9554279  69.1649294
  23.1939941  60.7532037  73.1735177  23.8319661  60.2592233  72.8397633
  22.5514033  60.6809437  72.5887404  23.1934168  60.6691045  73.0377532
  24.9196941  52.6021183  67.7401093  24.4924549  52.5147532  66.9849192
  24.2822994  52.7098958  68.3255937  24.7626548  52.6053843  67.7146534
  18.6104103  42.9225513  71.4071650  19.2397221  43.4585814  71.1292721
  18.7789966  42.8302872  72.2585216  18.7281898  42.9886876  71.4920179
  18.4118018  47.7096708  73.6798062  19.2391447  47.4381857  73.7356676
  18.4325864  48.5057550  74.0361880  18.5370868  47.7876462  73.7413245
  23.2494198  61.4451845  69.8140534  24.0386576  61.0940910  69.9342615
  23.4237795  62.2588234  69.5517168  23.3914479  61.5137702  69.7928402
  12.9887508  54.8560571  66.8668323  12.1475515  54.7564445  67.0747216
  13.1977516  55.6256051  67.2182643  12.8952201  54.9552614  66.9495638
  10.4663075  52.4780108  64.6953073  10.0719773  52.5523120  63.9203183
   9.9103192  52.8638054  65.2461435  10.3265887  52.5461883  64.6620733
  22.1028022  45.4561402  64.3756952  22.3077615  45.3883710  65.2213949
  21.7754446  46.2620223  64.3078130  22.0843270  45.5647342  64.4916607
  16.8004173  52.7841970  66.1165920  16.4967310  52.2297958  66.7176328
  16.0983594  52.9634180  65.6293954  16.6520383  52.7286752  66.1335626
  15.8570270  50.0942490  60.6810622  16.1330004  49.3761402  60.2688190
  16.4568939  50.6927410  60.4731728  15.9863535  50.0762861  60.5891383
  25.3561709  46.0093166  63.8559718  24.7436023  46.4963568  64.2413450
  25.4525884  45.3336657  64.3997369  25.2799607  45.9811475  63.9938576
  19.3580790  47.7656007  58.9557217  19.8124537  47.9366568  59.6805062
  19.8320836  47.1524118  58.5554993  19.4949111  47.7006893  59.0030979
  12.8796316  57.2504333  68.2859956  12.2884249  57.8913831  68.2562971
  13.6417339  57.6741951  68.2591255  12.9044576  57.4080172  68.2775103
  13.2756939  48.4106331  68.9527973  13.7358420  48.4845260  69.6903097
  13.3213045  49.2087585  68.6027795  13.3507494  48.5400478  69.0100730
  14.9240288  49.0773026  73.5200000  14.5325854  48.4306373  73.9555778
  15.0926151  49.6684461  74.1394256  14.8911199  49.0687294  73.6762706
  28.9986737  57.0810103  69.2837234  29.0569861  57.5296752  70.0297210
  28.3653205  57.4908916  68.8467314  28.9138033  57.2083838  69.3289782
  22.6385832  62.7013645  65.7191980  22.4405521  63.1904459  65.0248191
  22.0173543  62.9054886  66.2976113  22.5173397  62.8030183  65.7015203
  16.6993810  54.4698542  60.0602224  17.4435855  54.8572818  60.2985174
  16.8454507  53.6255967  60.2242712  16.8304396  54.4029014  60.1196194
  18.6173386  46.2648801  65.0934086  17.7709431  46.4371608  64.9675436
  18.6144518  45.4598144  65.4299914  18.4920536  46.1709830  65.1245213
  19.6871686  50.0424015  65.9596144  19.2131641  49.5165777  66.4701455
  20.0589822  49.4953488  65.3911005  19.6721575  49.8840012  65.9511291
  10.0644716  52.0395522  71.3279689  10.9270329  51.9391231  71.2417019
   9.7336499  51.4590231  70.7665262  10.1429913  51.9387148  71.2325095
  25.9508417  55.1026391  67.3702924  25.7106640  54.2632806  67.3745351
  26.4300424  55.1826557  68.0943698  25.9860601  54.9907790  67.4777726
  21.6155186  50.9360570  59.0221897  21.0878205  51.0189314  58.3327606
  22.0750894  51.6778441  59.0186542  21.6057036  51.0581232  58.9196593
  27.9513604  51.8827848  65.3232183  27.7123374  51.8423682  64.4852968
  28.1147505  52.7299000  65.4497904  27.9403907  52.0019933  65.2185665
  24.5559634  56.2677797  71.2537228  25.2793833  55.8150324  71.0748248
  24.2909596  56.5482463  70.4709556  24.6240907  56.2428766  71.1115944
  13.4246502  50.8637971  67.9890108  12.7999573  50.8756363  67.3816060
  13.0892097  51.3398146  68.6381348  13.2831994  50.9356488  67.9946676
  13.6088251  49.2063089  54.0462793  13.2601055  49.8582814  54.5094342
  13.1284697  49.1920202  53.3186664  13.4858495  49.3006143  54.0073884
  21.1692268  59.5064133  58.1531554  21.8926467  59.9722246  58.0096128
  20.7292859  59.5737743  57.4029151  21.2107961  59.5847970  58.0216336
  20.3378424  56.3661675  69.4032243  19.7235417  55.8219726  69.6980879
  20.8545708  55.8525912  68.9238060  20.3234086  56.2098084  69.3756472
  19.5774721  57.4365945  67.1376542  19.1502329  56.8115664  66.7041977
  19.5699665  57.1540867  67.9635549  19.5133862  57.3018726  67.1956370
  12.6937248  52.4731118  70.2064976  12.8530735  51.7174443  70.6116698
  12.5130141  53.0222058  70.8605714  12.6902607  52.4424932  70.3627682
  20.6357551  44.6392354  70.7615766  20.1398112  44.8356028  70.0707332
  21.3926613  45.0385022  70.5904567  20.6744375  44.7270088  70.6335902
  17.9060430  48.3134700  67.3519076  17.9302918  47.7794812  66.6631856
  18.1571904  47.8052009  68.0144667  17.9470349  48.1595604  67.3483721
  14.1861753  47.0405518  66.7324820  14.2260124  47.5414725  67.4459528
  13.3611417  47.1315912  66.4630743  14.0701279  47.1287335  66.7975359
  15.6076116  53.5566028  69.0298719  14.7768046  53.7239846  68.8233968
  15.5527633  53.1801979  69.8147605  15.4765531  53.5255759  69.1147248
  13.4159899  47.0474921  74.6655130  14.0412603  46.5037054  74.9384562
  12.9610379  46.5669839  74.0962920  13.4408160  46.8964402  74.6216724
  13.9812160  51.8321620  59.5588837  14.1215121  52.3294084  60.2617478
  14.4794693  51.1307914  59.7003051  14.0753241  51.8023598  59.6840416
  14.0112382  52.6988731  56.8881414  14.6457462  53.2949156  56.8230876
  14.0937993  52.3992188  57.7027284  14.1168933  52.7429639  56.9984500
  26.9894948  55.2304208  69.7567778  27.5812788  55.8701459  69.7885976
  27.4253943  54.5327245  70.0459845  27.1413379  55.2222558  69.8048611
  15.5891365  48.6302706  56.8626856  15.9107206  48.1505789  56.2086118
  15.8518309  49.4402352  56.6717668  15.6757390  48.6792604  56.7382348
  18.8188338  59.6521580  70.3825672  18.3113429  60.2057427  70.8266303
  18.5214984  59.7129870  69.5644447  18.6993223  59.7427892  70.3274129
  20.9850520  48.0174900  69.2250335  21.4105592  47.5647426  68.6133861
  20.3707513  47.4634971  69.5015122  20.9579165  47.8688876  69.1755360
  10.5165370  54.8956571  60.1570960  11.0257599  55.4921079  60.5382265
  10.9899642  54.6282545  59.4747380  10.6608746  54.9442387  60.1125483
  21.4296118  63.5684838  58.3129616  20.7125428  63.3945700  57.8476853
  22.0802856  63.3337410  57.7805102  21.4197969  63.5080631  58.1658833
  19.4244743  44.4890000  62.6340912  18.7813061  44.3387646  63.2026050
  19.0844150  44.2432345  61.8690017  19.2789820  44.4302122  62.6043927
  24.0144089  52.4449427  62.0570921  23.3435279  52.9879129  61.9283986
  24.7083840  52.9144282  61.8152615  24.0172957  52.5947698  62.0026448
  18.0630823  64.5846139  67.2882679  17.8396478  63.8264968  67.6566705
  17.5740666  64.6144160  66.5663119  17.9574272  64.4768363  67.2359420
  24.1772217  48.9005310  64.9661294  24.5299827  48.4735033  65.6407093
  23.3187018  48.8156154  65.0962370  24.1021661  48.8250051  65.0856304
  12.8755902  51.5312830  63.0244140  12.1567891  51.9476963  63.2917004
  13.2468264  52.0967069  62.4735779  12.8247834  51.6762111  62.9826947
  22.1755483  52.1640679  68.9146136  22.1553410  51.9823974  69.7680915
  22.2234683  53.0352697  68.8905720  22.1790124  52.2657217  69.0369431
  20.1201813  58.7527871  74.8394613  20.0797667  58.1077548  74.2539769
  20.9325131  58.6964488  75.1520025  20.2344966  58.6486838  74.7991562
  16.7109280  64.8046597  64.7419764  16.2969679  64.1420727  64.3523605
  17.3956654  64.9524455  64.2215458  16.7507652  64.7287255  64.6076261
  20.0774574  63.9636682  65.4943380  19.6790857  64.0738952  64.7264200
  19.4625794  64.1718748  66.0769940  19.9273463  64.0110250  65.4674679
  18.6502476  50.5710830  58.3617520  18.0567315  50.8927826  57.8102087
  18.6877754  49.7251925  58.1538626  18.5676865  50.4935158  58.2500291
  25.6096277  44.0223722  65.8945606  25.1027142  43.3152862  65.8266784
  26.4063711  43.6916911  66.0246683  25.6523516  43.8696873  65.9044601
  21.5260293  50.5290334  61.7919270  21.2973986  50.5523036  60.9497628
  21.7858369  49.7047801  61.9114281  21.5306481  50.4106414  61.6844468
  15.8079521  52.3824807  71.3944370  15.2958424  51.7745990  71.7529402
  15.6359017  53.0981400  71.8618346  15.7069158  52.3988107  71.5160594
  14.5805055  49.0666881  63.0873466  15.0562422  49.4283960  62.4523647
  14.0793655  49.7223348  63.3673608  14.5770414  49.2161069  63.0350207
  27.8116417  58.5388649  58.8786471  28.1950023  59.2880005  59.1084568
  27.0160530  58.7854468  58.6198460  27.7510199  58.6858343  58.8744044
  19.6848592  50.3049052  73.8346626  20.2420022  50.0762862  73.2025091
  19.3609657  51.0654718  73.5581838  19.7195002  50.3832889  73.7003123
  17.4031709  53.3916705  74.7998633  18.1543036  53.7068382  75.1138187
  17.5954285  53.1895876  73.9732555  17.5423123  53.4084087  74.7242029
  16.6231708  51.2108080  56.4546850  17.0030673  51.2287710  55.6697964
  15.8824304  51.6562069  56.3337697  16.5700546  51.2789855  56.3210418
  24.2516999  49.5190272  62.0422428  24.2511225  49.3638928  62.9006705
  24.0473179  50.3653259  61.9863814  24.2216777  49.6210892  62.1610368
   6.3134270  52.9430056  66.4581245   6.1356031  52.4906665  67.1836161
   6.0253292  53.7456217  66.6419722   6.2447223  52.9952614  66.5924748
  21.9757851  54.1987773  65.6958635  22.4711516  53.4810768  65.6562656
  21.1657627  53.8958571  65.5813122  21.9301744  54.0485420  65.6732361
  17.4216463  58.0485587  57.8455640  16.6127785  57.7252260  57.7988949
  17.9291371  57.3418809  57.7783888  17.3766129  57.8966903  57.8285934
   8.0506740  55.4757780  63.5703004   7.1852259  55.4643470  63.4585775
   8.1505556  55.2888003  64.4174143   7.9380907  55.4463841  63.6791948
  24.0409670  56.9491461  68.3835764  24.4664741  56.4265883  67.8306189
  23.6766590  57.5472298  67.8624387  24.0496272  56.9601688  68.2244774
  13.6763750  65.2455678  67.1433110  13.9910309  66.0592067  67.1510891
  14.0857163  64.8605897  67.8115269  13.7831848  65.3084381  67.2437201
  20.6288269  60.6625725  64.7136921  21.0999448  61.3765988  64.8826907
  20.9648448  60.0624475  65.2496791  20.7483384  60.6797189  64.8169297
  17.5457764  45.4353196  71.6695016  17.6785670  44.6384189  71.9975992
  17.9302917  45.9619599  72.2493292  17.6214093  45.3953112  71.8038519
  21.2662216  60.4543659  71.4764614  20.7183162  59.8301543  71.2084679
  21.7275244  60.6437931  70.7608694  21.2529425  60.3902710  71.3315045
  20.6190119  42.3583522  68.2676110  19.8136083  42.2481252  68.5843948
  20.4896855  42.4595978  67.4105975  20.4810252  42.3567192  68.1884150
  24.0756080  48.5229014  68.8615806  23.4919069  49.0238220  68.4493374
  24.3960374  48.0158570  68.2280130  24.0369255  48.5220849  68.7074314
  16.6150879  47.4369609  59.1374481  17.4366574  47.6067921  58.8956176
  16.1520530  47.5916870  58.4140779  16.6682041  47.4851342  58.9946126
  15.2046211  45.4312371  69.9172910  15.7490624  45.0903498  70.5077252
  15.2583147  46.2897832  70.0594195  15.2935330  45.5067630  70.0254783
  11.0176770  59.1928787  66.7911718  11.6221627  59.1524621  66.1625539
  10.8104082  60.0399939  66.8215774  11.0765667  59.3116789  66.7027834
  20.8320542  61.4594732  68.0073955  21.6518916  61.3157698  68.2690250
  20.5514620  62.0840931  68.5490393  20.9117285  61.5305084  68.1261895
  37.3034192  69.1159584  60.9716832  37.2728197  69.9704220  61.1435101
  37.9015541  68.8154876  61.5302975  37.3871350  69.1976080  61.0791634
  30.5033877  68.2035235  65.7269762  29.6471773  68.3643733  65.7778879
  30.5501531  67.3327299  65.7474823  30.3832989  68.0986037  65.7375828
  33.3485698  70.2627279  68.3701414  33.8941658  70.9412365  68.4295383
  33.2902575  70.1214740  67.5102995  33.4201613  70.3419280  68.2513474
  35.1250767  71.6911886  59.2435142  35.0090293  72.4419572  59.6727280
  35.9206654  71.4335839  59.4931229  35.2255356  71.7646733  59.3439233
  19.6624817  73.7736631  63.3822100  19.4275002  72.9404284  63.2754369
  19.8010458  74.0541297  62.5683301  19.6480480  73.6920135  63.2464455
  21.9614905  65.9422362  66.2806408  21.3419936  65.3515009  66.1116422
  21.8598768  66.5333797  65.6470731  21.8552580  65.9426444  66.1611397
  27.0081092  75.6805909  60.5304484  27.3296933  76.2211116  59.9265792
  27.6553189  75.1102680  60.6626774  27.1507148  75.6765084  60.4611519
  29.0582800  67.6821904  60.6138871  29.7562965  67.8610031  61.1060334
  29.3735133  67.1592243  59.9909260  29.2078138  67.6315676  60.5940881
  21.6884038  69.4874644  68.5249976  21.5642735  70.0737089  69.1599795
  22.3402322  68.9934839  68.8262251  21.7657687  69.5013448  68.6635906
  29.2470736  74.0692349  60.6018662  29.6864371  73.4609449  61.0473435
  29.0975399  73.6899722  59.8304127  29.2892202  73.9230820  60.5537829
  26.7142379  72.6636361  67.8037488  27.3591381  72.1708804  67.4848436
  26.9544156  72.8061147  68.6303566  26.8452964  72.6113803  67.8787021
  29.2528470  75.5091266  67.4544380  29.5351713  74.7142672  67.2331136
  29.9814631  75.9871854  67.4749441  29.4018034  75.4625863  67.4247395
  27.2309664  63.0514300  64.6960145  26.9012994  63.5025444  64.0263844
  26.5554666  62.9730464  65.2433152  27.0820100  63.1065436  64.6783369
  32.8480072  72.4219530  57.5549431  32.7631367  73.2780497  57.6999000
  33.3364456  72.1463854  58.2231590  32.9068970  72.5076851  57.6751513
  34.4386072  59.0399823  62.9409756  34.1239513  59.7303302  63.3730178
  33.9213013  58.9844606  62.2395257  34.3150542  59.1334712  62.9006705
  33.7798506  69.0404324  59.0547166  33.2509977  69.2563958  59.7144473
  34.3023526  69.7340463  58.9748136  33.7786959  69.1747461  59.1402766
  39.2346559  74.6150629  64.4280211  38.4044262  74.8261272  64.5913627
  39.1855811  73.7887683  64.1522495  39.1053294  74.5240235  64.4117576
  25.6698113  72.9367541  57.8554634  25.0855329  73.4417572  58.2620498
  25.2668209  72.7109928  57.1151226  25.5237417  72.9775789  57.8059660
  30.1275328  69.1833193  56.3323555  30.3671332  69.3911177  55.5198898
  30.4491169  68.3790702  56.4412500  30.2112486  69.0947294  56.2284108
  25.4365618  61.1126589  60.1783093  26.1911586  61.4804906  59.9400143
  25.2593153  61.4866143  60.9462273  25.5220096  61.2224777  60.2567981
  38.7300517  67.2621029  68.2230632  37.8928938  67.3323216  68.4578227
  38.6988748  67.2645524  67.3504935  38.6018799  67.2731256  68.1290180
  25.1265246  69.4054065  73.9379001  25.2985750  69.2959960  74.7864282
  25.6634603  70.0508470  73.7010193  25.2310250  69.4846067  74.0284098
  23.7922683  63.5196908  56.8761206  23.6098256  63.7368789  56.0502199
  24.6548296  63.6335920  56.9319820  23.8927272  63.5686806  56.7615693
  23.4037115  75.3584830  64.3184194  24.2426014  75.5907763  64.3657955
  23.4348884  74.4889141  64.2491229  23.5318832  75.2641776  64.3148839
  29.4722402  60.5223318  59.9110230  30.2008562  60.3439273  59.4648386
  29.5617295  61.3641398  60.1217408  29.5929064  60.6207197  59.8763747
  33.4530703  71.4576706  63.8142524  34.2088218  71.8908220  63.8531432
  33.5593027  70.8081476  64.3877160  33.5800873  71.4254190  63.9040549
  36.4910874  75.2849983  64.5644927  36.0546106  75.2886726  65.3203898
  36.1573789  75.9655482  64.1324504  36.3773494  75.3862439  64.6125759
  36.4108357  62.3263811  66.8074355  37.0534265  62.3961916  67.3936270
  36.6631377  61.6593034  66.3053897  36.5430489  62.2390160  66.8201634
  23.3384710  66.7971080  55.3883679  22.6242887  66.5109260  55.8006112
  23.8228678  67.1367706  56.0290066  23.3044073  66.8052730  55.5439314
  24.1825569  65.5364374  71.4198929  23.4897366  65.0661354  71.6659660
  24.7985896  65.3102679  71.9940636  24.1710099  65.4331506  71.5408081
  39.6255220  72.0030903  63.4564564  40.2871654  71.4421571  63.3560472
  38.9846632  71.5082934  63.7817255  39.6284087  71.8467312  63.4896904
  30.5132028  75.3001034  55.7645487  30.9283176  74.9686058  55.0729983
  29.6823957  75.0669937  55.6365624  30.4520036  75.2172290  55.6436335
  19.8420376  72.7844775  66.0543665  19.6595950  72.7591661  65.2015957
  20.5770045  73.2543713  66.0932574  19.9234440  72.8506138  65.9341584
  35.9120051  73.0196285  63.1976553  36.1475640  73.1641484  62.3703403
  36.0609614  73.7838693  63.5908066  35.9685854  73.1535340  63.1340157
  22.9066128  69.5029778  72.5625774  23.6306100  69.4882809  73.0490669
  23.0082265  70.2125134  72.0647742  23.0284337  69.6054481  72.5604561
  37.7410507  71.8597951  61.0346157  38.0718724  72.3925591  60.4286251
  38.3143595  71.9136839  61.6908108  37.8744187  71.9467520  61.0423938
  32.9542396  69.7062854  61.7169737  33.0489251  70.4452148  62.1709362
  32.3301240  69.2780329  62.1504301  32.8751427  69.7524175  61.8477884
  19.8091287  69.6638276  66.2042732  20.3864789  69.5274727  66.8434977
  19.1105349  69.2074060  66.4588316  19.7912308  69.5760542  66.3365021
  33.2065418  71.5511594  54.9506689  33.1245580  71.6213781  55.8161676
  33.8445138  72.1141338  54.7590429  33.2885255  71.6450565  55.0496638
  26.5658589  71.3172332  64.4181215  26.3077833  70.4844067  64.3912514
  26.6207072  71.5429945  63.5773715  26.5358367  71.2270103  64.2901352
  31.6459639  63.4200782  64.5185308  30.9415966  62.9309968  64.6769227
  31.6944613  63.4323257  63.6473752  31.5489691  63.3490430  64.4124647
  25.5393301  68.8710094  64.9046110  24.9642892  69.0302263  65.5410071
  25.1628977  68.2345503  64.4414560  25.3996113  68.8007907  64.9300668
  29.2066590  67.3433444  69.7638488  28.8181023  66.9187661  69.1090679
  28.5421288  67.5915593  70.2715515  29.0513518  67.3172165  69.7426356
  38.8489859  67.1008448  62.5386318  38.5926424  66.2888390  62.3484201
  39.6919173  67.1086015  62.3116505  38.9355884  66.9820446  62.4771135
  15.2850120  68.5150169  62.9190550  15.3710372  68.1382037  63.7004080
  15.9125917  68.1410615  62.4410509  15.3906671  68.4035651  62.9636028
  33.0292951  61.0408072  67.2762472  33.4103463  60.3586243  67.6630347
  32.2256236  60.7517674  67.0938137  32.9669413  60.8975121  67.3066528
  30.3105528  71.5732048  57.9615295  31.1246167  71.8646941  57.8498066
  30.2464669  70.9191910  57.3873588  30.4208267  71.5197243  57.8604132
  26.1813436  75.0453566  63.0887607  26.8187383  74.8065313  63.6339401
  26.6068508  75.2490724  62.3540768  26.3389603  75.0404576  63.0604765
  26.8216251  70.2655855  57.4262497  27.2061404  70.0463562  58.1779042
  26.5727872  71.0918801  57.5563573  26.8418324  70.3554002  57.5563573
  26.9884792  63.5462271  77.1425081  26.6738233  64.3161833  76.8794644
  26.6674724  62.9832527  76.5577308  26.8943711  63.5772539  77.0166431
  28.5634908  75.5225988  64.7681393  28.6373916  75.3601160  65.6223243
  29.3804415  75.7116178  64.5241875  28.6951267  75.5262731  64.8579419
  24.5416689  61.9352792  62.7571277  23.6739114  62.0075391  62.8228886
  24.8291893  62.7374871  62.9459252  24.4556437  62.0646939  62.7946044
  33.6649577  62.0830651  71.0882599  34.4103169  61.8940462  70.6746024
  33.2486882  62.6088889  70.5296455  33.7134552  62.1332797  70.9447172
  41.0411848  69.4539880  66.0388104  41.5919770  68.8207949  66.2785196
  41.0255964  69.9855273  66.7303608  41.1197045  69.4388828  66.1766962
  27.6934239  73.2878477  70.5847997  27.1945933  73.9994245  70.6632886
  28.5034463  73.6079144  70.5466160  27.7390346  73.4405326  70.5904566
  23.9562357  72.5501430  64.8310718  23.6675605  71.9238901  65.3656446
  24.8245705  72.4921718  64.8975399  24.0422609  72.4488974  64.9201673
  34.7440255  67.6936214  65.1492700  34.4005020  66.9726549  65.4999950
  34.8433297  67.4850065  64.3071058  34.7082297  67.5560417  65.0764380
  24.1594630  74.1896681  60.7553083  24.9140598  74.5709720  60.9688546
  23.5665243  74.6407825  61.2099780  24.1831344  74.3125509  60.8535962
  35.2053284  74.1561918  60.6916688  35.7711316  74.8155128  60.6075231
  34.5581187  74.5011616  61.1633090  35.1932040  74.3043859  60.7489445
  26.6201297  66.1459522  75.8810296  25.8101073  66.4517301  75.7700138
  27.0975984  66.8665104  75.9962880  26.5704776  66.2974123  75.8817367
  25.4792857  75.3605243  66.1293199  24.9573610  75.5005534  66.8145063
  25.8666877  74.6015907  66.3195316  25.4596558  75.2690766  66.2594275
  22.4684041  65.4111051  60.1988153  22.1808836  65.0412322  59.4620101
  23.1554509  65.8805907  59.9371858  22.5272938  65.4258021  60.0503229
  31.6759862  77.1000702  60.1153767  31.4346538  76.3668562  59.7080832
  31.8561195  77.6487559  59.4620101  31.6667486  77.0723093  59.9583990
  26.9059182  72.3909262  61.5274690  26.7101965  72.9983996  60.9334993
  27.1293528  71.6977206  61.0466364  26.9093823  72.3786787  61.3690771
  25.3037712  69.2764000  61.6455558  26.0260364  69.4405158  61.1859364
  24.8245705  69.9973664  61.5394898  25.3401443  69.4062229  61.5621172
  33.2631220  65.6127798  67.0252243  32.4242321  65.6389077  66.7890506
  33.3335587  66.2598534  67.6057590  33.1499613  65.7123924  67.0761360
  31.7100498  62.5113175  61.7579859  32.4126851  62.3120924  61.2799817
  31.4444687  61.7389118  62.0648702  31.7747130  62.3676141  61.7325301
  37.1388744  70.8195785  64.3113485  37.0522718  70.9751211  65.1648264
  36.6839224  71.4633861  63.9372890  37.0592000  70.9371540  64.3820592
  20.0412235  66.1892264  61.0473434  20.1428372  66.9918425  61.3754410
  20.8368122  65.9879600  60.7496515  20.1740141  66.2778163  61.0508790
  26.4729054  63.7748461  70.8110740  26.2812251  63.7903595  71.6610163
  27.3227650  63.9712135  70.7877394  26.5704776  63.8062812  70.9334034
  20.8575967  66.3039442  68.7894556  20.7161459  65.4523383  68.9139064
  21.1416531  66.3468103  67.9656762  20.8783814  66.1839192  68.6862180
  31.0114560  68.1406532  62.9339044  30.7649274  68.0602283  63.7675833
  31.3399683  67.3560000  62.7401572  31.0235803  68.0132798  63.0286567
  34.9062609  74.8489892  66.7225826  34.7676968  75.5470937  67.2274568
  34.1262607  74.6938548  66.3662007  34.7705835  74.9290058  66.7452100
  26.9711587  70.8763251  72.3462027  27.1154963  71.4564459  71.7105137
  27.3187236  71.2539547  73.0511882  27.0439048  71.0183955  72.3561022
  29.1431504  70.0753419  70.1287159  28.3954818  70.2684434  69.7235437
  29.2973030  69.2498639  69.8911280  29.0553932  69.9818531  70.0332565
  36.4015981  74.2068145  57.4842325  36.0222790  73.4205283  57.4771614
  35.7382227  74.7555002  57.3413969  36.2474456  74.1712969  57.4623122
  29.3833281  63.9703970  71.0182563  29.8405896  64.7027944  71.1455355
  29.4589610  63.5470435  71.7769818  29.4624251  64.0161208  71.1483639
  21.6266273  64.2169790  72.1072006  21.0908462  63.6050148  72.4232774
  21.6884037  64.7917926  72.7605673  21.5561905  64.2116717  72.2507433
  33.8560607  57.1493845  64.8876406  33.9744176  57.6070308  64.1543708
  33.6822783  56.3439106  64.6012623  33.8479778  57.0987617  64.7377339
  27.2615659  65.9606074  67.8624387  26.4711734  65.7797534  68.1841723
  27.6576282  65.1833026  67.8454681  27.2032536  65.8193535  67.9076935
  31.7481550  74.7893848  53.3031100  32.5154535  74.8493973  52.8936952
  31.3012859  74.2174290  52.8187419  31.7954977  74.7130424  53.1708811
  32.6459346  73.5948504  65.5883833  31.9704347  73.3633736  66.0897220
  32.6551722  72.9869687  64.9625938  32.5477850  73.4707429  65.5699985
  29.7753490  68.4366333  72.3447886  29.7112631  69.2976289  72.2168022
  29.9150677  68.1198326  71.5443437  29.7868960  68.5166500  72.2076098
  34.6476080  76.4513636  57.8194011  34.7295918  77.2580623  57.4955461
  35.1325822  76.4709596  58.5434784  34.7313238  76.5734299  57.8780909
  28.4572584  71.1298472  66.4864089  28.0334833  71.3302971  65.7503107
  28.2817439  70.2827320  66.5988388  28.3683464  71.0347254  66.3937779
  23.7455029  71.6250524  61.9192061  23.9019648  71.5597326  62.7748053
  24.0855622  72.3999076  61.7070741  23.8188263  71.7299722  62.0146655
  30.2834173  71.0008407  60.7885424  30.8249719  70.4978788  61.2524045
  30.5980732  70.9473602  59.9774910  30.4098570  70.9187828  60.7369236
  28.4520623  76.3925759  58.0725452  28.5213443  75.5340297  58.2118453
  29.2309078  76.6097640  57.7444477  28.5773473  76.2978623  58.0442610
  31.4323443  65.8944712  70.8407725  31.6465412  65.2555626  70.2871079
  30.8157342  66.3390536  70.4115586  31.3728772  65.8654855  70.6958156
  20.3189290  68.8085474  62.2352828  20.6988255  69.2270019  61.5713096
  19.7444655  69.3898930  62.5421672  20.2900615  68.9563333  62.1829569
  33.5962531  67.5033777  71.7791032  32.7839212  67.1959667  71.8604205
  34.0552465  67.0232777  72.3433744  33.5442915  67.3870269  71.8745626
  33.0067785  75.3813449  62.2267976  32.6482440  75.5528092  63.0032009
  32.5206496  75.8426655  61.6695975  32.8826482  75.4752420  62.2593245
  30.8238171  59.0044647  65.8295068  29.9531729  58.9783369  65.7828377
  31.0778512  58.8321840  65.0120913  30.7331731  58.9754791  65.7015204
  27.7956151  71.0612614  54.7668211  28.0848675  71.8377497  55.0411785
  27.8827949  70.5501346  55.4682710  27.8510407  71.1004533  54.9110708
  27.8487312  61.0150876  67.2868538  27.3325800  60.3231067  67.4120117
  27.2881241  61.6821653  67.2331137  27.6893825  61.0114133  67.2974604
  29.9179545  61.5543836  69.1161390  29.5311298  61.5792867  69.8974920
  29.4312482  60.9885515  68.6635907  29.7892054  61.4739587  69.1649294
  35.8929525  68.1206491  67.7401093  35.4657133  68.0332839  66.9849192
  35.2555578  68.2284266  68.3255937  35.7359132  68.1239151  67.7146534
  29.5836687  58.4410821  71.4071650  30.2129805  58.9771121  71.1292721
  29.7522550  58.3488180  72.2585216  29.7014481  58.5072184  71.4920179
  29.3850602  63.2282016  73.6798062  30.2124031  62.9567165  73.7356676
  29.4058448  64.0242858  74.0361880  29.5103452  63.3061770  73.7413245
  23.9620092  70.3745879  66.8668323  23.1208098  70.2749753  67.0747216
  24.1710100  71.1441359  67.2182643  23.8684784  70.4737922  66.9495638
  21.4395659  67.9965416  64.6953073  21.0452356  68.0708428  63.9203183
  20.8835775  68.3823362  65.2461435  21.2998471  68.0647190  64.6620733
  33.0760605  60.9746710  64.3756952  33.2810199  60.9069018  65.2213949
  32.7487029  61.7805531  64.3078130  33.0575853  61.0832650  64.4916607
  27.7736756  68.3027278  66.1165920  27.4699894  67.7483266  66.7176328
  27.0716177  68.4819488  65.6293954  27.6252966  68.2472060  66.1335626
  26.8302854  65.6127798  60.6810622  27.1062588  64.8946710  60.2688190
  27.4301523  66.2112718  60.4731728  26.9596118  65.5948169  60.5891383
  36.3294293  61.5278474  63.8559718  35.7168607  62.0148876  64.2413450
  36.4258468  60.8521965  64.3997369  36.2532191  61.4996783  63.9938576
  30.3313374  63.2841315  58.9557217  30.7857121  63.4551876  59.6805062
  30.8053420  62.6709426  58.5554993  30.4681694  63.2192200  59.0030979
  23.8528899  72.7689641  68.2859956  23.2616833  73.4099139  68.2562971
  24.6149923  73.1927258  68.2591255  23.8777160  72.9265480  68.2775103
  24.2489522  63.9291639  68.9527973  24.7091004  64.0030568  69.6903097
  24.2945629  64.7272893  68.6027795  24.3240078  64.0585786  69.0100730
  25.8972872  64.5958334  73.5200000  25.5058437  63.9491681  73.9555778
  26.0658735  65.1869769  74.1394256  25.8643782  64.5872602  73.6762706
  33.6118416  78.2198953  65.7191980  33.4138104  78.7089767  65.0248191
  32.9906127  78.4240194  66.2976113  33.4905980  78.3215491  65.7015203
  27.6726394  69.9883850  60.0602224  28.4168439  70.3758126  60.2985174
  27.8187090  69.1441275  60.2242712  27.8036979  69.9214322  60.1196194
  29.5905969  61.7834109  65.0934086  28.7442015  61.9556916  64.9675436
  29.5877102  60.9783452  65.4299914  29.4653119  61.6895137  65.1245213
  30.6604270  65.5609323  65.9596144  30.1864224  65.0351085  66.4701455
  31.0322406  65.0138796  65.3911005  30.6454159  65.4025320  65.9511291
  21.0377300  67.5580830  71.3279689  21.9002913  67.4576539  71.2417019
  20.7069083  66.9775539  70.7665262  21.1162496  67.4572456  71.2325095
  36.9241000  70.6211699  67.3702924  36.6839223  69.7818114  67.3745351
  37.4033008  70.7011865  68.0943698  36.9593184  70.5093098  67.4777726
  32.5887770  66.4545878  59.0221897  32.0610788  66.5374621  58.3327606
  33.0483478  67.1963749  59.0186542  32.5789620  66.5766540  58.9196593
  38.9246187  67.4013156  65.3232183  38.6855957  67.3608990  64.4852968
  39.0880089  68.2484308  65.4497904  38.9136491  67.5205241  65.2185665
  24.3979086  66.3823279  67.9890108  23.7732156  66.3941671  67.3816060
  24.0624681  66.8583454  68.6381348  24.2564578  66.4541796  67.9946676
  24.5820835  64.7248397  54.0462793  24.2333639  65.3768122  54.5094342
  24.1017281  64.7105510  53.3186664  24.4591079  64.8191451  54.0073884
  32.1424852  75.0249441  58.1531554  32.8659051  75.4907554  58.0096128
  31.7025443  75.0923051  57.4029151  32.1840544  75.1033278  58.0216336
  31.3111007  71.8846983  69.4032243  30.6968000  71.3405034  69.6980879
  31.8278292  71.3711220  68.9238060  31.2966670  71.7283392  69.3756472
  30.5507304  72.9551253  67.1376542  30.1234912  72.3300972  66.7041977
  30.5432249  72.6726175  67.9635549  30.4866445  72.8204034  67.1956370
  23.6669831  67.9916426  70.2064976  23.8263318  67.2359751  70.6116698
  23.4862725  68.5407366  70.8605714  23.6635190  67.9610240  70.3627682
  31.6090134  60.1577662  70.7615766  31.1130696  60.3541336  70.0707332
  32.3659196  60.5570330  70.5904567  31.6476959  60.2455396  70.6335902
  28.8793014  63.8320008  67.3519076  28.9035501  63.2980120  66.6631856
  29.1304488  63.3237317  68.0144667  28.9202933  63.6780912  67.3483721
  25.1594336  62.5590826  66.7324820  25.1992708  63.0600033  67.4459528
  24.3344001  62.6501220  66.4630743  25.0433862  62.6472642  66.7975359
  26.5808700  69.0751336  69.0298719  25.7500629  69.2425154  68.8233968
  26.5260217  68.6987287  69.8147605  26.4498114  69.0441067  69.1147248
  24.3892483  62.5660229  74.6655130  25.0145186  62.0222362  74.9384562
  23.9342963  62.0855146  74.0962920  24.4140743  62.4149710  74.6216724
  24.9544743  67.3506928  59.5588837  25.0947704  67.8479392  60.2617478
  25.4527276  66.6493222  59.7003051  25.0485824  67.3208906  59.6840416
  24.9844966  68.2174039  56.8881414  25.6190045  68.8134464  56.8230876
  25.0670577  67.9177496  57.7027284  25.0901517  68.2614947  56.9984500
  26.5623949  64.1488014  56.8626856  26.8839790  63.6691096  56.2086118
  26.8250892  64.9587660  56.6717668  26.6489974  64.1977912  56.7382348
  29.7920921  75.1706888  70.3825672  29.2846013  75.7242735  70.8266303
  29.4947568  75.2315178  69.5644447  29.6725806  75.2613199  70.3274129
  31.9583104  63.5360208  69.2250335  32.3838175  63.0832734  68.6133861
  31.3440097  62.9820279  69.5015122  31.9311749  63.3874184  69.1755360
  21.4897954  70.4141879  60.1570960  21.9990183  71.0106387  60.5382265
  21.9632226  70.1467853  59.4747380  21.6341329  70.4627695  60.1125483
  30.3977326  60.0075308  62.6340912  29.7545644  59.8572954  63.2026050
  30.0576733  59.7617653  61.8690017  30.2522404  59.9487430  62.6043927
  34.9876673  67.9634735  62.0570921  34.3167863  68.5064437  61.9283986
  35.6816423  68.4329590  61.8152615  34.9905540  68.1133006  62.0026448
  35.1504800  64.4190618  64.9661294  35.5032411  63.9920341  65.6407093
  34.2919602  64.3341462  65.0962370  35.0754245  64.3435359  65.0856304
  23.8488485  67.0498138  63.0244140  23.1300475  67.4662270  63.2917004
  24.2200848  67.6152377  62.4735779  23.7980417  67.1947419  62.9826947
  33.1488066  67.6825987  68.9146136  33.1285994  67.5009282  69.7680915
  33.1967267  68.5538005  68.8905720  33.1522707  67.7842525  69.0369431
  29.6235060  66.0896138  58.3617520  29.0299899  66.4113134  57.8102087
  29.6610337  65.2437233  58.1538626  29.5409449  66.0120466  58.2500291
  36.5828861  59.5409030  65.8945606  36.0759725  58.8338170  65.8266784
  37.3796294  59.2102219  66.0246683  36.6256100  59.3882181  65.9044601
  32.4992876  66.0475642  61.7919270  32.2706569  66.0708344  60.9497628
  32.7590953  65.2233109  61.9114281  32.5039064  65.9291722  61.6844468
  26.7812105  67.9010115  71.3944370  26.2691008  67.2931298  71.7529402
  26.6091601  68.6166708  71.8618346  26.6801742  67.9173415  71.5160594
  25.5537639  64.5852189  63.0873466  26.0295005  64.9469268  62.4523647
  25.0526238  65.2408656  63.3673608  25.5502998  64.7346377  63.0350207
  38.7849000  74.0573957  58.8786471  39.1682606  74.8065313  59.1084568
  37.9893114  74.3039776  58.6198460  38.7242783  74.2043650  58.8744044
  30.6581175  65.8234360  73.8346626  31.2152605  65.5948169  73.2025091
  30.3342240  66.5840026  73.5581838  30.6927585  65.9018197  73.7003123
  27.5964292  66.7293388  56.4546850  27.9763257  66.7473018  55.6697964
  26.8556888  67.1747377  56.3337697  27.5433130  66.7975163  56.3210418
  35.2249583  65.0375580  62.0422428  35.2243809  64.8824236  62.9006705
  35.0205763  65.8838567  61.9863814  35.1949360  65.1396200  62.1610368
  17.2866853  68.4615364  66.4581245  17.1088615  68.0091973  67.1836161
  16.9985876  69.2641525  66.6419722  17.2179807  68.5137922  66.5924748
  32.9490435  69.7173081  65.6958635  33.4444100  68.9996076  65.6562656
  32.1390210  69.4143879  65.5813122  32.9034328  69.5670728  65.6732361
  28.3949046  73.5670895  57.8455640  27.5860369  73.2437568  57.7988949
  28.9023955  72.8604117  57.7783888  28.3498713  73.4152211  57.8285934
  19.0239323  70.9943088  63.5703004  18.1584843  70.9828778  63.4585775
  19.1238139  70.8073311  64.4174143  18.9113490  70.9649149  63.6791948
  35.0142253  72.4676769  68.3835764  35.4397325  71.9451191  67.8306189
  34.6499173  73.0657606  67.8624387  35.0228856  72.4786996  68.2244774
  31.6020853  76.1811033  64.7136921  32.0732031  76.8951296  64.8826907
  31.9381031  75.5809783  65.2496791  31.7215968  76.1982497  64.8169297
  28.5190348  60.9538504  71.6695016  28.6518253  60.1569497  71.9975992
  28.9035501  61.4804907  72.2493292  28.5946677  60.9138420  71.8038519
  31.5922703  57.8768830  68.2676110  30.7868667  57.7666559  68.5843948
  31.4629439  57.9781286  67.4105975  31.4542836  57.8752500  68.1884150
  35.0488664  64.0414322  68.8615806  34.4651652  64.5423528  68.4493374
  35.3692958  63.5343878  68.2280130  35.0101839  64.0406157  68.7074314
  27.5883463  62.9554917  59.1374481  28.4099157  63.1253229  58.8956176
  27.1253114  63.1102178  58.4140779  27.6414625  63.0036650  58.9946126
  26.1778795  60.9497679  69.9172910  26.7223208  60.6088806  70.5077252
  26.2315730  61.8083140  70.0594195  26.2667914  61.0252938  70.0254783
  31.8053126  76.9780040  68.0073955  32.6251499  76.8343006  68.2690250
  31.5247203  77.6026239  68.5490393  31.8849869  77.0490392  68.1261895
  38.2042248  78.5699608  64.6960145  37.8745578  79.0210752  64.0263844
  37.5287249  78.4915772  65.2433152  38.0552684  78.6250744  64.6783369
  45.4118655  74.5585131  62.9409756  45.0972096  75.2488610  63.3730178
  44.8945597  74.5029913  62.2395257  45.2883126  74.6520020  62.9006705
  36.4098202  76.6311897  60.1783093  37.1644170  76.9990214  59.9400143
  36.2325736  77.0051451  60.9462273  36.4952680  76.7410085  60.2567981
  34.7655266  79.0382216  56.8761206  34.5830840  79.2554097  56.0502199
  35.6280879  79.1521228  56.9319820  34.8659856  79.0872114  56.7615693
  40.4454986  76.0408626  59.9110230  41.1741146  75.8624581  59.4648386
  40.5349878  76.8826706  60.1217408  40.5661648  76.1392505  59.8763747
  35.5149272  77.4538100  62.7571277  34.6471698  77.5260699  62.8228886
  35.8024477  78.2560179  62.9459252  35.4289020  77.5832247  62.7946044
  42.6833082  78.0298483  61.7579859  43.3859435  77.8306232  61.2799817
  42.4177271  77.2574426  62.0648702  42.7479714  77.8861449  61.7325301
  41.7970755  74.5229955  65.8295068  40.9264313  74.4968676  65.7828377
  42.0511096  74.3507148  65.0120913  41.7064315  74.4940099  65.7015204
  41.3045958  78.8026623  58.9557217  41.7589704  78.9737184  59.6805062
  41.7786003  78.1894734  58.5554993  41.4414278  78.7377508  59.0030979
  40.5638553  77.3019416  65.0934086  39.7174598  77.4742224  64.9675436
  40.5609686  76.4968760  65.4299914  40.4385703  77.2080445  65.1245213
  43.5620353  81.9731185  59.0221897  43.0343372  82.0559929  58.3327606
  44.0216061  82.7149057  59.0186542  43.5522204  82.0951848  58.9196593
  37.5356532  79.6673322  56.8626856  37.8572373  79.1876404  56.2086118
  37.7983476  80.4772968  56.6717668  37.6222558  79.7163220  56.7382348
  41.3709910  75.5260616  62.6340912  40.7278228  75.3758262  63.2026050
  41.0309317  75.2802961  61.8690017  41.2254987  75.4672738  62.6043927
  38.5616046  78.4740224  59.1374481  39.3831741  78.6438537  58.8956176
  38.0985697  78.6287485  58.4140779  38.6147209  78.5221957  58.9946126
  15.0519849  15.0167099  47.9056878  15.0213853  15.8711736  48.0775148
  15.6501198  14.7162392  48.4643022  15.1357007  15.0983596  48.0131681
   8.2519534  14.1042750  52.6609809   7.3957429  14.2651248  52.7118926
   8.2987188  13.2334814  52.6814870   8.1318645  13.9993552  52.6715875
   2.6360674  23.6405468  48.4247040   1.8843573  23.2621006  48.1963086
   3.0846685  23.6723902  47.6765851   2.5910340  23.5891075  48.2804543
  11.5613250  20.3729276  62.2670265  12.2680018  19.8781306  62.3957199
  11.7501186  20.8138357  61.5372923  11.6941156  20.3647626  62.1779310
   8.0885634  24.0630837  43.8532588   7.7537002  24.7407759  43.4176810
   8.6012504  23.6736149  43.2649459   8.1151215  24.1055416  43.7019379
   7.6289925  26.0145106  49.7943699   8.0129304  26.5832005  49.2548474
   7.5649066  25.2894616  49.3149515   7.6763352  25.9920570  49.6437562
  11.0971355  16.1634794  55.3041461  11.6427315  16.8419881  55.3635430
  11.0388231  16.0222255  54.4443042  11.1687269  16.2426796  55.1853521
   4.2145430  23.6523860  50.6909813   4.3155793  22.8424214  51.0006941
   3.6187175  23.5580806  50.0609491   4.1417969  23.5188888  50.6436051
  12.8736424  17.5919401  46.1775188  12.7575950  18.3427087  46.6067326
  13.6692310  17.3343354  46.4271275  12.9741013  17.6654248  46.2779280
   4.0546169  28.5701449  52.0924669   4.6983625  29.0114613  52.4820827
   4.3802425  27.7654875  52.0054928   4.1977998  28.5166644  52.1370146
   4.7566749  21.5813424  47.4644531   5.0782590  22.1218631  46.8605839
   5.4038846  21.0110195  47.5966820   4.8992804  21.5772599  47.3951566
   6.8068457  13.5829419  47.5478917   7.5048622  13.7617547  48.0400381
   7.1220790  13.0599758  46.9249307   6.9563794  13.5323191  47.5280928
   6.9956393  19.9699864  47.5358709   7.4350028  19.3616965  47.9813482
   6.8461055  19.5907237  46.7644174   7.0377858  19.8238335  47.4877876
   4.4628036  18.5643876  54.7377534   5.1077038  18.0716319  54.4188483
   4.7029813  18.7068663  55.5643613   4.5938621  18.5121318  54.8127068
   7.0014127  21.4098782  54.3884427   7.2837370  20.6150188  54.1671183
   7.7300287  21.8879369  54.4089488   7.1503691  21.3633379  54.3587442
  10.5965729  18.3227045  44.4889478  10.5117024  19.1788012  44.6339047
  11.0850112  18.0471369  45.1571637  10.6554626  18.4084367  44.6091560
  12.1871729   4.9407339  49.8749803  11.8725170   5.6310817  50.3070225
  11.6698670   4.8852121  49.1735303  12.0636199   5.0342227  49.8346752
  11.5284162  14.9411840  45.9887213  10.9995634  15.1571473  46.6484519
  12.0509182  15.6347978  45.9088183  11.5272615  15.0754976  46.0742812
  16.9832215  20.5158144  51.3620258  16.1529918  20.7268788  51.5253674
  16.9341468  19.6895199  51.0862541  16.8538951  20.4247750  51.3457623
   3.4183770  18.8375056  44.7894681   2.8340985  19.3425088  45.1960545
   3.0153865  18.6117443  44.0491273   3.2723074  18.8783305  44.7399706
   5.0441953  23.3461998  54.1968167   4.5268895  22.9869413  53.5929475
   5.7416344  22.8224173  54.2074233   5.0707534  23.2159686  54.1098426
   8.7005545  23.7956812  60.1584340   8.7888891  23.6082953  61.0062551
   9.1295257  23.1494242  59.7589187   8.7767647  23.6719820  60.2256092
   6.2676005  23.0787972  59.1402002   5.7046839  22.6660582  59.6641664
   7.0297028  23.0040878  59.5595146   6.2970453  23.0065373  59.2795003
   7.8760985  15.0840708  43.2663602   8.1156988  15.2918692  42.4538945
   8.1976826  14.2798217  43.3752546   7.9598143  14.9954810  43.1624155
   1.8271996  25.0685993  51.7438633   2.5292575  24.5537982  51.8011389
   1.7469479  25.3960145  52.5485508   1.9195757  25.0400220  51.8711425
  16.4786174  13.1628545  55.1570679  15.6414595  13.2330732  55.3918274
  16.4474405  13.1653039  54.2844981  16.3504456  13.1738772  55.0630227
   1.1522772  21.2592345  51.2524241   1.9911671  21.4915278  51.2998002
   1.1834541  20.3896657  51.1831276   1.2804489  21.1649292  51.2488885
   1.7775475  21.6793221  55.5537546   2.3173699  21.5364352  56.2240919
   1.0945421  22.0789971  55.9221572   1.7567628  21.7172891  55.7071968
  11.2016359  17.3584221  50.7482571  11.9573874  17.7915736  50.7871479
  11.3078684  16.7088991  51.3217207  11.3286530  17.3261705  50.8380596
  14.2396531  21.1857498  51.4984974  13.8031762  21.1894241  52.2543945
  13.9059446  21.8662997  51.0664551  14.1259150  21.2869954  51.5465806
   8.8125604  23.2265831  62.8228124   9.5966021  23.3396679  63.1883866
   8.6122199  22.4006968  63.0186810   8.8991630  23.1212551  62.9062510
  14.1594013   8.2271326  53.7414401  14.8019922   8.2969431  54.3276317
  14.4117034   7.5600549  53.2393943  14.2916146   8.1397675  53.7541681
   1.0870367  12.6978596  42.3223726   0.3728544  12.4116775  42.7346158
   1.5714335  13.0375222  42.9630113   1.0529730  12.7060245  42.4779361
   8.9695997  25.1375933  56.4694579   8.1711243  24.8975433  56.7268448
   9.4182009  25.1890326  57.2161627   8.9170609  25.1098324  56.6179504
  17.3740877  17.9038418  50.3904611  18.0357311  17.3429087  50.2900519
  16.7332289  17.4090449  50.7157302  17.3769744  17.7474827  50.4236951
   8.2617684  21.2008550  42.6985534   8.6768833  20.8693574  42.0070030
   7.4309614  20.9677452  42.5705671   8.2005693  21.1179806  42.5776381
  13.6605707  18.9203801  50.1316600  13.8961297  19.0649000  49.3043450
  13.8095271  19.6846209  50.5248113  13.7171511  19.0542855  50.0680203
  15.4896164  17.7605467  47.9686203  15.8204381  18.2933107  47.3626298
  16.0629252  17.8144354  48.6248154  15.6229843  17.8475035  47.9763985
  10.7028053  15.6070369  48.6509783  10.7974908  16.3459663  49.1049409
  10.0786897  15.1787845  49.0844348  10.6237083  15.6531690  48.7817931
   8.9580527  18.7856582  59.3000064   9.5319389  18.1483826  59.4548628
   8.8795331  18.7860664  58.4309722   9.0313762  18.6921693  59.1946475
  10.9551075  17.4519109  41.8846735  10.8731237  17.5221296  42.7501722
  11.5930795  18.0148853  41.6930476  11.0370912  17.5458080  41.9836685
   4.3144246  17.2179847  51.3521262   4.0563490  16.3851582  51.3252561
   4.3692729  17.4437460  50.5113762   4.2844024  17.1277618  51.2241399
   9.3945296   9.3208298  51.4525354   8.6901623   8.8317483  51.6109274
   9.4430270   9.3330772  50.5813799   9.2975347   9.2497946  51.3464694
   3.2878958  14.7717610  51.8386157   2.7128549  14.9309778  52.4750117
   2.9114634  14.1353019  51.3754607   3.1481770  14.7015422  51.8640715
   6.9552247  13.2440959  56.6978535   6.5666679  12.8195177  56.0430726
   6.2906945  13.4923108  57.2055562   6.7999174  13.2179680  56.6766403
  16.5975516  13.0015964  49.4726365  16.3412081  12.1895905  49.2824248
  17.4404830  13.0093531  49.2456552  16.6841541  12.8827961  49.4111182
  10.7778608   6.9415588  54.2102519  11.1589120   6.2593759  54.5970393
   9.9741892   6.6525190  54.0278184  10.7155070   6.7982636  54.2406575
   8.0591185  17.4739563  44.8955342   8.8731824  17.7654456  44.7838113
   7.9950326  16.8199426  44.3213635   8.1693924  17.4204758  44.7944179
  14.2800675  20.1565560  59.3084918  14.0439312  19.3253624  59.1896978
  14.9243904  20.1051167  59.8939762  14.3395346  20.0263248  59.3770811
   3.9299093  20.9461081  50.0227654   4.5673040  20.7072828  50.5679447
   4.3554165  21.1498240  49.2880815   4.0875259  20.9412091  49.9944811
   4.5701908  16.1663371  44.3602543   4.9547061  15.9471077  45.1119089
   4.3213528  16.9926316  44.4903620   4.5903981  16.2561517  44.4903620
  15.3037096  19.9410008  55.3713212  14.9982913  20.6738065  55.7326528
  14.5843311  19.5347938  55.0905998  15.1524438  19.9891741  55.3826349
   6.3120565  21.4233503  51.7021440   6.3859573  21.2608675  52.5563290
   7.1290071  21.6123693  51.4581922   6.4436924  21.4270246  51.7919466
  21.0038888  16.5803009  54.6981556  20.9363388  16.5998968  53.8284143
  20.9894550  17.4233336  54.9237227  20.9917644  16.7076744  54.6034033
   4.8525151  24.3868247  46.4334914   5.1423449  23.9957228  45.7094140
   5.5828632  24.5684951  46.8740189   5.0032035  24.3562060  46.3917721
  18.7897505  15.3547395  52.9728151  19.3405427  14.7215464  53.2125243
  18.7741620  15.8862788  53.6643655  18.8682701  15.3396343  53.1107009
   5.4419896  19.1885992  57.5188044   4.9431590  19.9001760  57.5972933
   6.2520120  19.5086659  57.4806207   5.4876003  19.3412841  57.5244613
   2.7931066  26.3635629  49.4995063   2.5731362  26.0732984  50.2921730
   2.5725588  25.7050584  48.9712976   2.7278661  26.2235337  49.5383972
   1.7048014  18.4508945  51.7650765   1.4161262  17.8246417  52.2996492
   2.5731362  18.3929233  51.8315446   1.7908265  18.3496490  51.8541720
  12.4925911  13.5943729  52.0832747  12.1490677  12.8734064  52.4339997
  12.5918954  13.3857580  51.2411105  12.4567954  13.4567932  52.0104427
   4.9599022  27.7365019  48.2825756   5.6123080  27.2041461  48.5116782
   4.2624631  27.3833671  48.6693630   4.9529740  27.6054542  48.3737924
   1.9080287  20.0904197  47.6893130   2.6626255  20.4717236  47.9028593
   1.3150900  20.5415340  48.1439827   1.9317000  20.2133024  47.7876009
  12.9538940  20.0569433  47.6256735  13.5196973  20.7162643  47.5415278
  12.3066844  20.4019131  48.0973137  12.9417697  20.2051374  47.6829492
   3.2278514  21.2612758  53.0633246   2.7059267  21.4013050  53.7485110
   3.6152534  20.5023422  53.2535363   3.2082214  21.1698282  53.1934322
   9.4245518  23.0008217  47.0493814   9.1832194  22.2676078  46.6420879
   9.6046851  23.5495074  46.3960148   9.4153142  22.9730608  46.8924037
   4.6544839  18.2916777  48.4614737   4.4587622  18.8991511  47.8675040
   4.8779185  17.5984721  47.9806410   4.6579480  18.2794302  48.3030817
   3.0523369  15.1771515  48.5795605   3.7746021  15.3412673  48.1199411
   2.5731362  15.8981180  48.4734945   3.0887100  15.3069744  48.4961219
  11.0116877  11.5135314  53.9592290  10.1727977  11.5396593  53.7230553
  11.0821244  12.1606049  54.5397636  10.8985270  11.6131439  54.0101407
   0.7030986  17.5829587  57.6849745   1.2152083  17.8613841  57.0358505
   0.4167328  18.3218881  58.0512558   0.7365849  17.7331941  57.6439623
   9.4586155   8.4120691  48.6919906  10.1612508   8.2128439  48.2139864
   9.1930344   7.6396633  48.9988749   9.5232787   8.2683657  48.6665347
  14.8874401  16.7203300  51.2453532  14.8008375  16.8758726  52.0988310
  14.4324880  17.3641376  50.8712937  14.8077657  16.8379055  51.3160638
   8.7600217  14.0414047  49.8679091   8.5134931  13.9609798  50.7015880
   9.0885340  13.2567515  49.6741619   8.7721460  13.9140313  49.9626614
  12.6548265  20.7497407  53.6565872  12.5162625  21.4478453  54.1614615
  11.8748263  20.5946063  53.3002054  12.5191492  20.8297573  53.6792147
  10.9926351  17.0493782  59.9088254  10.9874389  16.1773599  59.9130680
  11.6987344  17.2481951  59.4357710  11.0971355  16.9497656  59.8395289
   4.7197244  16.7770766  59.2802074   4.8640620  17.3571974  58.6445184
   5.0672892  17.1547063  59.9851929   4.7924705  16.9191470  59.2901069
   6.8917161  15.9760934  57.0627206   6.1440475  16.1691949  56.6575484
   7.0458686  15.1506154  56.8251327   6.8039589  15.8826046  56.9672612
   3.7924999  24.9673538  56.1463101   3.9414563  24.4076454  55.4936505
   4.5725001  25.0465540  56.5295620   3.9299093  24.8959103  56.1060050
  14.1501638  20.1075661  44.4182372  13.7708447  19.3212799  44.4111661
  13.4867884  20.6562518  44.2754016  13.9960113  20.0720485  44.3963168
   6.3178300  25.1388181  57.4247592   6.2421971  24.4696991  57.9798380
   6.2468159  25.8405969  57.9388258   6.2958906  25.1433088  57.5824440
   6.9748546  23.6589180  48.2571198   7.7398438  23.3898823  47.9353862
   6.8726636  23.1739190  48.9741261   7.0730042  23.5478744  48.3151025
   5.0101316  11.8613589  54.7964434   4.2197391  11.6805049  55.1181769
   5.4061939  11.0840542  54.7794728   4.9518192  11.7201050  54.8416982
   9.4967207  20.6901363  40.2371147  10.2640192  20.7501488  39.8276999
   9.0498516  20.1181805  39.7527466   9.5440634  20.6137939  40.1048857
  10.3945002  19.4956019  52.5223879   9.7190004  19.2641251  53.0237266
  10.4037379  18.8877202  51.8965984  10.2963507  19.3714944  52.5040032
   7.5239146  14.3373848  59.2787932   7.4598288  15.1983805  59.1508069
   7.6636334  14.0205841  58.4783484   7.5354617  14.4174015  59.1416145
  12.3961737  22.3521152  44.7534057  12.4781574  23.1588138  44.4295508
  12.8811479  22.3717111  45.4774831  12.4798895  22.4741814  44.8120956
   6.2058240  17.0305988  53.4204135   5.7820489  17.2310487  52.6843154
   6.0303096  16.1834836  53.5328435   6.1169121  16.9354769  53.3277825
   5.7069934  28.5456501  55.8825593   6.1965864  27.8467290  55.7001257
   5.1354166  28.2480371  56.4701650   5.6954464  28.3982724  55.9426633
   1.4940685  17.5258039  48.8532108   1.6505304  17.4604842  49.7088100
   1.8341278  18.3006592  48.6410787   1.5673920  17.6307237  48.9486702
   8.0319830  16.9015923  47.7225471   8.5735375  16.3986304  48.1864092
   8.3466389  16.8481117  46.9114956   8.1584227  16.8195344  47.6709283
  11.9036937  21.1118570  64.8352383  12.7171803  20.8403719  64.9957516
  11.7431904  20.8126110  64.0312579  12.0006886  21.0273496  64.7397789
   6.2006280  22.2933274  45.0065499   6.2699100  21.4347813  45.1458500
   6.9794735  22.5105155  44.6784524   6.3259130  22.1986138  44.9782656
   9.1809099  11.7952227  57.7747772   9.3951069  11.1563141  57.2211126
   8.5642998  12.2398051  57.3455633   9.1214429  11.7662371  57.6298203
  10.5913767  24.7170975  49.2201992  10.1993559  24.4137691  48.5024859
  10.7466839  25.5540065  49.0306946  10.5567357  24.7954812  49.0858490
  11.3448187  13.4041292  58.7131079  10.5324869  13.0967183  58.7944251
  11.8038122  12.9240292  59.2773791  11.2928572  13.2877785  58.8085673
  10.7553442  21.2820964  49.1608023  10.3968097  21.4535607  49.9372055
  10.2692153  21.7434170  48.6036021  10.6312139  21.3759935  49.1933292
   5.5441807  16.9620130  41.7008257   5.8334332  17.7385012  41.9751832
   5.6313606  16.4508861  42.4022757   5.5996064  17.0012048  41.8450755
  11.9158181  22.1724860  60.1075224  12.5537902  21.6785056  59.7737680
  11.2732273  22.1002261  59.5227451  11.9152408  22.0883869  59.9717579
  13.6415181  14.0214006  54.6741139  13.2142789  13.9340355  53.9189239
  13.0041234  14.1291782  55.2595984  13.4844789  14.0246666  54.6486581
  11.9712438  22.8644668  56.7480581  12.7604816  22.5133733  56.8682662
  12.1456036  23.6781057  56.4857214  12.1132720  22.9330526  56.7268449
   1.7105748  16.2753394  53.8008369   0.8693755  16.1757268  54.0087263
   1.9195756  17.0448875  54.1522690   1.6170441  16.3745438  53.8835684
  10.8246262   6.8754225  51.3096999  11.0295855   6.8076533  52.1553996
  10.4972686   7.6813046  51.2418176  10.8061510   6.9840166  51.4256654
   5.5222413  14.2034793  53.0505967   5.2185551  13.6490782  53.6516375
   4.8201834  14.3827003  52.5634001   5.3738623  14.1479576  53.0675673
   4.5788510  11.5135313  47.6150669   4.8548245  10.7954226  47.2028236
   5.1787180  12.1120233  47.4071775   4.7081775  11.4955684  47.5231430
   3.5840764  21.4184514  57.7578065   3.4761119  21.4286576  58.6240123
   3.7936546  22.2439295  57.5683019   3.5990875  21.5425589  57.8582156
  14.0779950   7.4285989  50.7899764  13.4654263   7.9156392  51.1753496
  14.1744125   6.7529480  51.3337416  14.0017847   7.4004298  50.9278623
   8.0799031   9.1848831  45.8897264   8.5342777   9.3559391  46.6145108
   8.5539077   8.5716941  45.4895040   8.2167351   9.1199716  45.9371025
   1.6014556  18.6697157  55.2200002   1.0102489  19.3106655  55.1903017
   2.3635580  19.0934774  55.1931302   1.6262817  18.8272995  55.2115150
  17.7204978  18.5002926  56.2177281  17.7788101  18.9489575  56.9637257
  17.0871445  18.9101739  55.7807361  17.6356273  18.6276661  56.2629829
  11.3604072  24.1206468  52.6532027  11.1623761  24.6097283  51.9588238
  10.7391784  24.3247710  53.2316160  11.2391637  24.2223006  52.6355250
   5.4212051  15.8891365  46.9942271   6.1654096  16.2765641  47.2325221
   5.5672747  15.0448790  47.1582759   5.5522636  15.8221838  47.0536241
   8.4089927  11.4616838  52.8936190   7.9349881  10.9358600  53.4041501
   8.7808062  10.9146311  52.3251052   8.3939816  11.3032835  52.8851338
  14.6726657  16.5219214  54.3042971  14.4324880  15.6825629  54.3085397
  15.1518664  16.6019381  55.0283744  14.7078841  16.4100614  54.4117773
  10.3373426  12.3553393  45.9561944   9.8096445  12.4382137  45.2667653
  10.7969134  13.0971264  45.9526589  10.3275277  12.4774055  45.8536639
  16.6731844  13.3020671  52.2572230  16.4341614  13.2616505  51.4193015
  16.8365746  14.1491823  52.3837951  16.6622148  13.4212756  52.1525712
  13.2777874  17.6870620  58.1877275  14.0012073  17.2343147  58.0088295
  13.0127837  17.9675286  57.4049603  13.3459148  17.6621589  58.0455991
   2.1464743  12.2830794  54.9230154   1.5217813  12.2949186  54.3156107
   1.8110338  12.7590969  55.5721395   2.0050235  12.3549311  54.9286723
   9.8910509  20.9256956  45.0871601  10.6144708  21.3915069  44.9436175
   9.4511100  20.9930566  44.3369198   9.9326201  21.0040793  44.9556383
   9.0596664  17.7854499  56.3372290   8.4453657  17.2412549  56.6320926
   9.5763949  17.2718735  55.8578106   9.0452326  17.6290908  56.3096519
   8.2992961  18.8558769  54.0716589   7.8720569  18.2308487  53.6382024
   8.2917905  18.5733691  54.8975596   8.2352102  18.7211549  54.1296416
   6.6278671   9.7327523  54.2859123   6.6521158   9.1987636  53.5971903
   6.8790144   9.2244832  54.9484713   6.6688589   9.5788427  54.2823768
   4.3294356  14.9758851  55.9638766   3.4986286  15.1432669  55.7574014
   4.2745874  14.5994802  56.7487652   4.1983771  14.9448583  56.0487294
   2.7030400  13.2514443  46.4928884   2.8433361  13.7486907  47.1957525
   3.2012933  12.5500737  46.6343098   2.7971481  13.2216422  46.6180463
   2.7330623  14.1181554  43.8221461   3.3675702  14.7141979  43.7570923
   2.8156233  13.8185011  44.6367331   2.8387174  14.1622462  43.9324547
  15.7113188  16.6497031  56.6907825  16.3031029  17.2894282  56.7226023
  16.1472183  15.9520068  56.9799892  15.8631620  16.6415382  56.7388658
   4.3109605  10.0495529  43.7966903   4.6325447   9.5698612  43.1426165
   4.5736549  10.8595175  43.6057714   4.3975631  10.0985427  43.6722395
   7.5406578  21.0714404  57.3165719   7.0331669  21.6250250  57.7606349
   7.2433224  21.1322694  56.4984493   7.4211463  21.1620715  57.2614176
   9.7068760   9.4367723  56.1590382  10.1323832   8.9840250  55.5473908
   9.0925754   8.8827794  56.4355169   9.6797406   9.2881699  56.1095407
  10.1514359  24.9877661  45.2469662   9.4343668  24.8138524  44.7816900
  10.8021096  24.7530234  44.7145148  10.1416209  24.9273454  45.0998880
  12.7362330  13.8642250  48.9910967  12.0653520  14.4071952  48.8624033
  13.4302080  14.3337105  48.7492662  12.7391197  14.0140521  48.9366495
   6.7849063  26.0038962  54.2222726   6.5614718  25.2457791  54.5906752
   6.2958907  26.0336983  53.5003165   6.6792513  25.8961186  54.1699467
  12.8990457  10.3198133  51.9001341  13.2518067   9.8927856  52.5747139
  12.0405259  10.2348977  52.0302417  12.8239902  10.2442874  52.0196351
   1.5974142  12.9505653  49.9584187   0.8786131  13.3669786  50.2257051
   1.9686504  13.5159892  49.4075825   1.5466074  13.0954935  49.9166994
  10.8973723  13.5833502  55.8486183  10.8771650  13.4016797  56.7020962
  10.9452924  14.4545521  55.8245767  10.9008364  13.6850040  55.9709478
   8.8420053  20.1720694  61.7734659   8.8015908  19.5270371  61.1879815
   9.6543371  20.1157311  62.0860071   8.9563206  20.0679661  61.7331609
   5.4327520  26.2239420  51.6759810   5.0187919  25.5613550  51.2863652
   6.1174895  26.3717279  51.1555505   5.4725892  26.1480078  51.5416307
   8.7992815  25.3829505  52.4283427   8.4009098  25.4931776  51.6604247
   8.1844034  25.5911572  53.0109987   8.6491704  25.4303073  52.4014726
   7.3720717  11.9903653  45.2957567   6.7785556  12.3120650  44.7442134
   7.4095994  11.1444748  45.0878673   7.2895106  11.9127981  45.1840338
  14.3314517   5.4416545  52.8285653  13.8245382   4.7345685  52.7606831
  15.1281951   5.1109734  52.9586730  14.3741757   5.2889697  52.8384648
  10.2478533  11.9483158  48.7259317  10.0192226  11.9715859  47.8837675
  10.5076609  11.1240625  48.8454327  10.2524721  11.8299238  48.6184515
   3.3023296  10.4859704  50.0213513   3.7780662  10.8476784  49.3863694
   2.8011895  11.1416171  50.3013655   3.2988655  10.6353893  49.9690254
  16.5334657  19.9581472  45.8126518  16.9168263  20.7072828  46.0424615
  15.7378771  20.2047292  45.5538507  16.4728439  20.1051166  45.8084091
   5.3449949  12.6300904  43.3886897   5.7248914  12.6480533  42.6038011
   4.6042545  13.0754892  43.2677744   5.2918787  12.6982678  43.2550465
  12.9735239  10.9383095  48.9762475  12.9729466  10.7831751  49.8346752
  12.7691419  11.7846082  48.9203861  12.9435017  11.0403716  49.0950415
  10.6976091  15.6180597  52.6298682  11.1929757  14.9003592  52.5902702
   9.8875867  15.3151394  52.5153169  10.6519985  15.4678243  52.6072408
   6.1434703  19.4678410  44.7795687   5.3346026  19.1445083  44.7328996
   6.6509612  18.7611632  44.7123935   6.0984370  19.3159726  44.7625981
  12.7627910  18.3684284  55.3175811  13.1882982  17.8458706  54.7646236
  12.3984830  18.9665122  54.7964434  12.7714513  18.3794511  55.1584821
   2.3981990  26.6648502  54.0773156   2.7128549  27.4784890  54.0850938
   2.8075403  26.2798720  54.7455315   2.5050088  26.7277204  54.1777248
   9.3506510  22.0818548  51.6476968   9.8217688  22.7958811  51.8166953
   9.6866688  21.4817299  52.1836838   9.4701625  22.0990013  51.7509344
  11.4383494  23.6919862  63.8269040  11.5480460  22.9028422  64.1825788
  11.7674391  23.6025798  63.0243378  11.5035900  23.5625715  63.7611431
   9.9880456  21.8736483  58.4104661   9.4401402  21.2494366  58.1424726
  10.4493485  22.0630755  57.6948740   9.9747665  21.8095533  58.2655092
  12.7974320   9.9421837  55.7955853  12.2137309  10.4431044  55.3833421
  13.1178614   9.4351393  55.1620177  12.7587496   9.9413672  55.6414360
   5.3369120   8.8562432  46.0714528   6.1584814   9.0260745  45.8296223
   4.8738770   9.0109693  45.3480826   5.3900282   8.9044165  45.9286172
   9.5538782  22.8787555  54.9414002  10.3737156  22.7350521  55.2030297
   9.2732860  23.5033754  55.4830440   9.6335526  22.9497907  55.0601942
  26.0252433  30.5352407  47.9056878  25.9946437  31.3897044  48.0775148
  26.6233781  30.2347700  48.4643022  26.1089591  30.6168904  48.0131681
  19.2252118  29.6228058  52.6609809  18.3690013  29.7836556  52.7118926
  19.2719771  28.7520122  52.6814870  19.1051229  29.5178860  52.6715875
  13.6093257  39.1590776  48.4247040  12.8576157  38.7806314  48.1963086
  14.0579269  39.1909209  47.6765851  13.5642924  39.1076383  48.2804543
  22.5345834  35.8914584  62.2670265  23.2412601  35.3966614  62.3957199
  22.7233770  36.3323665  61.5372923  22.6673740  35.8832934  62.1779310
  19.0618217  39.5816145  43.8532588  18.7269586  40.2593067  43.4176810
  19.5745088  39.1921457  43.2649459  19.0883798  39.6240724  43.7019379
  18.6022508  41.5330414  49.7943699  18.9861888  42.1017313  49.2548474
  18.5381650  40.8079924  49.3149515  18.6495936  41.5105877  49.6437562
  22.0703939  31.6820102  55.3041461  22.6159899  32.3605189  55.3635430
  22.0120815  31.5407563  54.4443042  22.1419853  31.7612104  55.1853521
  15.1878013  39.1709168  50.6909813  15.2888376  38.3609522  51.0006941
  14.5919759  39.0766114  50.0609491  15.1150552  39.0374196  50.6436051
  23.8469007  33.1104709  46.1775188  23.7308533  33.8612395  46.6067326
  24.6424894  32.8528662  46.4271275  23.9473597  33.1839556  46.2779280
  15.0278753  44.0886757  52.0924669  15.6716209  44.5299921  52.4820827
  15.3535009  43.2840183  52.0054928  15.1710582  44.0351952  52.1370146
   8.3843058  35.1929455  50.3162147   8.1493242  34.3597107  50.2094415
   8.5228698  35.4734120  49.5023348   8.3698720  35.1112958  50.1804502
  10.6833145  27.3615185  53.2146454  10.0638177  26.7707832  53.0456469
  10.5817009  27.9526620  52.5810778  10.5770821  27.3619268  53.0951444
  15.7299333  37.0998732  47.4644531  16.0515174  37.6403939  46.8605839
  16.3771429  36.5295503  47.5966820  15.8725388  37.0957907  47.3951566
  17.7801041  29.1014727  47.5478917  18.4781206  29.2802855  48.0400381
  18.0953373  28.5785066  46.9249307  17.9296378  29.0508499  47.5280928
  10.4102278  30.9067467  55.4590023  10.2860975  31.4929912  56.0939842
  11.0620563  30.4127663  55.7602298  10.4875928  30.9206271  55.5975953
  17.9688976  35.4885172  47.5358709  18.4082612  34.8802273  47.9813482
  17.8193639  35.1092545  46.7644174  18.0110442  35.3423643  47.4877876
  15.4360619  34.0829184  54.7377534  16.0809622  33.5901627  54.4188483
  15.6762396  34.2253970  55.5643613  15.5671204  34.0306626  54.8127068
  17.9746711  36.9284090  54.3884427  18.2569953  36.1335495  54.1671183
  18.7032871  37.4064677  54.4089488  18.1236274  36.8818687  54.3587442
  15.9527904  24.4707124  51.6300192  15.6231234  24.9218267  50.9603891
  15.2772906  24.3923287  52.1773198  15.8038341  24.5258259  51.6123415
  21.5698313  33.8412353  44.4889478  21.4849608  34.6973320  44.6339047
  22.0582696  33.5656677  45.1571637  21.6287210  33.9269675  44.6091560
  23.1604312  20.4592647  49.8749803  22.8457753  21.1496125  50.3070225
  22.6431254  20.4037429  49.1735303  23.0368783  20.5527535  49.8346752
  22.5016746  30.4597147  45.9887213  21.9728217  30.6756781  46.6484519
  23.0241766  31.1533286  45.9088183  22.5005199  30.5940284  46.0742812
  14.3916354  34.3560364  44.7894681  13.8073569  34.8610396  45.1960545
  13.9886449  34.1302751  44.0491273  14.2455658  34.3968613  44.7399706
   9.9460382  40.0715125  51.5918353   9.4627961  40.7965615  51.5677936
  10.7583701  40.3691255  51.7028510   9.9951130  40.2217479  51.6045632
  16.0174536  38.8647306  54.1968167  15.5001478  38.5054721  53.5929475
  16.7148928  38.3409481  54.2074233  16.0440118  38.7344994  54.1098426
  19.6738128  39.3142120  60.1584340  19.7621474  39.1268261  61.0062551
  20.1027841  38.6679550  59.7589187  19.7500231  39.1905128  60.2256092
  17.2408588  38.5973280  59.1402002  16.6779423  38.1845890  59.6641664
  18.0029612  38.5226186  59.5595146  17.2703037  38.5250681  59.2795003
  18.8493568  30.6026016  43.2663602  19.0889572  30.8104000  42.4538945
  19.1709409  29.7983525  43.3752546  18.9330726  30.5140118  43.1624155
  14.1583858  22.5319412  47.1123140  14.9129826  22.8997729  46.8740190
  13.9811393  22.9058966  47.8802319  14.2438337  22.6417600  47.1908028
  12.8004580  40.5871301  51.7438633  13.5025159  40.0723290  51.8011389
  12.7202063  40.9145453  52.5485508  12.8928340  40.5585527  51.8711425
  13.8483486  30.8246888  60.8719048  14.0203990  30.7152783  61.7204329
  14.3852844  31.4701294  60.6350240  13.9528490  30.9038890  60.9624144
  12.5140923  24.9389731  43.8101253  12.3316496  25.1561612  42.9842246
  13.3766536  25.0528744  43.8659867  12.6145513  24.9879629  43.6955740
  12.1255355  36.7777653  51.2524241  12.9644254  37.0100586  51.2998002
  12.1567124  35.9081965  51.1831276  12.2537073  36.6834600  51.2488885
  12.7508058  37.1978528  55.5537546  13.2906283  37.0549659  56.2240919
  12.0678004  37.5975279  55.9221572  12.7300212  37.2358199  55.7071968
  18.1940642  21.9416142  46.8450277  18.9226803  21.7632097  46.3988433
  18.2835535  22.7834221  47.0557455  18.3147304  22.0400020  46.8103794
  22.1748943  32.8769529  50.7482571  22.9306458  33.3101043  50.7871479
  22.2811267  32.2274299  51.3217207  22.3019114  32.8447013  50.8380596
  25.2129114  36.7042806  51.4984974  24.7764346  36.7079549  52.2543945
  24.8792030  37.3848305  51.0664551  25.0991734  36.8055262  51.5465806
  19.7858188  38.7451139  62.8228124  20.5698604  38.8581987  63.1883866
  19.5854782  37.9192276  63.0186810  19.8724213  38.6397859  62.9062510
   8.1545203  33.4178819  55.7071968   7.8883618  32.6017936  55.8662958
   8.1683767  33.4631975  54.8367483   8.1169925  33.3035724  55.6025450
  25.1326597  23.7456634  53.7414401  25.7752505  23.8154739  54.3276317
  25.3849618  23.0785857  53.2393943  25.2648729  23.6582983  53.7541681
  12.0602950  28.2163904  42.3223726  11.3461127  27.9302083  42.7346158
  12.5446919  28.5560529  42.9630113  12.0262313  28.2245553  42.4779361
  12.9043810  26.9557198  58.3538975  12.2115606  26.4854177  58.5999707
  13.5204137  26.7295502  58.9280683  12.8928339  26.8524329  58.4748128
  19.9428581  40.6561241  56.4694579  19.1443827  40.4160741  56.7268448
  20.3914593  40.7075634  57.2161627  19.8903192  40.6283632  56.6179504
  19.2350268  36.7193858  42.6985534  19.6501417  36.3878881  42.0070030
  18.4042198  36.4862760  42.5705671  19.1738277  36.6365114  42.5776381
   8.5638617  34.2037599  52.9883712   8.3814190  34.1784485  52.1356004
   9.2988286  34.6736536  53.0272621   8.6452681  34.2698961  52.8681630
  24.6338291  34.4389109  50.1316600  24.8693880  34.5834308  49.3043450
  24.7827855  35.2031517  50.5248113  24.6904094  34.5728163  50.0680203
  11.6284368  30.9222602  59.4965821  12.3524341  30.9075632  59.9830715
  11.7300505  31.6317957  58.9987789  11.7502578  31.0247305  59.4944607
  26.4628748  33.2790775  47.9686203  26.7936965  33.8118415  47.3626298
  27.0361836  33.3329662  48.6248154  26.5962427  33.3660343  47.9763985
  19.0029318  34.4021686  64.3614768  18.2102299  34.7165198  64.5467387
  19.1178245  34.6173155  63.5235552  18.9024728  34.4805523  64.2653102
  21.6760637  31.1255677  48.6509783  21.7707491  31.8644971  49.1049409
  21.0519480  30.6973153  49.0844348  21.5969667  31.1716998  48.7817931
  19.9313111  34.3041890  59.3000064  20.5051972  33.6669134  59.4548628
  19.8527914  34.3045972  58.4309722  20.0046346  34.2107001  59.1946475
   8.5309527  31.0831099  53.1382779   9.1083030  30.9467550  53.7775024
   7.8323589  30.6266883  53.3928363   8.5130549  30.9953366  53.2705068
  21.9283658  32.9704417  41.8846735  21.8463821  33.0406604  42.7501722
  22.5663379  33.5334161  41.6930476  22.0103496  33.0643388  41.9836685
  15.2876829  32.7365155  51.3521262  15.0296074  31.9036890  51.3252561
  15.3425312  32.9622768  50.5113762  15.2576607  32.6462926  51.2241399
  20.3677879  24.8393606  51.4525354  19.6634206  24.3502791  51.6109274
  20.4162854  24.8516080  50.5813799  20.2707931  24.7683254  51.3464694
  14.2611541  30.2902917  51.8386157  13.6861133  30.4495086  52.4750117
  13.8847218  29.6538327  51.3754607  14.1214354  30.2200730  51.8640715
  17.9284830  28.7626267  56.6978535  17.5399263  28.3380484  56.0430726
  17.2639528  29.0108416  57.2055562  17.7731758  28.7364988  56.6766403
  27.5708099  28.5201271  49.4726365  27.3144664  27.7081213  49.2824248
  28.4137413  28.5278839  49.2456552  27.6574125  28.4013269  49.4111182
   4.0068360  29.9342992  49.8530597   4.0928612  29.5574861  50.6344127
   4.6344158  29.5603438  49.3750555   4.1124911  29.8228474  49.8976074
  21.7511192  22.4600896  54.2102519  22.1321703  21.7779067  54.5970393
  20.9474476  22.1710498  54.0278184  21.6887653  22.3167944  54.2406575
  19.0323768  32.9924871  44.8955342  19.8464407  33.2839764  44.7838113
  18.9682910  32.3384734  44.3213635  19.1426507  32.9390066  44.7944179
  25.2533259  35.6750867  59.3084918  25.0171896  34.8438932  59.1896978
  25.8976487  35.6236475  59.8939762  25.3127929  35.5448555  59.3770811
  14.9031677  36.4646389  50.0227654  15.5405624  36.2258136  50.5679447
  15.3286748  36.6683548  49.2880815  15.0607843  36.4597399  49.9944811
   9.5944319  38.7034725  53.9061958   9.6348464  38.9749576  53.0781737
  10.1538843  39.2276633  54.3219746   9.6827665  38.8210480  53.8453846
  15.5434492  31.6848679  44.3602543  15.9279644  31.4656385  45.1119089
  15.2946112  32.5111624  44.4903620  15.5636564  31.7746825  44.4903620
  15.7103032  24.9655094  64.0765128  15.3956473  25.7354656  63.8134690
  15.3892965  24.4025350  63.4917355  15.6161951  24.9965362  63.9506478
  17.2853149  36.9418811  51.7021440  17.3592157  36.7793983  52.5563290
  18.1022655  37.1309001  51.4581922  17.4169507  36.9455554  51.7919466
  11.0458905  37.2876674  48.7315884  10.2197023  37.5338411  48.6050163
  11.1070896  37.2088755  49.5977942  10.9333072  37.3121623  48.8404828
  13.2634929  23.3545615  49.6911324  12.3957354  23.4268215  49.7568933
  13.5510133  24.1567694  49.8799299  13.1774677  23.4839762  49.7286091
  22.3867818  23.5023475  58.0222646  23.1321410  23.3133285  57.6086071
  21.9705122  24.0281713  57.4636502  22.4352792  23.5525620  57.8787219
  15.8257734  39.9053554  46.4334914  16.1156033  39.5142536  45.7094140
  16.5561215  40.0870259  46.8740189  15.9764619  39.8747368  46.3917721
  16.4152479  34.7071300  57.5188044  15.9164173  35.4187068  57.5972933
  17.2252704  35.0271967  57.4806207  16.4608586  34.8598149  57.5244613
  13.7663650  41.8820937  49.4995063  13.5463945  41.5918292  50.2921730
  13.5458172  41.2235892  48.9712976  13.7011244  41.7420645  49.5383972
  12.6780597  33.9694253  51.7650765  12.3893846  33.3431725  52.2996492
  13.5463945  33.9114541  51.8315446  12.7640849  33.8681798  51.8541720
  23.4658495  29.1129037  52.0832747  23.1223261  28.3919372  52.4339997
  23.5651537  28.9042888  51.2411105  23.4300538  28.9753240  52.0104427
  15.9331606  43.2550327  48.2825756  16.5855664  42.7226769  48.5116782
  15.2357214  42.9018979  48.6693630  15.9262324  43.1239850  48.3737924
  12.8812870  35.6089504  47.6893130  13.6358838  35.9902544  47.9028593
  12.2883483  36.0600648  48.1439827  12.9049584  35.7318332  47.7876009
  23.9271524  35.5754741  47.6256735  24.4929557  36.2347951  47.5415278
  23.2799427  35.9204439  48.0973137  23.9150280  35.7236682  47.6829492
  15.3419537  27.5652345  62.8150342  14.5319313  27.8710124  62.7040185
  15.8194224  28.2857927  62.9302926  15.2923016  27.7166946  62.8157413
  14.2011097  36.7798066  53.0633246  13.6791851  36.9198357  53.7485110
  14.5885117  36.0208730  53.2535363  14.1814798  36.6883590  53.1934322
  11.1902281  26.8303875  47.1328200  10.9027077  26.4605145  46.3960148
  11.8772749  27.2998730  46.8711905  11.2491178  26.8450844  46.9843276
  20.3978102  38.5193525  47.0493814  20.1564778  37.7861386  46.6420879
  20.5779435  39.0680382  46.3960148  20.3885726  38.4915916  46.8924037
  15.6277423  33.8102085  48.4614737  15.4320205  34.4176819  47.8675040
  15.8511768  33.1170029  47.9806410  15.6312064  33.7979610  48.3030817
  14.0255953  30.6956823  48.5795605  14.7478605  30.8597981  48.1199411
  13.5463945  31.4166488  48.4734945  14.0619683  30.8255052  48.4961219
  21.9849460  27.0320622  53.9592290  21.1460561  27.0581900  53.7230553
  22.0553828  27.6791357  54.5397636  21.8717854  27.1316747  54.0101407
  11.6763569  33.1014895  57.6849745  12.1884666  33.3799148  57.0358505
  11.3899912  33.8404189  58.0512558  11.7098433  33.2517249  57.6439623
  20.4318739  23.9305999  48.6919906  21.1345091  23.7313747  48.2139864
  20.1662927  23.1581941  48.9988749  20.4965371  23.7868965  48.6665347
   8.7630476  27.6085087  47.9813481   8.8646612  28.4111248  48.3094457
   9.5586362  27.4072423  47.6836562   8.8958381  27.6970986  47.9848837
  15.1947295  25.1941284  57.7450786  15.0030492  25.2096418  58.5950210
  16.0445891  25.3904958  57.7217441  15.2923017  25.2255635  57.8674081
   9.5794208  27.7232265  55.7234603   9.4379700  26.8716206  55.8479111
   9.8634771  27.7660926  54.8996809   9.6002054  27.6032015  55.6202227
  19.7332800  29.5599355  49.8679091  19.4867514  29.4795106  50.7015880
  20.0617923  28.7752823  49.6741619  19.7454044  29.4325621  49.9626614
  23.6280849  36.2682715  53.6565872  23.4895208  36.9663761  54.1614615
  22.8480847  36.1131371  53.3002054  23.4924076  36.3482881  53.6792147
  21.9658934  32.5679090  59.9088254  21.9606973  31.6958907  59.9130680
  22.6719928  32.7667259  59.4357710  22.0703938  32.4682964  59.8395289
  15.6929827  32.2956074  59.2802074  15.8373203  32.8757282  58.6445184
  16.0405476  32.6732371  59.9851929  15.7657289  32.4376778  59.2901069
  17.8649745  31.4946242  57.0627206  17.1173059  31.6877257  56.6575484
  18.0191270  30.6691462  56.8251327  17.7772172  31.4011354  56.9672612
  14.7657582  40.4858846  56.1463101  14.9147146  39.9261762  55.4936505
  15.5457585  40.5650848  56.5295620  14.9031676  40.4144411  56.1060050
  25.1234222  35.6260969  44.4182372  24.7441031  34.8398106  44.4111661
  24.4600467  36.1747826  44.2754016  24.9692697  35.5905793  44.3963168
  17.2910883  40.6573489  57.4247592  17.2154554  39.9882299  57.9798380
  17.2200742  41.3591277  57.9388258  17.2691490  40.6618396  57.5824440
  18.1051522  25.3896793  57.9522610  18.5624136  26.1220767  58.0795402
  18.1807851  24.9663258  58.7109865  18.1842492  25.4354031  58.0823686
  10.3484513  25.6362613  59.0412053   9.8126703  25.0242971  59.3572820
  10.4102278  26.2110749  59.6945720  10.2780146  25.6309541  59.1847480
  22.5778848  18.5686668  51.8216452  22.6962416  19.0263132  51.0883755
  22.4041023  17.7631930  51.5352670  22.5698019  18.5180440  51.6717386
  17.9481130  39.1774488  48.2571198  18.7131021  38.9084131  47.9353862
  17.8459220  38.6924498  48.9741261  18.0462625  39.0664052  48.3151025
  15.9833900  27.3798897  54.7964434  15.1929975  27.1990357  55.1181769
  16.3794523  26.6025850  54.7794728  15.9250776  27.2386358  54.8416982
  21.3677586  35.0141327  52.5223879  20.6922588  34.7826559  53.0237266
  21.3769962  34.4062510  51.8965984  21.2696091  34.8900252  52.5040032
  18.4971730  29.8559156  59.2787932  18.4330871  30.7169113  59.1508069
  18.6368918  29.5391149  58.4783484  18.5087200  29.9359323  59.1416145
  17.1790824  32.5491295  53.4204135  16.7553073  32.7495795  52.6843154
  17.0035679  31.7020143  53.5328435  17.0901705  32.4540077  53.3277825
  16.6802517  44.0641808  55.8825593  17.1698448  43.3652598  55.7001257
  16.1086750  43.7665678  56.4701650  16.6687047  43.9168032  55.9426633
  12.4673269  33.0443347  48.8532108  12.6237888  32.9790150  49.7088100
  12.8073862  33.8191899  48.6410787  12.5406504  33.1492545  48.9486702
  19.0052413  32.4201231  47.7225471  19.5467959  31.9171612  48.1864092
  19.3198973  32.3666425  46.9114956  19.1316811  32.3380651  47.6709283
  22.8769521  36.6303878  64.8352383  23.6904386  36.3589027  64.9957516
  22.7164487  36.3311418  64.0312579  22.9739469  36.5458804  64.7397789
  17.1738863  37.8118582  45.0065499  17.2431684  36.9533121  45.1458500
  17.9527318  38.0290463  44.6784524  17.2991713  37.7171446  44.9782656
  20.1541683  27.3137535  57.7747772  20.3683652  26.6748449  57.2211126
  19.5375582  27.7583359  57.3455633  20.0947012  27.2847679  57.6298203
  21.5646351  40.2356283  49.2201992  21.1726143  39.9322998  48.5024859
  21.7199423  41.0725373  49.0306946  21.5299941  40.3140120  49.0858490
   9.0407530  30.2278297  49.1692875   9.4206495  30.6462842  48.5053142
   8.4662895  30.8091753  49.4761718   9.0118855  30.3756156  49.1169616
  22.3180771  28.9226600  58.7131079  21.5057453  28.6152491  58.7944251
  22.7770705  28.4425600  59.2773791  22.2661156  28.8063093  58.8085673
  21.7286026  36.8006272  49.1608023  21.3700680  36.9720915  49.9372055
  21.2424736  37.2619478  48.6036021  21.6044722  36.8945243  49.1933292
  19.5456412  20.4237471  52.7635114  18.6749969  20.3976192  52.7168424
  19.7996753  20.2514663  51.9460960  19.4549972  20.3947614  52.6355251
  16.5174391  32.4805438  41.7008257  16.8066916  33.2570320  41.9751832
  16.6046190  31.9694169  42.4022757  16.5728647  32.5197356  41.8450755
  19.4134278  30.3286672  63.4959781  19.8833910  30.9528788  63.8827655
  19.4596159  29.6603647  64.0552996  19.4902154  30.3221352  63.6359852
  16.5705552  22.4343699  54.2208585  16.0544041  21.7423891  54.3460164
  16.0099481  23.1014476  54.1671183  16.4112065  22.4306957  54.2314651
  18.6397786  22.9736659  56.0501437  18.2529539  22.9985691  56.8314967
  18.1530723  22.4078338  55.5975954  18.5110294  22.8932410  56.0989341
  22.8890765  37.6910168  60.1075224  23.5270485  37.1970364  59.7737680
  22.2464856  37.6187569  59.5227451  22.8884991  37.6069177  59.9717579
  24.6147765  29.5399314  54.6741139  24.1875373  29.4525663  53.9189239
  23.9773818  29.6477090  55.2595984  24.4577372  29.5431974  54.6486581
  18.3054927  19.8603645  58.3411697  18.9348045  20.3963945  58.0632768
  18.4740790  19.7681004  59.1925263  18.4232722  19.9265007  58.4260225
  18.1068842  24.6474839  60.6138109  18.9342271  24.3759988  60.6696723
  18.1276688  25.4435681  60.9701927  18.2321692  24.7254594  60.6753292
  22.9445022  38.3829976  56.7480581  23.7337400  38.0319041  56.8682662
  23.1188619  39.1966365  56.4857214  23.0865303  38.4515834  56.7268449
  12.6838332  31.7938702  53.8008369  11.8426339  31.6942576  54.0087263
  12.8928340  32.5634182  54.1522690  12.5903025  31.8930745  53.8835684
  10.1613899  29.4158239  51.6293120   9.7670597  29.4901251  50.8543230
   9.6054016  29.8016185  52.1801482  10.0216711  29.4840014  51.5960780
  21.7978846  22.3939533  51.3096999  22.0028439  22.3261841  52.1553996
  21.4705270  23.1998354  51.2418176  21.7794094  22.5025474  51.4256654
  16.4954997  29.7220101  53.0505967  16.1918134  29.1676090  53.6516375
  15.7934418  29.9012311  52.5634001  16.3471207  29.6664884  53.0675673
  15.5521094  27.0320621  47.6150669  15.8280828  26.3139534  47.2028236
  16.1519763  27.6305541  47.4071775  15.6814359  27.0140992  47.5231430
  14.5573348  36.9369822  57.7578065  14.4493703  36.9471884  58.6240123
  14.7669129  37.7624602  57.5683019  14.5723459  37.0610897  57.8582156
  25.0512533  22.9471297  50.7899764  24.4386847  23.4341700  51.1753496
  25.1476708  22.2714788  51.3337416  24.9750431  22.9189606  50.9278623
  19.0531614  24.7034139  45.8897264  19.5075361  24.8744699  46.6145108
  19.5271660  24.0902249  45.4895040  19.1899935  24.6385024  45.9371025
  12.5747140  34.1882464  55.2200002  11.9835073  34.8291963  55.1903017
  13.3368163  34.6120082  55.1931302  12.5995400  34.3458303  55.2115150
  12.9707763  25.3484462  55.8868020  13.4309244  25.4223392  56.6243144
  13.0163869  26.1465716  55.5367841  13.0458318  25.4778609  55.9440776
  14.6191112  26.0151157  60.4540047  14.2276677  25.3684504  60.8895825
  14.7876975  26.6062592  61.0734302  14.5862023  26.0065425  60.6102753
  22.3336656  39.6391776  52.6532027  22.1356345  40.1282591  51.9588238
  21.7124367  39.8433018  53.2316160  22.2124220  39.7408314  52.6355250
  16.3944634  31.4076673  46.9942271  17.1386679  31.7950949  47.2325221
  16.5405331  30.5634098  47.1582759  16.5255219  31.3407146  47.0536241
  18.3124210  23.2026932  52.0274132  17.4660255  23.3749740  51.9015482
  18.3095342  22.3976276  52.3639961  18.1871360  23.1087961  52.0585259
  19.3822510  26.9802146  52.8936190  18.9082465  26.4543908  53.4041501
  19.7540646  26.4331619  52.3251052  19.3672399  26.8218143  52.8851338
   9.7595540  28.9773653  58.2619736  10.6221153  28.8769362  58.1757066
   9.4287323  28.3968362  57.7005308   9.8380737  28.8765280  58.1665142
  21.3106010  27.8738701  45.9561944  20.7829029  27.9567445  45.2667653
  21.7701718  28.6156572  45.9526589  21.3007860  27.9959363  45.8536639
  27.6464428  28.8205979  52.2572230  27.4074198  28.7801813  51.4193015
  27.8098329  29.6677131  52.3837951  27.6354731  28.9398064  52.1525712
  24.2510458  33.2055928  58.1877275  24.9744657  32.7528455  58.0088295
  23.9860420  33.4860594  57.4049603  24.3191731  33.1806897  58.0455991
  13.1197326  27.8016102  54.9230154  12.4950397  27.8134494  54.3156107
  12.7842921  28.2776277  55.5721395  12.9782818  27.8734619  54.9286723
  13.3039075  26.1441220  40.9802839  12.9551879  26.7960946  41.4434389
  12.8235521  26.1298333  40.2526711  13.1809319  26.2384274  40.9413931
   9.8323002  35.8616562  56.3633919   9.3022926  35.1709001  56.4128893
  10.1048095  35.8526747  55.5346627   9.7947724  35.7583694  56.2481335
  20.8643092  36.4442264  45.0871601  21.5877291  36.9100377  44.9436175
  20.4243683  36.5115874  44.3369198  20.9058785  36.5226101  44.9556383
  20.0329247  33.3039807  56.3372290  19.4186241  32.7597857  56.6320926
  20.5496532  32.7904043  55.8578106  20.0184910  33.1476216  56.3096519
  19.2725545  34.3744077  54.0716589  18.8453153  33.7493795  53.6382024
  19.2650489  34.0918998  54.8975596  19.2084686  34.2396857  54.1296416
  12.3888072  29.4109250  57.1405023  12.5481558  28.6552574  57.5456745
  12.2080965  29.9600189  57.7945761  12.3853431  29.3803063  57.2967729
  20.3308375  21.5770485  57.6955812  19.8348936  21.7734159  57.0047379
  21.0877437  21.9763153  57.5244614  20.3695199  21.6648219  57.5675949
  17.6011254  25.2512831  54.2859123  17.6253742  24.7172943  53.5971903
  17.8522728  24.7430140  54.9484713  17.6421173  25.0973735  54.2823768
   5.1118844  32.5344326  53.7202267   5.0062293  32.4891170  52.8554351
   4.3619064  32.8798107  54.0016552   4.9854447  32.5785234  53.6339597
  13.8812577  23.9783649  53.6664867  13.9210948  24.4792856  54.3799575
  13.0562241  24.0694043  53.3970790  13.7652102  24.0665466  53.7315405
  16.0642189  33.5444389  61.7685162  15.2137820  33.6816104  61.9042807
  16.2270317  32.8108168  62.2132863  15.9626053  33.4558491  61.8540761
  15.3026940  30.4944159  55.9638766  14.4718870  30.6617977  55.7574014
  15.2478457  30.1180110  56.7487652  15.1716355  30.4633890  56.0487294
  13.1110723  23.9853052  61.5995177  13.7363427  23.4415185  61.8724609
  12.6561203  23.5047970  61.0302967  13.1358984  23.8342533  61.5556771
  13.6762984  28.7699751  46.4928884  13.8165945  29.2672215  47.1957525
  14.1745517  28.0686045  46.6343098  13.7704065  28.7401730  46.6180463
  13.7063206  29.6366862  43.8221461  14.3408286  30.2327287  43.7570923
  13.7888817  29.3370319  44.6367331  13.8119757  29.6807770  43.9324547
  26.6845772  32.1682339  56.6907825  27.2763612  32.8079590  56.7226023
  27.1204766  31.4705376  56.9799892  26.8364203  32.1600689  56.7388658
  15.2842189  25.5680837  43.7966903  15.6058030  25.0883920  43.1426165
  15.5469133  26.3780483  43.6057714  15.3708214  25.6170735  43.6722395
  18.5139162  36.5899712  57.3165719  18.0064253  37.1435558  57.7606349
  18.2165808  36.6508001  56.4984493  18.3944047  36.6806023  57.2614176
  20.6801344  24.9553031  56.1590382  21.1056416  24.5025558  55.5473908
  20.0658337  24.4013102  56.4355169  20.6529989  24.8067007  56.1095407
  10.2116194  31.8334703  47.0911007  10.7208423  32.4299210  47.4722312
  10.6850466  31.5660676  46.4087426  10.3559570  31.8820518  47.0465529
  21.1246942  40.5062969  45.2469662  20.4076252  40.3323831  44.7816900
  21.7753680  40.2715542  44.7145148  21.1148793  40.4458762  45.0998880
  19.1195567  21.4268131  49.5680959  18.4763885  21.2765777  50.1366097
  18.7794974  21.1810476  48.8030063  18.9740644  21.3680253  49.5383974
  23.7094913  29.3827558  48.9910967  23.0386103  29.9257260  48.8624033
  24.4034664  29.8522413  48.7492662  23.7123781  29.5325829  48.9366495
  17.7581647  41.5224270  54.2222726  17.5347301  40.7643099  54.5906752
  17.2691490  41.5522291  53.5003165  17.6525096  41.4146494  54.1699467
  23.8723041  25.8383441  51.9001341  24.2250651  25.4113164  52.5747139
  23.0137842  25.7534285  52.0302417  23.7972485  25.7628182  52.0196351
  12.5706726  28.4690961  49.9584187  11.8518715  28.8855094  50.2257051
  12.9419088  29.0345200  49.4075825  12.5198658  28.6140243  49.9166994
  21.8706307  29.1018810  55.8486183  21.8504234  28.9202105  56.7020962
  21.9185507  29.9730829  55.8245767  21.8740948  29.2035348  55.9709478
  19.8152636  35.6906002  61.7734659  19.7748491  35.0455679  61.1879815
  20.6275955  35.6342619  62.0860071  19.9295790  35.5864969  61.7331609
  16.4060104  41.7424728  51.6759810  15.9920503  41.0798858  51.2863652
  17.0907478  41.8902587  51.1555505  16.4458476  41.6665386  51.5416307
  19.7725398  40.9014813  52.4283427  19.3741681  41.0117083  51.6604247
  19.1576618  41.1096879  53.0109987  19.6224287  40.9488381  52.4014726
  18.3453300  27.5088961  45.2957567  17.7518139  27.8305957  44.7442134
  18.3828578  26.6630056  45.0878673  18.2627689  27.4313289  45.1840338
  25.3047101  20.9601853  52.8285653  24.7977966  20.2530993  52.7606831
  26.1014535  20.6295042  52.9586730  25.3474340  20.8075005  52.8384648
  21.2211117  27.4668465  48.7259317  20.9924810  27.4901167  47.8837675
  21.4809193  26.6425933  48.8454327  21.2257305  27.3484545  48.6184515
  15.5030345  29.3202939  58.3284417  14.9909248  28.7124121  58.6869448
  15.3309841  30.0359531  58.7958393  15.4019982  29.3366238  58.4500641
  10.3496060  27.7640514  60.9786779  10.1798650  28.4241889  60.4334986
   9.9062010  27.9747075  61.6999268  10.2595393  27.8926496  61.0048408
  14.2755879  26.0045012  50.0213513  14.7513246  26.3662092  49.3863694
  13.7744479  26.6601479  50.3013655  14.2721238  26.1539201  49.9690254
  27.5067241  35.4766780  45.8126518  27.8900847  36.2258136  46.0424615
  26.7111354  35.7232600  45.5538507  27.4461023  35.6236474  45.8084091
  19.3799416  27.2427183  60.7686673  19.9370846  27.0140993  60.1365138
  19.0560481  28.0032849  60.4921885  19.4145826  27.3211020  60.6343170
   7.2498124  30.6687379  56.2375269   6.7024844  29.9988025  56.3556137
   8.0390503  30.3017227  56.3018736   7.2850308  30.5152366  56.2643969
  17.0982533  30.3294836  61.7338680  17.8493860  30.6446513  62.0478234
  17.2905109  30.1274007  60.9072602  17.2373947  30.3462218  61.6582075
  16.3182532  28.1486212  43.3886897  16.6981497  28.1665841  42.6038011
  15.5775128  28.5940200  43.2677744  16.2651370  28.2167986  43.2550465
  23.9467823  26.4568403  48.9762475  23.9462049  26.3017059  49.8346752
  23.7424003  27.3031390  48.9203861  23.9167601  26.5589024  49.0950415
   6.0085094  29.8808187  53.3921292   5.8306855  29.4284796  54.1176207
   5.7204116  30.6834349  53.5759769   5.9398047  29.9330745  53.5264795
  21.6708675  31.1365905  52.6298682  22.1662340  30.4188900  52.5902702
  20.8608451  30.8336702  52.5153169  21.6252568  30.9863551  52.6072408
  17.1167286  34.9863718  44.7795687  16.3078609  34.6630391  44.7328996
  17.6242195  34.2796940  44.7123935  17.0716953  34.8345034  44.7625981
   7.7457564  32.4135911  50.5043051   6.8803083  32.4021601  50.3925822
   7.8456380  32.2266134  51.3514190   7.6331731  32.3841972  50.6131995
  23.7360494  33.8869592  55.3175811  24.1615565  33.3644014  54.7646236
  23.3717414  34.4850430  54.7964434  23.7447096  33.8979819  55.1584821
  13.3714574  42.1833810  54.0773156  13.6861133  42.9970198  54.0850938
  13.7807987  41.7984028  54.7455315  13.4782672  42.2462512  54.1777248
  20.3239093  37.6003856  51.6476968  20.7950271  38.3144119  51.8166953
  20.6599272  37.0002607  52.1836838  20.4434208  37.6175321  51.7509344
  22.4116078  39.2105170  63.8269040  22.5213043  38.4213730  64.1825788
  22.7406974  39.1211106  63.0243378  22.4768484  39.0811023  63.7611431
  17.2408588  22.3731327  58.6035063  17.3736494  21.5762320  58.9316039
  17.6253741  22.8997730  59.1833339  17.3164917  22.3331244  58.7378566
  20.9613040  37.3921791  58.4104661  20.4133986  36.7679674  58.1424726
  21.4226068  37.5816063  57.6948740  20.9480249  37.3280841  58.2655092
  20.3140943  19.2961653  55.2016156  19.5086907  19.1859383  55.5183995
  20.1847679  19.3974109  54.3446022  20.1761076  19.2945323  55.1224197
  23.7706904  25.4607145  55.7955853  23.1869893  25.9616351  55.3833421
  24.0911198  24.9536701  55.1620177  23.7320079  25.4598980  55.6414360
  16.3101703  24.3747740  46.0714528  17.1317397  24.5446053  45.8296223
  15.8471354  24.5295001  45.3480826  16.3632865  24.4229473  45.9286172
  14.8997035  22.3690502  56.8512957  15.4441448  22.0281629  57.4417299
  14.9533971  23.2275964  56.9934241  14.9886154  22.4445761  56.9594830
  10.7127594  36.1306918  53.7251765  11.3172451  36.0902752  53.0965585
  10.5054906  36.9778070  53.7555821  10.7716491  36.2494921  53.6367881
  20.5271366  38.3972863  54.9414002  21.3469740  38.2535829  55.2030297
  20.2465444  39.0219062  55.4830440  20.6068109  38.4683215  55.0601942
   5.9478876  35.1141536  53.5950688   5.8503154  34.3037807  53.9040745
   6.7307746  35.0933329  53.2096956   6.0495013  34.9908626  53.5837551
  30.1984701  45.1413366  52.6609809  29.3422597  45.3021864  52.7118926
  30.2452355  44.2705430  52.6814870  30.0783813  45.0364168  52.6715875
  24.5825841  54.6776084  48.4247040  23.8308740  54.2991622  48.1963086
  25.0311853  54.7094517  47.6765851  24.5375508  54.6261691  48.2804543
  33.5078418  51.4099892  62.2670265  34.2145185  50.9151922  62.3957199
  33.6966353  51.8508973  61.5372923  33.6406323  51.4018242  62.1779310
  30.0350801  55.1001453  43.8532588  29.7002169  55.7778375  43.4176810
  30.5477671  54.7106765  43.2649459  30.0616382  55.1426031  43.7019379
  29.5755092  57.0515722  49.7943699  29.9594471  57.6202621  49.2548474
  29.5114233  56.3265232  49.3149515  29.6228519  57.0291185  49.6437562
  33.0436522  47.2005410  55.3041461  33.5892482  47.8790496  55.3635430
  32.9853398  47.0592871  54.4443042  33.1152436  47.2797412  55.1853521
  26.1610597  54.6894476  50.6909813  26.2620960  53.8794830  51.0006941
  25.5652342  54.5951422  50.0609491  26.0883136  54.5559504  50.6436051
  26.0011337  59.6072065  52.0924669  26.6448792  60.0485229  52.4820827
  26.3267592  58.8025491  52.0054928  26.1443165  59.5537260  52.1370146
  19.3575641  50.7114762  50.3162147  19.1225826  49.8782415  50.2094415
  19.4961282  50.9919428  49.5023348  19.3431304  50.6298266  50.1804502
  21.6565729  42.8800493  53.2146454  21.0370760  42.2893140  53.0456469
  21.5549592  43.4711928  52.5810778  21.5503404  42.8804576  53.0951444
  26.7031916  52.6184040  47.4644531  27.0247757  53.1589247  46.8605839
  27.3504013  52.0480811  47.5966820  26.8457971  52.6143215  47.3951566
  21.3834862  46.4252775  55.4590023  21.2593559  47.0115220  56.0939842
  22.0353146  45.9312971  55.7602298  21.4608511  46.4391579  55.5975953
  28.9421560  51.0070480  47.5358709  29.3815195  50.3987580  47.9813482
  28.7926223  50.6277853  46.7644174  28.9843025  50.8608951  47.4877876
  26.4093203  49.6014492  54.7377534  27.0542205  49.1086935  54.4188483
  26.6494980  49.7439278  55.5643613  26.5403788  49.5491934  54.8127068
  28.9479294  52.4469398  54.3884427  29.2302537  51.6520803  54.1671183
  29.6765455  52.9249985  54.4089488  29.0968858  52.4003995  54.3587442
  32.5430896  49.3597661  44.4889478  32.4582191  50.2158628  44.6339047
  33.0315280  49.0841985  45.1571637  32.6019794  49.4454983  44.6091560
  25.3648937  49.8745672  44.7894681  24.7806153  50.3795704  45.1960545
  24.9619033  49.6488059  44.0491273  25.2188241  49.9153920  44.7399706
  20.9192966  55.5900433  51.5918353  20.4360544  56.3150923  51.5677936
  21.7316284  55.8876563  51.7028510  20.9683714  55.7402787  51.6045632
  26.9907120  54.3832614  54.1968167  26.4734062  54.0240029  53.5929475
  27.6881511  53.8594788  54.2074233  27.0172701  54.2530302  54.1098426
  30.6470712  54.8327428  60.1584340  30.7354058  54.6453568  61.0062551
  31.0760425  54.1864858  59.7589187  30.7232814  54.7090436  60.2256092
  28.2141172  54.1158588  59.1402002  27.6512007  53.7031198  59.6641664
  28.9762195  54.0411494  59.5595146  28.2435620  54.0435989  59.2795003
  23.7737163  56.1056609  51.7438633  24.4757743  55.5908598  51.8011389
  23.6934646  56.4330761  52.5485508  23.8660924  56.0770835  51.8711425
  24.8216070  46.3432196  60.8719048  24.9936574  46.2338091  61.7204329
  25.3585427  46.9886602  60.6350240  24.9261074  46.4224198  60.9624144
  23.0987939  52.2962961  51.2524241  23.9376838  52.5285894  51.2998002
  23.1299708  51.4267273  51.1831276  23.2269656  52.2019908  51.2488885
  23.7240642  52.7163836  55.5537546  24.2638867  52.5734967  56.2240919
  23.0410588  53.1160587  55.9221572  23.7032796  52.7543507  55.7071968
  33.1481527  48.3954837  50.7482571  33.9039042  48.8286351  50.7871479
  33.2543851  47.7459607  51.3217207  33.2751697  48.3632321  50.8380596
  36.1861698  52.2228114  51.4984974  35.7496930  52.2264857  52.2543945
  35.8524613  52.9033613  51.0664551  36.0724318  52.3240570  51.5465806
  30.7590771  54.2636447  62.8228124  31.5431188  54.3767295  63.1883866
  30.5587366  53.4377584  63.0186810  30.8456797  54.1583166  62.9062510
  19.1277787  48.9364127  55.7071968  18.8616202  48.1203244  55.8662958
  19.1416351  48.9817283  54.8367483  19.0902509  48.8221032  55.6025450
  23.8776393  42.4742505  58.3538975  23.1848190  42.0039485  58.5999707
  24.4936720  42.2480810  58.9280683  23.8660923  42.3709637  58.4748128
  30.9161165  56.1746549  56.4694579  30.1176410  55.9346049  56.7268448
  31.3647176  56.2260942  57.2161627  30.8635776  56.1468940  56.6179504
  30.2082852  52.2379166  42.6985534  30.6234000  51.9064189  42.0070030
  29.3774781  52.0048068  42.5705671  30.1470860  52.1550422  42.5776381
  19.5371200  49.7222907  52.9883712  19.3546774  49.6969793  52.1356004
  20.2720869  50.1921844  53.0272621  19.6185264  49.7884269  52.8681630
  29.9761901  49.9206994  64.3614768  29.1834882  50.2350506  64.5467387
  30.0910829  50.1358462  63.5235552  29.8757312  49.9990831  64.2653102
  30.9045694  49.8227198  59.3000064  31.4784556  49.1854442  59.4548628
  30.8260498  49.8231280  58.4309722  30.9778929  49.7292309  59.1946475
  19.5042111  46.6016407  53.1382779  20.0815613  46.4652858  53.7775024
  18.8056172  46.1452191  53.3928363  19.4863132  46.5138673  53.2705068
  26.2609413  48.2550463  51.3521262  26.0028657  47.4222198  51.3252561
  26.3157896  48.4808076  50.5113762  26.2309191  48.1648234  51.2241399
  25.2344125  45.8088225  51.8386157  24.6593716  45.9680394  52.4750117
  24.8579801  45.1723635  51.3754607  25.0946937  45.7386038  51.8640715
  28.9017414  44.2811575  56.6978535  28.5131846  43.8565792  56.0430726
  28.2372112  44.5293724  57.2055562  28.7464341  44.2550296  56.6766403
  14.9800944  45.4528300  49.8530597  15.0661196  45.0760168  50.6344127
  15.6076741  45.0788746  49.3750555  15.0857495  45.3413782  49.8976074
  30.0056352  48.5110179  44.8955342  30.8196991  48.8025072  44.7838113
  29.9415493  47.8570042  44.3213635  30.1159091  48.4575374  44.7944179
  36.2265842  51.1936175  59.3084918  35.9904480  50.3624240  59.1896978
  36.8709071  51.1421783  59.8939762  36.2860513  51.0633863  59.3770811
  25.8764260  51.9831697  50.0227654  26.5138207  51.7443444  50.5679447
  26.3019332  52.1868856  49.2880815  26.0340426  51.9782707  49.9944811
  20.5676903  54.2220033  53.9061958  20.6081048  54.4934884  53.0781737
  21.1271427  54.7461941  54.3219746  20.6560249  54.3395788  53.8453846
  26.6835616  40.4840402  64.0765128  26.3689057  41.2539964  63.8134690
  26.3625548  39.9210658  63.4917355  26.5894535  40.5150670  63.9506478
  37.2502263  50.9780624  55.3713212  36.9448080  51.7108681  55.7326528
  36.5308478  50.5718554  55.0905998  37.0989605  51.0262357  55.3826349
  28.2585732  52.4604119  51.7021440  28.3324740  52.2979291  52.5563290
  29.0755239  52.6494309  51.4581922  28.3902091  52.4640862  51.7919466
  22.0191489  52.8061982  48.7315884  21.1929607  53.0523719  48.6050163
  22.0803480  52.7274063  49.5977942  21.9065656  52.8306931  48.8404828
  24.2367513  38.8730923  49.6911324  23.3689938  38.9453523  49.7568933
  24.5242717  39.6753002  49.8799299  24.1507261  39.0025070  49.7286091
  33.3600401  39.0208783  58.0222646  34.1053993  38.8318593  57.6086071
  32.9437706  39.5467020  57.4636502  33.4085376  39.0710928  57.8787219
  26.7990318  55.4238862  46.4334914  27.0888616  55.0327844  45.7094140
  27.5293799  55.6055567  46.8740189  26.9497202  55.3932676  46.3917721
  27.3885063  50.2256608  57.5188044  26.8896757  50.9372376  57.5972933
  28.1985287  50.5457275  57.4806207  27.4341170  50.3783457  57.5244613
  24.7396233  57.4006245  49.4995063  24.5196529  57.1103600  50.2921730
  24.5190756  56.7421200  48.9712976  24.6743828  57.2605953  49.5383972
  23.6513181  49.4879561  51.7650765  23.3626429  48.8617033  52.2996492
  24.5196529  49.4299849  51.8315446  23.7373433  49.3867106  51.8541720
  26.9064189  58.7735635  48.2825756  27.5588247  58.2412077  48.5116782
  26.2089798  58.4204287  48.6693630  26.8994907  58.6425158  48.3737924
  23.8545454  51.1274812  47.6893130  24.6091422  51.5087851  47.9028593
  23.2616067  51.5785956  48.1439827  23.8782168  51.2503640  47.7876009
  34.9004108  51.0940049  47.6256735  35.4662140  51.7533259  47.5415278
  34.2532011  51.4389747  48.0973137  34.8882864  51.2421990  47.6829492
  26.3152121  43.0837653  62.8150342  25.5051897  43.3895432  62.7040185
  26.7926808  43.8043235  62.9302926  26.2655600  43.2352254  62.8157413
  25.1743681  52.2983374  53.0633246  24.6524434  52.4383665  53.7485110
  25.5617701  51.5394038  53.2535363  25.1547382  52.2068898  53.1934322
  22.1634865  42.3489182  47.1328200  21.8759660  41.9790453  46.3960148
  22.8505333  42.8184038  46.8711905  22.2223762  42.3636152  46.9843276
  31.3710686  54.0378833  47.0493814  31.1297362  53.3046694  46.6420879
  31.5512019  54.5865690  46.3960148  31.3618310  54.0101224  46.8924037
  26.6010006  49.3287393  48.4614737  26.4052789  49.9362127  47.8675040
  26.8244352  48.6355337  47.9806410  26.6044647  49.3164918  48.3030817
  24.9988536  46.2142131  48.5795605  25.7211188  46.3783289  48.1199411
  24.5196529  46.9351796  48.4734945  25.0352267  46.3440360  48.4961219
  32.9582044  42.5505929  53.9592290  32.1193144  42.5767208  53.7230553
  33.0286411  43.1976665  54.5397636  32.8450437  42.6502055  54.0101407
  22.6496153  48.6200203  57.6849745  23.1617250  48.8984456  57.0358505
  22.3632496  49.3589497  58.0512558  22.6831016  48.7702557  57.6439623
  19.7363059  43.1270395  47.9813481  19.8379196  43.9296556  48.3094457
  20.5318946  42.9257731  47.6836562  19.8690965  43.2156294  47.9848837
  26.1679878  40.7126592  57.7450786  25.9763075  40.7281726  58.5950210
  27.0178474  40.9090266  57.7217441  26.2655600  40.7440943  57.8674081
  20.5526791  43.2417573  55.7234603  20.4112283  42.3901514  55.8479111
  20.8367355  43.2846234  54.8996809  20.5734637  43.1217323  55.6202227
  34.6013433  51.7868023  53.6565872  34.4627792  52.4849068  54.1614615
  33.8213430  51.6316679  53.3002054  34.4656659  51.8668189  53.6792147
  32.9391518  48.0864398  59.9088254  32.9339556  47.2144215  59.9130680
  33.6452512  48.2852567  59.4357710  33.0436522  47.9868272  59.8395289
  26.6662411  47.8141382  59.2802074  26.8105787  48.3942590  58.6445184
  27.0138060  48.1917679  59.9851929  26.7389872  47.9562086  59.2901069
  28.8382328  47.0131550  57.0627206  28.0905642  47.2062565  56.6575484
  28.9923854  46.1876770  56.8251327  28.7504756  46.9196662  56.9672612
  25.7390166  56.0044154  56.1463101  25.8879730  55.4447070  55.4936505
  26.5190168  56.0836155  56.5295620  25.8764260  55.9329719  56.1060050
  28.2643467  56.1758797  57.4247592  28.1887138  55.5067607  57.9798380
  28.1933326  56.8776585  57.9388258  28.2424074  56.1803704  57.5824440
  29.0784105  40.9082101  57.9522610  29.5356720  41.6406075  58.0795402
  29.1540434  40.4848566  58.7109865  29.1575075  40.9539339  58.0823686
  21.3217097  41.1547921  59.0412053  20.7859286  40.5428279  59.3572820
  21.3834861  41.7296057  59.6945720  21.2512729  41.1494848  59.1847480
  28.9213714  54.6959796  48.2571198  29.6863605  54.4269439  47.9353862
  28.8191804  54.2109806  48.9741261  29.0195209  54.5849360  48.3151025
  26.9566483  42.8984205  54.7964434  26.1662558  42.7175665  55.1181769
  27.3527106  42.1211158  54.7794728  26.8983360  42.7571666  54.8416982
  32.3410170  50.5326635  52.5223879  31.6655171  50.3011867  53.0237266
  32.3502546  49.9247818  51.8965984  32.2428674  50.4085560  52.5040032
  29.4704314  45.3744464  59.2787932  29.4063455  46.2354421  59.1508069
  29.6101501  45.0576457  58.4783484  29.4819784  45.4544631  59.1416145
  34.3426904  53.3891767  44.7534057  34.4246742  54.1958754  44.4295508
  34.8276646  53.4087727  45.4774831  34.4264062  53.5112430  44.8120956
  28.1523408  48.0676603  53.4204135  27.7285657  48.2681102  52.6843154
  27.9768263  47.2205451  53.5328435  28.0634288  47.9725385  53.3277825
  27.6535101  59.5827116  55.8825593  28.1431031  58.8837906  55.7001257
  27.0819333  59.2850986  56.4701650  27.6419631  59.4353340  55.9426633
  23.4405852  48.5628655  48.8532108  23.5970472  48.4975458  49.7088100
  23.7806446  49.3377207  48.6410787  23.5139087  48.6677853  48.9486702
  29.9784997  47.9386538  47.7225471  30.5200543  47.4356920  48.1864092
  30.2931556  47.8851733  46.9114956  30.1049394  47.8565959  47.6709283
  33.8502105  52.1489186  64.8352383  34.6636970  51.8774335  64.9957516
  33.6897071  51.8496726  64.0312579  33.9472053  52.0644112  64.7397789
  28.1471447  53.3303890  45.0065499  28.2164267  52.4718428  45.1458500
  28.9259902  53.5475771  44.6784524  28.2724297  53.2356754  44.9782656
  31.1274266  42.8322843  57.7747772  31.3416236  42.1933757  57.2211126
  30.5108166  43.2768667  57.3455633  31.0679596  42.8032987  57.6298203
  32.5378934  55.7541591  49.2201992  32.1458726  55.4508306  48.5024859
  32.6932007  56.5910681  49.0306946  32.5032524  55.8325428  49.0858490
  20.0140114  45.7463605  49.1692875  20.3939079  46.1648150  48.5053142
  19.4395479  46.3277061  49.4761718  19.9851439  45.8941464  49.1169616
  33.2913354  44.4411908  58.7131079  32.4790036  44.1337799  58.7944251
  33.7503289  43.9610908  59.2773791  33.2393739  44.3248401  58.8085673
  32.7018609  52.3191580  49.1608023  32.3433264  52.4906223  49.9372055
  32.2157320  52.7804786  48.6036021  32.5777306  52.4130551  49.1933292
  30.3866862  45.8471980  63.4959781  30.8566493  46.4714096  63.8827655
  30.4328742  45.1788955  64.0552996  30.4634738  45.8406660  63.6359852
  29.6130369  38.4921967  56.0501437  29.2262122  38.5170999  56.8314967
  29.1263306  37.9263646  55.5975954  29.4842878  38.4117718  56.0989341
  33.8623349  53.2095476  60.1075224  34.5003069  52.7155672  59.7737680
  33.2197440  53.1372877  59.5227451  33.8617575  53.1254485  59.9717579
  29.2787511  35.3788953  58.3411697  29.9080629  35.9149253  58.0632768
  29.4473374  35.2866312  59.1925263  29.3965305  35.4450315  58.4260225
  29.0801426  40.1660147  60.6138109  29.9074855  39.8945296  60.6696723
  29.1009272  40.9620989  60.9701927  29.2054276  40.2439902  60.6753292
  33.9177605  53.9015284  56.7480581  34.7069983  53.5504349  56.8682662
  34.0921203  54.7151673  56.4857214  34.0597887  53.9701141  56.7268449
  23.6570916  47.3124010  53.8008369  22.8158922  47.2127884  54.0087263
  23.8660923  48.0819490  54.1522690  23.5635608  47.4116053  53.8835684
  21.1346482  44.9343547  51.6293120  20.7403180  45.0086559  50.8543230
  20.5786599  45.3201493  52.1801482  20.9949295  45.0025322  51.5960780
  27.4687580  45.2405409  53.0505967  27.1650718  44.6861398  53.6516375
  26.7667001  45.4197619  52.5634001  27.3203790  45.1850192  53.0675673
  25.5305931  52.4555130  57.7578065  25.4226286  52.4657192  58.6240123
  25.7401713  53.2809910  57.5683019  25.5456042  52.5796205  57.8582156
  23.5479723  49.7067772  55.2200002  22.9567657  50.3477271  55.1903017
  24.3100747  50.1305390  55.1931302  23.5727984  49.8643611  55.2115150
  23.9440346  40.8669770  55.8868020  24.4041828  40.9408700  56.6243144
  23.9896453  41.6651024  55.5367841  24.0190902  40.9963917  55.9440776
  25.5923696  41.5336465  60.4540047  25.2009261  40.8869812  60.8895825
  25.7609559  42.1247900  61.0734302  25.5594606  41.5250733  60.6102753
  33.3069240  55.1577084  52.6532027  33.1088928  55.6467898  51.9588238
  32.6856951  55.3618325  53.2316160  33.1856804  55.2593622  52.6355250
  27.3677218  46.9261981  46.9942271  28.1119263  47.3136257  47.2325221
  27.5137914  46.0819406  47.1582759  27.4987803  46.8592454  47.0536241
  20.7328124  44.4958961  58.2619736  21.5953737  44.3954670  58.1757066
  20.4019907  43.9153670  57.7005308  20.8113320  44.3950588  58.1665142
  24.0929910  43.3201410  54.9230154  23.4682980  43.3319802  54.3156107
  23.7575505  43.7961585  55.5721395  23.9515402  43.3919927  54.9286723
  20.8055585  51.3801870  56.3633919  20.2755510  50.6894309  56.4128893
  21.0780679  51.3712055  55.5346627  20.7680308  51.2769002  56.2481335
  31.8375676  51.9627572  45.0871601  32.5609875  52.4285685  44.9436175
  31.3976267  52.0301182  44.3369198  31.8791368  52.0411409  44.9556383
  31.0061831  48.8225114  56.3372290  30.3918824  48.2783165  56.6320926
  31.5229116  48.3089351  55.8578106  30.9917493  48.6661524  56.3096519
  30.2458128  49.8929385  54.0716589  29.8185736  49.2679103  53.6382024
  30.2383073  49.6104306  54.8975596  30.1817269  49.7582165  54.1296416
  23.3620655  44.9294558  57.1405023  23.5214142  44.1737882  57.5456745
  23.1813549  45.4785497  57.7945761  23.3586014  44.8988371  57.2967729
  31.3040958  37.0955793  57.6955812  30.8081520  37.2919467  57.0047379
  32.0610020  37.4948461  57.5244614  31.3427783  37.1833527  57.5675949
  28.5743838  40.7698139  54.2859123  28.5986325  40.2358251  53.5971903
  28.8255312  40.2615448  54.9484713  28.6153757  40.6159043  54.2823768
  16.0851428  48.0529634  53.7202267  15.9794877  48.0076478  52.8554351
  15.3351648  48.3983415  54.0016552  15.9587031  48.0970542  53.6339597
  24.8545160  39.4968957  53.6664867  24.8943532  39.9978164  54.3799575
  24.0294825  39.5879351  53.3970790  24.7384686  39.5850774  53.7315405
  27.0374773  49.0629697  61.7685162  26.1870404  49.2001412  61.9042807
  27.2002901  48.3293476  62.2132863  26.9358637  48.9743799  61.8540761
  26.2759524  46.0129467  55.9638766  25.4451453  46.1803285  55.7574014
  26.2211041  45.6365418  56.7487652  26.1448938  45.9819198  56.0487294
  24.0843307  39.5038360  61.5995177  24.7096010  38.9600493  61.8724609
  23.6293787  39.0233278  61.0302967  24.1091567  39.3527841  61.5556771
  29.4871745  52.1085019  57.3165719  28.9796836  52.6620866  57.7606349
  29.1898392  52.1693309  56.4984493  29.3676630  52.1991331  57.2614176
  31.6533928  40.4738339  56.1590382  32.0788999  40.0210866  55.5473908
  31.0390921  39.9198410  56.4355169  31.6262573  40.3252315  56.1095407
  21.1848778  47.3520010  47.0911007  21.6941007  47.9484518  47.4722312
  21.6583050  47.0845984  46.4087426  21.3292153  47.4005826  47.0465529
  32.0979526  56.0248277  45.2469662  31.3808835  55.8509139  44.7816900
  32.7486263  55.7900849  44.7145148  32.0881376  55.9644070  45.0998880
  28.7314231  57.0409578  54.2222726  28.5079885  56.2828407  54.5906752
  28.2424074  57.0707599  53.5003165  28.6257680  56.9331802  54.1699467
  23.5439309  43.9876269  49.9584187  22.8251298  44.4040402  50.2257051
  23.9151672  44.5530508  49.4075825  23.4931241  44.1325550  49.9166994
  32.8438890  44.6204118  55.8486183  32.8236817  44.4387413  56.7020962
  32.8918091  45.4916136  55.8245767  32.8473531  44.7220656  55.9709478
  30.7885220  51.2091310  61.7734659  30.7481075  50.5640987  61.1879815
  31.6008538  51.1527927  62.0860071  30.9028374  51.1050277  61.7331609
  27.3792688  57.2610036  51.6759810  26.9653086  56.5984166  51.2863652
  28.0640062  57.4087895  51.1555505  27.4191059  57.1850694  51.5416307
  30.7457982  56.4200121  52.4283427  30.3474265  56.5302391  51.6604247
  30.1309201  56.6282187  53.0109987  30.5956871  56.4673689  52.4014726
  26.4762929  44.8388246  58.3284417  25.9641832  44.2309429  58.6869448
  26.3042425  45.5544839  58.7958393  26.3752566  44.8551546  58.4500641
  21.3228643  43.2825822  60.9786779  21.1531234  43.9427197  60.4334986
  20.8794593  43.4932383  61.6999268  21.2327977  43.4111804  61.0048408
  30.3531999  42.7612491  60.7686673  30.9103429  42.5326301  60.1365138
  30.0293064  43.5218157  60.4921885  30.3878409  42.8396328  60.6343170
  18.2230708  46.1872687  56.2375269  17.6757427  45.5173333  56.3556137
  19.0123086  45.8202535  56.3018736  18.2582892  46.0337674  56.2643969
  28.0715116  45.8480144  61.7338680  28.8226443  46.1631821  62.0478234
  28.2637693  45.6459315  60.9072602  28.2106531  45.8647526  61.6582075
  16.9817677  45.3993495  53.3921292  16.8039439  44.9470104  54.1176207
  16.6936700  46.2019657  53.5759769  16.9130631  45.4516053  53.5264795
  32.6441259  46.6551213  52.6298682  33.1394924  45.9374208  52.5902702
  31.8341034  46.3522010  52.5153169  32.5985152  46.5048859  52.6072408
  28.0899870  50.5049026  44.7795687  27.2811193  50.1815699  44.7328996
  28.5974779  49.7982248  44.7123935  28.0449537  50.3530342  44.7625981
  18.7190147  47.9321219  50.5043051  17.8535667  47.9206909  50.3925822
  18.8188963  47.7451442  51.3514190  18.6064314  47.9027280  50.6131995
  34.7093077  49.4054900  55.3175811  35.1348149  48.8829322  54.7646236
  34.3449997  50.0035737  54.7964434  34.7179680  49.4165127  55.1584821
  24.3447157  57.7019118  54.0773156  24.6593716  58.5155506  54.0850938
  24.7540571  57.3169336  54.7455315  24.4515255  57.7647820  54.1777248
  31.2971677  53.1189164  51.6476968  31.7682855  53.8329427  51.8166953
  31.6331855  52.5187914  52.1836838  31.4166792  53.1360629  51.7509344
  33.3848661  54.7290478  63.8269040  33.4945627  53.9399038  64.1825788
  33.7139558  54.6396414  63.0243378  33.4501067  54.5996331  63.7611431
  28.2141172  37.8916635  58.6035063  28.3469077  37.0947628  58.9316039
  28.5986325  38.4183038  59.1833339  28.2897501  37.8516552  58.7378566
  31.9345623  52.9107098  58.4104661  31.3866569  52.2864982  58.1424726
  32.3958652  53.1001370  57.6948740  31.9212833  52.8466149  58.2655092
  34.7439488  40.9792453  55.7955853  34.1602476  41.4801659  55.3833421
  35.0643782  40.4722009  55.1620177  34.7052663  40.9784288  55.6414360
  25.8729619  37.8875810  56.8512957  26.4174032  37.5466937  57.4417299
  25.9266554  38.7461271  56.9934241  25.9618738  37.9631069  56.9594830
  21.6860177  51.6492226  53.7251765  22.2905035  51.6088060  53.0965585
  21.4787490  52.4963378  53.7555821  21.7449075  51.7680228  53.6367881
  31.5003949  53.9158171  54.9414002  32.3202323  53.7721137  55.2030297
  31.2198027  54.5404370  55.4830440  31.5800693  53.9868523  55.0601942
  16.9211460  50.6326844  53.5950688  16.8235738  49.8223115  53.9040745
  17.7040329  50.6118637  53.2096956  17.0227596  50.5093934  53.5837551
  47.9717600  61.5723023  47.9056878  47.9411604  62.4267660  48.0775148
  48.5698949  61.2718315  48.4643022  48.0554758  61.6539519  48.0131681
  41.1717285  60.6598674  52.6609809  40.3155180  60.8207172  52.7118926
  41.2184938  59.7890738  52.6814870  41.0516396  60.5549476  52.6715875
  35.5558424  70.1961392  48.4247040  34.8041324  69.8176930  48.1963086
  36.0044436  70.2279825  47.6765851  35.5108091  70.1446999  48.2804543
  44.4811001  66.9285199  62.2670265  45.1877769  66.4337230  62.3957199
  44.6698937  67.3694281  61.5372923  44.6138907  66.9203550  62.1779310
  41.0083384  70.6186761  43.8532588  40.6734753  71.2963683  43.4176810
  41.5210255  70.2292072  43.2649459  41.0348965  70.6611339  43.7019379
  40.5487676  72.5701030  49.7943699  40.9327055  73.1387929  49.2548474
  40.4846817  71.8450540  49.3149515  40.5961103  72.5476493  49.6437562
  44.0169106  62.7190718  55.3041461  44.5625066  63.3975804  55.3635430
  43.9585982  62.5778179  54.4443042  44.0885020  62.7982719  55.1853521
  37.1343181  70.2079784  50.6909813  37.2353544  69.3980138  51.0006941
  36.5384926  70.1136730  50.0609491  37.0615719  70.0744812  50.6436051
  45.7934174  64.1475325  46.1775188  45.6773700  64.8983011  46.6067326
  46.5890061  63.8899278  46.4271275  45.8938764  64.2210172  46.2779280
  36.9743920  75.1257373  52.0924669  37.6181376  75.5670537  52.4820827
  37.3000176  74.3210799  52.0054928  37.1175749  75.0722568  52.1370146
  30.3308225  66.2300070  50.3162147  30.0958409  65.3967723  50.2094415
  30.4693866  66.5104736  49.5023348  30.3163887  66.1483574  50.1804502
  32.6298312  58.3985801  53.2146454  32.0103344  57.8078448  53.0456469
  32.5282176  58.9897236  52.5810778  32.5235988  58.3989884  53.0951444
  37.6764500  68.1369348  47.4644531  37.9980341  68.6774555  46.8605839
  38.3236596  67.5666119  47.5966820  37.8190555  68.1328523  47.3951566
  39.7266208  60.1385343  47.5478917  40.4246373  60.3173470  48.0400381
  40.0418540  59.6155682  46.9249307  39.8761545  60.0879115  47.5280928
  32.3567445  61.9438083  55.4590023  32.2326142  62.5300528  56.0939842
  33.0085730  61.4498278  55.7602298  32.4341095  61.9576887  55.5975953
  39.9154143  66.5255788  47.5358709  40.3547779  65.9172888  47.9813482
  39.7658806  66.1463161  46.7644174  39.9575609  66.3794259  47.4877876
  37.3825786  65.1199800  54.7377534  38.0274789  64.6272243  54.4188483
  37.6227563  65.2624586  55.5643613  37.5136371  65.0677242  54.8127068
  39.9211878  67.9654706  54.3884427  40.2035121  67.1706111  54.1671183
  40.6498038  68.4435293  54.4089488  40.0701441  67.9189302  54.3587442
  37.8993072  55.5077740  51.6300192  37.5696402  55.9588883  50.9603891
  37.2238073  55.4293903  52.1773198  37.7503508  55.5628875  51.6123415
  43.5163480  64.8782969  44.4889478  43.4314775  65.7343936  44.6339047
  44.0047863  64.6027293  45.1571637  43.5752377  64.9640291  44.6091560
  44.4481913  61.4967763  45.9887213  43.9193385  61.7127397  46.6484519
  44.9706933  62.1903902  45.9088183  44.4470366  61.6310900  46.0742812
  49.9029966  67.0714068  51.3620258  49.0727669  67.2824711  51.5253674
  49.8539218  66.2451122  51.0862541  49.7736701  66.9803674  51.3457623
  36.3381521  65.3930980  44.7894681  35.7538736  65.8981011  45.1960545
  35.9351616  65.1673367  44.0491273  36.1920825  65.4339228  44.7399706
  31.8925550  71.1085741  51.5918353  31.4093128  71.8336231  51.5677936
  32.7048868  71.4061871  51.7028510  31.9416297  71.2588095  51.6045632
  37.9639704  69.9017922  54.1968167  37.4466645  69.5425337  53.5929475
  38.6614095  69.3780096  54.2074233  37.9905285  69.7715610  54.1098426
  41.6203296  70.3512736  60.1584340  41.7086641  70.1638876  61.0062551
  42.0493008  69.7050166  59.7589187  41.6965398  70.2275744  60.2256092
  39.1873755  69.6343896  59.1402002  38.6244590  69.2216506  59.6641664
  39.9494779  69.5596802  59.5595146  39.2168204  69.5621296  59.2795003
  40.7958735  61.6396632  43.2663602  41.0354739  61.8474616  42.4538945
  41.1174576  60.8354141  43.3752546  40.8795893  61.5510733  43.1624155
  36.1049026  53.5690028  47.1123140  36.8594994  53.9368345  46.8740190
  35.9276560  53.9429582  47.8802319  36.1903504  53.6788216  47.1908028
  34.7469747  71.6241917  51.7438633  35.4490326  71.1093906  51.8011389
  34.6667230  71.9516068  52.5485508  34.8393507  71.5956143  51.8711425
  49.3983924  59.7184468  55.1570679  48.5612345  59.7886655  55.3918274
  49.3672155  59.7208963  54.2844981  49.2702207  59.7294695  55.0630227
  35.7948653  61.8617504  60.8719048  35.9669157  61.7523399  61.7204329
  36.3318011  62.5071910  60.6350240  35.8993657  61.9409506  60.9624144
  34.4606090  55.9760347  43.8101253  34.2781663  56.1932228  42.9842246
  35.3231703  56.0899360  43.8659867  34.5610680  56.0250245  43.6955740
  34.0720522  67.8148269  51.2524241  34.9109422  68.0471202  51.2998002
  34.1032291  66.9452581  51.1831276  34.2002240  67.7205216  51.2488885
  34.6973225  68.2349144  55.5537546  35.2371450  68.0920275  56.2240919
  34.0143172  68.6345895  55.9221572  34.6765379  68.2728815  55.7071968
  44.1214110  63.9140145  50.7482571  44.8771625  64.3471659  50.7871479
  44.2276435  63.2644915  51.3217207  44.2484281  63.8817629  50.8380596
  47.1594281  67.7413422  51.4984974  46.7229513  67.7450165  52.2543945
  46.8257197  68.4218921  51.0664551  47.0456901  67.8425878  51.5465806
  41.7323355  69.7821755  62.8228124  42.5163771  69.8952603  63.1883866
  41.5319949  68.9562892  63.0186810  41.8189380  69.6768474  62.9062510
  30.1010370  64.4549435  55.7071968  29.8348786  63.6388552  55.8662958
  30.1148934  64.5002591  54.8367483  30.0635093  64.3406340  55.6025450
  47.0791764  54.7827250  53.7414401  47.7217673  54.8525355  54.3276317
  47.3314785  54.1156473  53.2393943  47.2113896  54.6953599  53.7541681
  34.0068117  59.2534520  42.3223726  33.2926294  58.9672699  42.7346158
  34.4912086  59.5931145  42.9630113  33.9727481  59.2616169  42.4779361
  34.8508977  57.9927813  58.3538975  34.1580773  57.5224793  58.5999707
  35.4669304  57.7666118  58.9280683  34.8393507  57.8894945  58.4748128
  41.8893748  71.6931857  56.4694579  41.0908994  71.4531357  56.7268448
  42.3379760  71.7446250  57.2161627  41.8368359  71.6654248  56.6179504
  50.2938627  64.4594342  50.3904611  50.9555062  63.8985011  50.2900519
  49.6530039  63.9646373  50.7157302  50.2967495  64.3030751  50.4236951
  41.1815435  67.7564473  42.6985534  41.5966584  67.4249497  42.0070030
  40.3507365  67.5233376  42.5705671  41.1203444  67.6735729  42.5776381
  30.5103784  65.2408215  52.9883712  30.3279357  65.2155101  52.1356004
  31.2453453  65.7107152  53.0272621  30.5917848  65.3069577  52.8681630
  46.5803458  65.4759724  50.1316600  46.8159047  65.6204923  49.3043450
  46.7293022  66.2402133  50.5248113  46.6369261  65.6098779  50.0680203
  33.5749536  61.9593217  59.4965821  34.2989508  61.9446248  59.9830715
  33.6765672  62.6688573  58.9987789  33.6967745  62.0617921  59.4944607
  48.4093915  64.3161390  47.9686203  48.7402132  64.8489031  47.3626298
  48.9827003  64.3700278  48.6248154  48.5427594  64.4030959  47.9763985
  40.9494485  65.4392302  64.3614768  40.1567466  65.7535814  64.5467387
  41.0643412  65.6543770  63.5235552  40.8489896  65.5176139  64.2653102
  43.6225804  62.1626293  48.6509783  43.7172658  62.9015587  49.1049409
  42.9984648  61.7343769  49.0844348  43.5434834  62.2087614  48.7817931
  41.8778278  65.3412506  59.3000064  42.4517140  64.7039750  59.4548628
  41.7993082  65.3416588  58.4309722  41.9511513  65.2477617  59.1946475
  30.4774694  62.1201715  53.1382779  31.0548197  61.9838166  53.7775024
  29.7788756  61.6637499  53.3928363  30.4595716  62.0323981  53.2705068
  43.8748825  64.0075033  41.8846735  43.7928988  64.0777220  42.7501722
  44.5128546  64.5704777  41.6930476  43.9568663  64.1014004  41.9836685
  37.2341996  63.7735771  51.3521262  36.9761241  62.9407506  51.3252561
  37.2890479  63.9993384  50.5113762  37.2041774  63.6833542  51.2241399
  42.3143047  55.8764222  51.4525354  41.6099373  55.3873407  51.6109274
  42.3628021  55.8886696  50.5813799  42.2173098  55.8053870  51.3464694
  36.2076709  61.3273533  51.8386157  35.6326300  61.4865702  52.4750117
  35.8312385  60.6908942  51.3754607  36.0679521  61.2571346  51.8640715
  39.8749997  59.7996883  56.6978535  39.4864430  59.3751100  56.0430726
  39.2104696  60.0479032  57.2055562  39.7196925  59.7735604  56.6766403
  49.5173266  59.5571887  49.4726365  49.2609831  58.7451829  49.2824248
  50.3602580  59.5649454  49.2456552  49.6039292  59.4383885  49.4111182
  25.9533528  60.9713608  49.8530597  26.0393779  60.5945476  50.6344127
  26.5809325  60.5974054  49.3750555  26.0590079  60.8599090  49.8976074
  43.6976359  53.4971511  54.2102519  44.0786871  52.8149682  54.5970393
  42.8939643  53.2081113  54.0278184  43.6352821  53.3538560  54.2406575
  40.9788936  64.0295487  44.8955342  41.7929574  64.3210380  44.7838113
  40.9148077  63.3755350  44.3213635  41.0891675  63.9760682  44.7944179
  47.1998426  66.7121483  59.3084918  46.9637063  65.8809548  59.1896978
  47.8441655  66.6607091  59.8939762  47.2593096  66.5819171  59.3770811
  36.8496844  67.5017005  50.0227654  37.4870791  67.2628752  50.5679447
  37.2751915  67.7054164  49.2880815  37.0073010  67.4968015  49.9944811
  31.5409486  69.7405341  53.9061958  31.5813631  70.0120192  53.0781737
  32.1004010  70.2647249  54.3219746  31.6292832  69.8581096  53.8453846
  37.4899659  62.7219294  44.3602543  37.8744812  62.5027001  45.1119089
  37.2411279  63.5482240  44.4903620  37.5101731  62.8117441  44.4903620
  37.6568199  56.0025710  64.0765128  37.3421640  56.7725272  63.8134690
  37.3358132  55.4395966  63.4917355  37.5627118  56.0335978  63.9506478
  48.2234846  66.4965932  55.3713212  47.9180663  67.2293989  55.7326528
  47.5041062  66.0903862  55.0905998  48.0722189  66.5447665  55.3826349
  39.2318316  67.9789427  51.7021440  39.3057324  67.8164599  52.5563290
  40.0487822  68.1679617  51.4581922  39.3634674  67.9826170  51.7919466
  53.9236638  63.1358933  54.6981556  53.8561139  63.1554892  53.8284143
  53.9092301  63.9789260  54.9237227  53.9115395  63.2632667  54.6034033
  32.9924072  68.3247290  48.7315884  32.1662190  68.5709027  48.6050163
  33.0536064  68.2459371  49.5977942  32.8798239  68.3492239  48.8404828
  35.2100096  54.3916231  49.6911324  34.3422522  54.4638831  49.7568933
  35.4975301  55.1938310  49.8799299  35.1239844  54.5210378  49.7286091
  44.3332985  54.5394090  58.0222646  45.0786577  54.3503901  57.6086071
  43.9170290  55.0652328  57.4636502  44.3817959  54.5896236  57.8787219
  37.7722901  70.9424170  46.4334914  38.0621200  70.5513152  45.7094140
  38.5026382  71.1240875  46.8740189  37.9229786  70.9117984  46.3917721
  51.7095256  61.9103319  52.9728151  52.2603177  61.2771388  53.2125243
  51.6939371  62.4418712  53.6643655  51.7880452  61.8952267  53.1107009
  38.3617647  65.7441916  57.5188044  37.8629340  66.4557684  57.5972933
  39.1717871  66.0642583  57.4806207  38.4073753  65.8968765  57.5244613
  35.7128817  72.9191553  49.4995063  35.4929112  72.6288907  50.2921730
  35.4923339  72.2606508  48.9712976  35.6476411  72.7791261  49.5383972
  34.6245764  65.0064869  51.7650765  34.3359013  64.3802341  52.2996492
  35.4929112  64.9485157  51.8315446  34.7106016  64.9052413  51.8541720
  45.4123662  60.1499653  52.0832747  45.0688428  59.4289988  52.4339997
  45.5116705  59.9413504  51.2411105  45.3765705  60.0123856  52.0104427
  37.8796773  74.2920943  48.2825756  38.5320831  73.7597385  48.5116782
  37.1822381  73.9389595  48.6693630  37.8727491  74.1610466  48.3737924
  34.8278038  66.6460120  47.6893130  35.5824006  67.0273159  47.9028593
  34.2348650  67.0971264  48.1439827  34.8514751  66.7688948  47.7876009
  45.8736691  66.6125357  47.6256735  46.4394724  67.2718567  47.5415278
  45.2264595  66.9575055  48.0973137  45.8615448  66.7607298  47.6829492
  37.2884705  58.6022961  62.8150342  36.4784480  58.9080740  62.7040185
  37.7659391  59.3228543  62.9302926  37.2388183  58.7537562  62.8157413
  36.1476264  67.8168682  53.0633246  35.6257018  67.9568973  53.7485110
  36.5350285  67.0579346  53.2535363  36.1279965  67.7254205  53.1934322
  33.1367448  57.8674490  47.1328200  32.8492244  57.4975761  46.3960148
  33.8237916  58.3369346  46.8711905  33.1956346  57.8821460  46.9843276
  42.3443269  69.5564141  47.0493814  42.1029945  68.8232002  46.6420879
  42.5244602  70.1050998  46.3960148  42.3350893  69.5286532  46.8924037
  37.5742590  64.8472701  48.4614737  37.3785372  65.4547435  47.8675040
  37.7976935  64.1540645  47.9806410  37.5777231  64.8350226  48.3030817
  35.9721120  61.7327439  48.5795605  36.6943772  61.8968597  48.1199411
  35.4929113  62.4537103  48.4734945  36.0084851  61.8625668  48.4961219
  43.9314627  58.0691237  53.9592290  43.0925728  58.0952516  53.7230553
  44.0018995  58.7161973  54.5397636  43.8183021  58.1687363  54.0101407
  33.6228737  64.1385511  57.6849745  34.1349833  64.4169764  57.0358505
  33.3365079  64.8774805  58.0512558  33.6563600  64.2887865  57.6439623
  47.8072151  63.2759224  51.2453532  47.7206126  63.4314650  52.0988310
  47.3522631  63.9197300  50.8712937  47.7275408  63.3934979  51.3160638
  30.7095643  58.6455703  47.9813481  30.8111779  59.4481864  48.3094457
  31.5051530  58.4443039  47.6836562  30.8423548  58.7341602  47.9848837
  37.1412462  56.2311900  57.7450786  36.9495659  56.2467034  58.5950210
  37.9911058  56.4275574  57.7217441  37.2388184  56.2626251  57.8674081
  31.5259375  58.7602881  55.7234603  31.3844867  57.9086822  55.8479111
  31.8099938  58.8031542  54.8996809  31.5467221  58.6402631  55.6202227
  41.6797967  60.5969971  49.8679091  41.4332682  60.5165722  50.7015880
  42.0083090  59.8123439  49.6741619  41.6919211  60.4696237  49.9626614
  45.5746016  67.3053331  53.6565872  45.4360375  68.0034376  54.1614615
  44.7946014  67.1501987  53.3002054  45.4389243  67.3853497  53.6792147
  43.9124101  63.6049706  59.9088254  43.9072140  62.7329523  59.9130680
  44.6185095  63.8037875  59.4357710  44.0169105  63.5053580  59.8395289
  37.6394995  63.3326690  59.2802074  37.7838370  63.9127898  58.6445184
  37.9870643  63.7102987  59.9851929  37.7122456  63.4747394  59.2901069
  39.8114912  62.5316858  57.0627206  39.0638226  62.7247873  56.6575484
  39.9656437  61.7062078  56.8251327  39.7237340  62.4381970  56.9672612
  36.7122750  71.5229462  56.1463101  36.8612313  70.9632378  55.4936505
  37.4922752  71.6021463  56.5295620  36.8496843  71.4515027  56.1060050
  47.0699389  66.6631584  44.4182372  46.6906198  65.8768722  44.4111661
  46.4065634  67.2118441  44.2754016  46.9157864  66.6276408  44.3963168
  39.2376050  71.6944105  57.4247592  39.1619721  71.0252915  57.9798380
  39.1665909  72.3961893  57.9388258  39.2156657  71.6989012  57.5824440
  40.0516689  56.4267409  57.9522610  40.5089303  57.1591383  58.0795402
  40.1273018  56.0033874  58.7109865  40.1307659  56.4724647  58.0823686
  32.2949680  56.6733229  59.0412053  31.7591870  56.0613587  59.3572820
  32.3567445  57.2481365  59.6945720  32.2245313  56.6680156  59.1847480
  39.8946297  70.2145103  48.2571198  40.6596188  69.9454747  47.9353862
  39.7924387  69.7295114  48.9741261  39.9927793  70.1034668  48.3151025
  37.9299067  58.4169513  54.7964434  37.1395142  58.2360973  55.1181769
  38.3259690  57.6396465  54.7794728  37.8715943  58.2756974  54.8416982
  42.4164958  67.2457287  40.2371147  43.1837943  67.3057412  39.8276999
  41.9696267  66.6737729  39.7527466  42.4638385  67.1693863  40.1048857
  43.3142753  66.0511943  52.5223879  42.6387755  65.8197175  53.0237266
  43.3235129  65.4433126  51.8965984  43.2161258  65.9270868  52.5040032
  40.4436897  60.8929772  59.2787932  40.3796038  61.7539728  59.1508069
  40.5834085  60.5761765  58.4783484  40.4552367  60.9729939  59.1416145
  45.3159488  68.9077075  44.7534057  45.3979325  69.7144062  44.4295508
  45.8009230  68.9273035  45.4774831  45.3996646  69.0297738  44.8120956
  39.1255991  63.5861911  53.4204135  38.7018240  63.7866410  52.6843154
  38.9500846  62.7390759  53.5328435  39.0366872  63.4910693  53.3277825
  38.6267685  75.1012424  55.8825593  39.1163615  74.4023214  55.7001257
  38.0551917  74.8036294  56.4701650  38.6152214  74.9538648  55.9426633
  34.4138436  64.0813963  48.8532108  34.5703055  64.0160766  49.7088100
  34.7539029  64.8562515  48.6410787  34.4871671  64.1863161  48.9486702
  40.9517581  63.4571846  47.7225471  41.4933126  62.9542227  48.1864092
  41.2664140  63.4037041  46.9114956  41.0781978  63.3751267  47.6709283
  44.8234688  67.6674494  64.8352383  45.6369553  67.3959643  64.9957516
  44.6629654  67.3682034  64.0312579  44.9204637  67.5829420  64.7397789
  39.1204030  68.8489198  45.0065499  39.1896851  67.9903736  45.1458500
  39.8992486  69.0661079  44.6784524  39.2456880  68.7542062  44.9782656
  42.1006850  58.3508151  57.7747772  42.3148820  57.7119065  57.2211126
  41.4840749  58.7953975  57.3455633  42.0412179  58.3218295  57.6298203
  43.5111518  71.2726899  49.2201992  43.1191310  70.9693614  48.5024859
  43.6664590  72.1095989  49.0306946  43.4765108  71.3510736  49.0858490
  30.9872698  61.2648913  49.1692875  31.3671662  61.6833458  48.5053142
  30.4128062  61.8462369  49.4761718  30.9584022  61.4126772  49.1169616
  44.2645938  59.9597216  58.7131079  43.4522620  59.6523106  58.7944251
  44.7235873  59.4796216  59.2773791  44.2126323  59.8433708  58.8085673
  43.6751193  67.8376888  49.1608023  43.3165847  68.0091531  49.9372055
  43.1889903  68.2990094  48.6036021  43.5509890  67.9315859  49.1933292
  38.4639558  63.5176053  41.7008257  38.7532083  64.2940936  41.9751832
  38.5511357  63.0064785  42.4022757  38.5193814  63.5567972  41.8450755
  41.3599446  61.3657287  63.4959781  41.8299077  61.9899404  63.8827655
  41.4061326  60.6974263  64.0552996  41.4367321  61.3591968  63.6359852
  40.5862953  54.0107275  56.0501437  40.1994706  54.0356306  56.8314967
  40.0995890  53.4448954  55.5975954  40.4575462  53.9303026  56.0989341
  44.8355932  68.7280784  60.1075224  45.4735653  68.2340980  59.7737680
  44.1930024  68.6558184  59.5227451  44.8350159  68.6439792  59.9717579
  46.5612932  60.5769930  54.6741139  46.1340540  60.4896279  53.9189239
  45.9238985  60.6847705  55.2595984  46.4042539  60.5802590  54.6486581
  40.2520094  50.8974261  58.3411697  40.8813212  51.4334561  58.0632768
  40.4205957  50.8051619  59.1925263  40.3697889  50.9635623  58.4260225
  40.0534009  55.6845455  60.6138109  40.8807439  55.4130604  60.6696723
  40.0741855  56.4806297  60.9701927  40.1786859  55.7625209  60.6753292
  44.8910189  69.4200592  56.7480581  45.6802567  69.0689657  56.8682662
  45.0653786  70.2336981  56.4857214  45.0330470  69.4886449  56.7268449
  34.6303499  62.8309318  53.8008369  33.7891506  62.7313192  54.0087263
  34.8393507  63.6004798  54.1522690  34.5368192  62.9301361  53.8835684
  32.1079066  60.4528855  51.6293120  31.7135764  60.5271867  50.8543230
  31.5519183  60.8386801  52.1801482  31.9681878  60.5210630  51.5960780
  38.4420164  60.7590717  53.0505967  38.1383301  60.2046705  53.6516375
  37.7399585  60.9382927  52.5634001  38.2936374  60.7035500  53.0675673
  37.4986261  58.0691237  47.6150669  37.7745995  57.3510150  47.2028236
  38.0984930  58.6676157  47.4071775  37.6279526  58.0511608  47.5231430
  36.5038515  67.9740438  57.7578065  36.3958870  67.9842500  58.6240123
  36.7134296  68.7995218  57.5683019  36.5188626  68.0981513  57.8582156
  40.9996782  55.7404754  45.8897264  41.4540528  55.9115315  46.6145108
  41.4736827  55.1272865  45.4895040  41.1365102  55.6755640  45.9371025
  34.5212307  65.2253080  55.2200002  33.9300240  65.8662578  55.1903017
  35.2833331  65.6490698  55.1931302  34.5460568  65.3828919  55.2115150
  34.9172930  56.3855078  55.8868020  35.3774411  56.4594007  56.6243144
  34.9629036  57.1836332  55.5367841  34.9923485  56.5149225  55.9440776
  36.5656279  57.0521773  60.4540047  36.1741845  56.4055120  60.8895825
  36.7342142  57.6433208  61.0734302  36.5327190  57.0436041  60.6102753
  50.6402729  65.0558850  56.2177281  50.6985852  65.5045499  56.9637257
  50.0069196  65.4657663  55.7807361  50.5554024  65.1832585  56.2629829
  44.2801823  70.6762392  52.6532027  44.0821512  71.1653206  51.9588238
  43.6589534  70.8803633  53.2316160  44.1589388  70.7778930  52.6355250
  38.3409802  62.4447289  46.9942271  39.0851846  62.8321565  47.2325221
  38.4870498  61.6004714  47.1582759  38.4720387  62.3777762  47.0536241
  41.3287677  58.0172762  52.8936190  40.8547632  57.4914524  53.4041501
  41.7005813  57.4702235  52.3251052  41.3137566  57.8588759  52.8851338
  31.7060708  60.0144269  58.2619736  32.5686321  59.9139978  58.1757066
  31.3752491  59.4338978  57.7005308  31.7845904  59.9135895  58.1665142
  47.5924408  63.0775138  54.3042971  47.3522631  62.2381553  54.3085397
  48.0716415  63.1575304  55.0283744  47.6276592  62.9656537  54.4117773
  43.2571177  58.9109317  45.9561944  42.7294196  58.9938061  45.2667653
  43.7166885  59.6527188  45.9526589  43.2473028  59.0329979  45.8536639
  49.5929595  59.8576595  52.2572230  49.3539365  59.8172429  51.4193015
  49.7563496  60.7047747  52.3837951  49.5819898  59.9768680  52.1525712
  46.1975625  64.2426544  58.1877275  46.9209824  63.7899071  58.0088295
  45.9325587  64.5231210  57.4049603  46.2656898  64.2177513  58.0455991
  35.0662494  58.8386718  54.9230154  34.4415564  58.8505110  54.3156107
  34.7308088  59.3146893  55.5721395  34.9247985  58.9105235  54.9286723
  35.2504242  57.1811836  40.9802839  34.9017047  57.8331561  41.4434389
  34.7700688  57.1668949  40.2526711  35.1274486  57.2754890  40.9413931
  31.7788169  66.8987178  56.3633919  31.2488094  66.2079617  56.4128893
  32.0513262  66.8897363  55.5346627  31.7412891  66.7954310  56.2481335
  42.8108260  67.4812880  45.0871601  43.5342458  67.9470993  44.9436175
  42.3708851  67.5486490  44.3369198  42.8523952  67.5596717  44.9556383
  41.9794415  64.3410422  56.3372290  41.3651408  63.7968473  56.6320926
  42.4961700  63.8274659  55.8578106  41.9650077  64.1846831  56.3096519
  41.2190712  65.4114692  54.0716589  40.7918320  64.7864411  53.6382024
  41.2115656  65.1289614  54.8975596  41.1549853  65.2767473  54.1296416
  34.3353239  60.4479865  57.1405023  34.4946726  59.6923190  57.5456745
  34.1546133  60.9970805  57.7945761  34.3318598  60.4173679  57.2967729
  42.2773542  52.6141101  57.6955812  41.7814103  52.8104775  57.0047379
  43.0342604  53.0133769  57.5244614  42.3160367  52.7018835  57.5675949
  39.5476421  56.2883447  54.2859123  39.5718909  55.7543559  53.5971903
  39.7987895  55.7800756  54.9484713  39.5886340  56.1344351  54.2823768
  27.0584011  63.5714942  53.7202267  26.9527460  63.5261786  52.8554351
  26.3084231  63.9168723  54.0016552  26.9319614  63.6155850  53.6339597
  35.8277744  55.0154265  53.6664867  35.8676115  55.5163472  54.3799575
  35.0027408  55.1064659  53.3970790  35.7117270  55.1036082  53.7315405
  38.0107357  64.5815005  61.7685162  37.1602987  64.7186719  61.9042807
  38.1735484  63.8478783  62.2132863  37.9091220  64.4929106  61.8540761
  37.2492107  61.5314775  55.9638766  36.4184037  61.6988593  55.7574014
  37.1943624  61.1550726  56.7487652  37.1181522  61.5004506  56.0487294
  35.0575890  55.0223668  61.5995177  35.6828594  54.4785801  61.8724609
  34.6026370  54.5418586  61.0302967  35.0824151  54.8713149  61.5556771
  35.6228151  59.8070367  46.4928884  35.7631112  60.3042831  47.1957525
  36.1210684  59.1056661  46.6343098  35.7169232  59.7772345  46.6180463
  35.6528373  60.6737478  43.8221461  36.2873453  61.2697903  43.7570923
  35.7353984  60.3740935  44.6367331  35.7584924  60.7178386  43.9324547
  48.6310939  63.2052955  56.6907825  49.2228779  63.8450206  56.7226023
  49.0669934  62.5075992  56.9799892  48.7829370  63.1971305  56.7388658
  37.2307356  56.6051453  43.7966903  37.5523197  56.1254536  43.1426165
  37.4934300  57.4151099  43.6057714  37.3173382  56.6541351  43.6722395
  40.4604329  67.6270327  57.3165719  39.9529420  68.1806174  57.7606349
  40.1630975  67.6878617  56.4984493  40.3409214  67.7176639  57.2614176
  42.6266511  55.9923647  56.1590382  43.0521583  55.5396173  55.5473908
  42.0123504  55.4383718  56.4355169  42.5995157  55.8437623  56.1095407
  32.1581361  62.8705318  47.0911007  32.6673591  63.4669826  47.4722312
  32.6315633  62.6031292  46.4087426  32.3024737  62.9191134  47.0465529
  43.0712109  71.5433585  45.2469662  42.3541419  71.3694447  44.7816900
  43.7218847  71.3086157  44.7145148  43.0613960  71.4829378  45.0998880
  45.6560080  60.4198174  48.9910967  44.9851270  60.9627876  48.8624033
  46.3499831  60.8893029  48.7492662  45.6588948  60.5696445  48.9366495
  39.7046814  72.5594886  54.2222726  39.4812469  71.8013715  54.5906752
  39.2156658  72.5892907  53.5003165  39.5990263  72.4517110  54.1699467
  45.8188208  56.8754057  51.9001341  46.1715818  56.4483780  52.5747139
  44.9603009  56.7904901  52.0302417  45.7437653  56.7998798  52.0196351
  34.5171893  59.5061577  49.9584187  33.7983882  59.9225710  50.2257051
  34.8884255  60.0715816  49.4075825  34.4663825  59.6510858  49.9166994
  43.8171474  60.1389426  55.8486183  43.7969401  59.9572721  56.7020962
  43.8650674  61.0101444  55.8245767  43.8206115  60.2405964  55.9709478
  41.7617804  66.7276618  61.7734659  41.7213658  66.0826295  61.1879815
  42.5741122  66.6713235  62.0860071  41.8760957  66.6235585  61.7331609
  38.3525271  72.7795344  51.6759810  37.9385670  72.1169474  51.2863652
  39.0372645  72.9273203  51.1555505  38.3923643  72.7036002  51.5416307
  41.7190565  71.9385429  52.4283427  41.3206848  72.0487699  51.6604247
  41.1041785  72.1467495  53.0109987  41.5689455  71.9858997  52.4014726
  40.2918467  58.5459577  45.2957567  39.6983307  58.8676573  44.7442134
  40.3293745  57.7000672  45.0878673  40.2092856  58.4683905  45.1840338
  43.1676284  58.5039081  48.7259317  42.9389977  58.5271783  47.8837675
  43.4274360  57.6796548  48.8454327  43.1722472  58.3855161  48.6184515
  37.4495512  60.3573554  58.3284417  36.9374415  59.7494737  58.6869448
  37.2775008  61.0730147  58.7958393  37.3485149  60.3736854  58.4500641
  32.2961227  58.8011130  60.9786779  32.1263817  59.4612505  60.4334986
  31.8527177  59.0117691  61.6999268  32.2060561  58.9297112  61.0048408
  36.2221046  57.0415628  50.0213513  36.6978413  57.4032707  49.3863694
  35.7209646  57.6972095  50.3013655  36.2186405  57.1909816  49.9690254
  49.4532408  66.5137396  45.8126518  49.8366014  67.2628752  46.0424615
  48.6576521  66.7603215  45.5538507  49.3926190  66.6607090  45.8084091
  41.3264583  58.2797799  60.7686673  41.8836013  58.0511609  60.1365138
  41.0025648  59.0403465  60.4921885  41.3610993  58.3581636  60.6343170
  29.1963292  61.7057995  56.2375269  28.6490011  61.0358641  56.3556137
  29.9855670  61.3387843  56.3018736  29.2315475  61.5522982  56.2643969
  39.0447700  61.3665452  61.7338680  39.7959027  61.6817129  62.0478234
  39.2370276  61.1644623  60.9072602  39.1839114  61.3832834  61.6582075
  38.2647700  59.1856827  43.3886897  38.6446664  59.2036457  42.6038011
  37.5240296  59.6310816  43.2677744  38.2116537  59.2538602  43.2550465
  45.8932990  57.4939019  48.9762475  45.8927216  57.3387675  49.8346752
  45.6889170  58.3402006  48.9203861  45.8632768  57.5959639  49.0950415
  27.9550261  60.9178803  53.3921292  27.7772022  60.4655412  54.1176207
  27.6669283  61.7204964  53.5759769  27.8863214  60.9701361  53.5264795
  43.6173842  62.1736520  52.6298682  44.1127507  61.4559515  52.5902702
  42.8073618  61.8707318  52.5153169  43.5717735  62.0234167  52.6072408
  39.0632454  66.0234334  44.7795687  38.2543776  65.7001007  44.7328996
  39.5707362  65.3167556  44.7123935  39.0182120  65.8715650  44.7625981
  29.6922731  63.4506527  50.5043051  28.8268250  63.4392217  50.3925822
  29.7921547  63.2636750  51.3514190  29.5796898  63.4212588  50.6131995
  45.6825661  64.9240208  55.3175811  46.1080733  64.4014630  54.7646236
  45.3182581  65.5221045  54.7964434  45.6912264  64.9350435  55.1584821
  35.3179741  73.2204425  54.0773156  35.6326300  74.0340814  54.0850938
  35.7273154  72.8354644  54.7455315  35.4247839  73.2833128  54.1777248
  42.2704260  68.6374472  51.6476968  42.7415439  69.3514735  51.8166953
  42.6064439  68.0373222  52.1836838  42.3899375  68.6545936  51.7509344
  44.3581245  70.2475786  63.8269040  44.4678210  69.4584346  64.1825788
  44.6872142  70.1581722  63.0243378  44.4233651  70.1181639  63.7611431
  39.1873755  53.4101943  58.6035063  39.3201661  52.6132936  58.9316039
  39.5718908  53.9368346  59.1833339  39.2630084  53.3701859  58.7378566
  42.9078207  68.4292406  58.4104661  42.3599153  67.8050290  58.1424726
  43.3691235  68.6186678  57.6948740  42.8945416  68.3651457  58.2655092
  45.7172071  56.4977761  55.7955853  45.1335060  56.9986967  55.3833421
  46.0376365  55.9907317  55.1620177  45.6785246  56.4969596  55.6414360
  38.2566870  55.4118356  46.0714528  39.0782565  55.5816669  45.8296223
  37.7936521  55.5665617  45.3480826  38.3098033  55.4600089  45.9286172
  36.8462202  53.4061118  56.8512957  37.3906615  53.0652245  57.4417299
  36.8999138  54.2646579  56.9934241  36.9351322  53.4816377  56.9594830
  32.6592761  67.1677534  53.7251765  33.2637618  67.1273368  53.0965585
  32.4520073  68.0148686  53.7555821  32.7181658  67.2865536  53.6367881
  42.4736533  69.4343479  54.9414002  43.2934907  69.2906445  55.2030297
  42.1930611  70.0589678  55.4830440  42.5533276  69.5053831  55.0601942
  27.8944043  66.1512151  53.5950688  27.7968321  65.3408423  53.9040745
  28.6772913  66.1303945  53.2096956  27.9960180  66.0279242  53.5837551
  58.9450183  77.0908331  47.9056878  58.9144188  77.9452967  48.0775148
  59.5431532  76.7903623  48.4643022  59.0287341  77.1724827  48.0131681
  52.1449868  76.1783982  52.6609809  51.2887764  76.3392480  52.7118926
  52.1917522  75.3076046  52.6814870  52.0248980  76.0734784  52.6715875
  54.9901689  78.2376026  55.3041461  55.5357649  78.9161112  55.3635430
  54.9318566  78.0963487  54.4443042  55.0617604  78.3168027  55.1853521
  56.7666758  79.6660633  46.1775188  56.6506284  80.4168319  46.6067326
  57.5622645  79.4084586  46.4271275  56.8671347  79.7395480  46.2779280
  43.6030896  73.9171109  53.2146454  42.9835928  73.3263756  53.0456469
  43.5014759  74.5082544  52.5810778  43.4968571  73.9175191  53.0951444
  48.6497083  83.6554656  47.4644531  48.9712925  84.1959863  46.8605839
  49.2969180  83.0851427  47.5966820  48.7923139  83.6513831  47.3951566
  50.6998792  75.6570651  47.5478917  51.3978956  75.8358778  48.0400381
  51.0151124  75.1340990  46.9249307  50.8494129  75.6064423  47.5280928
  43.3300029  77.4623391  55.4590023  43.2058726  78.0485836  56.0939842
  43.9818313  76.9683586  55.7602298  43.4073678  77.4762195  55.5975953
  50.8886727  82.0441096  47.5358709  51.3280362  81.4358196  47.9813482
  50.7391390  81.6648469  46.7644174  50.9308193  81.8979567  47.4877876
  48.3558370  80.6385108  54.7377534  49.0007372  80.1457551  54.4188483
  48.5960147  80.7809894  55.5643613  48.4868955  80.5862550  54.8127068
  50.8944461  83.4840013  54.3884427  51.1767704  82.6891419  54.1671183
  51.6230622  83.9620601  54.4089488  51.0434025  83.4374610  54.3587442
  48.8725655  71.0263047  51.6300192  48.5428985  71.4774191  50.9603891
  48.1970657  70.9479211  52.1773198  48.7236091  71.0814183  51.6123415
  54.4896063  80.3968277  44.4889478  54.4047359  81.2529244  44.6339047
  54.9780447  80.1212601  45.1571637  54.5484961  80.4825598  44.6091560
  56.0802063  67.0148570  49.8749803  55.7655504  67.7052049  50.3070225
  55.5629005  66.9593353  49.1735303  55.9566533  67.1083459  49.8346752
  55.4214497  77.0153071  45.9887213  54.8925968  77.2312705  46.6484519
  55.9439517  77.7089210  45.9088183  55.4202950  77.1496208  46.0742812
  47.3114104  80.9116288  44.7894681  46.7271320  81.4166319  45.1960545
  46.9084200  80.6858675  44.0491273  47.1653408  80.9524536  44.7399706
  51.7691319  77.1581940  43.2663602  52.0087323  77.3659924  42.4538945
  52.0907160  76.3539449  43.3752546  51.8528477  77.0696041  43.1624155
  47.0781609  69.0875336  47.1123140  47.8327577  69.4553653  46.8740190
  46.9009144  69.4614890  47.8802319  47.1636088  69.1973524  47.1908028
  60.3716508  75.2369776  55.1570679  59.5344929  75.3071963  55.3918274
  60.3404739  75.2394271  54.2844981  60.2434790  75.2480003  55.0630227
  46.7681237  77.3802812  60.8719048  46.9401741  77.2708707  61.7204329
  47.3050594  78.0257217  60.6350240  46.8726241  77.4594814  60.9624144
  45.4338674  71.4945655  43.8101253  45.2514247  71.7117536  42.9842246
  46.2964287  71.6084668  43.8659867  45.5343263  71.5435553  43.6955740
  51.1138393  68.4972066  46.8450277  51.8424553  68.3188020  46.3988433
  51.2033286  69.3390145  47.0557455  51.2345055  68.5955944  46.8103794
  55.0946694  79.4325453  50.7482571  55.8504209  79.8656967  50.7871479
  55.2009018  78.7830223  51.3217207  55.2216864  79.4002937  50.8380596
  41.0742954  79.9734743  55.7071968  40.8081369  79.1573860  55.8662958
  41.0881518  80.0187899  54.8367483  41.0367676  79.8591648  55.6025450
  58.0524348  70.3012558  53.7414401  58.6950256  70.3710663  54.3276317
  58.3047368  69.6341781  53.2393943  58.1846480  70.2138907  53.7541681
  44.9800701  74.7719827  42.3223726  44.2658878  74.4858007  42.7346158
  45.4644670  75.1116453  42.9630113  44.9460064  74.7801477  42.4779361
  45.8241560  73.5113121  58.3538975  45.1313357  73.0410101  58.5999707
  46.4401888  73.2851426  58.9280683  45.8126090  73.4080253  58.4748128
  52.1548019  83.2749781  42.6985534  52.5699167  82.9434805  42.0070030
  51.3239948  83.0418684  42.5705671  52.0936027  83.1921037  42.5776381
  41.4836368  80.7593522  52.9883712  41.3011941  80.7340408  52.1356004
  42.2186036  81.2292460  53.0272621  41.5650431  80.8254885  52.8681630
  57.5536042  80.9945032  50.1316600  57.7891631  81.1390231  49.3043450
  57.7025605  81.7587440  50.5248113  57.6101845  81.1284087  50.0680203
  44.5482119  77.4778525  59.4965821  45.2722092  77.4631556  59.9830715
  44.6498256  78.1873881  58.9987789  44.6700328  77.5803229  59.4944607
  59.3826498  79.8346698  47.9686203  59.7134716  80.3674338  47.3626298
  59.9559587  79.8885586  48.6248154  59.5160178  79.9216267  47.9763985
  54.5958388  77.6811601  48.6509783  54.6905242  78.4200895  49.1049409
  53.9717231  77.2529077  49.0844348  54.5167418  77.7272922  48.7817931
  41.4507278  77.6387023  53.1382779  42.0280781  77.5023474  53.7775024
  40.7521340  77.1822807  53.3928363  41.4328299  77.5509289  53.2705068
  54.8481409  79.5260341  41.8846735  54.7661571  79.5962528  42.7501722
  55.4861129  80.0890085  41.6930476  54.9301246  79.6199312  41.9836685
  48.2074580  79.2921079  51.3521262  47.9493824  78.4592814  51.3252561
  48.2623063  79.5178692  50.5113762  48.1774358  79.2018850  51.2241399
  53.2875630  71.3949529  51.4525354  52.5831957  70.9058715  51.6109274
  53.3360605  71.4072004  50.5813799  53.1905682  71.3239177  51.3464694
  47.1809292  76.8458841  51.8386157  46.6058883  77.0051010  52.4750117
  46.8044969  76.2094250  51.3754607  47.0412105  76.7756654  51.8640715
  50.8482581  75.3182191  56.6978535  50.4597014  74.8936408  56.0430726
  50.1837279  75.5664340  57.2055562  50.6929509  75.2920912  56.6766403
  60.4905850  75.0757195  49.4726365  60.2342415  74.2637137  49.2824248
  61.3335164  75.0834762  49.2456552  60.5771875  74.9569193  49.4111182
  36.9266111  76.4898916  49.8530597  37.0126363  76.1130784  50.6344127
  37.5541909  76.1159362  49.3750555  37.0322662  76.3784398  49.8976074
  54.6708942  69.0156819  54.2102519  55.0519454  68.3334990  54.5970393
  53.8672227  68.7266421  54.0278184  54.6085404  68.8723868  54.2406575
  51.9521519  79.5480795  44.8955342  52.7662158  79.8395688  44.7838113
  51.8880660  78.8940657  44.3213635  52.0624258  79.4945990  44.7944179
  47.8229427  83.0202313  50.0227654  48.4603374  82.7814060  50.5679447
  48.2484499  83.2239471  49.2880815  47.9805594  83.0153323  49.9944811
  48.4632242  78.2404602  44.3602543  48.8477395  78.0212309  45.1119089
  48.2143863  79.0667548  44.4903620  48.4834315  78.3302749  44.4903620
  48.6300783  71.5211018  64.0765128  48.3154224  72.2910580  63.8134690
  48.3090715  70.9581274  63.4917355  48.5359702  71.5521286  63.9506478
  50.2050899  83.4974735  51.7021440  50.2789908  83.3349907  52.5563290
  51.0220406  83.6864925  51.4581922  50.3367258  83.5011478  51.7919466
  46.1832680  69.9101539  49.6911324  45.3155105  69.9824139  49.7568933
  46.4707884  70.7123618  49.8799299  46.0972428  70.0395686  49.7286091
  55.3065569  70.0579398  58.0222646  56.0519161  69.8689209  57.6086071
  54.8902873  70.5837636  57.4636502  55.3550543  70.1081544  57.8787219
  62.6827839  77.4288627  52.9728151  63.2335761  76.7956696  53.2125243
  62.6671955  77.9604020  53.6643655  62.7613036  77.4137575  53.1107009
  49.3350230  81.2627224  57.5188044  48.8361924  81.9742992  57.5972933
  50.1450455  81.5827891  57.4806207  49.3806337  81.4154073  57.5244613
  45.5978348  80.5250177  51.7650765  45.3091596  79.8987648  52.2996492
  46.4661696  80.4670465  51.8315446  45.6838600  80.4237721  51.8541720
  56.3856246  75.6684961  52.0832747  56.0421011  74.9475296  52.4339997
  56.4849288  75.4598812  51.2411105  56.3498288  75.5309164  52.0104427
  45.8010621  82.1645428  47.6893130  46.5556589  82.5458467  47.9028593
  45.2081234  82.6156572  48.1439827  45.8247335  82.2874256  47.7876009
  48.2617288  74.1208269  62.8150342  47.4517064  74.4266048  62.7040185
  48.7391975  74.8413851  62.9302926  48.2120767  74.2722870  62.8157413
  47.1208848  83.3353990  53.0633246  46.5989601  83.4754281  53.7485110
  47.5082868  82.5764654  53.2535363  47.1012549  83.2439513  53.1934322
  44.1100032  73.3859798  47.1328200  43.8224828  73.0161069  46.3960148
  44.7970500  73.8554654  46.8711905  44.1688929  73.4006768  46.9843276
  48.5475173  80.3658009  48.4614737  48.3517956  80.9732743  47.8675040
  48.7709519  79.6725953  47.9806410  48.5509814  80.3535534  48.3030817
  46.9453703  77.2512747  48.5795605  47.6676355  77.4153905  48.1199411
  46.4661696  77.9722411  48.4734945  46.9817434  77.3810976  48.4961219
  54.9047211  73.5876545  53.9592290  54.0658312  73.6137824  53.7230553
  54.9751578  74.2347281  54.5397636  54.7915604  73.6872671  54.0101407
  44.5961320  79.6570819  57.6849745  45.1082417  79.9355072  57.0358505
  44.3097663  80.3960113  58.0512558  44.6296183  79.8073173  57.6439623
  53.3516489  70.4861922  48.6919906  54.0542842  70.2869671  48.2139864
  53.0860678  69.7137865  48.9988749  53.4163122  70.3424888  48.6665347
  58.7804735  78.7944532  51.2453532  58.6938709  78.9499958  52.0988310
  58.3255215  79.4382608  50.8712937  58.7007991  78.9120287  51.3160638
  41.6828226  74.1641011  47.9813481  41.7844363  74.9667172  48.3094457
  42.4784113  73.9628347  47.6836562  41.8156132  74.2526910  47.9848837
  48.1145046  71.7497208  57.7450786  47.9228243  71.7652342  58.5950210
  48.9643641  71.9460882  57.7217441  48.2120767  71.7811559  57.8674081
  42.4991959  74.2788189  55.7234603  42.3577450  73.4272130  55.8479111
  42.7832522  74.3216850  54.8996809  42.5199805  74.1587939  55.6202227
  52.6530551  76.1155279  49.8679091  52.4065265  76.0351030  50.7015880
  52.9815674  75.3308747  49.6741619  52.6651794  75.9881545  49.9626614
  50.7847496  78.0502166  57.0627206  50.0370810  78.2433181  56.6575484
  50.9389021  77.2247386  56.8251327  50.6969923  77.9567278  56.9672612
  51.0249273  71.9452717  57.9522610  51.4821887  72.6776691  58.0795402
  51.1005601  71.5219182  58.7109865  51.1040242  71.9909955  58.0823686
  43.2682264  72.1918537  59.0412053  42.7324453  71.5798895  59.3572820
  43.3300029  72.7666673  59.6945720  43.1977896  72.1865464  59.1847480
  55.4976598  65.1242592  51.8216452  55.6160167  65.5819055  51.0883755
  55.3238774  64.3187853  51.5352670  55.4895769  65.0736364  51.6717386
  48.9031650  73.9354821  54.7964434  48.1127725  73.7546281  55.1181769
  49.2992273  73.1581773  54.7794728  48.8448527  73.7942282  54.8416982
  53.3897541  82.7642595  40.2371147  54.1570526  82.8242720  39.8276999
  52.9428850  82.1923037  39.7527466  53.4370968  82.6879171  40.1048857
  54.2875337  81.5697251  52.5223879  53.6120339  81.3382483  53.0237266
  54.2967713  80.9618434  51.8965984  54.1893841  81.4456176  52.5040032
  51.4169481  76.4115080  59.2787932  51.3528622  77.2725036  59.1508069
  51.5566668  76.0947073  58.4783484  51.4284951  76.4915247  59.1416145
  50.0988575  79.1047219  53.4204135  49.6750824  79.3051718  52.6843154
  49.9233430  78.2576067  53.5328435  50.0099455  79.0096001  53.3277825
  45.3871020  79.5999271  48.8532108  45.5435639  79.5346074  49.7088100
  45.7271613  80.3747823  48.6410787  45.4604254  79.7048469  48.9486702
  51.9250164  78.9757154  47.7225471  52.4665710  78.4727535  48.1864092
  52.2396723  78.9222349  46.9114956  52.0514561  78.8936575  47.6709283
  50.0936614  84.3674506  45.0065499  50.1629434  83.5089044  45.1458500
  50.8725069  84.5846387  44.6784524  50.2189464  84.2727370  44.9782656
  53.0739434  73.8693459  57.7747772  53.2881403  73.2304373  57.2211126
  52.4573333  74.3139283  57.3455633  53.0144763  73.8403602  57.6298203
  41.9605281  76.7834221  49.1692875  42.3404246  77.2018766  48.5053142
  41.3860646  77.3647677  49.4761718  41.9316606  76.9312080  49.1169616
  55.2378522  75.4782524  58.7131079  54.4255203  75.1708414  58.7944251
  55.6968456  74.9981524  59.2773791  55.1858906  75.3619016  58.8085673
  54.6483776  83.3562196  49.1608023  54.2898431  83.5276839  49.9372055
  54.1622487  83.8175402  48.6036021  54.5242473  83.4501167  49.1933292
  52.4654162  66.9793394  52.7635114  51.5947720  66.9532116  52.7168424
  52.7194504  66.8070587  51.9460960  52.3747722  66.9503538  52.6355251
  49.4372142  79.0361361  41.7008257  49.7264667  79.8126244  41.9751832
  49.5243941  78.5250093  42.4022757  49.4926398  79.0753280  41.8450755
  49.4903303  68.9899623  54.2208585  48.9741791  68.2979814  54.3460164
  48.9297232  69.6570400  54.1671183  49.3309816  68.9862881  54.2314651
  51.5595536  69.5292583  56.0501437  51.1727289  69.5541614  56.8314967
  51.0728474  68.9634262  55.5975954  51.4308045  69.4488334  56.0989341
  57.5345516  76.0955238  54.6741139  57.1073124  76.0081586  53.9189239
  56.8971569  76.2033013  55.2595984  57.3775123  76.0987898  54.6486581
  51.2252678  66.4159568  58.3411697  51.8545796  66.9519868  58.0632768
  51.3938541  66.3236927  59.1925263  51.3430472  66.4820931  58.4260225
  51.0266593  71.2030763  60.6138109  51.8540022  70.9315912  60.6696723
  51.0474439  71.9991605  60.9701927  51.1519443  71.2810517  60.6753292
  45.6036083  78.3494626  53.8008369  44.7624089  78.2498500  54.0087263
  45.8126091  79.1190106  54.1522690  45.5100775  78.4486669  53.8835684
  43.0811650  75.9714163  51.6293120  42.6868347  76.0457175  50.8543230
  42.5251766  76.3572109  52.1801482  42.9414462  76.0395937  51.5960780
  54.7176596  68.9495457  51.3096999  54.9226190  68.8817765  52.1553996
  54.3903020  69.7554278  51.2418176  54.6991844  69.0581397  51.4256654
  49.4152748  76.2776025  53.0505967  49.1115885  75.7232013  53.6516375
  48.7132168  76.4568235  52.5634001  49.2668957  76.2220807  53.0675673
  48.4718845  73.5876545  47.6150669  48.7478579  72.8695457  47.2028236
  49.0717514  74.1861465  47.4071775  48.6012109  73.5696916  47.5231430
  57.9710284  69.5027221  50.7899764  57.3584598  69.9897623  51.1753496
  58.0674459  68.8270712  51.3337416  57.8948182  69.4745530  50.9278623
  51.9729365  71.2590062  45.8897264  52.4273112  71.4300623  46.6145108
  52.4469411  70.6458173  45.4895040  52.1097685  71.1940948  45.9371025
  45.4944891  80.7438388  55.2200002  44.9032824  81.3847886  55.1903017
  46.2565914  81.1676006  55.1931302  45.5193151  80.9014227  55.2115150
  45.8905513  71.9040386  55.8868020  46.3506995  71.9779315  56.6243144
  45.9361620  72.7021640  55.5367841  45.9656069  72.0334533  55.9440776
  47.5388863  72.5707081  60.4540047  47.1474428  71.9240428  60.8895825
  47.7074726  73.1618516  61.0734302  47.5059773  72.5621349  60.6102753
  49.3142385  77.9632597  46.9942271  50.0584430  78.3506873  47.2325221
  49.4603081  77.1190022  47.1582759  49.4452970  77.8963069  47.0536241
  51.2321961  69.7582856  52.0274132  50.3858006  69.9305663  51.9015482
  51.2293093  68.9532199  52.3639961  51.1069111  69.6643884  52.0585259
  52.3020261  73.5358070  52.8936190  51.8280215  73.0099832  53.4041501
  52.6738397  72.9887543  52.3251052  52.2870150  73.3774067  52.8851338
  42.6793291  75.5329577  58.2619736  43.5418904  75.4325286  58.1757066
  42.3485074  74.9524286  57.7005308  42.7578487  75.4321203  58.1665142
  58.5656992  78.5960446  54.3042971  58.3255214  77.7566861  54.3085397
  59.0448999  78.6760612  55.0283744  58.6009175  78.4841845  54.4117773
  54.2303761  74.4294625  45.9561944  53.7026779  74.5123369  45.2667653
  54.6899469  75.1712496  45.9526589  54.2205611  74.5515287  45.8536639
  60.5662179  75.3761903  52.2572230  60.3271949  75.3357737  51.4193015
  60.7296080  76.2233055  52.3837951  60.5552482  75.4953988  52.1525712
  46.0395077  74.3572026  54.9230154  45.4148147  74.3690418  54.3156107
  45.7040672  74.8332201  55.5721395  45.8980569  74.4290543  54.9286723
  46.2236826  72.6997144  40.9802839  45.8749630  73.3516869  41.4434389
  45.7433272  72.6854257  40.2526711  46.1007070  72.7940198  40.9413931
  53.7840843  82.9998188  45.0871601  54.5075042  83.4656301  44.9436175
  53.3441434  83.0671798  44.3369198  53.8256535  83.0782025  44.9556383
  52.9526998  79.8595730  56.3372290  52.3383991  79.3153781  56.6320926
  53.4694283  79.3459967  55.8578106  52.9382661  79.7032139  56.3096519
  52.1923295  80.9300000  54.0716589  51.7650903  80.3049719  53.6382024
  52.1848240  80.6474922  54.8975596  52.1282437  80.7952781  54.1296416
  45.3085822  75.9665173  57.1405023  45.4679309  75.2108498  57.5456745
  45.1278716  76.5156113  57.7945761  45.3051181  75.9358987  57.2967729
  53.2506125  68.1326409  57.6955812  52.7546687  68.3290083  57.0047379
  54.0075188  68.5319077  57.5244614  53.2892950  68.2204143  57.5675949
  50.5209005  71.8068755  54.2859123  50.5451492  71.2728867  53.5971903
  50.7720479  71.2986064  54.9484713  50.5618924  71.6529659  54.2823768
  38.0316595  79.0900250  53.7202267  37.9260044  79.0447094  52.8554351
  37.2816815  79.4354030  54.0016552  37.9052198  79.1341158  53.6339597
  46.8010327  70.5339573  53.6664867  46.8408699  71.0348780  54.3799575
  45.9759992  70.6249967  53.3970790  46.6849853  70.6221389  53.7315405
  48.2224691  77.0500083  55.9638766  47.3916620  77.2173901  55.7574014
  48.1676208  76.6736034  56.7487652  48.0914106  77.0189814  56.0487294
  46.0308474  70.5408976  61.5995177  46.6561177  69.9971109  61.8724609
  45.5758954  70.0603894  61.0302967  46.0556735  70.3898457  61.5556771
  46.5960734  75.3255675  46.4928884  46.7363696  75.8228139  47.1957525
  47.0943267  74.6241969  46.6343098  46.6901815  75.2957653  46.6180463
  46.6260957  76.1922786  43.8221461  47.2606036  76.7883211  43.7570923
  46.7086568  75.8926243  44.6367331  46.7317508  76.2363694  43.9324547
  48.2039940  72.1236761  43.7966903  48.5255781  71.6439843  43.1426165
  48.4666883  72.9336407  43.6057714  48.2905965  72.1726659  43.6722395
  53.5999095  71.5108955  56.1590382  54.0254166  71.0581481  55.5473908
  52.9856088  70.9569026  56.4355169  53.5727740  71.3622931  56.1095407
  43.1313945  78.3890626  47.0911007  43.6406174  78.9855134  47.4722312
  43.6048217  78.1216600  46.4087426  43.2757320  78.4376442  47.0465529
  52.0393318  67.9824055  49.5680959  51.3961636  67.8321701  50.1366097
  51.6992725  67.7366400  48.8030063  51.8938395  67.9236177  49.5383974
  56.6292664  75.9383482  48.9910967  55.9583854  76.4813184  48.8624033
  57.3232414  76.4078337  48.7492662  56.6321532  76.0881753  48.9366495
  56.7920792  72.3939365  51.9001341  57.1448402  71.9669088  52.5747139
  55.9335593  72.3090209  52.0302417  56.7170236  72.3184106  52.0196351
  45.4904477  75.0246885  49.9584187  44.7716466  75.4411017  50.2257051
  45.8616839  75.5901124  49.4075825  45.4396408  75.1696166  49.9166994
  54.7904057  75.6574734  55.8486183  54.7701985  75.4758029  56.7020962
  54.8383258  76.5286752  55.8245767  54.7938698  75.7591272  55.9709478
  51.2651051  74.0644885  45.2957567  50.6715890  74.3861881  44.7442134
  51.3026329  73.2185980  45.0878673  51.1825440  73.9869213  45.1840338
  58.2244852  67.5157777  52.8285653  57.7175716  66.8086917  52.7606831
  59.0212285  67.1850966  52.9586730  58.2672091  67.3630928  52.8384648
  54.1408867  74.0224389  48.7259317  53.9122560  74.0457091  47.8837675
  54.4006944  73.1981856  48.8454327  54.1455055  73.9040469  48.6184515
  48.4228096  75.8758862  58.3284417  47.9106999  75.2680045  58.6869448
  48.2507592  76.5915455  58.7958393  48.3217733  75.8922162  58.4500641
  43.2693811  74.3196438  60.9786779  43.0996401  74.9797812  60.4334986
  42.8259760  74.5302999  61.6999268  43.1793144  74.4482420  61.0048408
  47.1953630  72.5600936  50.0213513  47.6710996  72.9218015  49.3863694
  46.6942230  73.2157403  50.3013655  47.1918989  72.7095124  49.9690254
  52.2997166  73.7983107  60.7686673  52.8568596  73.5696916  60.1365138
  51.9758231  74.5588773  60.4921885  52.3343576  73.8766944  60.6343170
  40.1695875  77.2243303  56.2375269  39.6222595  76.5543949  56.3556137
  40.9588253  76.8573151  56.3018736  40.2048059  77.0708290  56.2643969
  49.2380283  74.7042135  43.3886897  49.6179248  74.7221765  42.6038011
  48.4972879  75.1496124  43.2677744  49.1849121  74.7723910  43.2550465
  56.8665574  73.0124327  48.9762475  56.8659800  72.8572983  49.8346752
  56.6621754  73.8587314  48.9203861  56.8365351  73.1144947  49.0950415
  38.9282845  76.4364111  53.3921292  38.7504606  75.9840720  54.1176207
  38.6401867  77.2390272  53.5759769  38.8595798  76.4886669  53.5264795
  54.5906426  77.6921828  52.6298682  55.0860091  76.9744823  52.5902702
  53.7806201  77.3892626  52.5153169  54.5450319  77.5419475  52.6072408
  50.0365037  81.5419642  44.7795687  49.2276360  81.2186315  44.7328996
  50.5439946  80.8352864  44.7123935  49.9914704  81.3900958  44.7625981
  40.6655314  78.9691835  50.5043051  39.8000834  78.9577525  50.3925822
  40.7654130  78.7822058  51.3514190  40.5529481  78.9397896  50.6131995
  56.6558245  80.4425516  55.3175811  57.0813316  79.9199938  54.7646236
  56.2915164  81.0406353  54.7964434  56.6644847  80.4535743  55.1584821
  53.2436844  84.1559780  51.6476968  53.7148022  84.8700043  51.8166953
  53.5797023  83.5558530  52.1836838  53.3631959  84.1731244  51.7509344
  50.1606339  68.9287251  58.6035063  50.2934245  68.1318244  58.9316039
  50.5451492  69.4553654  59.1833339  50.2362668  68.8887167  58.7378566
  53.2338694  65.8517577  55.2016156  52.4284658  65.7415306  55.5183995
  53.1045430  65.9530033  54.3446022  53.0958827  65.8501247  55.1224197
  56.6904655  72.0163069  55.7955853  56.1067643  72.5172275  55.3833421
  57.0108949  71.5092625  55.1620177  56.6517830  72.0154904  55.6414360
  49.2299454  70.9303664  46.0714528  50.0515148  71.1001976  45.8296223
  48.7669105  71.0850925  45.3480826  49.2830616  70.9785397  45.9286172
  47.8194786  68.9246426  56.8512957  48.3639199  68.5837553  57.4417299
  47.8731721  69.7831887  56.9934241  47.9083905  69.0001685  56.9594830
  25.7203257   7.4730538  34.8396925  25.6897261   8.3275175  35.0115195
  26.3184605   7.1725831  35.3983069  25.8040415   7.5547035  34.9471728
  18.9202941   6.5606189  39.5949856  18.0640837   6.7214687  39.6458973
  18.9670595   5.6898253  39.6154917  18.8002053   6.4556991  39.6055922
  13.3044081  16.0968907  35.3587087  12.5526981  15.7184445  35.1303132
  13.7530093  16.1287341  34.6105898  13.2593748  16.0454514  35.2144589
  22.2296658  12.8292715  49.2010312  22.9363425  12.3344746  49.3297246
  22.4184593  13.2701796  48.4712970  22.3624564  12.8211065  49.1119357
  18.7569041  16.5194277  30.7872634  18.4220410  17.1971198  30.3516857
  19.2695912  16.1299588  30.1989506  18.7834622  16.5618855  30.6359426
  18.2973332  18.4708545  36.7283746  18.6812712  19.0395444  36.1888521
  18.2332474  17.7458056  36.2489562  18.3446760  18.4484009  36.5777609
  21.7654763   8.6198233  42.2381507  22.3110723   9.2983320  42.2975477
  21.7071639   8.4785694  41.3783089  21.8370677   8.6990235  42.1193568
  14.8828837  16.1087299  37.6249860  14.9839200  15.2987653  37.9346988
  14.2870583  16.0144246  36.9949538  14.8101376  15.9752327  37.5776098
  23.5419831  10.0482840  33.1115235  23.4259357  10.7990526  33.5407373
  24.3375718   9.7906793  33.3611322  23.6424421  10.1217687  33.2119327
  14.7229577  21.0264888  39.0264716  15.3667032  21.4678052  39.4160874
  15.0485833  20.2218315  38.9394975  14.8661406  20.9730083  39.0710193
   8.0793882  12.1307586  37.2502193   7.8444066  11.2975238  37.1434462
   8.2179522  12.4112251  36.4363394   8.0649544  12.0491089  37.1144548
  15.4250157  14.0376863  34.3984578  15.7465998  14.5782071  33.7945886
  16.0722253  13.4673635  34.5306867  15.5676212  14.0336038  34.3291613
  17.4751865   6.0392858  34.4818964  18.1732029   6.2180986  34.9740428
  17.7904197   5.5163197  33.8589354  17.6247202   5.9886630  34.4620974
  10.1053102   7.8445598  42.3930070   9.9811799   8.4308044  43.0279889
  10.7571387   7.3505794  42.6942345  10.1826751   7.8584402  42.5315999
  17.6639800  12.4263303  34.4698756  18.1033436  11.8180404  34.9153529
  17.5144463  12.0470677  33.6984221  17.7061266  12.2801774  34.4217923
  15.1311443  11.0207315  41.6717581  15.7760446  10.5279758  41.3528530
  15.3713220  11.1632102  42.4983660  15.2622028  10.9684757  41.7467114
  17.6697535  13.8662221  41.3224474  17.9520777  13.0713627  41.1011230
  18.3983695  14.3442808  41.3429535  17.8187098  13.8196818  41.2927489
  21.2649137  10.7790484  31.4229525  21.1800432  11.6351451  31.5679094
  21.7533520  10.5034809  32.0911684  21.3238034  10.8647806  31.5431606
  22.8555136  -2.6029222  36.8089850  22.5408577  -1.9125744  37.2410272
  22.3382078  -2.6584440  36.1075350  22.7319607  -2.5094334  36.7686799
  22.1967570   7.3975279  32.9227260  21.6679041   7.6134912  33.5824566
  22.7192590   8.0911417  32.8428229  22.1956023   7.5318416  33.0082859
  14.0867178  11.2938495  31.7234728  13.5024393  11.7988527  32.1300592
  13.6837273  11.0680882  30.9831320  13.9406482  11.3346744  31.6739753
   9.6411206  17.0093257  38.5258400   9.1578785  17.7343746  38.5017983
  10.4534525  17.3069387  38.6368557   9.6901954  17.1595610  38.5385679
  15.7125360  15.8025437  41.1308214  15.1952302  15.4432852  40.5269522
  16.4099752  15.2787612  41.1414280  15.7390942  15.6723125  41.0438473
  19.3688952  16.2520251  47.0924387  19.4572298  16.0646392  47.9402597
  19.7978665  15.6057681  46.6929234  19.4451055  16.1283259  47.1596139
  16.9359412  15.5351411  46.0742049  16.3730247  15.1224021  46.5981711
  17.6980436  15.4604317  46.4935193  16.9653861  15.4628812  46.2135050
  18.5444392   7.5404147  30.2003649  18.7840396   7.7482131  29.3878992
  18.8660233   6.7361656  30.3092593  18.6281550   7.4518249  30.0964202
  12.4955404  17.5249432  38.6778679  13.1975983  17.0101422  38.7351436
  12.4152887  17.8523584  39.4825555  12.5879164  17.4963659  38.8051472
  27.1469581   5.6191984  42.0910726  26.3098002   5.6894171  42.3258320
  27.1157812   5.6216479  41.2185028  27.0187864   5.6302211  41.9970274
  13.5434310   7.7625019  47.8059095  13.7154814   7.6530914  48.6544376
  14.0803668   8.4079425  47.5690287  13.6479314   7.8417021  47.8964191
  11.8206179  13.7155784  38.1864287  12.6595078  13.9478717  38.2338049
  11.8517948  12.8460096  38.1171323  11.9487897  13.6212731  38.1828932
  12.4458882  14.1356660  42.4877593  12.9857107  13.9927791  43.1580965
  11.7628828  14.5353410  42.8561619  12.4251036  14.1736331  42.6412015
  21.8699767   9.8147660  37.6822617  22.6257282  10.2479175  37.7211526
  21.9762091   9.1652430  38.2557253  21.9969938   9.7825144  37.7720643
  19.4809012  15.6829270  49.7568171  20.2649428  15.7960118  50.1223913
  19.2805606  14.8570407  49.9526856  19.5675037  15.5775990  49.8402557
   7.8496027  10.3556950  42.6412015   7.5834442   9.5396067  42.8003005
   7.8634591  10.4010106  41.7707530   7.8120749  10.2413855  42.5365497
  24.8277421   0.6834765  40.6754448  25.4703329   0.7532870  41.2616364
  25.0800442   0.0163988  40.1733990  24.9599553   0.5961114  40.6881728
  11.7553774   5.1542035  29.2563773  11.0411951   4.8680214  29.6686205
  12.2397743   5.4938661  29.8970160  11.7213137   5.1623685  29.4119408
  19.6379405  17.5939372  43.4034626  18.8394651  17.3538872  43.6608495
  20.0865417  17.6453765  44.1501674  19.5854016  17.5661764  43.5519551
  28.0424284  10.3601857  37.3244658  28.7040718   9.7992526  37.2240566
  27.4015696   9.8653888  37.6497349  28.0453152  10.2038266  37.3576998
  18.9301092  13.6571989  29.6325581  19.3452240  13.3257013  28.9410077
  18.0993022  13.4240891  29.5045717  18.8689101  13.5743245  29.5116428
   8.2589441  11.1415730  39.9223759   8.0765014  11.1162616  39.0696051
   8.9939110  11.6114668  39.9612668   8.3403505  11.2077092  39.8021677
  24.3289115  11.3767240  37.0656646  24.5644704  11.5212439  36.2383497
  24.4778679  12.1409648  37.4588160  24.3854918  11.5106294  37.0020250
  11.3235192   7.8600733  46.4305867  12.0475165   7.8453763  46.9170762
  11.4251329   8.5696088  45.9327836  11.4453401   7.9625436  46.4284654
  26.1579572  10.2168906  34.9026250  26.4887789  10.7496546  34.2966345
  26.7312660  10.2707794  35.5588201  26.2913251  10.3038475  34.9104032
  18.6980142  11.3399817  51.2954814  17.9053123  11.6543329  51.4807434
  18.8129069  11.5551286  50.4575599  18.5975552  11.4183654  51.1993149
  21.3711461   8.0633808  35.5849830  21.4658315   8.8023103  36.0389456
  20.7470304   7.6351284  36.0184395  21.2920491   8.1095129  35.7157978
  19.6263935  11.2420021  46.2340111  20.2002796  10.6047265  46.3888675
  19.5478738  11.2424103  45.3649769  19.6997170  11.1485132  46.1286522
   8.2260351   8.0209231  40.0722825   8.8033854   7.8845681  40.7115071
   7.5274413   7.5645015  40.3268410   8.2081372   7.9331497  40.2045115
  21.6234482   9.9082548  28.8186782  21.5414645   9.9784735  29.6841769
  22.2614203  10.4712292  28.6270523  21.7054319  10.0021519  28.9176732
  14.9827653   9.6743286  38.2861309  14.7246898   8.8415021  38.2592608
  15.0376136   9.9000899  37.4453809  14.9527431   9.5841057  38.1581445
  20.0628703   1.7771737  38.3865401  19.3585030   1.2880922  38.5449320
  20.1113678   1.7894211  37.5153846  19.9658755   1.7061385  38.2804741
  13.9562365   7.2281049  38.7726203  13.3811957   7.3873217  39.4090164
  13.5798042   6.5916458  38.3094654  13.8165178   7.1578862  38.7980762
  17.6235654   5.7004398  43.6318582  17.2350087   5.2758616  42.9770773
  16.9590352   5.9486548  44.1395608  17.4682582   5.6743119  43.6106450
  27.2658923   5.4579403  36.4066412  27.0095488   4.6459344  36.2164295
  28.1088237   5.4656970  36.1796599  27.3524949   5.3391400  36.3451229
  21.4462016  -0.6020973  41.1442566  21.8272527  -1.2842802  41.5310440
  20.6425300  -0.8911371  40.9618230  21.3838477  -0.7453925  41.1746622
  18.7274592   9.9303003  31.8295389  19.5415231  10.2217895  31.7178160
  18.6633734   9.2762865  31.2553682  18.8377331   9.8768197  31.7284226
  24.9484082  12.6128999  46.2424964  24.7122720  11.7817063  46.1237025
  25.5927311  12.5614606  46.8279809  25.0078753  12.4826687  46.3110858
  14.5982501  13.4024520  36.9567701  15.2356448  13.1636268  37.5019494
  15.0237572  13.6061679  36.2220861  14.7558667  13.3975530  36.9284858
   9.2895143  15.6412856  40.8402005   9.3299288  15.9127708  40.0121784
   9.8489667  16.1654765  41.2559792   9.3778489  15.7588612  40.7793893
  15.2385316   8.6226810  31.2942590  15.6230468   8.4034516  32.0459135
  14.9896936   9.4489755  31.4243667  15.2587388   8.7124956  31.4243667
  25.9720503  12.3973447  42.3053259  25.6666320  13.1301504  42.6666574
  25.2526719  11.9911377  42.0246045  25.8207845  12.4455180  42.3166396
  16.9803973  13.8796943  38.6361487  17.0542981  13.7172114  39.4903337
  17.7973479  14.0687132  38.3921969  17.1120331  13.8833685  38.7259513
  31.6722295   9.0366448  41.6321603  31.6046796   9.0562407  40.7624190
  31.6577958   9.8796775  41.8577274  31.6601052   9.1640183  41.5374080
  10.7409729  14.2254805  35.6655931   9.9147847  14.4716543  35.5390209
  10.8021720  14.1466886  36.5317989  10.6283896  14.2499754  35.7744875
  22.0818642   0.4401606  44.9562693  22.8272234   0.2511416  44.5426118
  21.6655946   0.9659844  44.3976549  22.1303616   0.4903751  44.8127266
  15.5208558  16.8431686  33.3674960  15.8106857  16.4520667  32.6434187
  16.2512039  17.0248391  33.8080236  15.6715442  16.8125499  33.3257767
  29.4580913   7.8110834  39.9068198  30.0088834   7.1778903  40.1465290
  29.4425028   8.3426227  40.5983702  29.5366109   7.7959782  40.0447056
  16.1103303  11.6449432  44.4528091  15.6114997  12.3565199  44.5312979
  16.9203528  11.9650098  44.4146253  16.1559410  11.7976280  44.4584660
  13.4614474  18.8199068  36.4335110  13.2414769  18.5296423  37.2261777
  13.2408996  18.1614023  35.9053023  13.3962068  18.6798776  36.4724019
  12.3731421  10.9072385  38.6990812  12.0844670  10.2809856  39.2336539
  13.2414769  10.8492672  38.7655492  12.4591673  10.8059929  38.7881766
  23.1609319   6.0507168  39.0172794  22.8174085   5.3297503  39.3680043
  23.2602361   5.8421019  38.1751152  23.1251362   5.9131371  38.9444474
  15.6282430  20.1928458  35.2165803  16.2806488  19.6604900  35.4456829
  14.9308038  19.8397110  35.6033677  15.6213148  20.0617981  35.3077970
  12.5763694  12.5467636  34.6233177  13.3309662  12.9280675  34.8368639
  11.9834307  12.9978779  35.0779873  12.6000408  12.6696463  34.7216055
  23.6222348  12.5132872  34.5596782  24.1880381  13.1726082  34.4755325
  22.9750251  12.8582570  35.0313184  23.6101104  12.6614813  34.6169538
  15.0370361   4.5030476  49.7490389  14.2270137   4.8088256  49.6380232
  15.5145048   5.2236058  49.8642973  14.9873840   4.6545077  49.7497460
  13.8961921  13.7176197  39.9973292  13.3742675  13.8576489  40.6825157
  14.2835941  12.9586861  40.1875410  13.8765622  13.6261721  40.1274369
  20.0928926  15.4571656  33.9833861  19.8515602  14.7239517  33.5760926
  20.2730259  16.0058513  33.3300194  20.0836550  15.4294047  33.8264084
  15.3228247  10.7480216  35.3954783  15.1271029  11.3554951  34.8015086
  15.5462592  10.0548160  34.9146457  15.3262888  10.7357742  35.2370864
  13.7206777   7.6334954  35.5135652  14.4429429   7.7976112  35.0539458
  13.2414769   8.3544619  35.4074991  13.7570507   7.7633184  35.4301266
  21.6800284   3.9698753  40.8932337  20.8411385   3.9960032  40.6570600
  21.7504652   4.6169488  41.4737683  21.5668678   4.0694879  40.9441454
  11.3714393  10.0393026  44.6189792  11.8835490  10.3177280  43.9698551
  11.0850736  10.7782320  44.9852605  11.4049256  10.1895380  44.5779670
  20.1269562   0.8684130  35.6259953  20.8295915   0.6691878  35.1479911
  19.8613751   0.0960072  35.9328796  20.1916195   0.7247096  35.6005394
  25.5557808   9.1766740  38.1793578  25.4691783   9.3322166  39.0328357
  25.1008288   9.8204815  37.8052983  25.4761065   9.2942495  38.2500685
  14.8898119   2.1319415  44.6790833  14.6981316   2.1474549  45.5290257
  15.7396715   2.3283089  44.6557488  14.9873841   2.1633766  44.8014128
  19.4283624   6.4977487  36.8019138  19.1818338   6.4173238  37.6355927
  19.7568747   5.7130954  36.6081665  19.4404868   6.3703752  36.8966661
  23.3231673  13.2060846  40.5905919  23.1846032  13.9041892  41.0954662
  22.5431671  13.0509502  40.2342101  23.1874900  13.2861013  40.6132193
  21.6609758   9.5057221  46.8428301  21.6557797   8.6337038  46.8470727
  22.3670752   9.7045390  46.3697757  21.7654762   9.4061095  46.7735336
  15.3880651   9.2334205  46.2142121  15.5324027   9.8135413  45.5785231
  15.7356300   9.6110502  46.9191976  15.4608113   9.3754909  46.2241116
  17.5600569   8.4324374  43.9967253  16.8123883   8.6255388  43.5915531
  17.7142094   7.6069593  43.7591374  17.4722996   8.3389485  43.9012658
  14.4608406  17.4236977  43.0803148  14.6097970  16.8639893  42.4276552
  15.2408408  17.5028979  43.4635667  14.5982500  17.3522542  43.0400097
  16.9861707  17.5951620  44.3587639  16.9105378  16.9260430  44.9138427
  16.9151566  18.2969408  44.8728305  16.9642314  17.5996527  44.5164487
  17.8002346   2.3274924  44.8862656  18.2574960   3.0598899  45.0135449
  17.8758675   1.9041390  45.6449912  17.8793316   2.3732162  45.0163733
  17.6431954  16.1152619  35.1911245  18.4081845  15.8462262  34.8693909
  17.5410044  15.6302629  35.9081307  17.7413449  16.0042183  35.2491072
  15.6784724   4.3177028  41.7304480  14.8880798   4.1368488  42.0521816
  16.0745347   3.5403981  41.7134775  15.6201600   4.1764489  41.7757029
  20.1650614  13.1464803  27.1711194  20.9323600  13.2064927  26.7617046
  19.7181923  12.5745244  26.6867512  20.2124042  13.0701378  27.0388904
  21.0628410  11.9519458  39.4563926  20.3873412  11.7204691  39.9577313
  21.0720786  11.3440641  38.8306031  20.9646915  11.8278384  39.4380078
  18.1922554   6.7937287  46.2127979  18.1281695   7.6547244  46.0848116
  18.3319742   6.4769281  45.4123531  18.2038024   6.8737454  46.0756192
  23.0645145  14.8084591  31.6874104  23.1464982  15.6151577  31.3635555
  23.5494887  14.8280550  32.4114878  23.1482302  14.9305253  31.7461003
  16.8741648   9.4869427  40.3544182  16.4503897   9.6873926  39.6183201
  16.6986503   8.6398275  40.4668482  16.7852528   9.3918208  40.2617872
  16.3753341  21.0019940  42.8165639  16.8649272  20.3030729  42.6341304
  15.8037574  20.7043810  43.4041697  16.3637871  20.8546163  42.8766680
  12.1624093   9.9821478  35.7872155  12.3188712   9.9168281  36.6428147
  12.5024686  10.7570031  35.5750834  12.2357328  10.0870676  35.8826749
  18.7003237   9.3579362  34.6565518  19.2418783   8.8549743  35.1204138
  19.0149796   9.3044556  33.8455003  18.8267635   9.2758783  34.6049330
  22.5720345  13.5682009  51.7692430  23.3855210  13.2967158  51.9297563
  22.4115311  13.2689549  50.9652626  22.6690293  13.4836935  51.6737836
  16.8689687  14.7496713  31.9405546  16.9382507  13.8911252  32.0798546
  17.6478142  14.9668594  31.6124570  16.9942537  14.6549577  31.9122703
  19.8492507   4.2515666  44.7087818  20.0634476   3.6126580  44.1551172
  19.2326406   4.6961490  44.2795680  19.7897836   4.2225810  44.5638249
  21.2597175  17.1734415  36.1542039  20.8676966  16.8701130  35.4364905
  21.4150247  18.0103504  35.9646993  21.2250765  17.2518251  36.0198536
   8.7358354   7.1656429  36.1032922   9.1157319   7.5840974  35.4393189
   8.1613719   7.7469884  36.4101765   8.7069679   7.3134287  36.0509663
  22.0131595   5.8604731  45.6471125  21.2008277   5.5530622  45.7284298
  22.4721529   5.3803732  46.2113838  21.9611980   5.7441224  45.7425720
  21.4236849  13.7384403  36.0948070  21.0651504  13.9099046  36.8712102
  20.9375560  14.1997609  35.5376068  21.2995546  13.8323374  36.1273339
  16.2125215   9.4183569  28.6348304  16.5017740  10.1948451  28.9091878
  16.2997014   8.9072300  29.3362803  16.2679471   9.4575487  28.7790802
  19.1085102   7.2664803  50.4299828  19.5784734   7.8906919  50.8167702
  19.1546983   6.5981778  50.9893042  19.1852978   7.2599483  50.5699899
  22.5841589  14.6288299  47.0415271  23.2221309  14.1348495  46.7077727
  21.9415680  14.5565700  46.4567498  22.5835815  14.5447308  46.9057626
  24.3098589   6.4777445  41.6081186  23.8826197   6.3903794  40.8529286
  23.6724642   6.5855221  42.1936030  24.1528196   6.4810105  41.5826628
  17.8019666   1.5852971  47.5478156  18.6293095   1.3138119  47.6036770
  17.8227512   2.3813812  47.9041974  17.9272516   1.6632725  47.6093339
  22.6395845  15.3208108  43.6820627  23.4288224  14.9697172  43.8022709
  22.8139443  16.1344496  43.4197261  22.7816127  15.3893965  43.6608495
  12.3789156   8.7316833  40.7348416  11.5377162   8.6320707  40.9427310
  12.5879164   9.5012314  41.0862737  12.2853848   8.8308877  40.8175731
   9.8564723   6.3536370  38.5633167   9.4621421   6.4279382  37.7883277
   9.3004840   6.7394317  39.1141529   9.7167535   6.4218145  38.5300827
  21.4929670  -0.6682336  38.2437046  21.6979263  -0.7360028  39.0894043
  21.1656094   0.1376486  38.1758223  21.4744918  -0.5596395  38.3596701
  16.1905821   6.6598233  39.9846014  15.8868958   6.1054221  40.5856421
  15.4885242   6.8390442  39.4974048  16.0422031   6.6043015  40.0015719
  15.2471918   3.9698752  34.5490716  15.5231652   3.2517665  34.1368283
  15.8470587   4.5683672  34.3411822  15.3765182   3.9519123  34.4571477
  14.2524172  13.8747953  44.6918112  14.1444527  13.8850015  45.5580170
  14.4619953  14.7002734  44.5023065  14.2674283  13.9989028  44.7922203
  24.7463357  -0.1150571  37.7239811  24.1337671   0.3719831  38.1093543
  24.8427532  -0.7907081  38.2677462  24.6701255  -0.1432263  37.8618669
  12.2697964  11.1260596  42.1540049  11.6785897  11.7670094  42.1243064
  13.0318987  11.5498213  42.1271349  12.2946224  11.2836434  42.1455196
  14.3141936   2.9529288  47.3880094  13.9227501   2.3062635  47.8235872
  14.4827799   3.5440724  48.0074349  14.2812847   2.9443556  47.5442800
  22.0287480  16.5769907  39.5872074  21.8307169  17.0660722  38.8928285
  21.4075191  16.7811149  40.1656207  21.9075044  16.6786445  39.5695297
  16.0895458   8.3454804  33.9282318  16.8337503   8.7329080  34.1665268
  16.2356154   7.5012229  34.0922806  16.2206043   8.2785277  33.9876288
  19.0773334   3.9180277  39.8276237  18.6033288   3.3922039  40.3381548
  19.4491470   3.3709750  39.2591099  19.0623223   3.7596274  39.8191384
  25.3410065   8.9782653  41.2383018  25.1008288   8.1389068  41.2425444
  25.8202072   9.0582820  41.9623791  25.3762248   8.8664053  41.3457820
  21.0056834   4.8116832  32.8901991  20.4779852   4.8945576  32.2007700
  21.4652542   5.5534703  32.8866636  20.9958684   4.9337494  32.7876686
  27.3415252   5.7584110  39.1912277  27.1025022   5.7179944  38.3533061
  27.5049153   6.6055262  39.3177998  27.3305555   5.8776195  39.0865759
  23.9461282  10.1434059  45.1217322  24.6695481   9.6906586  44.9428342
  23.6811244  10.4238725  44.3389650  24.0142555  10.1185028  44.9796037
  12.8148150   4.7394233  41.8570201  12.1901220   4.7512625  41.2496154
  12.4793745   5.2154408  42.5061441  12.6733642   4.8112750  41.8626770
   9.5273826  12.7994693  43.2973965   8.9973750  12.1087132  43.3468940
   9.7998919  12.7904878  42.4686674   9.4898548  12.6961825  43.1821381
  20.5593916  13.3820395  32.0211648  21.2828115  13.8478508  31.8776221
  20.1194507  13.4494005  31.2709245  20.6009609  13.4604232  31.8896429
  19.7280071  10.2417938  43.2712337  19.1137065   9.6975988  43.5660972
  20.2447356   9.7282174  42.7918153  19.7135734  10.0854347  43.2436565
  18.9676369  11.3122208  41.0056636  18.5403977  10.6871926  40.5722071
  18.9601313  11.0297130  41.8315643  18.9035510  11.1774988  41.0636463
  12.0838896   6.3487381  44.0745070  12.2432382   5.5930705  44.4796792
  11.9031789   6.8978320  44.7285807  12.0804255   6.3181195  44.2307776
  20.0259199  -1.4851384  44.6295859  19.5299760  -1.2887709  43.9387426
  20.7828261  -1.0858715  44.4584661  20.0646023  -1.3973650  44.5015996
  17.2962078   2.1890962  41.2199170  17.3204565   1.6551075  40.5311950
  17.5473552   1.6808271  41.8824760  17.3371997   2.0351866  41.2163814
   4.8069668   9.4722457  40.6542314   4.7013117   9.4269302  39.7894398
   4.0569888   9.8176238  40.9356599   4.6805271   9.5163365  40.5679643
  15.7593013  10.4822521  48.7025209  14.9088644  10.6194235  48.8382853
  15.9221141   9.7486299  49.1472910  15.6576877  10.3936622  48.7880808
  14.9977764   7.4322290  42.8978813  14.1669694   7.5996108  42.6914061
  14.9429281   7.0558241  43.6827698  14.8667179   7.4012022  42.9827341
  13.3713808   5.7077882  33.4268931  13.5116769   6.2050346  34.1297572
  13.8696341   5.0064176  33.5683144  13.4654889   5.6779861  33.5520510
  13.4014030   6.5744993  30.7561508  14.0359110   7.1705418  30.6910969
  13.4839641   6.2748451  31.5707378  13.5070581   6.6185901  30.8664594
  14.9793013   2.5058968  30.7306950  15.3008854   2.0262051  30.0766212
  15.2419957   3.3158614  30.5397761  15.0659038   2.5548866  30.6062442
  18.2089986  13.5277843  44.2505766  17.7015077  14.0813690  44.6946396
  17.9116632  13.5886133  43.4324540  18.0894871  13.6184154  44.1954222
  20.3752168   1.8931162  43.0930429  20.8007239   1.4403689  42.4813955
  19.7609161   1.3391233  43.3695216  20.3480813   1.7445139  43.0435454
   9.9067018   8.7712834  34.0251054  10.4159247   9.3677341  34.4062359
  10.3801290   8.5038807  33.3427473  10.0510394   8.8198649  33.9805576
  20.8197766  17.4441100  32.1809709  20.1027076  17.2701963  31.7156946
  21.4704504  17.2093673  31.6485195  20.8099617  17.3836893  32.0338927
  23.4045737   6.3205689  35.9251014  22.7336927   6.8635391  35.7964080
  24.0985488   6.7900544  35.6832709  23.4074605   6.4703960  35.8706542
  17.4532471  18.4602401  41.1562773  17.2298125  17.7021230  41.5246799
  16.9642314  18.4900422  40.4343212  17.3475920  18.3524625  41.1039513
  23.5673865   2.7761573  38.8341387  23.9201475   2.3491295  39.5087186
  22.7088666   2.6912416  38.9642464  23.4923309   2.7006313  38.9536398
  12.2657550   5.4069092  36.8924234  11.5469539   5.8233225  37.1597098
  12.6369912   5.9723331  36.3415872  12.2149481   5.5518374  36.8507041
  21.5657131   6.0396941  42.7826230  21.5455058   5.8580236  43.6361009
  21.6136331   6.9108960  42.7585813  21.5691772   6.1413479  42.9049524
  19.5103460  12.6284133  48.7074706  19.4699315  11.9833810  48.1219862
  20.3226779  12.5720751  49.0200118  19.6246614  12.5243100  48.6671655
  16.1010928  18.6802859  38.6099857  15.6871327  18.0176989  38.2203699
  16.7858302  18.8280718  38.0895551  16.1409300  18.6043517  38.4756354
  19.4676222  17.8392944  39.3623474  19.0692505  17.9495215  38.5944294
  18.8527442  18.0475011  39.9450034  19.3175111  17.8866512  39.3354773
  18.0404124   4.4467092  32.2297613  17.4468963   4.7684089  31.6782180
  18.0779402   3.6008188  32.0218720  17.9578513   4.3691420  32.1180385
  24.9997925  -2.1020016  39.7625700  24.4928789  -2.8090876  39.6946877
  25.7965359  -2.4326827  39.8926777  25.0425164  -2.2546864  39.7724695
  20.9161941   4.4046597  35.6599364  20.6875634   4.4279298  34.8177722
  21.1760017   3.5804064  35.7794374  20.9208129   4.2862677  35.5524561
  15.1981169   6.2581070  45.2624464  14.6860072   5.6502253  45.6209495
  15.0260665   6.9737662  45.7298440  15.0970806   6.2744369  45.3840688
  13.9706703   2.9423143  36.9553559  14.4464069   3.3040223  36.3203740
  13.4695303   3.5979611  37.2353702  13.9672062   3.0917332  36.9030300
  19.0750239   4.1805314  47.7026719  19.6321670   3.9519124  47.0705185
  18.7511304   4.9410980  47.4261932  19.1096650   4.2589151  47.5683217
  16.7933357   7.2672968  48.6678727  17.5444684   7.5824644  48.9818281
  16.9855933   7.0652139  47.8412648  16.9324771   7.2840349  48.5922122
  16.0133356   5.0864343  30.3226943  16.3932321   5.1043972  29.5378058
  15.2725952   5.5318332  30.2017791  15.9602194   5.1546117  30.1890511
  23.6418647   3.3946534  35.9102522  23.6412873   3.2395191  36.7686798
  23.4374827   4.2409521  35.8543908  23.6118425   3.4967155  36.0290461
  21.3659499   8.0744036  39.5638729  21.8613164   7.3567031  39.5242749
  20.5559275   7.7714833  39.4493216  21.3203392   7.9241682  39.5412455
  16.8118110  11.9241849  31.7135733  16.0029433  11.6008523  31.6669043
  17.3193019  11.2175071  31.6463982  16.7667777  11.7723165  31.6966028
   7.4408388   9.3514042  37.4383098   6.5753907   9.3399733  37.3265869
   7.5407204   9.1644265  38.2854237   7.3282555   9.3220103  37.5472042
  23.4311318  10.8247723  42.2515858  23.8566389  10.3022145  41.6986283
  23.0668238  11.4228561  41.7304481  23.4397920  10.8357950  42.0924867
  13.0665398  19.1211941  41.0113203  13.3811957  19.9348329  41.0190985
  13.4758811  18.7362159  41.6795362  13.1733496  19.1840643  41.1117295
  20.0189917  14.5381988  38.5817015  20.4901095  15.2522250  38.7507000
  20.3550096  13.9380738  39.1176885  20.1385032  14.5553452  38.6849391
  22.1066902  16.1483301  50.7609087  22.2163867  15.3591861  51.1165834
  22.4357798  16.0589237  49.9583425  22.1719308  16.0189154  50.6951478
  20.6563864  14.3299922  45.3444708  20.1084810  13.7057805  45.0764773
  21.1176892  14.5194194  44.6288787  20.6431073  14.2658972  45.1995139
  23.4657728   2.3985276  42.7295900  22.8820717   2.8994483  42.3173467
  23.7862022   1.8914832  42.0960223  23.4270903   2.3977111  42.5754407
  16.0052527   1.3125871  33.0054575  16.8268221   1.4824184  32.7636270
  15.5422178   1.4673132  32.2820872  16.0583689   1.3607604  32.8626219
  10.4078418  13.0685049  40.6591812  11.0123275  13.0280883  40.0305632
  10.2005730  13.9156201  40.6895867  10.4667315  13.1873052  40.5707928
  20.2222190  15.3350994  41.8754049  21.0420564  15.1913960  42.1370344
  19.9416267  15.9597193  42.4170487  20.3018933  15.4061346  41.9941988
   5.6429700  12.0519667  40.5290735   5.5453978  11.2415938  40.8380791
   6.4258570  12.0311460  40.1437003   5.7445836  11.9286757  40.5177598
  19.0526465  27.6492894  37.2502193  18.8176650  26.8160546  37.1434462
  19.1912106  27.9297559  36.4363394  19.0382128  27.5676397  37.1144548
  21.3516553  19.8178624  40.1486501  20.7321584  19.2271272  39.9796516
  21.2500416  20.4090060  39.5150824  21.2454228  19.8182707  40.0291491
  21.0785686  23.3630906  42.3930070  20.9544383  23.9493351  43.0279889
  21.7303970  22.8691102  42.6942345  21.1559335  23.3769710  42.5315999
  33.8287720  12.9156086  36.8089850  33.5141161  13.6059564  37.2410272
  33.3114661  12.8600868  36.1075350  33.7052190  13.0090974  36.7686799
  27.9091996  31.0536719  46.0742049  27.3462831  30.6409329  46.5981711
  28.6713019  30.9789625  46.4935193  27.9386444  30.9814120  46.2135050
  29.5176976  23.0589455  30.2003649  29.7572979  23.2667439  29.3878992
  29.8392817  22.2546964  30.3092593  29.6014134  22.9703557  30.0964202
  24.5166894  23.2810327  47.8059095  24.6887397  23.1716222  48.6544376
  25.0536251  23.9264733  47.5690287  24.6211898  23.3602329  47.8964191
  23.1824331  17.3953170  30.7441300  22.9999904  17.6125051  29.9182292
  24.0449944  17.5092183  30.7999914  23.2828920  17.4443068  30.6295787
  23.4191466  29.6541968  42.4877593  23.9589691  29.5113099  43.1580965
  22.7361412  30.0538718  42.8561619  23.3983619  29.6921638  42.6412015
  18.8228611  25.8742258  42.6412015  18.5567026  25.0581375  42.8003005
  18.8367175  25.9195414  41.7707530  18.7853333  25.7599163  42.5365497
  35.8010005  16.2020073  40.6754448  36.4435913  16.2718178  41.2616364
  36.0533025  15.5349296  40.1733990  35.9332137  16.1146422  40.6881728
  23.5727217  19.4120637  45.2879022  22.8799014  18.9417616  45.5339754
  24.1887544  19.1858941  45.8620729  23.5611747  19.3087768  45.4088175
  19.2322024  26.6601038  39.9223759  19.0497598  26.6347924  39.0696051
  19.9671693  27.1299976  39.9612668  19.3136088  26.7262400  39.8021677
  22.2967776  23.3786041  46.4305867  23.0207748  23.3639071  46.9170762
  22.3983913  24.0881396  45.9327836  22.4185985  23.4810744  46.4284654
  29.6712725  26.8585125  51.2954814  28.8785706  27.1728637  51.4807434
  29.7861653  27.0736594  50.4575599  29.5708136  26.9368962  51.1993149
  19.1992935  23.5394538  40.0722825  19.7766437  23.4030989  40.7115071
  18.5006996  23.0830323  40.3268410  19.1813956  23.4516805  40.2045115
  14.6751768  22.3906431  36.7870644  14.7612020  22.0138300  37.5684174
  15.3027565  22.0166877  36.3090602  14.7808319  22.2791914  36.8316121
  20.2627727  31.1598164  40.8402005  20.3031872  31.4313015  40.0121784
  20.8222251  31.6840072  41.2559792  20.3511072  31.2773919  40.7793893
  26.3786440  17.4218533  51.0105174  26.0639881  18.1918096  50.7474737
  26.0576372  16.8588789  50.4257401  26.2845359  17.4528802  50.8846524
  33.0551225  15.9586914  44.9562693  33.8004817  15.7696724  44.5426118
  32.6388530  16.4845152  44.3976549  33.1036200  16.0089059  44.8127266
  23.3464005  26.4257693  38.6990812  23.0577253  25.7995164  39.2336539
  24.2147353  26.3677980  38.7655492  23.4324257  26.3245237  38.7881766
  26.0102945  20.0215784  49.7490389  25.2002721  20.3273564  49.6380232
  26.4877632  20.7421366  49.8642973  25.9606424  20.1730385  49.7497460
  22.3446977  25.5578334  44.6189792  22.8568074  25.8362588  43.9698551
  22.0583320  26.2967628  44.9852605  22.3781840  25.7080688  44.5779670
  19.4313883  20.0648526  34.9153528  19.5330020  20.8674688  35.2434503
  20.2269770  19.8635862  34.6176609  19.5641789  20.1534425  34.9188883
  20.2477615  20.1795704  42.6574650  20.1063107  19.3279645  42.7819158
  20.5318179  20.2224365  41.8336856  20.2685461  20.0595454  42.5542274
  25.4340990  32.9422285  43.0803148  25.5830554  32.3825201  42.4276552
  26.2140992  33.0214287  43.4635667  25.5715084  32.8707850  43.0400097
  27.9594291  33.1136928  44.3587639  27.8837962  32.4445738  44.9138427
  27.8884150  33.8154716  44.8728305  27.9374897  33.1181835  44.5164487
  21.0167921  18.0926052  45.9752100  20.4810110  17.4806410  46.2912867
  21.0785685  18.6674188  46.6285767  20.9463553  18.0872980  46.1187527
  33.2462255  11.0250107  38.7556499  33.3645823  11.4826571  38.0223802
  33.0724431  10.2195369  38.4692717  33.2381426  10.9743880  38.6057433
  23.1356676  25.5006786  35.7872155  23.2921296  25.4353589  36.6428147
  23.4757270  26.2755339  35.5750834  23.2089911  25.6055984  35.8826749
  33.5452928  29.0867317  51.7692430  34.3587794  28.8152466  51.9297563
  33.3847895  28.7874857  50.9652626  33.6422877  29.0022243  51.6737836
  19.7090938  22.6841737  36.1032922  20.0889903  23.1026281  35.4393189
  19.1346303  23.2655192  36.4101765  19.6802263  22.8319595  36.0509663
  30.0817686  22.7850111  50.4299828  30.5517317  23.4092227  50.8167702
  30.1279566  22.1167086  50.9893042  30.1585562  22.7784791  50.5699899
  28.9738335  12.3167084  45.2751744  29.6031453  12.8527384  44.9972814
  29.1424197  12.2244443  46.1265310  29.0916129  12.3828446  45.3600272
  28.7752250  17.1038278  47.5478156  29.6025679  16.8323427  47.6036770
  28.7960096  17.8999120  47.9041974  28.9005100  17.1818033  47.6093339
  23.3521739  24.2502141  40.7348416  22.5109746  24.1506015  40.9427310
  23.5611747  25.0197622  41.0862737  23.2586432  24.3494185  40.8175731
  20.8297306  21.8721678  38.5633167  20.4354004  21.9464690  37.7883277
  20.2737423  22.2579625  39.1141529  20.6900119  21.9403453  38.5300827
  25.2256755  29.3933261  44.6918112  25.1177110  29.4035323  45.5580170
  25.4352537  30.2188042  44.5023065  25.2406866  29.5174336  44.7922203
  35.7195941  15.4034736  37.7239811  35.1070255  15.8905139  38.1093543
  35.8160116  14.7278227  38.2677462  35.6433839  15.3753045  37.8618669
  23.2430547  26.6445904  42.1540049  22.6518481  27.2855402  42.1243064
  24.0051571  27.0683521  42.1271349  23.2678808  26.8021742  42.1455196
  23.6391170  17.8047901  42.8208067  24.0992652  17.8786831  43.5583191
  23.6847277  18.6029155  42.4707888  23.7141725  17.9342048  42.8780823
  25.2874520  18.4714596  47.3880094  24.8960085  17.8247943  47.8235872
  25.4560383  19.0626031  48.0074349  25.2545430  18.4628864  47.5442800
  20.4278948  21.4337092  45.1959783  21.2904561  21.3332801  45.1097113
  20.0970731  20.8531801  44.6345355  20.5064144  21.3328719  45.1005189
  23.9722483  18.6004659  27.9142886  23.6235287  19.2524385  28.3774436
  23.4918928  18.5861773  27.1866757  23.8492727  18.6947713  27.8753977
  20.5006409  28.3180001  43.2973965  19.9706334  27.6272440  43.3468940
  20.7731503  28.3090186  42.4686674  20.4631132  28.2147133  43.1821381
  23.0571479  21.8672689  44.0745070  23.2164966  21.1116013  44.4796792
  22.8764373  22.4163628  44.7285807  23.0536838  21.8366503  44.2307776
  15.7802252  24.9907765  40.6542314  15.6745701  24.9454610  39.7894398
  15.0302472  25.3361546  40.9356599  15.6537855  25.0348673  40.5679643
  26.7325597  26.0007828  48.7025209  25.8821227  26.1379543  48.8382853
  26.8953725  25.2671607  49.1472910  26.6309460  25.9121930  48.7880808
  23.7794131  16.4416491  48.5335224  24.4046834  15.8978624  48.8064656
  23.3244611  15.9611409  47.9643014  23.8042391  16.2905973  48.4896818
  20.8799602  24.2898142  34.0251054  21.3891831  24.8862649  34.4062359
  21.3533874  24.0224115  33.3427473  21.0242977  24.3383957  33.9805576
  35.9730508  13.4165292  39.7625700  35.4661373  12.7094432  39.6946877
  36.7697942  13.0858481  39.8926777  36.0157748  13.2638444  39.7724695
  21.0179467  20.2203953  47.9126826  20.8482058  20.8805328  47.3675032
  20.5745417  20.4310514  48.6339315  20.9278801  20.3489935  47.9388455
  30.0482823  19.6990622  47.7026719  30.6054253  19.4704432  47.0705185
  29.7243888  20.4596288  47.4261932  30.0829233  19.7774459  47.5683217
  17.9181532  23.1250819  43.1715315  17.3708251  22.4551464  43.2896184
  18.7073910  22.7580666  43.2358783  17.9533716  22.9715805  43.1984016
  27.7665940  22.7858276  48.6678727  28.5177267  23.1009952  48.9818281
  27.9588517  22.5837446  47.8412648  27.9057354  22.8025657  48.5922122
  16.6768501  22.3371626  40.3261339  16.4990262  21.8848235  41.0516254
  16.3887524  23.1397788  40.5099816  16.6081455  22.3894184  40.4604841
  18.4140971  24.8699350  37.4383098  17.5486491  24.8585041  37.3265869
  18.5139787  24.6829573  38.2854237  18.3015138  24.8405411  37.5472042
  24.0397981  34.6397249  41.0113203  24.3544540  35.4533637  41.0190985
  24.4491394  34.2547467  41.6795362  24.1466079  34.7025951  41.1117295
  27.9091996  14.8294766  45.5375110  28.0419901  14.0325759  45.8656085
  28.2937148  15.3561169  46.1173386  27.9848325  14.7894683  45.6718613
  25.5680443  14.8253941  43.7853004  26.1124855  14.4845068  44.3757345
  25.6217378  15.6839403  43.9274288  25.6569562  14.9009200  43.8934877
  21.3811001  28.5870357  40.6591812  21.9855859  28.5466191  40.0305632
  21.1738314  29.4341509  40.6895867  21.4399899  28.7058360  40.5707928
  16.6162284  27.5704975  40.5290735  16.5186562  26.7601246  40.8380791
  17.3991153  27.5496768  40.1437003  16.7178420  27.4472065  40.5177598
  55.1494409  59.3848639  49.2010312  55.8561176  58.8900669  49.3297246
  55.3382344  59.8257720  48.4712970  55.2822314  59.3766989  49.1119357
  51.2171083  65.0264469  36.7283746  51.6010462  65.5951368  36.1888521
  51.1530224  64.3013979  36.2489562  51.2644510  65.0039932  36.5777609
  47.6427328  67.5820812  39.0264716  48.2864783  68.0233976  39.4160874
  47.9683583  66.7774238  38.9394975  47.7859156  67.5286007  39.0710193
  50.5895285  60.4218145  41.3224474  50.8718528  59.6269550  41.1011230
  51.3181446  60.8998732  41.3429535  50.7384849  60.3752742  41.2927489
  60.5713374  59.5277507  38.2960305  59.7411077  59.7388151  38.4593721
  60.5222626  58.7014561  38.0202588  60.4420109  59.4367113  38.2797670
  42.5608957  63.5649180  38.5258400  42.0776535  64.2899670  38.5017983
  43.3732275  63.8625310  38.6368557  42.6099705  63.7151534  38.5385679
  48.6323111  62.3581361  41.1308214  48.1150053  61.9988776  40.5269522
  49.3297502  61.8343535  41.1414280  48.6588692  62.2279049  41.0438473
  52.2886703  62.8076175  47.0924387  52.3770049  62.6202316  47.9402597
  52.7176416  62.1613605  46.6929234  52.3648805  62.6839183  47.1596139
  49.8557163  62.0907335  46.0742049  49.2927998  61.6779945  46.5981711
  50.6178186  62.0160241  46.4935193  49.8851611  62.0184736  46.2135050
  45.4153154  64.0805356  38.6778679  46.1173734  63.5657345  38.7351436
  45.3350637  64.4079508  39.4825555  45.5076915  64.0519582  38.8051472
  45.3656633  60.6912583  42.4877593  45.9054858  60.5483714  43.1580965
  44.6826579  61.0909334  42.8561619  45.3448787  60.7292254  42.6412015
  57.8277689  60.1976861  38.4325020  57.3912921  60.2013604  39.1883992
  57.4940604  60.8782360  38.0004598  57.7140309  60.2989317  38.4805853
  52.4006762  62.2385194  49.7568171  53.1847179  62.3516042  50.1223913
  52.2003357  61.4126331  49.9526856  52.4872788  62.1331914  49.8402557
  52.5577156  64.1495296  43.4034626  51.7592401  63.9094796  43.6608495
  53.0063167  64.2009689  44.1501674  52.5051767  64.1217687  43.5519551
  59.0777322  56.7724830  34.9026250  59.4085540  57.3052470  34.2966345
  59.6510411  56.8263717  35.5588201  59.2111002  56.8594398  34.9104032
  51.6177893  57.8955741  51.2954814  50.8250873  58.2099253  51.4807434
  51.7326820  58.1107210  50.4575599  51.5173303  57.9739578  51.1993149
  52.5461685  57.7975945  46.2340111  53.1200547  57.1603189  46.3888675
  52.4676489  57.7980027  45.3649769  52.6194920  57.7041056  46.1286522
  57.8681833  59.1684922  46.2424964  57.6320471  58.3372987  46.1237025
  58.5125062  59.1170530  46.8279809  57.9276504  59.0382610  46.3110858
  42.2092894  62.1968780  40.8402005  42.2497039  62.4683631  40.0121784
  42.7687418  62.7210688  41.2559792  42.2976240  62.3144535  40.7793893
  58.8918254  58.9529371  42.3053259  58.5864071  59.6857428  42.6666574
  58.1724470  58.5467301  42.0246045  58.7405596  59.0011104  42.3166396
  64.5920046  55.5922372  41.6321603  64.5244546  55.6118331  40.7624190
  64.5775708  56.4352699  41.8577274  64.5798802  55.7196107  41.5374080
  48.4406309  63.3987609  33.3674960  48.7304607  63.0076591  32.6434187
  49.1709790  63.5804314  33.8080236  48.5913193  63.3681423  33.3257767
  46.3812225  65.3754992  36.4335110  46.1612520  65.0852347  37.2261777
  46.1606747  64.7169947  35.9053023  46.3159819  65.2354700  36.4724019
  48.5480180  66.7484382  35.2165803  49.2004238  66.2160824  35.4456829
  47.8505789  66.3953034  35.6033677  48.5410898  66.6173905  35.3077970
  56.5420099  59.0688796  34.5596782  57.1078131  59.7282006  34.4755325
  55.8948002  59.4138494  35.0313184  56.5298855  59.2170737  34.6169538
  53.0126677  62.0127580  33.9833861  52.7713353  61.2795441  33.5760926
  53.1928010  62.5614437  33.3300194  53.0034301  61.9849971  33.8264084
  56.2429424  59.7616770  40.5905919  56.1043783  60.4597816  41.0954662
  55.4629422  59.6065426  40.2342101  56.1072651  59.8416936  40.6132193
  54.5807509  56.0613145  46.8428301  54.5755547  55.1892962  46.8470727
  55.2868503  56.2601314  46.3697757  54.6852513  55.9617019  46.7735336
  47.3806157  63.9792901  43.0803148  47.5295721  63.4195817  42.4276552
  48.1606159  64.0584902  43.4635667  47.5180251  63.9078466  43.0400097
  57.7382797  59.1195023  31.3522418  57.3589605  58.3332161  31.3451708
  57.0749042  59.6681881  31.2094063  57.5841271  59.0839847  31.3303215
  49.9059458  64.1507544  44.3587639  49.8303129  63.4816354  44.9138427
  49.8349317  64.8525332  44.8728305  49.8840065  64.1552451  44.5164487
  50.5629705  62.6708543  35.1911245  51.3279596  62.4018186  34.8693909
  50.4607795  62.1858553  35.9081307  50.6611200  62.5598107  35.2491072
  55.9842895  61.3640515  31.6874104  56.0662733  62.1707501  31.3635555
  56.4692637  61.3836474  32.4114878  56.0680053  61.4861177  31.7461003
  49.2951092  67.5575863  42.8165639  49.7847022  66.8586653  42.6341304
  48.7235324  67.2599733  43.4041697  49.2835622  67.4102087  42.8766680
  55.4918096  60.1237933  51.7692430  56.3052961  59.8523082  51.9297563
  55.3313062  59.8245473  50.9652626  55.5888044  60.0392859  51.6737836
  54.1794925  63.7290338  36.1542039  53.7874717  63.4257053  35.4364905
  54.3347998  64.5659428  35.9646993  54.1448515  63.8074175  36.0198536
  54.3434600  60.2940327  36.0948070  53.9849255  60.4654970  36.8712102
  53.8573311  60.7553533  35.5376068  54.2193297  60.3879298  36.1273339
  55.5039340  61.1844223  47.0415271  56.1419060  60.6904419  46.7077727
  54.8613431  61.1121624  46.4567498  55.5033566  61.1003232  46.9057626
  55.5593596  61.8764031  43.6820627  56.3485974  61.5253096  43.8022709
  55.7337194  62.6900420  43.4197261  55.7013878  61.9449888  43.6608495
  47.1721922  60.4303877  44.6918112  47.0642277  60.4405939  45.5580170
  47.3817704  61.2558657  44.5023065  47.1872034  60.5544952  44.7922203
  54.9485231  63.1325831  39.5872074  54.7504919  63.6216645  38.8928285
  54.3272942  63.3367072  40.1656207  54.8272795  63.2342369  39.5695297
  56.8659033  56.6989983  45.1217322  57.5893232  56.2462510  44.9428342
  56.6008995  56.9794649  44.3389650  56.9340306  56.6740952  44.9796037
  53.4791667  59.9376319  32.0211648  54.2025866  60.4034432  31.8776221
  53.0392258  60.0049929  31.2709245  53.5207359  60.0160156  31.8896429
  37.7267419  56.0278381  40.6542314  37.6210868  55.9825225  39.7894398
  36.9767639  56.3732162  40.9356599  37.6003022  56.0719289  40.5679643
  51.1287736  60.0833766  44.2505766  50.6212828  60.6369613  44.6946396
  50.8314383  60.1442056  43.4324540  51.0092621  60.1740078  44.1954222
  53.7395517  63.9997024  32.1809709  53.0224826  63.8257886  31.7156946
  54.3902254  63.7649596  31.6485195  53.7297367  63.9392817  32.0338927
  50.3730222  65.0158325  41.1562773  50.1495876  64.2577154  41.5246799
  49.8840065  65.0456346  40.4343212  50.2673671  64.9080549  41.1039513
  52.4301211  59.1840057  48.7074706  52.3897066  58.5389734  48.1219862
  53.2424529  59.1276674  49.0200118  52.5444365  59.0799024  48.6671655
  49.0208679  65.2358783  38.6099857  48.6069077  64.5732913  38.2203699
  49.7056053  65.3836642  38.0895551  49.0607050  65.1599441  38.4756354
  52.3873973  64.3948868  39.3623474  51.9890256  64.5051138  38.5944294
  51.7725192  64.6030934  39.9450034  52.2372862  64.4422436  39.3354773
  60.1215815  58.9700835  32.7466564  60.5049421  59.7192191  32.9764661
  59.3259929  59.2166654  32.4878553  60.0609598  59.1170529  32.7424138
  45.9863148  65.6767865  41.0113203  46.3009707  66.4904253  41.0190985
  46.3956562  65.2918083  41.6795362  46.0931246  65.7396567  41.1117295
  52.9387668  61.0937911  38.5817015  53.4098846  61.8078174  38.7507000
  53.2747846  60.4936661  39.1176885  53.0582783  61.1109376  38.6849391
  55.0264653  62.7039225  50.7609087  55.1361618  61.9147785  51.1165834
  55.3555549  62.6145161  49.9583425  55.0917058  62.5745078  50.6951478
  53.5761614  60.8855845  45.3444708  53.0282560  60.2613729  45.0764773
  54.0374643  61.0750117  44.6288787  53.5628824  60.8214896  45.1995139
  53.1419941  61.8906918  41.8754049  53.9618314  61.7469884  42.1370344
  52.8614018  62.5153117  42.4170487  53.2216684  61.9617270  41.9941988
  38.5627451  58.6075591  40.5290735  38.4651729  57.7971862  40.8380791
  39.3456320  58.5867384  40.1437003  38.6643587  58.4842681  40.5177598
  69.6133591  69.5471770  34.8396925  69.5827595  70.4016407  35.0115195
  70.2114940  69.2467062  35.3983069  69.6970749  69.6288266  34.9471728
  62.8133276  68.6347421  39.5949856  61.9571171  68.7955919  39.6458973
  62.8600930  67.7639485  39.6154917  62.6932387  68.5298223  39.6055922
  57.1974416  78.1710139  35.3587087  56.4457315  77.7925677  35.1303132
  57.6460427  78.2028572  34.6105898  57.1524082  78.1195746  35.2144589
  66.1226992  74.9033947  49.2010312  66.8293760  74.4085977  49.3297246
  66.3114928  75.3443028  48.4712970  66.2554898  74.8952297  49.1119357
  65.6585097  70.6939465  42.2381507  66.2041057  71.3724551  42.2975477
  65.6001973  70.5526926  41.3783089  65.7301011  70.7731466  42.1193568
  58.7759172  78.1828531  37.6249860  58.8769535  77.3728885  37.9346988
  58.1800917  78.0885477  36.9949538  58.7031710  78.0493559  37.5776098
  67.4350165  72.1224072  33.1115235  67.3189691  72.8731758  33.5407373
  68.2306052  71.8648025  33.3611322  67.5354755  72.1958919  33.2119327
  51.9724216  74.2048817  37.2502193  51.7374400  73.3716470  37.1434462
  52.1109857  74.4853483  36.4363394  51.9579878  74.1232321  37.1144548
  54.2714303  66.3734548  40.1486501  53.6519335  65.7827195  39.9796516
  54.1698167  66.9645983  39.5150824  54.1651979  66.3738631  40.0291491
  59.3180491  76.1118095  34.3984578  59.6396332  76.6523302  33.7945886
  59.9652588  75.5414866  34.5306867  59.4606546  76.1077270  34.3291613
  61.3682199  68.1134090  34.4818964  62.0662364  68.2922217  34.9740428
  61.6834532  67.5904429  33.8589354  61.5177536  68.0627862  34.4620974
  53.9983436  69.9186830  42.3930070  53.8742133  70.5049275  43.0279889
  54.6501721  69.4247025  42.6942345  54.0757086  69.9325634  42.5315999
  61.5570134  74.5004535  34.4698756  61.9963770  73.8921635  34.9153529
  61.4074797  74.1211908  33.6984221  61.5991600  74.3543006  34.4217923
  59.0241777  73.0948547  41.6717581  59.6690780  72.6020990  41.3528530
  59.2643554  73.2373333  42.4983660  59.1552363  73.0425989  41.7467114
  61.5627869  75.9403453  41.3224474  61.8451112  75.1454858  41.1011230
  62.2914029  76.4184040  41.3429535  61.7117433  75.8938049  41.2927489
  59.5409063  63.4826487  38.5640239  59.2112393  63.9337630  37.8943938
  58.8654064  63.4042650  39.1113245  59.3919499  63.5377622  38.5463462
  65.1579471  72.8531716  31.4229525  65.0730766  73.7092683  31.5679094
  65.6463854  72.5776040  32.0911684  65.2168368  72.9389038  31.5431606
  66.7485470  59.4712009  36.8089850  66.4338911  60.1615488  37.2410272
  66.2312412  59.4156792  36.1075350  66.6249941  59.5646898  36.7686799
  66.0897904  69.4716510  32.9227260  65.5609376  69.6876144  33.5824566
  66.6122924  70.1652649  32.8428229  66.0886357  69.6059647  33.0082859
  57.9797512  73.3679727  31.7234728  57.3954727  73.8729759  32.1300592
  57.5767607  73.1422114  30.9831320  57.8336816  73.4087975  31.6739753
  53.5341541  79.0834488  38.5258400  53.0509119  79.8084978  38.5017983
  54.3464859  79.3810618  38.6368557  53.5832288  79.2336842  38.5385679
  59.6055695  77.8766669  41.1308214  59.0882636  77.5174084  40.5269522
  60.3030086  77.3528843  41.1414280  59.6321276  77.7464357  41.0438473
  60.8289746  77.6092643  46.0742049  60.2660581  77.1965253  46.5981711
  61.5910770  77.5345549  46.4935193  60.8584195  77.5370044  46.2135050
  62.4374726  69.6145379  30.2003649  62.6770730  69.8223363  29.3878992
  62.7590567  68.8102888  30.3092593  62.5211884  69.5259480  30.0964202
  57.7465017  61.5438775  34.0463187  58.5010985  61.9117092  33.8080237
  57.5692551  61.9178329  34.8142366  57.8319495  61.6536963  34.1248075
  56.3885738  79.5990664  38.6778679  57.0906317  79.0842653  38.7351436
  56.3083221  79.9264816  39.4825555  56.4809498  79.5704890  38.8051472
  71.0399915  67.6933215  42.0910726  70.2028336  67.7635403  42.3258320
  71.0088146  67.6957710  41.2185028  70.9118198  67.7043442  41.9970274
  57.4364644  69.8366251  47.8059095  57.6085148  69.7272146  48.6544376
  57.9734002  70.4820657  47.5690287  57.5409648  69.9158253  47.8964191
  56.1022081  63.9509094  30.7441300  55.9197655  64.1680975  29.9182292
  56.9647694  64.0648107  30.7999914  56.2026671  63.9998992  30.6295787
  55.7136513  75.7897016  38.1864287  56.5525413  76.0219949  38.2338049
  55.7448282  74.9201328  38.1171323  55.8418231  75.6953963  38.1828932
  56.3389216  76.2097891  42.4877593  56.8787441  76.0669022  43.1580965
  55.6559163  76.6094642  42.8561619  56.3181370  76.2477562  42.6412015
  61.7821801  60.9535505  33.7790323  62.5107961  60.7751460  33.3328480
  61.8716693  61.7953584  33.9897502  61.9028463  61.0519383  33.7443841
  65.7630101  71.8888892  37.6822617  66.5187616  72.3220406  37.7211526
  65.8692426  71.2393662  38.2557253  65.8900272  71.8566376  37.7720643
  51.7426361  72.4298182  42.6412015  51.4764777  71.6137299  42.8003005
  51.7564926  72.4751338  41.7707530  51.7051084  72.3155087  42.5365497
  68.7207755  62.7575997  40.6754448  69.3633664  62.8274102  41.2616364
  68.9730776  62.0905220  40.1733990  68.8529887  62.6702346  40.6881728
  55.6484108  67.2283267  29.2563773  54.9342286  66.9421446  29.6686205
  56.1328077  67.5679892  29.8970160  55.6143472  67.2364916  29.4119408
  56.4924968  65.9676560  45.2879022  55.7996765  65.4973540  45.5339754
  57.1085295  65.7414865  45.8620729  56.4809498  65.8643692  45.4088175
  62.8231426  75.7313221  29.6325581  63.2382575  75.3998244  28.9410077
  61.9923356  75.4982123  29.5045717  62.7619435  75.6484476  29.5116428
  52.1519775  73.2156962  39.9223759  51.9695348  73.1903848  39.0696051
  52.8869444  73.6855899  39.9612668  52.2333839  73.2818324  39.8021677
  68.2219449  73.4508472  37.0656646  68.4575038  73.5953670  36.2383497
  68.3709013  74.2150880  37.4588160  68.2785253  73.5847526  37.0020250
  55.2165527  69.9341964  46.4305867  55.9405499  69.9194995  46.9170762
  55.3181663  70.6437320  45.9327836  55.3383736  70.0366668  46.4284654
  70.0509906  72.2910137  34.9026250  70.3818123  72.8237778  34.2966345
  70.6242994  72.3449025  35.5588201  70.1843585  72.3779706  34.9104032
  62.5910476  73.4141049  51.2954814  61.7983457  73.7284561  51.4807434
  62.7059403  73.6292517  50.4575599  62.4905887  73.4924886  51.1993149
  65.2641795  70.1375040  35.5849830  65.3588650  70.8764334  36.0389456
  64.6400639  69.7092516  36.0184395  65.1850825  70.1836361  35.7157978
  63.5194269  73.3161253  46.2340111  64.0933131  72.6788497  46.3888675
  63.4409073  73.3165335  45.3649769  63.5927504  73.2226364  46.1286522
  52.1190685  70.0950462  40.0722825  52.6964188  69.9586913  40.7115071
  51.4204747  69.6386246  40.3268410  52.1011707  70.0072728  40.2045115
  65.5164816  71.9823780  28.8186782  65.4344979  72.0525967  29.6841769
  66.1544537  72.5453524  28.6270523  65.5984654  72.0762751  28.9176732
  58.8757988  71.7484518  38.2861309  58.6177232  70.9156253  38.2592608
  58.9306470  71.9742131  37.4453809  58.8457765  71.6582289  38.1581445
  63.9559038  63.8512969  38.3865401  63.2515364  63.3622154  38.5449320
  64.0044012  63.8635443  37.5153846  63.8589089  63.7802617  38.2804741
  57.8492700  69.3022280  38.7726203  57.2742291  69.4614449  39.4090164
  57.4728376  68.6657689  38.3094654  57.7095512  69.2320093  38.7980762
  61.5165988  67.7745630  43.6318582  61.1280421  67.3499847  42.9770773
  60.8520687  68.0227779  44.1395608  61.3612916  67.7484351  43.6106450
  71.1589258  67.5320634  36.4066412  70.9025822  66.7200576  36.2164295
  72.0018571  67.5398201  36.1796599  71.2455283  67.4132632  36.3451229
  47.5949519  68.9462355  36.7870644  47.6809770  68.5694223  37.5684174
  48.2225316  68.5722801  36.3090602  47.7006070  68.8347837  36.8316121
  65.3392350  61.4720258  41.1442566  65.7202862  60.7898429  41.5310440
  64.5355634  61.1829860  40.9618230  65.2768812  61.3287307  41.1746622
  62.6204927  72.0044234  31.8295389  63.4345565  72.2959127  31.7178160
  62.5564068  71.3504097  31.2553682  62.7307666  71.9509429  31.7284226
  58.4912835  75.4765752  36.9567701  59.1286782  75.2377499  37.5019494
  58.9167906  75.6802911  36.2220861  58.6489001  75.4716762  36.9284858
  53.1825477  77.7154088  40.8402005  53.2229623  77.9868939  40.0121784
  53.7420001  78.2395996  41.2559792  53.2708823  77.8329843  40.7793893
  59.1315650  70.6968041  31.2942590  59.5160803  70.4775748  32.0459135
  58.8827270  71.5230987  31.4243667  59.1517723  70.7866188  31.4243667
  59.2984190  63.9774457  51.0105174  58.9837631  64.7474019  50.7474737
  58.9774123  63.4144713  50.4257401  59.2043109  64.0084725  50.8846524
  60.8734307  75.9538174  38.6361487  60.9473315  75.7913346  39.4903337
  61.6903813  76.1428364  38.3921969  61.0050665  75.9574917  38.7259513
  54.6340064  76.2996037  35.6655931  53.8078181  76.5457774  35.5390209
  54.6952055  76.2208118  36.5317989  54.5214231  76.3240986  35.7744875
  56.8516087  62.3664978  36.6251371  55.9838513  62.4387578  36.6908980
  57.1391292  63.1687057  36.8139346  56.7655835  62.4959125  36.6626137
  65.9748976  62.5142838  44.9562693  66.7202568  62.3252648  44.5426118
  65.5586281  63.0401075  44.3976549  66.0233950  62.5644983  44.8127266
  59.4138893  78.9172917  33.3674960  59.7037191  78.5261899  32.6434187
  60.1442373  79.0989622  33.8080236  59.5645777  78.8866731  33.3257767
  73.3511247  69.8852066  39.9068198  73.9019168  69.2520135  40.1465290
  73.3355362  70.4167459  40.5983702  73.4296443  69.8701014  40.0447056
  60.0033638  73.7190663  44.4528091  59.5045331  74.4306431  44.5312979
  60.8133862  74.0391330  44.4146253  60.0489744  73.8717512  44.4584660
  57.3544808  80.8940300  36.4335110  57.1345104  80.6037654  37.2261777
  57.1339330  80.2355255  35.9053023  57.2892402  80.7540008  36.4724019
  56.2661755  72.9813616  38.6990812  55.9775004  72.3551088  39.2336539
  57.1345103  72.9233904  38.7655492  56.3522007  72.8801161  38.7881766
  67.0539653  68.1248400  39.0172794  66.7104419  67.4038735  39.3680043
  67.1532696  67.9162251  38.1751152  67.0181696  67.9872603  38.9444474
  56.4694029  74.6208867  34.6233177  57.2239997  75.0021906  34.8368639
  55.8764641  75.0720011  35.0779873  56.4930742  74.7437695  34.7216055
  58.9300696  66.5771708  49.7490389  58.1200471  66.8829487  49.6380232
  59.4075382  67.2977290  49.8642973  58.8804175  66.7286309  49.7497460
  57.7892255  75.7917429  39.9973292  57.2673009  75.9317720  40.6825157
  58.1766276  75.0328093  40.1875410  57.7695956  75.7002953  40.1274369
  54.7783439  65.8423237  34.0668247  54.4908235  65.4724508  33.3300194
  55.4653908  66.3118093  33.8051952  54.8372337  65.8570207  33.9183323
  59.2158581  72.8221448  35.3954783  59.0201364  73.4296182  34.8015086
  59.4392927  72.1289392  34.9146457  59.2193222  72.8098973  35.2370864
  57.6137111  69.7076186  35.5135652  58.3359763  69.8717344  35.0539458
  57.1345104  70.4285850  35.4074991  57.6500842  69.8374415  35.4301266
  65.5730619  66.0439984  40.8932337  64.7341719  66.0701263  40.6570600
  65.6434986  66.6910720  41.4737683  65.4599012  66.1436110  40.9441454
  55.2644728  72.1134258  44.6189792  55.7765825  72.3918511  43.9698551
  54.9781070  72.8523552  44.9852605  55.2979591  72.2636612  44.5779670
  64.0199897  62.9425361  35.6259953  64.7226250  62.7433110  35.1479911
  63.7544086  62.1701304  35.9328796  64.0846529  62.7988327  35.6005394
  69.4488142  71.2507971  38.1793578  69.3622117  71.4063397  39.0328357
  68.9938622  71.8946047  37.8052983  69.3691399  71.3683726  38.2500685
  52.3511634  66.6204450  34.9153528  52.4527770  67.4230611  35.2434503
  53.1467521  66.4191786  34.6176609  52.4839540  66.7090349  34.9188883
  58.7828453  64.2060647  44.6790833  58.5911650  64.2215781  45.5290257
  59.6327049  64.4024321  44.6557488  58.8804175  64.2374998  44.8014128
  53.1675366  66.7351628  42.6574650  53.0260858  65.8835569  42.7819158
  53.4515929  66.7780289  41.8336856  53.1883212  66.6151378  42.5542274
  63.3213958  68.5718718  36.8019138  63.0748673  68.4914469  37.6355927
  63.6499081  67.7872186  36.6081665  63.3335202  68.4444984  36.8966661
  65.5540092  71.5798453  46.8428301  65.5488131  70.7078270  46.8470727
  66.2601086  71.7786622  46.3697757  65.6585096  71.4802327  46.7735336
  59.2810986  71.3075437  46.2142121  59.4254361  71.8876645  45.5785231
  59.6286634  71.6851734  46.9191976  59.3538447  71.4496141  46.2241116
  61.4530903  70.5065605  43.9967253  60.7054217  70.6996620  43.5915531
  61.6072428  69.6810825  43.7591374  61.3653331  70.4130717  43.9012658
  58.3538741  79.4978209  43.0803148  58.5028304  78.9381125  42.4276552
  59.1338743  79.5770210  43.4635667  58.4912834  79.4263774  43.0400097
  61.6932680  64.4016156  44.8862656  62.1505294  65.1340130  45.0135449
  61.7689009  63.9782621  45.6449912  61.7723650  64.4473394  45.0163733
  53.9365671  64.6481976  45.9752100  53.4007861  64.0362334  46.2912867
  53.9983436  65.2230112  46.6285767  53.8661304  64.6428903  46.1187527
  66.1660006  57.5806031  38.7556499  66.2843574  58.0382494  38.0223802
  65.9922182  56.7751292  38.4692717  66.1579177  57.5299803  38.6057433
  61.5362288  78.1893850  35.1911245  62.3012179  77.9203494  34.8693909
  61.4340378  77.7043861  35.9081307  61.6343784  78.0783415  35.2491072
  59.5715058  66.3918260  41.7304480  58.7811133  66.2109720  42.0521816
  59.9675681  65.6145212  41.7134775  59.5131934  66.2505721  41.7757029
  64.0580949  75.2206034  27.1711194  64.8253934  75.2806159  26.7617046
  63.6112258  74.6486476  26.6867512  64.1054376  75.1442610  27.0388904
  64.9558744  74.0260690  39.4563926  64.2803746  73.7945922  39.9577313
  64.9651120  73.4181873  38.8306031  64.8577249  73.9019615  39.4380078
  62.0852888  68.8678519  46.2127979  62.0212029  69.7288475  46.0848116
  62.2250076  68.5510512  45.4123531  62.0968358  68.9478686  46.0756192
  60.7671982  71.5610658  40.3544182  60.3434231  71.7615157  39.6183201
  60.5916837  70.7139506  40.4668482  60.6782863  71.4659440  40.2617872
  56.0554427  72.0562710  35.7872155  56.2119046  71.9909513  36.6428147
  56.3955020  72.8311262  35.5750834  56.1287662  72.1611908  35.8826749
  62.5933572  71.4320593  34.6565518  63.1349117  70.9290974  35.1204138
  62.9080131  71.3785788  33.8455003  62.7197969  71.3500014  34.6049330
  66.4650679  75.6423241  51.7692430  67.2785544  75.3708390  51.9297563
  66.3045646  75.3430781  50.9652626  66.5620628  75.5578167  51.6737836
  60.7620021  76.8237945  31.9405546  60.8312842  75.9652483  32.0798546
  61.5408477  77.0409826  31.6124570  60.8872872  76.7290809  31.9122703
  63.7422841  66.3256898  44.7087818  63.9564811  65.6867812  44.1551172
  63.1256740  66.7702722  44.2795680  63.6828170  66.2967042  44.5638249
  52.6288689  69.2397660  36.1032922  53.0087653  69.6582205  35.4393189
  52.0544053  69.8211116  36.4101765  52.6000014  69.3875519  36.0509663
  65.9061929  67.9345963  45.6471125  65.0938611  67.6271853  45.7284298
  66.3651864  67.4544963  46.2113838  65.8542314  67.8182455  45.7425720
  65.3167184  75.8125635  36.0948070  64.9581839  75.9840278  36.8712102
  64.8305895  76.2738841  35.5376068  65.1925881  75.9064606  36.1273339
  63.1337570  59.4356834  39.6975161  62.2631128  59.4095555  39.6508471
  63.3877911  59.2634026  38.8801007  63.0431130  59.4066977  39.5695298
  60.1055549  71.4924800  28.6348304  60.3948074  72.2689683  28.9091878
  60.1927348  70.9813532  29.3362803  60.1609805  71.5316719  28.7790802
  63.0015437  69.3406035  50.4299828  63.4715068  69.9648151  50.8167702
  63.0477317  68.6723010  50.9893042  63.0783312  69.3340715  50.5699899
  60.1586710  61.4463062  41.1548632  59.6425199  60.7543253  41.2800211
  59.5980639  62.1133839  41.1011230  59.9993224  61.4426320  41.1654698
  62.2278944  61.9856022  42.9841484  61.8410697  62.0105054  43.7655014
  61.7411881  61.4197701  42.5316001  62.0991453  61.9051773  43.0329388
  68.2028923  68.5518677  41.6081186  67.7756531  68.4645026  40.8529286
  67.5654976  68.6596452  42.1936030  68.0458531  68.5551337  41.5826628
  61.8936085  58.8723008  45.2751744  62.5229203  59.4083308  44.9972814
  62.0621948  58.7800366  46.1265310  62.0113880  58.9384370  45.3600272
  61.6950000  63.6594202  47.5478156  62.5223430  63.3879351  47.6036770
  61.7157846  64.4555044  47.9041974  61.8202850  63.7373956  47.6093339
  56.2719490  70.8058065  40.7348416  55.4307497  70.7061939  40.9427310
  56.4809498  71.5753545  41.0862737  56.1784183  70.9050108  40.8175731
  53.7495057  68.4277602  38.5633167  53.3551755  68.5020614  37.7883277
  53.1935174  68.8135548  39.1141529  53.6097869  68.4959377  38.5300827
  65.3860004  61.4058896  38.2437046  65.5909597  61.3381204  39.0894043
  65.0586428  62.2117717  38.1758223  65.3675252  61.5144836  38.3596701
  60.0836155  68.7339464  39.9846014  59.7799293  68.1795452  40.5856421
  59.3815576  68.9131674  39.4974048  59.9352365  68.6784247  40.0015719
  59.1402252  66.0439984  34.5490716  59.4161986  65.3258897  34.1368283
  59.7400921  66.6424904  34.3411822  59.2695517  66.0260355  34.4571477
  58.1454506  75.9489185  44.6918112  58.0374861  75.9591247  45.5580170
  58.3550288  76.7743965  44.5023065  58.1604617  76.0730260  44.7922203
  68.6393692  61.9590660  37.7239811  68.0268005  62.4461062  38.1093543
  68.7357867  61.2834151  38.2677462  68.5631589  61.9308969  37.8618669
  62.6412773  63.7153501  32.8237311  63.0956519  63.8864062  33.5485155
  63.1152818  63.1021612  32.4235086  62.7781093  63.6504387  32.8711072
  56.1628298  73.2001827  42.1540049  55.5716231  73.8411326  42.1243064
  56.9249322  73.6239445  42.1271349  56.1876559  73.3577666  42.1455196
  56.5588921  64.3603825  42.8208067  57.0190402  64.4342755  43.5583191
  56.6045028  65.1585079  42.4707888  56.6339476  64.4897972  42.8780823
  58.2072271  65.0270520  47.3880094  57.8157836  64.3803867  47.8235872
  58.3758133  65.6181955  48.0074349  58.1743181  65.0184788  47.5442800
  59.9825793  70.4196036  33.9282318  60.7267838  70.8070312  34.1665268
  60.1286489  69.5753461  34.0922806  60.1136378  70.3526509  33.9876288
  61.9005368  62.2146295  38.9614179  61.0541413  62.3869102  38.8355529
  61.8976501  61.4095638  39.2980008  61.7752518  62.1207324  38.9925306
  62.9703669  65.9921509  39.8276237  62.4963623  65.4663271  40.3381548
  63.3421804  65.4450982  39.2591099  62.9553557  65.8337506  39.8191384
  53.3476699  67.9893016  45.1959783  54.2102312  67.8888725  45.1097113
  53.0168482  67.4087725  44.6345355  53.4261895  67.8884642  45.1005189
  69.2340399  71.0523885  41.2383018  68.9938622  70.2130300  41.2425444
  69.7132406  71.1324051  41.9623791  69.2692583  70.9405284  41.3457820
  64.8987168  66.8858064  32.8901991  64.3710187  66.9686808  32.2007700
  65.3582876  67.6275935  32.8866636  64.8889019  67.0078726  32.7876686
  71.2345586  67.8325342  39.1912277  70.9955356  67.7921176  38.3533061
  71.3979487  68.6796494  39.3177998  71.2235890  67.9517427  39.0865759
  67.8391616  72.2175291  45.1217322  68.5625815  71.7647818  44.9428342
  67.5741579  72.4979957  44.3389650  67.9072890  72.1926260  44.9796037
  56.7078485  66.8135465  41.8570201  56.0831555  66.8253857  41.2496154
  56.3724079  67.2895640  42.5061441  56.5663976  66.8853982  41.8626770
  56.8920233  65.1560583  27.9142886  56.5433038  65.8080308  28.3774436
  56.4116679  65.1417696  27.1866757  56.7690477  65.2503637  27.8753977
  53.4204160  74.8735925  43.2973965  52.8904085  74.1828364  43.3468940
  53.6929254  74.8646110  42.4686674  53.3828882  74.7703057  43.1821381
  64.4524251  75.4561627  32.0211648  65.1758450  75.9219740  31.8776221
  64.0124842  75.5235237  31.2709245  64.4939943  75.5345464  31.8896429
  63.6210406  72.3159169  43.2712337  63.0067399  71.7717220  43.5660972
  64.1377691  71.8023406  42.7918153  63.6066068  72.1595579  43.2436565
  62.8606703  73.3863439  41.0056636  62.4334311  72.7613158  40.5722071
  62.8531647  73.1038361  41.8315643  62.7965844  73.2516220  41.0636463
  55.9769230  68.4228613  44.0745070  56.1362717  67.6671937  44.4796792
  55.7962124  68.9719552  44.7285807  55.9734589  68.3922426  44.2307776
  63.9189533  60.5889848  44.6295859  63.4230094  60.7853522  43.9387426
  64.6758595  60.9882516  44.4584661  63.9576358  60.6767582  44.5015996
  61.1892413  64.2632194  41.2199170  61.2134900  63.7292306  40.5311950
  61.4403886  63.7549503  41.8824760  61.2302331  64.1093098  41.2163814
  48.7000002  71.5463689  40.6542314  48.5943451  71.5010533  39.7894398
  47.9500222  71.8917470  40.9356599  48.5735605  71.5904597  40.5679643
  57.4693735  62.9903012  40.6004914  57.5092106  63.4912219  41.3139621
  56.6443399  63.0813406  40.3310837  57.3533261  63.0784829  40.6655452
  59.6523348  72.5563752  48.7025209  58.8018978  72.6935467  48.8382853
  59.8151475  71.8227531  49.1472910  59.5507211  72.4677853  48.7880808
  58.8908098  69.5063522  42.8978813  58.0600028  69.6737340  42.6914061
  58.8359615  69.1299473  43.6827698  58.7597513  69.4753253  42.9827341
  56.6991881  62.9972415  48.5335224  57.3244585  62.4534548  48.8064656
  56.2442361  62.5167333  47.9643014  56.7240142  62.8461896  48.4896818
  57.2644142  67.7819114  33.4268931  57.4047103  68.2791578  34.1297572
  57.7626675  67.0805408  33.5683144  57.3585223  67.7521092  33.5520510
  57.2944364  68.6486225  30.7561508  57.9289444  69.2446650  30.6910969
  57.3769975  68.3489682  31.5707378  57.4000915  68.6927133  30.8664594
  70.2726930  71.1801702  43.6247872  70.8644770  71.8198953  43.6566070
  70.7085925  70.4824739  43.9139939  70.4245361  71.1720052  43.6728704
  58.8723347  64.5800200  30.7306950  59.1939188  64.1003283  30.0766212
  59.1350291  65.3899846  30.5397761  58.9589373  64.6290098  30.6062442
  62.1020320  75.6019074  44.2505766  61.5945411  76.1554921  44.6946396
  61.8046966  75.6627364  43.4324540  61.9825205  75.6925386  44.1954222
  64.2682502  63.9672394  43.0930429  64.6937574  63.5144920  42.4813955
  63.6539495  63.4132465  43.3695216  64.2411148  63.8186370  43.0435454
  53.7997352  70.8454065  34.0251054  54.3089582  71.4418573  34.4062359
  54.2731625  70.5780039  33.3427473  53.9440728  70.8939881  33.9805576
  62.7076725  60.4387494  36.5021006  62.0645043  60.2885140  37.0706144
  62.3676132  60.1929839  35.7370110  62.5621802  60.3799616  36.4724021
  67.2976072  68.3946921  35.9251014  66.6267261  68.9376623  35.7964080
  67.9915822  68.8641776  35.6832709  67.3004939  68.5445192  35.8706542
  67.4604199  64.8502804  38.8341387  67.8131809  64.4232527  39.5087186
  66.6019001  64.7653648  38.9642464  67.3853644  64.7747545  38.9536398
  56.1587884  67.4810324  36.8924234  55.4399873  67.8974457  37.1597098
  56.5300246  68.0464563  36.3415872  56.1079816  67.6259605  36.8507041
  65.4587465  68.1138173  42.7826230  65.4385392  67.9321468  43.6361009
  65.5066666  68.9850191  42.7585813  65.4622106  68.2154711  42.9049524
  63.4033795  74.7025365  48.7074706  63.3629650  74.0575042  48.1219862
  64.2157113  74.6461982  49.0200118  63.5176948  74.5984332  48.6671655
  61.9334458  66.5208324  32.2297613  61.3399298  66.8425320  31.6782180
  61.9709736  65.6749419  32.0218720  61.8508848  66.4432652  32.1180385
  68.8928259  59.9721216  39.7625700  68.3859124  59.2650356  39.6946877
  69.6895693  59.6414405  39.8926777  68.9355498  59.8194368  39.7724695
  64.8092275  66.4787828  35.6599364  64.5805968  66.5020530  34.8177722
  65.0690351  65.6545295  35.7794374  64.8138463  66.3603908  35.5524561
  59.0911503  68.3322301  45.2624464  58.5790406  67.7243484  45.6209495
  58.9191000  69.0478894  45.7298440  58.9901140  68.3485601  45.3840688
  53.9377218  66.7759877  47.9126826  53.7679808  67.4361252  47.3675032
  53.4943168  66.9866438  48.6339315  53.8476552  66.9045859  47.9388455
  57.8637037  65.0164375  36.9553559  58.3394404  65.3781455  36.3203740
  57.3625637  65.6720842  37.2353702  57.8602396  65.1658563  36.9030300
  62.9680574  66.2546546  47.7026719  63.5252004  66.0260356  47.0705185
  62.6441639  67.0152212  47.4261932  63.0026984  66.3330383  47.5683217
  50.8379283  69.6806742  43.1715315  50.2906002  69.0107388  43.2896184
  51.6271661  69.3136590  43.2358783  50.8731466  69.5271729  43.1984016
  60.6863691  69.3414199  48.6678727  61.4375018  69.6565876  48.9818281
  60.8786267  69.1393370  47.8412648  60.8255105  69.3581581  48.5922122
  59.9063691  67.1605574  30.3226943  60.2862655  67.1785204  29.5378058
  59.1656287  67.6059563  30.2017791  59.8532528  67.2287349  30.1890511
  67.5348981  65.4687766  35.9102522  67.5343208  65.3136422  36.7686798
  67.3305161  66.3150753  35.8543908  67.5048759  65.5708386  36.0290461
  49.5966252  68.8927550  40.3261339  49.4188013  68.4404159  41.0516254
  49.3085274  69.6953712  40.5099816  49.5279205  68.9450108  40.4604841
  65.2589833  70.1485267  39.5638729  65.7543499  69.4308263  39.5242749
  64.4489609  69.8456065  39.4493216  65.2133726  69.9982914  39.5412455
  60.7048445  73.9983081  31.7135733  59.8959767  73.6749754  31.6669043
  61.2123354  73.2916303  31.6463982  60.6598112  73.8464397  31.6966028
  51.3338722  71.4255274  37.4383098  50.4684241  71.4140964  37.3265869
  51.4337538  71.2385497  38.2854237  51.2212889  71.3961335  37.5472042
  67.3241652  72.8988955  42.2515858  67.7496724  72.3763377  41.6986283
  66.9598572  73.4969792  41.7304481  67.3328255  72.9099182  42.0924867
  56.9595732  81.1953172  41.0113203  57.2742291  82.0089561  41.0190985
  57.3689145  80.8103391  41.6795362  57.0663830  81.2581875  41.1117295
  63.9120252  76.6123219  38.5817015  64.3831430  77.3263482  38.7507000
  64.2480430  76.0121969  39.1176885  64.0315367  76.6294684  38.6849391
  60.8289746  61.3850690  45.5375110  60.9617652  60.5881683  45.8656085
  61.2134899  61.9117093  46.1173386  60.9046075  61.3450607  45.6718613
  64.5494198  76.4041153  45.3444708  64.0015144  75.7799037  45.0764773
  65.0107227  76.5935425  44.6288787  64.5361407  76.3400204  45.1995139
  63.9022102  58.3081016  42.1356203  63.0968065  58.1978746  42.4524041
  63.7728837  58.4093472  41.2786069  63.7642235  58.3064686  42.0564244
  67.3588062  64.4726508  42.7295900  66.7751051  64.9735714  42.3173467
  67.6792356  63.9656064  42.0960223  67.3201238  64.4718343  42.5754407
  59.8982861  63.3867103  33.0054575  60.7198556  63.5565416  32.7636270
  59.4352512  63.5414364  32.2820872  59.9514024  63.4348836  32.8626219
  58.4878193  61.3809865  43.7853004  59.0322606  61.0400992  44.3757345
  58.5415129  62.2395326  43.9274288  58.5767313  61.4565124  43.8934877
  54.3008752  75.1426281  40.6591812  54.9053609  75.1022115  40.0305632
  54.0936065  75.9897433  40.6895867  54.3597649  75.2614283  40.5707928
  49.5360034  74.1260898  40.5290735  49.4384312  73.3157170  40.8380791
  50.3188904  74.1052692  40.1437003  49.6376171  74.0027989  40.5177598
  36.3886664  -0.0706023  21.7736972  36.3580669   0.7838614  21.9455241
  36.9868013  -0.3710730  22.3323116  36.4723822   0.0110474  21.8811774
  29.5886349  -0.9830372  26.5289903  28.7324245  -0.8221873  26.5799019
  29.6354003  -1.8538308  26.5494964  29.4685460  -1.0879570  26.5395969
  23.9727489   8.5532346  22.2927134  23.2210388   8.1747884  22.0643179
  24.4213500   8.5850780  21.5445944  23.9277156   8.5017953  22.1484636
  32.8980066   5.2856154  36.1350359  33.6046833   4.7908185  36.2637293
  33.0868001   5.7265235  35.4053017  33.0307971   5.2774504  36.0459404
  29.4252449   8.9757716  17.7212681  29.0903817   9.6534637  17.2856903
  29.9379319   8.5863027  17.1329553  29.4518030   9.0182294  17.5699473
  28.9656740  10.9271984  23.6623793  29.3496119  11.4958883  23.1228568
  28.9015881  10.2021495  23.1829609  29.0130167  10.9047448  23.5117655
  32.4338170   1.0761672  29.1721554  32.9794130   1.7546759  29.2315524
  32.3755046   0.9349133  28.3123136  32.5054084   1.1553674  29.0533615
  25.5512245   8.5650738  24.5589907  25.6522608   7.7551092  24.8687034
  24.9553990   8.4707685  23.9289585  25.4784784   8.4315766  24.5116145
  34.2103239   2.5046279  20.0455282  34.0942765   3.2553965  20.4747420
  35.0059125   2.2470233  20.2951369  34.3107828   2.5781126  20.1459374
  25.3912984  13.4828327  25.9604763  26.0350440  13.9241492  26.3500921
  25.7169240  12.6781754  25.8735021  25.5344813  13.4293522  26.0050240
  18.7477289   4.5871025  24.1842240  18.5127474   3.7538677  24.0774509
  18.8862930   4.8675691  23.3703441  18.7332952   4.5054528  24.0484595
  26.0933564   6.4940302  21.3324624  26.4149405   7.0345510  20.7285932
  26.7405661   5.9237074  21.4646914  26.2359619   6.4899477  21.2631660
  28.1435272  -1.5043703  21.4159011  28.8415437  -1.3255575  21.9080474
  28.4587605  -2.0273363  20.7929400  28.2930609  -1.5549931  21.3961021
  20.7736510   0.3009037  29.3270117  20.6495207   0.8871483  29.9619936
  21.4254794  -0.1930767  29.6282392  20.8510159   0.3147842  29.4656046
  28.3323208   4.8826742  21.4038803  28.7716843   4.2743843  21.8493575
  28.1827871   4.5034116  20.6324268  28.3744673   4.7365213  21.3557970
  25.7994851   3.4770754  28.6057628  26.4443853   2.9843197  28.2868577
  26.0396628   3.6195541  29.4323706  25.9305436   3.4248196  28.6807161
  28.3380942   6.3225660  28.2564521  28.6204185   5.5277066  28.0351276
  29.0667102   6.8006247  28.2769582  28.4870506   6.2760257  28.2267536
  31.9332544   3.2353924  18.3569572  31.8483839   4.0914890  18.5019141
  32.4216927   2.9598248  19.0251731  31.9921441   3.3211245  18.4771653
  32.8650977  -0.1461282  19.8567307  32.3362449   0.0698351  20.5164613
  33.3875997   0.5474856  19.7768276  32.8639430  -0.0118145  19.9422906
  38.3199030   5.4285022  25.2300351  37.4896733   5.6395666  25.3933768
  38.2708283   4.6022077  24.9542635  38.1905766   5.3374628  25.2137717
  20.3094614   9.4656696  25.4598446  19.8262192  10.1907185  25.4358030
  21.1217932   9.7632826  25.5708604  20.3585362   9.6159049  25.4725726
  26.3808768   8.2588876  28.0648261  25.8635710   7.8996291  27.4609569
  27.0783159   7.7351051  28.0754327  26.4074349   8.1286564  27.9778520
  30.0372360   8.7083690  34.0264434  30.1255706   8.5209831  34.8742644
  30.4662072   8.0621120  33.6269281  30.1134462   8.5846698  34.0936185
  27.6042820   7.9914850  33.0082096  27.0413654   7.5787460  33.5321757
  28.3663843   7.9167756  33.4275239  27.6337268   7.9192251  33.1475096
  23.1638811   9.9812872  25.6118726  23.8659390   9.4664861  25.6691483
  23.0836294  10.3087023  26.4165601  23.2562572   9.9527098  25.7391518
  37.8152989  -1.9244577  29.0250773  36.9781410  -1.8542390  29.2598367
  37.7841220  -1.9220082  28.1525075  37.6871271  -1.9134350  28.9310321
  24.2117718   0.2188458  34.7399141  24.3838221   0.1094353  35.5884423
  24.7487075   0.8642864  34.5030334  24.3162722   0.2980460  34.8304238
  22.4889587   6.1719224  25.1204334  23.3278486   6.4042156  25.1678096
  22.5201356   5.3023535  25.0511370  22.6171304   6.0776170  25.1168979
  23.1142290   6.5920099  29.4217640  23.6540515   6.4491230  30.0921012
  22.4312236   6.9916850  29.7901666  23.0934443   6.6299770  29.5752062
  32.5383174   2.2711099  24.6162664  33.2940689   2.7042614  24.6551573
  32.6445499   1.6215869  25.1897300  32.6653345   2.2388583  24.7060690
  35.5763346   6.0984377  25.3665067  35.1398577   6.1021119  26.1224039
  35.2426261   6.7789876  24.9344645  35.4625966   6.1996832  25.4145900
  30.1492419   8.1392709  36.6908217  30.9332836   8.2523557  37.0563960
  29.9489014   7.3133847  36.8866903  30.2358445   8.0339429  36.7742604
  18.5179435   2.8120390  29.5752061  18.2517850   1.9959506  29.7343052
  18.5317999   2.8573545  28.7047577  18.4804157   2.6977294  29.4705543
  30.3062812  10.0502811  30.3374673  29.5078058   9.8102312  30.5948542
  30.7548824  10.1017204  31.0841721  30.2537424  10.0225203  30.4859597
  38.7107692   2.8165296  24.2584704  39.3724126   2.2555965  24.1580613
  38.0699104   2.3217327  24.5837396  38.7136559   2.6601706  24.2917045
  29.5984500   6.1135428  16.5665628  30.0135648   5.7820452  15.8750123
  28.7676429   5.8804330  16.4385764  29.5372508   6.0306684  16.4456475
  18.9272848   3.5979169  26.8563806  18.7448422   3.5726055  26.0036098
  19.6622517   4.0678107  26.8952714  19.0086912   3.6640531  26.7361724
  34.9972522   3.8330679  23.9996693  35.2328112   3.9775878  23.1723544
  35.1462086   4.5973087  24.3928207  35.0538326   3.9669733  23.9360297
  21.9918600   0.3164172  33.3645914  22.7158572   0.3017202  33.8510809
  22.0934736   1.0259527  32.8667882  22.1136809   0.4188875  33.3624701
  36.8262979   2.6732345  21.8366297  37.1571196   3.2059985  21.2306392
  37.3996067   2.7271233  22.4928248  36.9596658   2.7601914  21.8444079
  29.3663549   3.7963256  38.2294861  28.5736530   4.1106768  38.4147481
  29.4812476   4.0114725  37.3915646  29.2658960   3.8747093  38.1333196
  32.0394868   0.5197248  22.5189877  32.1341723   1.2586542  22.9729503
  31.4153712   0.0914723  22.9524442  31.9603898   0.5658568  22.6498025
  30.2947342   3.6983460  33.1680158  30.8686204   3.0610704  33.3228722
  30.2162146   3.6987543  32.2989816  30.3680577   3.6048572  33.0626569
  18.8943759   0.4772670  27.0062872  19.4717261   0.3409120  27.6455118
  18.1957820   0.0208454  27.2608457  18.8764780   0.3894936  27.1385162
  25.6511061   2.1306725  25.2201355  25.3930305   1.2978460  25.1932655
  25.7059544   2.3564338  24.3793856  25.6210839   2.0404497  25.0921492
  24.6245773  -0.3155512  25.7066250  24.0495364  -0.1563344  26.3430211
  24.2481449  -0.9520103  25.2434701  24.4848585  -0.3857699  25.7320809
  28.2919062  -1.8432163  30.5658629  27.9033494  -2.2677945  29.9110820
  27.6273760  -1.5950013  31.0735655  28.1365989  -1.8693442  30.5446497
  29.3958000   2.3866442  18.7635436  30.2098639   2.6781334  18.6518207
  29.3317141   1.7326304  18.1893729  29.5060739   2.3331636  18.6624273
  35.6167490   5.0692438  33.1765011  35.3806127   4.2380503  33.0577072
  36.2610719   5.0178045  33.7619855  35.6762161   4.9390126  33.2450905
  25.2665908   5.8587959  23.8907748  25.9039855   5.6199707  24.4359541
  25.6920980   6.0625118  23.1560908  25.4242074   5.8538969  23.8624905
  19.9578550   8.0976296  27.7742051  19.9982696   8.3691147  26.9461831
  20.5173075   8.6218204  28.1899839  20.0461896   8.2152051  27.7133940
  36.6403911   4.8536887  29.2393306  36.3349728   5.5864943  29.6006621
  35.9210126   4.4474816  28.9586092  36.4891253   4.9018620  29.2506443
  27.6487380   6.3360382  25.5701534  27.7226388   6.1735554  26.4243384
  28.4656886   6.5250571  25.3262016  27.7803739   6.3397124  25.6599560
  42.3405703   1.4929887  28.5661650  42.2730203   1.5125846  27.6964237
  42.3261365   2.3360214  28.7917321  42.3284459   1.6203622  28.4714127
  21.4093137   6.6818245  22.5995977  20.5831254   6.9279982  22.4730256
  21.4705128   6.6030325  23.4658035  21.2967304   6.7063194  22.7084922
  26.1891966   9.2995125  20.3015007  26.4790264   8.9084106  19.5774234
  26.9195447   9.4811830  20.7420283  26.3398850   9.2688939  20.2597814
  40.1264320   0.2674273  26.8408244  40.6772242  -0.3657658  27.0805336
  40.1108435   0.7989666  27.5323749  40.2049516   0.2523222  26.9787103
  26.7786711   4.1012871  31.3868138  26.2798405   4.8128638  31.4653026
  27.5886935   4.4213537  31.3486300  26.8242818   4.2539719  31.3924706
  24.1297881  11.2762507  23.3675157  23.9098177  10.9859862  24.1601824
  23.9092403  10.6177462  22.8393069  24.0645476  11.1362216  23.4064066
  23.0414829   3.3635824  25.6330859  22.7528077   2.7373295  26.1676586
  23.9098177   3.3056111  25.6995539  23.1275080   3.2623368  25.7221813
  33.8292726  -1.4929393  25.9512841  33.4857492  -2.2139058  26.3020090
  33.9285769  -1.7015542  25.1091199  33.7934769  -1.6305190  25.8784521
  26.2965837  12.6491897  22.1505849  26.9489895  12.1168339  22.3796875
  25.5991446  12.2960549  22.5373723  26.2896555  12.5181420  22.2418017
  23.2447102   5.0031075  21.5573224  23.9993070   5.3844114  21.7708686
  22.6517715   5.4542218  22.0119920  23.2683816   5.1259902  21.6556102
  34.2905755   4.9696311  21.4936829  34.8563788   5.6289521  21.4095372
  33.6433659   5.3146009  21.9653231  34.2784512   5.1178252  21.5509585
  25.7053769  -3.0406085  36.6830436  24.8953545  -2.7348305  36.5720278
  26.1828456  -2.3200503  36.7983020  25.6557248  -2.8891484  36.6837507
  24.5645329   6.1739636  26.9313339  24.0426082   6.3139928  27.6165204
  24.9519349   5.4150300  27.1215456  24.5449029   6.0825160  27.0614416
  30.7612334   7.9135095  20.9173908  30.5199009   7.1802956  20.5100973
  30.9413666   8.4621952  20.2640241  30.7519957   7.8857486  20.7604131
  25.9911654   3.2043655  22.3294830  25.7954437   3.8118390  21.7355133
  26.2146000   2.5111599  21.8486504  25.9946295   3.1921181  22.1710911
  24.3890184   0.0898393  22.4475699  25.1112836   0.2539551  21.9879505
  23.9098177   0.8108058  22.3415038  24.4253915   0.2196623  22.3641313
  32.3483692  -3.5737808  27.8272383  31.5094792  -3.5476529  27.5910647
  32.4188059  -2.9267073  28.4077730  32.2352085  -3.4741682  27.8781500
  22.0397801   2.4956465  31.5529838  22.5518898   2.7740719  30.9038598
  21.7534143   3.2345760  31.9192651  22.0732664   2.6458819  31.5119716
  36.2241216   1.6330179  25.1133625  36.1375190   1.7885605  25.9668404
  35.7691695   2.2768254  24.7393030  36.1444472   1.7505934  25.1840732
  25.5581526  -5.4117146  31.6130880  25.3664723  -5.3962012  32.4630303
  26.4080122  -5.2153472  31.5897535  25.6557248  -5.3802795  31.7354175
  30.0967032  -1.0459074  23.7359185  29.8501746  -1.1263323  24.5695974
  30.4252155  -1.8305606  23.5421712  30.1088275  -1.1732809  23.8306708
  33.9915080   5.6624285  27.5245966  33.8529440   6.3605331  28.0294708
  33.2115078   5.5072942  27.1682148  33.8558307   5.7424452  27.5472240
  32.3293166   1.9620660  33.7768348  32.3241204   1.0900477  33.7810774
  33.0354159   2.1608830  33.3037803  32.4338170   1.8624535  33.7075383
  26.0564059   1.6897644  33.1482168  26.2007435   2.2698852  32.5125278
  26.4039707   2.0673941  33.8532022  26.1291520   1.8318348  33.1581163
  28.2283976   0.8887813  30.9307299  27.4807290   1.0818827  30.5255577
  28.3825501   0.0633032  30.6931421  28.1406404   0.7952924  30.8352705
  25.1291814   9.8800416  30.0143195  25.2781378   9.3203332  29.3616599
  25.9091816   9.9592418  30.3975713  25.2665908   9.8085982  29.9740144
  27.6545115  10.0515059  31.2927685  27.5788786   9.3823870  31.8478474
  27.5834974  10.7532847  31.8068352  27.6325721  10.0559966  31.4504534
  28.4685753  -5.2161637  31.8202703  28.9258367  -4.4837662  31.9475495
  28.5442082  -5.6395171  32.5789959  28.5476723  -5.1704399  31.9503780
  28.3115361   8.5716058  22.1251291  29.0765253   8.3025702  21.8033956
  28.2093451   8.0866068  22.8421354  28.4096857   8.4605623  22.1831119
  26.3468131  -3.2259533  28.6644527  25.5564206  -3.4068073  28.9861863
  26.7428754  -4.0032580  28.6474822  26.2885007  -3.3672072  28.7097076
  31.7311818   4.4082897  26.3903973  31.0556819   4.1768130  26.8917360
  31.7404194   3.8004080  25.7646078  31.6330322   4.2841823  26.3720125
  28.8605961  -0.7499274  33.1468026  28.7965103   0.1110683  33.0188163
  29.0003149  -1.0667280  32.3463577  28.8721432  -0.6699107  33.0096239
  33.7328552   7.2648030  18.6214151  33.8148389   8.0715016  18.2975602
  34.2178294   7.2843989  19.3454925  33.8165710   7.3868692  18.6801050
  27.5425055   1.9432866  27.2884229  27.1187304   2.1437365  26.5523247
  27.3669911   1.0961714  27.4008529  27.4535936   1.8481647  27.1957919
  22.8307500   2.4384917  22.7212201  22.9872120   2.3731720  23.5768194
  23.1708093   3.2133470  22.5090881  22.9040735   2.5434115  22.8166796
  29.3686645   1.8142801  21.5905565  29.9102190   1.3113182  22.0544185
  29.6833204   1.7607995  20.7795050  29.4951042   1.7322222  21.5389377
  33.2403752   6.0245448  38.7032477  34.0538618   5.7530597  38.8637609
  33.0798719   5.7252988  37.8992673  33.3373701   5.9400374  38.6077883
  27.5373095   7.2060152  18.8745593  27.6065915   6.3474691  19.0138593
  28.3161550   7.4232033  18.5464617  27.6625945   7.1113016  18.8462750
  30.5175914  -3.2920895  31.6427865  30.7317884  -3.9309980  31.0891219
  29.9009814  -2.8475071  31.2135727  30.4581244  -3.3210751  31.4978296
  31.9280582   9.6297854  23.0882086  31.5360374   9.3264569  22.3704952
  32.0833654  10.4666944  22.8987040  31.8934172   9.7081690  22.9538583
  32.6815002  -1.6831830  32.5811172  31.8691684  -1.9905939  32.6624345
  33.1404937  -2.1632829  33.1453884  32.6295387  -1.7995337  32.6765766
  32.0920257   6.1947842  23.0288117  31.7334912   6.3662485  23.8052149
  31.6058968   6.6561048  22.4716115  31.9678954   6.2886814  23.0613386
  29.7768510  -0.2771758  37.3639875  30.2468141   0.3470358  37.7507749
  29.8230390  -0.9454783  37.9233089  29.8536386  -0.2837078  37.5039946
  33.2524996   7.0851738  33.9755317  33.8904717   6.5911934  33.6417774
  32.6099088   7.0129139  33.3907544  33.2519223   7.0010747  33.8397672
  34.9781996  -1.0659116  28.5421233  34.5509605  -1.1532767  27.7869333
  34.3408049  -0.9581340  29.1276077  34.8211604  -1.0626456  28.5166675
  33.3079253   7.7771547  30.6160674  34.0971631   7.4260611  30.7362756
  33.4822851   8.5907935  30.3537308  33.4499535   7.8457404  30.5948542
  23.0472563   1.1880272  27.6688463  22.2060570   1.0884147  27.8767357
  23.2562571   1.9575753  28.0202784  22.9537256   1.2872316  27.7515778
  20.5248130  -1.1900191  25.4973214  20.1304828  -1.1157179  24.7223323
  19.9688247  -0.8042244  26.0481575  20.3850943  -1.1218416  25.4640874
  26.8589228  -0.8838328  26.9186061  26.5552366  -1.4382340  27.5196468
  26.1568649  -0.7046118  26.4314095  26.7105438  -0.9393546  26.9355766
  24.9207579   6.3311392  31.6258158  24.8127934   6.3413454  32.4920216
  25.1303361   7.1566173  31.4363112  24.9357690   6.4552467  31.7262250
  22.9381371   3.5824035  29.0880096  22.3469305   4.2233533  29.0583111
  23.7002395   4.0061652  29.0611395  22.9629632   3.7399873  29.0795243
  24.9825344  -4.5907273  34.3220141  24.5910909  -5.2373926  34.7575918
  25.1511207  -3.9995837  34.9414396  24.9496254  -4.5993005  34.4782847
  39.0571793   3.4129804  30.0857374  39.1154917   3.8616453  30.8317351
  38.4238260   3.8228617  29.6487454  38.9723088   3.5403539  30.1309923
  32.6970888   9.0333346  26.5212120  32.4990576   9.5224161  25.8268332
  32.0758599   9.2374588  27.0996254  32.5758452   9.1349885  26.5035344
  26.7578866   0.8018243  20.8622365  27.5020911   1.1892519  21.1005315
  26.9039562  -0.0424332  21.0262852  26.8889451   0.7348716  20.9216334
  29.7456742  -3.6256284  26.7616284  29.2716696  -4.1514522  27.2721595
  30.1174878  -4.1726811  26.1931146  29.7306631  -3.7840287  26.7531431
  36.0093472   1.4346092  28.1723065  35.7691695   0.5952507  28.1765491
  36.4885479   1.5146259  28.8963838  36.0445656   1.3227492  28.2797867
  38.0098659  -1.7852451  26.1252324  37.7708429  -1.8256617  25.2873108
  38.1732561  -0.9381299  26.2518045  37.9988963  -1.6660366  26.0205806
  34.6144689   2.5997499  32.0557369  35.3378888   2.1470025  31.8768389
  34.3494652   2.8802164  31.2729697  34.6825963   2.5748467  31.9136084
  23.4831558  -2.8042328  28.7910248  22.8584628  -2.7923936  28.1836201
  23.1477153  -2.3282153  29.4401488  23.3417050  -2.7323811  28.7966817
  20.1957233   5.2558132  30.2314012  19.6657158   4.5650571  30.2808987
  20.4682327   5.2468318  29.4026721  20.1581956   5.1525264  30.1161428
  31.2277324   5.8383835  18.9551695  31.9511523   6.3041948  18.8116268
  30.7877915   5.9057444  18.2049292  31.2693016   5.9167671  18.8236476
  30.3963479   2.6981377  30.2052384  29.7820472   2.1539427  30.5001019
  30.9130764   2.1845613  29.7258200  30.3819141   2.5417786  30.1776612
  29.6359776   3.7685647  27.9396682  29.2087384   3.1435366  27.5062118
  29.6284720   3.4860569  28.7655690  29.5718917   3.6338428  27.9976510
  22.7522303  -1.1949180  31.0085116  22.9115790  -1.9505856  31.4136838
  22.5715197  -0.6458241  31.6625854  22.7487662  -1.2255366  31.1647822
  27.9645486  -5.3545599  28.1539216  27.9887973  -5.8885486  27.4651996
  28.2156959  -5.8628290  28.8164807  28.0055404  -5.5084695  28.1503861
  15.4753076   1.9285896  27.5882361  15.3696525   1.8832741  26.7234445
  14.7253296   2.2739677  27.8696645  15.3488679   1.9726805  27.5019690
  26.4276421   2.9385960  35.6365255  25.5772051   3.0757674  35.7722900
  26.5904549   2.2049738  36.0812957  26.3260284   2.8500061  35.7220855
  25.6661171  -0.1114271  29.8318860  24.8353101   0.0559547  29.6254108
  25.6112689  -0.4878320  30.6167745  25.5350586  -0.1424539  29.9167388
  37.0480003   1.5623909  30.5587919  37.6397844   2.2021160  30.5906117
  37.4838998   0.8646946  30.8479985  37.1998435   1.5542260  30.6068751
  28.8773393   5.9841282  31.1845812  28.3698484   6.5377129  31.6286443
  28.5800039   6.0449572  30.3664587  28.7578278   6.0747593  31.1294269
  31.4881174   9.9004540  19.1149756  30.7710483   9.7265402  18.6496993
  32.1387911   9.6657112  18.5825242  31.4783024   9.8400332  18.9678974
  34.0729145  -1.2230872  22.8591061  33.4020335  -0.6801170  22.7304127
  34.7668895  -0.7536017  22.6172756  34.0758012  -1.0732601  22.8046589
  28.1215879  10.9165840  28.0902819  27.8981533  10.1584669  28.4586846
  27.6325722  10.9463861  27.3683259  28.0159328  10.8088065  28.0379560
  22.9340957  -2.1367469  23.8264281  22.2152946  -1.7203336  24.0937144
  23.3053320  -1.5713230  23.2755919  22.8832889  -1.9918187  23.7847088
  32.2340538  -1.5039620  29.7166277  32.2138465  -1.6856325  30.5701055
  32.2819739  -0.6327601  29.6925860  32.2375179  -1.4023081  29.8389571
  30.1786868   5.0847572  35.6414753  30.1382723   4.4397249  35.0559909
  30.9910186   5.0284190  35.9540165  30.2930021   4.9806539  35.6011702
  26.7694335  11.1366298  25.5439904  26.3554734  10.4740428  25.1543746
  27.4541710  11.2844157  25.0235598  26.8092707  11.0606956  25.4096401
  30.1359630  10.2956383  26.2963521  29.7375913  10.4058654  25.5284341
  29.5210849  10.5038450  26.8790080  29.9858519  10.3429951  26.2694820
  31.5845348  -3.1389964  22.5939410  31.3559041  -3.1157263  21.7517769
  31.8443424  -3.9632497  22.7134421  31.5891536  -3.2573884  22.4864608
  25.8664577  -1.2855491  32.1964511  25.3543480  -1.8934308  32.5549542
  25.6944073  -0.5698899  32.6638486  25.7654214  -1.2692192  32.3180734
  24.6390111  -4.6013418  23.8893606  25.1147477  -4.2396338  23.2543787
  24.1378710  -3.9456950  24.1693749  24.6355470  -4.4519229  23.8370347
  37.8701472   4.8708350  19.6806611  38.2535078   5.6199706  19.9104708
  37.0745586   5.1174170  19.4218600  37.8095254   5.0178044  19.6764185
  29.7433647  -3.3631247  34.6366766  30.3005077  -3.5917437  34.0045232
  29.4194712  -2.6025581  34.3601979  29.7780057  -3.2847410  34.5023263
  27.4616764  -0.2763593  35.6018773  28.2128091   0.0388084  35.9158328
  27.6539341  -0.4784422  34.7752695  27.6008178  -0.2596211  35.5262169
  32.0342906   0.5307475  26.4978776  32.5296572  -0.1869530  26.4582796
  31.2242682   0.2278273  26.3833263  31.9886800   0.3805121  26.4752502
  27.4801518   4.3805288  18.6475780  26.6712841   4.0571962  18.6009090
  27.9876427   3.6738510  18.5804029  27.4351185   4.2286604  18.6306075
  18.1091795   1.8077481  24.3723144  17.2437315   1.7963172  24.2605916
  18.2090611   1.6207704  25.2194284  17.9965962   1.7783542  24.4812089
  34.0994725   3.2811162  29.1855904  34.5249797   2.7585584  28.6326329
  33.7351645   3.8792000  28.6644527  34.1081328   3.2921389  29.0264914
  23.7348805  11.5775380  27.9453250  24.0495364  12.3911768  27.9531032
  24.1442218  11.1925599  28.6135409  23.8416903  11.6404082  28.0457342
  30.6873325   6.9945427  25.5157062  31.1584503   7.7085689  25.6847047
  31.0233503   6.3944177  26.0516931  30.8068440   7.0116891  25.6189438
  32.7750309   8.6046740  37.6949134  32.8847275   7.8155301  38.0505881
  33.1041206   8.5152676  36.8923472  32.8402715   8.4752593  37.6291525
  31.3247271   6.7863361  32.2784755  30.7768217   6.1621244  32.0104820
  31.7860300   6.9757633  31.5628834  31.3114481   6.7222411  32.1335186
  21.0761825   5.5248488  27.5931858  21.6806683   5.4844322  26.9645679
  20.8689138   6.3719640  27.6235914  21.1350723   5.6436491  27.5047975
  30.8905597   7.7914433  28.8094096  31.7103971   7.6477400  29.0710391
  30.6099675   8.4160632  29.3510534  30.9702341   7.8624786  28.9282035
  16.3113108   4.5083106  27.4630781  16.2137386   3.6979377  27.7720838
  17.0941977   4.4874899  27.0777050  16.4129244   4.3850196  27.4517644
  47.3619248  15.4479285  21.7736972  47.3313252  16.3023922  21.9455241
  47.9600596  15.1474578  22.3323116  47.4456406  15.5295782  21.8811774
  40.5618933  14.5354936  26.5289903  39.7056828  14.6963434  26.5799019
  40.6086586  13.6647000  26.5494964  40.4418044  14.4305738  26.5395969
  40.3985032  24.4943024  17.7212681  40.0636401  25.1719945  17.2856903
  40.9111903  24.1048335  17.1329553  40.4250613  24.5367602  17.5699473
  43.4070754  16.5946980  29.1721554  43.9526714  17.2732067  29.2315524
  43.3487630  16.4534441  28.3123136  43.4786668  16.6738982  29.0533615
  45.1835822  18.0231587  20.0455282  45.0675348  18.7739273  20.4747420
  45.9791709  17.7655541  20.2951369  45.2840412  18.0966434  20.1459374
  29.7209873  20.1056333  24.1842240  29.4860057  19.2723985  24.0774509
  29.8595513  20.3860998  23.3703441  29.7065535  20.0239836  24.0484595
  32.0199960  12.2742063  27.0826548  31.4004992  11.6834711  26.9136563
  31.9183824  12.8653499  26.4490871  31.9137636  12.2746146  26.9631537
  37.0666148  22.0125610  21.3324624  37.3881989  22.5530818  20.7285932
  37.7138244  21.4422382  21.4646914  37.2092203  22.0084785  21.2631660
  39.1167856  14.0141605  21.4159011  39.8148021  14.1929733  21.9080474
  39.4320188  13.4911945  20.7929400  39.2663193  13.9635377  21.3961021
  31.7469093  15.8194345  29.3270117  31.6227790  16.4056791  29.9619936
  32.3987378  15.3254541  29.6282392  31.8242743  15.8333150  29.4656046
  39.3055791  20.4012050  21.4038803  39.7449427  19.7929151  21.8493575
  39.1560454  20.0219424  20.6324268  39.3477257  20.2550521  21.3557970
  36.7727434  18.9956062  28.6057628  37.4176437  18.5028505  28.2868577
  37.0129211  19.1380849  29.4323706  36.9038019  18.9433504  28.6807161
  39.3113526  21.8410968  28.2564521  39.5936768  21.0462374  28.0351276
  40.0399686  22.3191555  28.2769582  39.4603089  21.7945565  28.2267536
  37.2894719   9.3834002  25.4980286  36.9598049   9.8345145  24.8283984
  36.6139721   9.3050165  26.0453292  37.1405156   9.4385137  25.4803509
  42.9065128  18.7539231  18.3569572  42.8216423  19.6100198  18.5019141
  43.3949511  18.4783556  19.0251731  42.9654025  18.8396553  18.4771653
  44.4971127   5.3719525  23.7429896  44.1824568   6.0623003  24.1750319
  43.9798069   5.3164307  23.0415397  44.3735598   5.4654413  23.7026845
  43.8383561  15.3724026  19.8567307  43.3095032  15.5883659  20.5164613
  44.3608581  16.0660164  19.7768276  43.8372014  15.5067163  19.9422906
  49.2931614  20.9470330  25.2300351  48.4629317  21.1580974  25.3933768
  49.2440866  20.1207385  24.9542635  49.1638349  20.8559936  25.2137717
  35.7283169  19.2687242  18.6574775  35.1440384  19.7737274  19.0640639
  35.3253264  19.0429629  17.9171367  35.5822473  19.3095491  18.6079800
  31.2827197  24.9842004  25.4598446  30.7994776  25.7092493  25.4358030
  32.0950516  25.2818134  25.5708604  31.3317945  25.1344357  25.4725726
  40.1860383  15.5152895  17.1343695  40.4256387  15.7230878  16.3219039
  40.5076224  14.7110403  17.2432640  40.2697541  15.4266996  17.0304249
  35.4950673   7.4446290  20.9803233  36.2496642   7.8124607  20.7420284
  35.3178208   7.8185845  21.7482413  35.5805152   7.5544478  21.0588122
  48.7885572  13.5940731  29.0250773  47.9513993  13.6642918  29.2598367
  48.7573803  13.5965226  28.1525075  48.6603855  13.6050958  28.9310321
  35.1850301  15.7373766  34.7399141  35.3570805  15.6279661  35.5884423
  35.7219659  16.3828172  34.5030334  35.2895305  15.8165768  34.8304238
  33.8507738   9.8516609  17.6781346  33.6683311  10.0688490  16.8522339
  34.7133351   9.9655622  17.7339961  33.9512328   9.9006507  17.5635833
  33.4622170  21.6904531  25.1204334  34.3011070  21.9227464  25.1678096
  33.4933939  20.8208843  25.0511370  33.5903888  21.5961478  25.1168979
  39.5307457   6.8543020  20.7130370  40.2593618   6.6758975  20.2668526
  39.6202350   7.6961100  20.9237548  39.6514119   6.9526898  20.6783888
  43.5115758  17.7896407  24.6162664  44.2673273  18.2227922  24.6551573
  43.6178082  17.1401177  25.1897300  43.6385929  17.7573891  24.7060690
  46.5495929  21.6169685  25.3665067  46.1131161  21.6206427  26.1224039
  46.2158845  22.2975184  24.9344645  46.4358549  21.7182140  25.4145900
  29.4912018  18.3305697  29.5752061  29.2250433  17.5144814  29.7343052
  29.5050582  18.3758853  28.7047577  29.4536741  18.2162602  29.4705543
  46.4693412   8.6583512  27.6094495  47.1119320   8.7281617  28.1956410
  46.7216433   7.9912735  27.1074037  46.6015544   8.5709861  27.6221774
  33.3969765  13.1290782  16.1903819  32.6827942  12.8428961  16.6026252
  33.8813734  13.4687408  16.8310207  33.3629128  13.1372432  16.3459454
  34.2410625  11.8684076  32.2219069  33.5482421  11.3981055  32.4679801
  34.8570952  11.6422380  32.7960776  34.2295155  11.7651208  32.3428222
  49.6840275  18.3350604  24.2584704  50.3456709  17.7741273  24.1580613
  49.0431687  17.8402635  24.5837396  49.6869143  18.1787013  24.2917045
  40.5717083  21.6320736  16.5665628  40.9868232  21.3005760  15.8750123
  39.7409013  21.3989638  16.4385764  40.5105092  21.5491992  16.4456475
  29.9005432  19.1164477  26.8563806  29.7181005  19.0911363  26.0036098
  30.6355101  19.5863415  26.8952714  29.9819496  19.1825839  26.7361724
  45.9705106  19.3515987  23.9996693  46.2060695  19.4961186  23.1723544
  46.1194670  20.1158395  24.3928207  46.0270909  19.4855041  23.9360297
  47.7995563  18.1917653  21.8366297  48.1303780  18.7245293  21.2306392
  48.3728651  18.2456541  22.4928248  47.9329242  18.2787222  21.8444079
  43.0127452  16.0382555  22.5189877  43.1074306  16.7771850  22.9729503
  42.3886295  15.6100031  22.9524442  42.9336482  16.0843876  22.6498025
  41.2679926  19.2168768  33.1680158  41.8418787  18.5796012  33.3228722
  41.1894729  19.2172851  32.2989816  41.3413161  19.1233879  33.0626569
  29.8676342  15.9957978  27.0062872  30.4449845  15.8594428  27.6455118
  29.1690404  15.5393762  27.2608457  29.8497364  15.9080244  27.1385162
  43.2650473  17.8831295  15.7526829  43.1830636  17.9533482  16.6181816
  43.9030194  18.4461039  15.5610570  43.3470311  17.9770266  15.8516779
  36.6243644  17.6492033  25.2201355  36.3662889  16.8163768  25.1932655
  36.6792127  17.8749646  24.3793856  36.5943422  17.5589804  25.0921492
  41.7044695   9.7520484  25.3205448  41.0001021   9.2629669  25.4789367
  41.7529669   9.7642958  24.4493893  41.6074746   9.6810132  25.2144788
  35.5978357  15.2029796  25.7066250  35.0227948  15.3621964  26.3430211
  35.2214033  14.5665205  25.2434701  35.4581169  15.1327609  25.7320809
  39.2651645  13.6753145  30.5658629  38.8766078  13.2507363  29.9110820
  38.6006344  13.9235295  31.0735655  39.1098573  13.6491866  30.5446497
  48.9074914  13.4328150  23.3406459  48.6511479  12.6208091  23.1504341
  49.7504228  13.4405717  23.1136646  48.9940940  13.3140147  23.2791276
  25.3435175  14.8469870  23.7210691  25.4295427  14.4701739  24.5024221
  25.9710973  14.4730316  23.2430649  25.4491726  14.7355353  23.7656168
  43.0878007   7.3727774  28.0782613  43.4688518   6.6905945  28.4650487
  42.2841291   7.0837376  27.8958277  43.0254468   7.2294822  28.1086669
  40.3690583  17.9051750  18.7635436  41.1831222  18.1966642  18.6518207
  40.3049725  17.2511612  18.1893729  40.4793322  17.8516944  18.6624273
  46.5900074  20.5877746  33.1765011  46.3538711  19.7565810  33.0577072
  47.2343303  20.5363353  33.7619855  46.6494744  20.4575434  33.2450905
  36.2398492  21.3773267  23.8907748  36.8772439  21.1385015  24.4359541
  36.6653563  21.5810426  23.1560908  36.3974658  21.3724277  23.8624905
  30.9311134  23.6161604  27.7742051  30.9715279  23.8876455  26.9461831
  31.4905658  24.1403512  28.1899839  31.0194480  23.7337359  27.7133940
  36.8801307  16.5975557  18.2282637  37.2646459  16.3783264  18.9799182
  36.6312927  17.4238502  18.3583713  36.9003379  16.6873703  18.3583713
  37.0469847   9.8781972  37.9445221  36.7323288  10.6481535  37.6814784
  36.7259780   9.3152228  37.3597448  36.9528766   9.9092241  37.8186571
  47.6136494  20.3722194  29.2393306  47.3082311  21.1050251  29.6006621
  46.8942710  19.9660124  28.9586092  47.4623837  20.4203927  29.2506443
  38.6219964  21.8545690  25.5701534  38.6958972  21.6920861  26.4243384
  39.4389470  22.0435879  25.3262016  38.7536322  21.8582432  25.6599560
  53.3138286  17.0115195  28.5661650  53.2462787  17.0311154  27.6964237
  53.2993949  17.8545522  28.7917321  53.3017043  17.1388930  28.4714127
  32.3825720  22.2003552  22.5995977  31.5563838  22.4465290  22.4730256
  32.4437712  22.1215633  23.4658035  32.2699887  22.2248501  22.7084922
  34.6001744   8.2672493  23.5591418  33.7324170   8.3395093  23.6249027
  34.8876948   9.0694572  23.7479393  34.5141492   8.3966641  23.5966184
  43.7234633   8.4150353  31.8902739  44.4688225   8.2260163  31.4766165
  43.3071937   8.9408591  31.3316596  43.7719607   8.4652498  31.7467313
  37.1624549  24.8180433  20.3015007  37.4522848  24.4269414  19.5774234
  37.8928030  24.9997138  20.7420283  37.3131434  24.7874246  20.2597814
  51.0996904  15.7859581  26.8408244  51.6504825  15.1527650  27.0805336
  51.0841019  16.3174974  27.5323749  51.1782100  15.7708529  26.9787103
  37.7519295  19.6198179  31.3868138  37.2530988  20.3313946  31.4653026
  38.5619519  19.9398845  31.3486300  37.7975401  19.7725027  31.3924706
  34.0147412  18.8821132  25.6330859  33.7260661  18.2558603  26.1676586
  34.8830760  18.8241419  25.6995539  34.1007664  18.7808676  25.7221813
  44.8025310  14.0255915  25.9512841  44.4590076  13.3046250  26.3020090
  44.9018352  13.8169766  25.1091199  44.7667353  13.8880118  25.8784521
  34.2179685  20.5216383  21.5573224  34.9725653  20.9029422  21.7708686
  33.6250298  20.9727526  22.0119920  34.2416399  20.6445210  21.6556102
  45.2638339  20.4881619  21.4936829  45.8296372  21.1474829  21.4095372
  44.6166242  20.8331317  21.9653231  45.2517095  20.6363560  21.5509585
  36.6786353  12.4779223  36.6830436  35.8686128  12.7837003  36.5720278
  37.1561039  13.1984805  36.7983020  36.6289831  12.6293824  36.6837507
  35.5377912  21.6924944  26.9313339  35.0158666  21.8325236  27.6165204
  35.9251932  20.9335608  27.1215456  35.5181613  21.6010468  27.0614416
  32.5269096  11.7430753  21.0008294  32.2393892  11.3732023  20.2640241
  33.2139564  12.2125608  20.7391999  32.5857993  11.7577722  20.8523370
  41.7344917  23.4320403  20.9173908  41.4931593  22.6988264  20.5100973
  41.9146250  23.9807260  20.2640241  41.7252541  23.4042794  20.7604131
  36.9644238  18.7228963  22.3294830  36.7687020  19.3303698  21.7355133
  37.1878583  18.0296907  21.8486504  36.9678879  18.7106489  22.1710911
  35.3622768  15.6083701  22.4475699  36.0845420  15.7724859  21.9879505
  34.8830761  16.3293366  22.3415038  35.3986498  15.7381931  22.3641313
  43.3216275  11.9447500  27.8272383  42.4827376  11.9708779  27.5910647
  43.3920643  12.5918235  28.4077730  43.2084669  12.0443626  27.8781500
  41.7685554   8.8432877  22.5599999  42.4711906   8.6440625  22.0819958
  41.5029742   8.0708819  22.8668843  41.8332186   8.6995843  22.5345441
  47.1973799  17.1515487  25.1133625  47.1107774  17.3070913  25.9668404
  46.7424279  17.7953562  24.7393030  47.1177056  17.2691242  25.1840732
  30.0997291  12.5211965  21.8493575  30.2013427  13.3238127  22.1774550
  30.8953177  12.3199301  21.5516655  30.2325196  12.6097864  21.8528930
  36.5314110  10.1068162  31.6130880  36.3397307  10.1223296  32.4630303
  37.3812706  10.3031836  31.5897535  36.6289832  10.1382513  31.7354175
  30.9161023  12.6359143  29.5914696  30.7746515  11.7843084  29.7159204
  31.2001586  12.6787804  28.7676902  30.9368869  12.5158893  29.4882321
  41.0699615  14.4726234  23.7359185  40.8234329  14.3921985  24.5695974
  41.3984738  13.6879701  23.5421712  41.0820859  14.3452499  23.8306708
  44.9647664  21.1809593  27.5245966  44.8262023  21.8790639  28.0294708
  44.1847662  21.0258249  27.1682148  44.8290891  21.2609760  27.5472240
  43.3025749  17.4805968  33.7768348  43.2973788  16.6085785  33.7810774
  44.0086743  17.6794137  33.3037803  43.4070753  17.3809843  33.7075383
  37.0296642  17.2082952  33.1482168  37.1740018  17.7884160  32.5125278
  37.3772291  17.5859249  33.8532022  37.1024104  17.3503656  33.1581163
  39.2016560  16.4073121  30.9307299  38.4539874  16.6004135  30.5255577
  39.3558085  15.5818340  30.6931421  39.1138987  16.3138232  30.8352705
  46.4601037  20.5387847  18.2862465  46.0807846  19.7524985  18.2791755
  45.7967282  21.0874704  18.1434109  46.3059512  20.5032671  18.2643262
  39.4418337  10.3023671  31.8202703  39.8990951  11.0347646  31.9475495
  39.5174666   9.8790137  32.5789959  39.5209307  10.3480909  31.9503780
  31.6851328  10.5489491  32.9092147  31.1493518   9.9369849  33.2252914
  31.7469093  11.1237627  33.5625813  31.6146961  10.5436419  33.0527574
  43.9145663   3.4813547  25.6896546  44.0329231   3.9390010  24.9563849
  43.7407839   2.6758808  25.4032764  43.9064834   3.4307319  25.5397480
  39.2847945  24.0901366  22.1251291  40.0497836  23.8211010  21.8033956
  39.1826035  23.6051376  22.8421354  39.3829441  23.9790930  22.1831119
  37.3200715  12.2925775  28.6644527  36.5296790  12.1117235  28.9861863
  37.7161338  11.5152728  28.6474822  37.2617591  12.1513236  28.7097076
  41.8066606  21.1213550  14.1051241  42.5739591  21.1813675  13.6957093
  41.3597915  20.5493991  13.6207559  41.8540033  21.0450125  13.9728951
  42.7044401  19.9268205  26.3903973  42.0289403  19.6953438  26.8917360
  42.7136777  19.3189388  25.7646078  42.6062906  19.8027131  26.3720125
  39.8338545  14.7686034  33.1468026  39.7697686  15.6295991  33.0188163
  39.9735733  14.4518028  32.3463577  39.8454015  14.8486201  33.0096239
  44.7061136  22.7833338  18.6214151  44.7880973  23.5900324  18.2975602
  45.1910878  22.8029297  19.3454925  44.7898294  22.9054000  18.6801050
  38.5157639  17.4618174  27.2884229  38.0919888  17.6622673  26.5523247
  38.3402494  16.6147022  27.4008529  38.4268520  17.3666955  27.1957919
  33.8040084  17.9570225  22.7212201  33.9604703  17.8917028  23.5768194
  34.1440677  18.7318778  22.5090881  33.8773319  18.0619423  22.8166796
  40.3419229  17.3328109  21.5905565  40.8834774  16.8298490  22.0544185
  40.6565788  17.2793303  20.7795050  40.4683626  17.2507530  21.5389377
  38.5105678  22.7245460  18.8745593  38.5798499  21.8659999  19.0138593
  39.2894133  22.9417341  18.5464617  38.6358528  22.6298324  18.8462750
  41.4908498  12.2264413  31.6427865  41.7050467  11.5875327  31.0891219
  40.8742397  12.6710237  31.2135727  41.4313827  12.1974557  31.4978296
  42.9013166  25.1483162  23.0882086  42.5092958  24.8449877  22.3704952
  43.0566238  25.9852251  22.8987040  42.8666756  25.2266998  22.9538583
  30.3774345  15.1405176  23.0372969  30.7573310  15.5589721  22.3733236
  29.8029710  15.7218631  23.3441812  30.3485670  15.2883034  22.9849710
  43.6547586  13.8353478  32.5811172  42.8424268  13.5279369  32.6624345
  44.1137521  13.3552479  33.1453884  43.6027971  13.7189971  32.6765766
  43.0652841  21.7133150  23.0288117  42.7067495  21.8847793  23.8052149
  42.5791551  22.1746356  22.4716115  42.9411538  21.8072121  23.0613386
  40.8823227   5.3364349  26.6315208  40.0116785   5.3103070  26.5848517
  41.1363568   5.1641541  25.8141054  40.7916787   5.3074493  26.5035345
  37.8541206  17.3932316  15.5688351  38.1433731  18.1697198  15.8431925
  37.9413005  16.8821047  16.2702850  37.9095462  17.4324234  15.7130849
  40.7501093  15.2413550  37.3639875  41.2200725  15.8655666  37.7507749
  40.7962974  14.5730525  37.9233089  40.8268969  15.2348230  37.5039946
  37.9072367   7.3470577  28.0888678  37.3910856   6.6550769  28.2140257
  37.3466296   8.0141354  28.0351277  37.7478880   7.3433835  28.0994744
  39.9764601   7.8863537  29.9181531  39.5896354   7.9112569  30.6995061
  39.4897538   7.3205216  29.4656048  39.8477109   7.8059288  29.9669435
  45.9514580  14.4526192  28.5421233  45.5242188  14.3652541  27.7869333
  45.3140633  14.5603968  29.1276077  45.7944187  14.4558852  28.5166675
  39.6421742   4.7730523  32.2091791  40.2714860   5.3090823  31.9312861
  39.8107605   4.6807882  33.0605356  39.7599537   4.8391885  32.2940319
  39.4435657   9.5601718  34.4818202  40.2709086   9.2886866  34.5376817
  39.4643503  10.3562559  34.8382021  39.5688507   9.6381472  34.5433385
  44.2811837  23.2956855  30.6160674  45.0704215  22.9445919  30.7362756
  44.4555434  24.1093243  30.3537308  44.4232118  23.3642712  30.5948542
  34.0205147  16.7065580  27.6688463  33.1793154  16.6069455  27.8767357
  34.2295155  17.4761061  28.0202784  33.9269840  16.8057624  27.7515778
  31.4980714  14.3285117  25.4973214  31.1037412  14.4028129  24.7223323
  30.9420831  14.7143064  26.0481575  31.3583526  14.3966892  25.4640874
  43.1345661   7.3066411  25.1777093  43.3395254   7.2388719  26.0234090
  42.8072085   8.1125233  25.1098270  43.1160909   7.4152352  25.2936748
  37.8321812  14.6346980  26.9186061  37.5284949  14.0802968  27.5196468
  37.1301233  14.8139190  26.4314095  37.6838022  14.5791762  26.9355766
  36.8887909  11.9447499  21.4830762  37.1647643  11.2266412  21.0708330
  37.4886578  12.5432419  21.2751869  37.0181174  11.9267870  21.3911524
  46.3879348   7.8598176  24.6579858  45.7753662   8.3468578  25.0433590
  46.4843523   7.1841666  25.2017509  46.3117246   7.8316484  24.7958716
  40.3898429   9.6161017  19.7577357  40.8442176   9.7871577  20.4825202
  40.8638475   9.0029127  19.3575133  40.5266750   9.5511902  19.8051119
  33.9113955  19.1009343  29.0880096  33.3201888  19.7418841  29.0583111
  34.6734978  19.5246960  29.0611395  33.9362215  19.2585181  29.0795243
  34.3074578  10.2611340  29.7548114  34.7676059  10.3350270  30.4923237
  34.3530684  11.0592594  29.4047935  34.3825133  10.3905487  29.8120870
  35.9557927  10.9278035  34.3220141  35.5643493  10.2811382  34.7575918
  36.1243790  11.5189471  34.9414396  35.9228838  10.9192303  34.4782847
  50.0304376  18.9315112  30.0857374  50.0887500  19.3801761  30.8317351
  49.3970844  19.3413925  29.6487454  49.9455671  19.0588847  30.1309923
  43.6703471  24.5518654  26.5212120  43.4723160  25.0409469  25.8268332
  43.0491182  24.7559896  27.0996254  43.5491036  24.6535192  26.5035344
  37.7311449  16.3203551  20.8622365  38.4753494  16.7077827  21.1005315
  37.8772146  15.4760976  21.0262852  37.8622035  16.2534024  20.9216334
  39.6491025   8.1153810  25.8954226  38.8027070   8.2876618  25.7695576
  39.6462157   7.3103154  26.2320054  39.5238175   8.0214839  25.9265353
  46.9826056  16.9531400  28.1723065  46.7424279  16.1137815  28.1765491
  47.4618063  17.0331567  28.8963838  47.0178240  16.8412800  28.2797867
  42.6472825  12.7865579  19.8242038  42.1195844  12.8694323  19.1347747
  43.1068533  13.5283450  19.8206683  42.6374675  12.9086241  19.7216733
  48.9831243  13.7332857  26.1252324  48.7441013  13.6928691  25.2873108
  49.1465144  14.5804009  26.2518045  48.9721546  13.8524942  26.0205806
  45.5877273  18.1182807  32.0557369  46.3111472  17.6655333  31.8768389
  45.3227235  18.3987472  31.2729697  45.6558546  18.0933775  31.9136084
  34.4564141  12.7142980  28.7910248  33.8317212  12.7261372  28.1836201
  34.1209736  13.1903155  29.4401488  34.3149633  12.7861497  28.7966817
  34.6405890  11.0568099  14.8482933  34.2918694  11.7087824  15.3114482
  34.1602336  11.0425212  14.1206804  34.5176134  11.1511152  14.8094024
  42.2009907  21.3569143  18.9551695  42.9244106  21.8227256  18.8116268
  41.7610498  21.4242752  18.2049292  42.2425600  21.4352979  18.8236476
  41.3696063  18.2166685  30.2052384  40.7553056  17.6724735  30.5001019
  41.8863347  17.7030921  29.7258200  41.3551725  18.0603094  30.1776612
  40.6092360  19.2870955  27.9396682  40.1819968  18.6620673  27.5062118
  40.6017304  19.0045877  28.7655690  40.5451501  19.1523735  27.9976510
  33.7254887  14.3236128  31.0085116  33.8848373  13.5679452  31.4136838
  33.5447780  14.8727067  31.6625854  33.7220246  14.2929942  31.1647822
  41.6675190   6.4897363  31.5635906  41.1715751   6.6861038  30.8727473
  42.4244252   6.8890032  31.3924708  41.7062014   6.5775097  31.4356043
  38.9378069  10.1639709  28.1539216  38.9620557   9.6299822  27.4651996
  39.1889543   9.6557018  28.8164807  38.9787988  10.0100613  28.1503861
  26.4485659  17.4471204  27.5882361  26.3429108  17.4018049  26.7234445
  25.6985879  17.7924985  27.8696645  26.3221262  17.4912112  27.5019690
  35.2179392   8.8910528  27.5344961  35.2577763   9.3919734  28.2479668
  34.3929056   8.9820921  27.2650884  35.1018918   8.9792344  27.5995499
  37.4009004  18.4571268  35.6365255  36.5504635  18.5942982  35.7722900
  37.5637132  17.7235046  36.0812957  37.2992868  18.3685369  35.7220855
  36.6393755  15.4071037  29.8318860  35.8085685  15.5744855  29.6254108
  36.5845272  15.0306988  30.6167745  36.5083170  15.3760769  29.9167388
  34.4477538   8.8979930  35.4675271  35.0730242   8.3542063  35.7404703
  33.9928018   8.4174848  34.8983061  34.4725799   8.7469412  35.4236864
  35.0129799  13.6826629  20.3608978  35.1532760  14.1799093  21.0637619
  35.5112332  12.9812923  20.5023191  35.1070880  13.6528608  20.4860557
  35.0430021  14.5493740  17.6901554  35.6775101  15.1454165  17.6251016
  35.1255632  14.2497198  18.5047424  35.1486572  14.5934648  17.8004641
  48.0212587  17.0809217  30.5587919  48.6130427  17.7206468  30.5906117
  48.4571581  16.3832254  30.8479985  48.1731018  17.0727568  30.6068751
  36.6209004  10.4807715  17.6646996  36.9424845  10.0010798  17.0106259
  36.8835948  11.2907361  17.4737808  36.7075029  10.5297613  17.5402488
  42.0168159   9.8679909  30.0270475  42.4423231   9.4152436  29.4154002
  41.4025152   9.3139980  30.3035263  41.9896804   9.7193886  29.9775501
  31.5483009  16.7461581  20.9591100  32.0575238  17.3426088  21.3402406
  32.0217281  16.4787554  20.2767520  31.6926385  16.7947396  20.9145623
  42.4613757  25.4189847  19.1149756  41.7443067  25.2450710  18.6496993
  43.1120495  25.1842420  18.5825242  42.4515608  25.3585640  18.9678974
  40.4562382   6.3395009  23.4361052  39.8130700   6.1892656  24.0046191
  40.1161789   6.0937354  22.6710157  40.3107459   6.2807132  23.4064068
  45.0461728  14.2954436  22.8591061  44.3752918  14.8384138  22.7304127
  45.7401479  14.7649291  22.6172756  45.0490596  14.4452707  22.8046589
  39.0948462  26.4351148  28.0902819  38.8714117  25.6769977  28.4586846
  38.6058305  26.4649169  27.3683259  38.9891911  26.3273372  28.0379560
  45.2089856  10.7510320  25.7681434  45.5617466  10.3240043  26.4427233
  44.3504657  10.6661163  25.8982511  45.1339300  10.6755060  25.8876445
  33.9073541  13.3817839  23.8264281  33.1885530  13.7981972  24.0937144
  34.2785903  13.9472078  23.2755919  33.8565473  13.5267121  23.7847088
  43.2073122  14.0145688  29.7166277  43.1871049  13.8328983  30.5701055
  43.2552322  14.8857707  29.6925860  43.2107763  14.1162226  29.8389571
  41.1092213  25.8141691  26.2963521  40.7108496  25.9243962  25.5284341
  40.4943433  26.0223758  26.8790080  40.9591102  25.8615259  26.2694820
  39.6820115  12.4215839  19.1637660  39.0884954  12.7432836  18.6122227
  39.7195393  11.5756935  18.9558766  39.5994504  12.3440167  19.0520432
  46.6413916   5.8728731  26.6965747  46.1344781   5.1657871  26.6286924
  47.4381350   5.5421920  26.8266823  46.6841155   5.7201883  26.7064742
  42.5577932  12.3795344  22.5939410  42.3291625  12.4028045  21.7517769
  42.8176008  11.5552811  22.7134421  42.5624120  12.2611424  22.4864608
  36.8397160  14.2329817  32.1964511  36.3276063  13.6251000  32.5549542
  36.6676656  14.9486409  32.6638486  36.7386797  14.2493116  32.3180734
  31.6862875  12.6767392  34.8466872  31.5165465  13.3368767  34.3015079
  31.2428825  12.8873953  35.5679362  31.5962208  12.8053374  34.8728502
  35.6122694  10.9171890  23.8893606  36.0880061  11.2788970  23.2543787
  35.1111294  11.5728358  24.1693749  35.6088053  11.0666079  23.8370347
  48.8434056  20.3893658  19.6806611  49.2267662  21.1385014  19.9104708
  48.0478169  20.6359478  19.4218600  48.7827838  20.5363352  19.6764185
  40.7166231  12.1554061  34.6366766  41.2737661  11.9267871  34.0045232
  40.3927296  12.9159727  34.3601979  40.7512641  12.2337898  34.5023263
  38.4349348  15.2421715  35.6018773  39.1860675  15.5573392  35.9158328
  38.6271924  15.0400886  34.7752695  38.5740762  15.2589096  35.5262169
  37.6549347  13.0613090  17.2566990  38.0348312  13.0792719  16.4718105
  36.9141943  13.5067079  17.1357837  37.6018185  13.1294864  17.1230558
  45.2834638  11.3695281  22.8442569  45.2828864  11.2143938  23.7026845
  45.0790818  12.2158268  22.7883954  45.2534416  11.4715902  22.9630508
  27.3451909  14.7935065  27.2601385  27.1673670  14.3411674  27.9856301
  27.0570931  15.5961227  27.4439863  27.2764862  14.8457623  27.3944888
  43.0075490  16.0492783  26.4978776  43.5029155  15.3315778  26.4582796
  42.1975266  15.7463580  26.3833263  42.9619383  15.8990429  26.4752502
  38.4534102  19.8990596  18.6475780  37.6445424  19.5757270  18.6009090
  38.9609010  19.1923818  18.5804029  38.4083768  19.7471912  18.6306075
  29.0824379  17.3262789  24.3723144  28.2169898  17.3148480  24.2605916
  29.1823195  17.1393012  25.2194284  28.9698546  17.2968850  24.4812089
  45.0727309  18.7996470  29.1855904  45.4982380  18.2770892  28.6326329
  44.7084229  19.3977308  28.6644527  45.0813911  18.8106697  29.0264914
  41.6605908  22.5130735  25.5157062  42.1317086  23.2270997  25.6847047
  41.9966087  21.9129485  26.0516931  41.7801023  22.5302199  25.6189438
  38.5775403   7.2858205  32.4715157  38.7103309   6.4889199  32.7996132
  38.9620556   7.8124608  33.0513432  38.6531732   7.2458122  32.6058660
  41.6507758   4.2088531  29.0696250  40.8453722   4.0986261  29.3864088
  41.5214494   4.3100987  28.2126116  41.5127891   4.2072201  28.9904290
  45.1073719  10.3734023  29.6635947  44.5236708  10.8743230  29.2513514
  45.4278013   9.8663579  29.0300270  45.0686894  10.3725858  29.5094454
  37.6468518   9.2874618  19.9394622  38.4684212   9.4572931  19.6976317
  37.1838169   9.4421879  19.2160919  37.6999680   9.3356351  19.7966266
  36.2363850   7.2817380  30.7193050  36.7808263   6.9408507  31.3097392
  36.2900786   8.1402842  30.8614335  36.3252969   7.3572640  30.8274924
  32.0494409  21.0433796  27.5931858  32.6539266  21.0029630  26.9645679
  31.8421721  21.8904948  27.6235914  32.1083306  21.1621799  27.5047975
  41.8638181  23.3099741  28.8094096  42.6836555  23.1662707  29.0710391
  41.5832259  23.9345940  29.3510534  41.9434924  23.3810093  28.9282035
  27.2845691  20.0268414  27.4630781  27.1869969  19.2164685  27.7720838
  28.0674561  20.0060207  27.0777050  27.3861828  19.9035504  27.4517644
  58.3351831  30.9664593  21.7736972  58.3045836  31.8209230  21.9455241
  58.9333180  30.6659886  22.3323116  58.4188989  31.0481090  21.8811774
  51.5351516  30.0540244  26.5289903  50.6789412  30.2148742  26.5799019
  51.5819170  29.1832308  26.5494964  51.4150628  29.9491046  26.5395969
  51.3717616  40.0128331  17.7212681  51.0368984  40.6905253  17.2856903
  51.8844486  39.6233643  17.1329553  51.3983197  40.0552910  17.5699473
  54.3803337  32.1132288  29.1721554  54.9259297  32.7917375  29.2315524
  54.3220213  31.9719749  28.3123136  54.4519252  32.1924290  29.0533615
  56.1568406  33.5416895  20.0455282  56.0407932  34.2924581  20.4747420
  56.9524293  33.2840848  20.2951369  56.2572995  33.6151742  20.1459374
  40.6942456  35.6241641  24.1842240  40.4592641  34.7909293  24.0774509
  40.8328097  35.9046306  23.3703441  40.6798119  35.5425144  24.0484595
  42.9932544  27.7927371  27.0826548  42.3737575  27.2020019  26.9136563
  42.8916407  28.3838807  26.4490871  42.8870219  27.7931454  26.9631537
  48.0398731  37.5310918  21.3324624  48.3614572  38.0716125  20.7285932
  48.6870828  36.9607690  21.4646914  48.1824787  37.5270093  21.2631660
  50.0900439  29.5326913  21.4159011  50.7880604  29.7115041  21.9080474
  50.4052772  29.0097252  20.7929400  50.2395777  29.4820685  21.3961021
  50.2788375  35.9197358  21.4038803  50.7182010  35.3114459  21.8493575
  50.1293038  35.5404731  20.6324268  50.3209840  35.7735829  21.3557970
  48.2627303  24.9019310  25.4980286  47.9330633  25.3530453  24.8283984
  47.5872305  24.8235473  26.0453292  48.1137739  24.9570445  25.4803509
  53.8797711  34.2724539  18.3569572  53.7949006  35.1285506  18.5019141
  54.3682095  33.9968863  19.0251731  53.9386609  34.3581861  18.4771653
  55.4703711  20.8904833  23.7429896  55.1557152  21.5808311  24.1750319
  54.9530652  20.8349615  23.0415397  55.3468181  20.9839721  23.7026845
  54.8116145  30.8909334  19.8567307  54.2827616  31.1068967  20.5164613
  55.3341165  31.5845472  19.7768276  54.8104598  31.0252470  19.9422906
  60.2664197  36.4655638  25.2300351  59.4361901  36.6766282  25.3933768
  60.2173450  35.6392693  24.9542635  60.1370933  36.3745244  25.2137717
  46.7015752  34.7872550  18.6574775  46.1172968  35.2922582  19.0640639
  46.2985848  34.5614937  17.9171367  46.5555056  34.8280799  18.6079800
  51.1592967  31.0338202  17.1343695  51.3988970  31.2416186  16.3219039
  51.4808808  30.2295711  17.2432640  51.2430125  30.9452304  17.0304249
  46.4683257  22.9631598  20.9803233  47.2229225  23.3309915  20.7420284
  46.2910792  23.3371153  21.7482413  46.5537735  23.0729786  21.0588122
  59.7618156  29.1126039  29.0250773  58.9246577  29.1828226  29.2598367
  59.7306387  29.1150534  28.1525075  59.6336438  29.1236266  28.9310321
  44.8240322  25.3701917  17.6781346  44.6415895  25.5873798  16.8522339
  45.6865935  25.4840930  17.7339961  44.9244911  25.4191815  17.5635833
  50.5040041  22.3728328  20.7130370  51.2326201  22.1944283  20.2668526
  50.5934934  23.2146408  20.9237548  50.6246703  22.4712206  20.6783888
  54.4848342  33.3081715  24.6162664  55.2405857  33.7413230  24.6551573
  54.5910666  32.6586485  25.1897300  54.6118512  33.2759199  24.7060690
  57.5228513  37.1354992  25.3665067  57.0863745  37.1391735  26.1224039
  57.1891428  37.8160491  24.9344645  57.4091133  37.2367448  25.4145900
  57.4425996  24.1768820  27.6094495  58.0851904  24.2466925  28.1956410
  57.6949016  23.5098043  27.1074037  57.5748128  24.0895169  27.6221774
  44.3702349  28.6476090  16.1903819  43.6560526  28.3614269  16.6026252
  44.8546317  28.9872716  16.8310207  44.3361712  28.6557739  16.3459454
  60.6572859  33.8535912  24.2584704  61.3189293  33.2926581  24.1580613
  60.0164271  33.3587943  24.5837396  60.6601726  33.6972321  24.2917045
  51.5449667  37.1506044  16.5665628  51.9600815  36.8191068  15.8750123
  50.7141596  36.9174946  16.4385764  51.4837675  37.0677300  16.4456475
  56.9437690  34.8701295  23.9996693  57.1793279  35.0146494  23.1723544
  57.0927253  35.6343703  24.3928207  57.0003493  35.0040349  23.9360297
  58.7728146  33.7102961  21.8366297  59.1036363  34.2430601  21.2306392
  59.3461234  33.7641848  22.4928248  58.9061825  33.7972530  21.8444079
  53.9860035  31.5567863  22.5189877  54.0806890  32.2957157  22.9729503
  53.3618879  31.1285339  22.9524442  53.9069066  31.6029184  22.6498025
  54.2383057  33.4016603  15.7526829  54.1563219  33.4718790  16.6181816
  54.8762777  33.9646347  15.5610570  54.3202894  33.4955574  15.8516779
  52.6777278  25.2705792  25.3205448  51.9733605  24.7814977  25.4789367
  52.7262252  25.2828266  24.4493893  52.5807330  25.1995440  25.2144788
  46.5710940  30.7215104  25.7066250  45.9960531  30.8807272  26.3430211
  46.1946616  30.0850513  25.2434701  46.4313752  30.6512917  25.7320809
  59.8807498  28.9513458  23.3406459  59.6244063  28.1393399  23.1504341
  60.7236812  28.9591025  23.1136646  59.9673523  28.8325455  23.2791276
  54.0610590  22.8913082  28.0782613  54.4421102  22.2091253  28.4650487
  53.2573875  22.6022684  27.8958277  53.9987052  22.7480130  28.1086669
  51.3423167  33.4237057  18.7635436  52.1563806  33.7151950  18.6518207
  51.2782308  32.7696920  18.1893729  51.4525906  33.3702252  18.6624273
  47.2131075  36.8958575  23.8907748  47.8505022  36.6570322  24.4359541
  47.6386147  37.0995734  23.1560908  47.3707242  36.8909585  23.8624905
  47.8533890  32.1160865  18.2282637  48.2379043  31.8968571  18.9799182
  47.6045511  32.9423810  18.3583713  47.8735963  32.2059011  18.3583713
  58.5869078  35.8907502  29.2393306  58.2814895  36.6235559  29.6006621
  57.8675293  35.4845432  28.9586092  58.4356420  35.9389235  29.2506443
  64.2870870  32.5300503  28.5661650  64.2195370  32.5496462  27.6964237
  64.2726532  33.3730830  28.7917321  64.2749626  32.6574238  28.4714127
  45.5734328  23.7857801  23.5591418  44.7056753  23.8580401  23.6249027
  45.8609532  24.5879880  23.7479393  45.4874076  23.9151948  23.5966184
  54.6967216  23.9335661  31.8902739  55.4420808  23.7445471  31.4766165
  54.2804521  24.4593899  31.3316596  54.7452191  23.9837806  31.7467313
  48.1357133  40.3365741  20.3015007  48.4255431  39.9454722  19.5774234
  48.8660614  40.5182446  20.7420283  48.2864017  40.3059554  20.2597814
  62.0729487  31.3044889  26.8408244  62.6237409  30.6712958  27.0805336
  62.0573603  31.8360282  27.5323749  62.1514684  31.2893837  26.9787103
  55.7757893  29.5441223  25.9512841  55.4322659  28.8231558  26.3020090
  55.8750936  29.3355074  25.1091199  55.7399936  29.4065426  25.8784521
  48.2431004  43.6862513  22.1505849  48.8955062  43.1538955  22.3796875
  47.5456613  43.3331165  22.5373723  48.2361722  43.5552036  22.2418017
  45.1912269  36.0401691  21.5573224  45.9458237  36.4214730  21.7708686
  44.5982882  36.4912834  22.0119920  45.2148983  36.1630518  21.6556102
  56.2370923  36.0066927  21.4936829  56.8028955  36.6660137  21.4095372
  55.5898826  36.3516625  21.9653231  56.2249679  36.1548868  21.5509585
  43.5001680  27.2616061  21.0008294  43.2126475  26.8917331  20.2640241
  44.1872148  27.7310916  20.7391999  43.5590577  27.2763030  20.8523370
  52.7077501  38.9505711  20.9173908  52.4664177  38.2173572  20.5100973
  52.8878834  39.4992568  20.2640241  52.6985125  38.9228102  20.7604131
  47.9376821  34.2414271  22.3294830  47.7419604  34.8489006  21.7355133
  48.1611167  33.5482215  21.8486504  47.9411462  34.2291796  22.1710911
  46.3355351  31.1269009  22.4475699  47.0578003  31.2910167  21.9879505
  45.8563344  31.8478674  22.3415038  46.3719082  31.2567238  22.3641313
  54.2948859  27.4632808  27.8272383  53.4559960  27.4894087  27.5910647
  54.3653226  28.1103543  28.4077730  54.1817252  27.5628934  27.8781500
  52.7418137  24.3618185  22.5599999  53.4444490  24.1625933  22.0819958
  52.4762326  23.5894127  22.8668843  52.8064769  24.2181151  22.5345441
  58.1706383  32.6700794  25.1133625  58.0840357  32.8256221  25.9668404
  57.7156863  33.3138870  24.7393030  58.0909639  32.7876550  25.1840732
  41.0729874  28.0397273  21.8493575  41.1746011  28.8423435  22.1774550
  41.8685761  27.8384609  21.5516655  41.2057780  28.1283172  21.8528930
  52.0432199  29.9911542  23.7359185  51.7966913  29.9107292  24.5695974
  52.3717322  29.2065009  23.5421712  52.0553442  29.8637807  23.8306708
  55.9380248  36.6994901  27.5245966  55.7994607  37.3975947  28.0294708
  55.1580245  36.5443557  27.1682148  55.8023474  36.7795068  27.5472240
  50.1749143  31.9258429  30.9307299  49.4272457  32.1189443  30.5255577
  50.3290669  31.1003648  30.6931421  50.0871571  31.8323540  30.8352705
  57.4333620  36.0573155  18.2862465  57.0540429  35.2710293  18.2791755
  56.7699866  36.6060012  18.1434109  57.2792095  36.0217979  18.2643262
  54.8878246  18.9998854  25.6896546  55.0061814  19.4575318  24.9563849
  54.7140422  18.1944116  25.4032764  54.8797417  18.9492627  25.5397480
  50.2580529  39.6086674  22.1251291  51.0230420  39.3396317  21.8033956
  50.1558619  39.1236684  22.8421354  50.3562024  39.4976238  22.1831119
  48.2933298  27.8111083  28.6644527  47.5029373  27.6302543  28.9861863
  48.6893921  27.0338036  28.6474822  48.2350175  27.6698544  28.7097076
  52.7799189  36.6398857  14.1051241  53.5472174  36.6998982  13.6957093
  52.3330498  36.0679299  13.6207559  52.8272616  36.5635433  13.9728951
  53.6776985  35.4453513  26.3903973  53.0021986  35.2138746  26.8917360
  53.6869361  34.8374696  25.7646078  53.5795489  35.3212439  26.3720125
  55.6793719  38.3018646  18.6214151  55.7613557  39.1085632  18.2975602
  56.1643461  38.3214605  19.3454925  55.7630877  38.4239308  18.6801050
  44.7772668  33.4755533  22.7212201  44.9337287  33.4102336  23.5768194
  45.1173261  34.2504086  22.5090881  44.8505902  33.5804731  22.8166796
  51.3151812  32.8513417  21.5905565  51.8567358  32.3483798  22.0544185
  51.6298371  32.7978611  20.7795050  51.4416209  32.7692838  21.5389377
  49.4838262  38.2430768  18.8745593  49.5531082  37.3845307  19.0138593
  50.2626717  38.4602649  18.5464617  49.6091112  38.1483632  18.8462750
  53.8745749  40.6668469  23.0882086  53.4825541  40.3635185  22.3704952
  54.0298822  41.5037559  22.8987040  53.8399339  40.7452306  22.9538583
  54.6280170  29.3538786  32.5811172  53.8156851  29.0464677  32.6624345
  55.0870104  28.8737786  33.1453884  54.5760554  29.2375279  32.6765766
  54.0385424  37.2318458  23.0288117  53.6800079  37.4033101  23.8052149
  53.5524135  37.6931664  22.4716115  53.9144121  37.3257429  23.0613386
  51.8555810  20.8549657  26.6315208  50.9849368  20.8288378  26.5848517
  52.1096151  20.6826849  25.8141054  51.7649370  20.8259801  26.5035345
  48.8273790  32.9117624  15.5688351  49.1166314  33.6882506  15.8431925
  48.9145588  32.4006355  16.2702850  48.8828046  32.9509542  15.7130849
  48.8804951  22.8655885  28.0888678  48.3643439  22.1736077  28.2140257
  48.3198880  23.5326662  28.0351277  48.7211464  22.8619143  28.0994744
  50.9497184  23.4048845  29.9181531  50.5628937  23.4297877  30.6995061
  50.4630121  22.8390524  29.4656048  50.8209693  23.3244596  29.9669435
  56.9247164  29.9711500  28.5421233  56.4974772  29.8837849  27.7869333
  56.2873217  30.0789276  29.1276077  56.7676771  29.9744160  28.5166675
  50.6154326  20.2915831  32.2091791  51.2447444  20.8276131  31.9312861
  50.7840189  20.1993190  33.0605356  50.7332120  20.3577193  32.2940319
  42.4713298  29.8470425  25.4973214  42.0769995  29.9213437  24.7223323
  41.9153414  30.2328372  26.0481575  42.3316110  29.9152200  25.4640874
  54.1078244  22.8251719  25.1777093  54.3127838  22.7574027  26.0234090
  53.7804668  23.6310540  25.1098270  54.0893492  22.9337660  25.2936748
  48.8054395  30.1532287  26.9186061  48.5017533  29.5988276  27.5196468
  48.1033816  30.3324497  26.4314095  48.6570605  30.0977070  26.9355766
  47.8620493  27.4632807  21.4830762  48.1380227  26.7451720  21.0708330
  48.4619162  28.0617727  21.2751869  47.9913757  27.4453178  21.3911524
  57.3611932  23.3783484  24.6579858  56.7486246  23.8653886  25.0433590
  57.4576107  22.7026974  25.2017509  57.2849830  23.3501792  24.7958716
  51.3631013  25.1346325  19.7577357  51.8174760  25.3056885  20.4825202
  51.8371059  24.5214435  19.3575133  51.4999333  25.0697210  19.8051119
  45.2807161  25.7796648  29.7548114  45.7408643  25.8535578  30.4923237
  45.3263268  26.5777902  29.4047935  45.3557717  25.9090795  29.8120870
  61.0036960  34.4500420  30.0857374  61.0620084  34.8987069  30.8317351
  60.3703428  34.8599233  29.6487454  60.9188255  34.5774155  30.1309923
  54.6436055  40.0703962  26.5212120  54.4455743  40.5594777  25.8268332
  54.0223766  40.2745204  27.0996254  54.5223619  40.1720500  26.5035344
  48.7044033  31.8388859  20.8622365  49.4486078  32.2263135  21.1005315
  48.8504729  30.9946284  21.0262852  48.8354618  31.7719332  20.9216334
  50.6223608  23.6339118  25.8954226  49.7759654  23.8061926  25.7695576
  50.6194741  22.8288462  26.2320054  50.4970758  23.5400147  25.9265353
  51.6921909  27.4114332  26.7616284  51.2181863  26.8856094  27.2721595
  52.0640045  26.8643805  26.1931146  51.6771798  27.2530329  26.7531431
  57.9558639  32.4716708  28.1723065  57.7156862  31.6323123  28.1765491
  58.4350647  32.5516875  28.8963838  57.9910823  32.3598108  28.2797867
  53.6205409  28.3050887  19.8242038  53.0928427  28.3879631  19.1347747
  54.0801117  29.0468758  19.8206683  53.6107259  28.4271549  19.7216733
  59.9563826  29.2518165  26.1252324  59.7173596  29.2113999  25.2873108
  60.1197728  30.0989317  26.2518045  59.9454130  29.3710250  26.0205806
  56.5609857  33.6368114  32.0557369  57.2844055  33.1840641  31.8768389
  56.2959819  33.9172780  31.2729697  56.6291130  33.6119083  31.9136084
  45.4296725  28.2328288  28.7910248  44.8049795  28.2446680  28.1836201
  45.0942320  28.7088463  29.4401488  45.2882217  28.3046805  28.7966817
  45.6138474  26.5753406  14.8482933  45.2651278  27.2273132  15.3114482
  45.1334919  26.5610520  14.1206804  45.4908718  26.6696460  14.8094024
  53.1742491  36.8754450  18.9551695  53.8976690  37.3412563  18.8116268
  52.7343082  36.9428060  18.2049292  53.2158183  36.9538287  18.8236476
  52.6407773  22.0082671  31.5635906  52.1448335  22.2046346  30.8727473
  53.3976835  22.4075340  31.3924708  52.6794598  22.0960405  31.4356043
  49.9110653  25.6825017  28.1539216  49.9353140  25.1485130  27.4651996
  50.1622127  25.1742326  28.8164807  49.9520572  25.5285921  28.1503861
  46.1911975  24.4095836  27.5344961  46.2310347  24.9105042  28.2479668
  45.3661640  24.5006229  27.2650884  46.0751501  24.4977652  27.5995499
  45.9862382  29.2011937  20.3608978  46.1265343  29.6984401  21.0637619
  46.4844915  28.4998231  20.5023191  46.0803463  29.1713916  20.4860557
  46.0162605  30.0679048  17.6901554  46.6507684  30.6639473  17.6251016
  46.0988216  29.7682506  18.5047424  46.1219156  30.1119956  17.8004641
  58.9945171  32.5994525  30.5587919  59.5863011  33.2391776  30.5906117
  59.4304165  31.9017562  30.8479985  59.1463602  32.5912876  30.6068751
  47.5941588  25.9993023  17.6646996  47.9157429  25.5196106  17.0106259
  47.8568531  26.8092669  17.4737808  47.6807613  26.0482921  17.5402488
  52.9900743  25.3865217  30.0270475  53.4155814  24.9337744  29.4154002
  52.3757736  24.8325288  30.3035263  52.9629388  25.2379194  29.9775501
  42.5215593  32.2646889  20.9591100  43.0307822  32.8611396  21.3402406
  42.9949865  31.9972862  20.2767520  42.6658968  32.3132704  20.9145623
  53.4346341  40.9375155  19.1149756  52.7175650  40.7636018  18.6496993
  54.0853078  40.7027728  18.5825242  53.4248191  40.8770948  18.9678974
  51.4294965  21.8580317  23.4361052  50.7863283  21.7077963  24.0046191
  51.0894372  21.6122662  22.6710157  51.2840043  21.7992440  23.4064068
  56.0194312  29.8139744  22.8591061  55.3485502  30.3569446  22.7304127
  56.7134062  30.2834599  22.6172756  56.0223179  29.9638015  22.8046589
  56.1822439  26.2695628  25.7681434  56.5350049  25.8425350  26.4427233
  55.3237241  26.1846471  25.8982511  56.1071884  26.1940368  25.8876445
  44.8806124  28.9003147  23.8264281  44.1618114  29.3167280  24.0937144
  45.2518487  29.4657386  23.2755919  44.8298056  29.0452429  23.7847088
  54.1805705  29.5330996  29.7166277  54.1603633  29.3514291  30.5701055
  54.2284906  30.4043015  29.6925860  54.1840346  29.6347534  29.8389571
  50.6552699  27.9401147  19.1637660  50.0617538  28.2618144  18.6122227
  50.6927976  27.0942243  18.9558766  50.5727088  27.8625475  19.0520432
  57.6146499  21.3914039  26.6965747  57.1077364  20.6843179  26.6286924
  58.4113933  21.0607228  26.8266823  57.6573739  21.2387191  26.7064742
  53.5310515  27.8980652  22.5939410  53.3024208  27.9213353  21.7517769
  53.7908592  27.0738119  22.7134421  53.5356703  27.7796732  22.4864608
  46.5855278  26.4357198  23.8893606  47.0612644  26.7974278  23.2543787
  46.0843877  27.0913666  24.1693749  46.5820637  26.5851387  23.8370347
  59.8166639  35.9078966  19.6806611  60.2000245  36.6570322  19.9104708
  59.0210753  36.1544786  19.4218600  59.7560422  36.0548660  19.6764185
  48.6281931  28.5798398  17.2566990  49.0080896  28.5978027  16.4718105
  47.8874527  29.0252387  17.1357837  48.5750769  28.6480172  17.1230558
  53.9808074  31.5678091  26.4978776  54.4761739  30.8501086  26.4582796
  53.1707849  31.2648888  26.3833263  53.9351967  31.4175737  26.4752502
  49.4266685  35.4175904  18.6475780  48.6178008  35.0942578  18.6009090
  49.9341594  34.7109126  18.5804029  49.3816352  35.2657220  18.6306075
  56.0459892  34.3181778  29.1855904  56.4714964  33.7956200  28.6326329
  55.6816812  34.9162616  28.6644527  56.0546495  34.3292005  29.0264914
  52.6338492  38.0316042  25.5157062  53.1049670  38.7456305  25.6847047
  52.9698670  37.4314793  26.0516931  52.7533607  38.0487507  25.6189438
  49.5507987  22.8043513  32.4715157  49.6835892  22.0074506  32.7996132
  49.9353140  23.3309916  33.0513432  49.6264316  22.7643430  32.6058660
  52.6240342  19.7273839  29.0696250  51.8186306  19.6171569  29.3864088
  52.4947077  19.8286295  28.2126116  52.4860475  19.7257509  28.9904290
  56.0806303  25.8919331  29.6635947  55.4969291  26.3928538  29.2513514
  56.4010597  25.3848887  29.0300270  56.0419478  25.8911166  29.5094454
  48.6201102  24.8059926  19.9394622  49.4416796  24.9758239  19.6976317
  48.1570753  24.9607187  19.2160919  48.6732264  24.8541659  19.7966266
  47.2096434  22.8002688  30.7193050  47.7540847  22.4593815  31.3097392
  47.2633369  23.6588150  30.8614335  47.2985553  22.8757947  30.8274924
  69.3084415  46.4849901  21.7736972  69.2778419  47.3394538  21.9455241
  69.9065764  46.1845194  22.3323116  69.3921573  46.5666398  21.8811774
  62.5084100  45.5725552  26.5289903  61.6521995  45.7334050  26.5799019
  62.5551753  44.7017616  26.5494964  62.3883211  45.4676354  26.5395969
  56.8925239  55.1088270  22.2927134  56.1408139  54.7303808  22.0643179
  57.3411251  55.1406704  21.5445944  56.8474906  55.0573877  22.1484636
  65.8177816  51.8412078  36.1350359  66.5244584  51.3464108  36.2637293
  66.0065752  52.2821159  35.4053017  65.9505722  51.8330428  36.0459404
  62.3450199  55.5313639  17.7212681  62.0101568  56.2090561  17.2856903
  62.8577070  55.1418951  17.1329553  62.3715780  55.5738218  17.5699473
  61.8854491  57.4827908  23.6623793  62.2693870  58.0514807  23.1228568
  61.8213632  56.7577418  23.1829609  61.9327918  57.4603372  23.5117655
  65.3535921  47.6317596  29.1721554  65.8991881  48.3102683  29.2315524
  65.2952797  47.4905057  28.3123136  65.4251835  47.7109598  29.0533615
  58.4709996  55.1206662  24.5589907  58.5720359  54.3107016  24.8687034
  57.8751741  55.0263608  23.9289585  58.3982534  54.9871690  24.5116145
  67.1300989  49.0602203  20.0455282  67.0140515  49.8109889  20.4747420
  67.9256876  48.8026156  20.2951369  67.2305579  49.1337050  20.1459374
  58.3110735  60.0384251  25.9604763  58.9548191  60.4797415  26.3500921
  58.6366991  59.2337677  25.8735021  58.4542564  59.9849446  26.0050240
  51.6675040  51.1426949  24.1842240  51.4325224  50.3094601  24.0774509
  51.8060681  51.4231614  23.3703441  51.6530702  51.0610452  24.0484595
  53.9665127  43.3112679  27.0826548  53.3470159  42.7205326  26.9136563
  53.8648991  43.9024114  26.4490871  53.8602803  43.3116762  26.9631537
  59.0131315  53.0496226  21.3324624  59.3347156  53.5901433  20.7285932
  59.6603411  52.4792997  21.4646914  59.1557370  53.0455401  21.2631660
  61.0633023  45.0512221  21.4159011  61.7613188  45.2300349  21.9080474
  61.3785356  44.5282560  20.7929400  61.2128360  45.0005993  21.3961021
  61.2520958  51.4382666  21.4038803  61.6914594  50.8299767  21.8493575
  61.1025621  51.0590039  20.6324268  61.2942424  51.2921137  21.3557970
  61.2578693  52.8781584  28.2564521  61.5401936  52.0832989  28.0351276
  61.9864853  53.3562171  28.2769582  61.4068256  52.8316181  28.2267536
  59.2359887  40.4204618  25.4980286  58.9063217  40.8715761  24.8283984
  58.5604888  40.3420781  26.0453292  59.0870323  40.4755753  25.4803509
  64.8530295  49.7909847  18.3569572  64.7681590  50.6470814  18.5019141
  65.3414678  49.5154171  19.0251731  64.9119192  49.8767169  18.4771653
  66.4436294  36.4090141  23.7429896  66.1289735  37.0993619  24.1750319
  65.9263236  36.3534923  23.0415397  66.3200765  36.5025029  23.7026845
  65.7848728  46.4094642  19.8567307  65.2560200  46.6254275  20.5164613
  66.3073748  47.1030780  19.7768276  65.7837181  46.5437778  19.9422906
  71.2396781  51.9840946  25.2300351  70.4094484  52.1951590  25.3933768
  71.1906033  51.1578001  24.9542635  71.1103516  51.8930552  25.2137717
  57.6748336  50.3057858  18.6574775  57.0905551  50.8107890  19.0640639
  57.2718431  50.0800245  17.9171367  57.5287640  50.3466107  18.6079800
  59.3006519  54.8144800  28.0648261  58.7833460  54.4552215  27.4609569
  59.9980910  54.2906975  28.0754327  59.3272100  54.6842488  27.9778520
  62.9570111  55.2639614  34.0264434  63.0453456  55.0765755  34.8742644
  63.3859823  54.6177044  33.6269281  63.0332213  55.1402622  34.0936185
  60.5240570  54.5470774  33.0082096  59.9611405  54.1343384  33.5321757
  61.2861594  54.4723680  33.4275239  60.5535019  54.4748175  33.1475096
  62.1325550  46.5523510  17.1343695  62.3721554  46.7601494  16.3219039
  62.4541391  45.7481019  17.2432640  62.2162708  46.4637612  17.0304249
  57.4415841  38.4816906  20.9803233  58.1961809  38.8495223  20.7420284
  57.2643375  38.8556460  21.7482413  57.5270319  38.5915094  21.0588122
  56.0836562  56.5368795  25.6118726  56.7857141  56.0220784  25.6691483
  56.0034045  56.8642947  26.4165601  56.1760322  56.5083022  25.7391518
  70.7350739  44.6311347  29.0250773  69.8979160  44.7013534  29.2598367
  70.7038970  44.6335841  28.1525075  70.6069022  44.6421574  28.9310321
  55.7972905  40.8887225  17.6781346  55.6148479  41.1059106  16.8522339
  56.6598518  41.0026238  17.7339961  55.8977495  40.9377123  17.5635833
  55.4087337  52.7275147  25.1204334  56.2476237  52.9598080  25.1678096
  55.4399106  51.8579459  25.0511370  55.5369055  52.6332094  25.1168979
  61.4772624  37.8913636  20.7130370  62.2058785  37.7129591  20.2668526
  61.5667517  38.7331716  20.9237548  61.5979287  37.9897514  20.6783888
  65.4580925  48.8267023  24.6162664  66.2138440  49.2598538  24.6551573
  65.5643250  48.1771793  25.1897300  65.5851096  48.7944507  24.7060690
  68.4961096  52.6540300  25.3665067  68.0596328  52.6577043  26.1224039
  68.1624012  53.3345799  24.9344645  68.3823716  52.7552756  25.4145900
  68.4158579  39.6954128  27.6094495  69.0584488  39.7652233  28.1956410
  68.6681600  39.0283351  27.1074037  68.5480711  39.6080477  27.6221774
  55.3434932  44.1661398  16.1903819  54.6293109  43.8799577  16.6026252
  55.8278901  44.5058024  16.8310207  55.3094296  44.1743047  16.3459454
  63.2260563  56.6058735  30.3374673  62.4275809  56.3658235  30.5948542
  63.6746575  56.6573128  31.0841721  63.1735174  56.5781126  30.4859597
  71.6305442  49.3721220  24.2584704  72.2921877  48.8111889  24.1580613
  70.9896854  48.8773251  24.5837396  71.6334310  49.2157629  24.2917045
  62.5182250  52.6691352  16.5665628  62.9333399  52.3376376  15.8750123
  61.6874180  52.4360254  16.4385764  62.4570259  52.5862608  16.4456475
  67.9170273  50.3886603  23.9996693  68.1525862  50.5331802  23.1723544
  68.0659837  51.1529011  24.3928207  67.9736076  50.5225657  23.9360297
  69.7460730  49.2288269  21.8366297  70.0768947  49.7615909  21.2306392
  70.3193818  49.2827156  22.4928248  69.8794409  49.3157837  21.8444079
  64.9592619  47.0753171  22.5189877  65.0539473  47.8142465  22.9729503
  64.3351463  46.6470647  22.9524442  64.8801649  47.1214492  22.6498025
  63.2145093  50.2539384  33.1680158  63.7883955  49.6166628  33.3228722
  63.1359897  50.2543466  32.2989816  63.2878328  50.1604495  33.0626569
  65.2115640  48.9201911  15.7526829  65.1295803  48.9904098  16.6181816
  65.8495361  49.4831655  15.5610570  65.2935478  49.0140882  15.8516779
  58.5708812  48.6862649  25.2201355  58.3128056  47.8534384  25.1932655
  58.6257294  48.9120262  24.3793856  58.5408589  48.5960420  25.0921492
  63.6509862  40.7891100  25.3205448  62.9466188  40.3000285  25.4789367
  63.6994836  40.8013574  24.4493893  63.5539913  40.7180748  25.2144788
  57.5443524  46.2400412  25.7066250  56.9693115  46.3992580  26.3430211
  57.1679200  45.6035821  25.2434701  57.4046336  46.1698224  25.7320809
  70.8540081  44.4698765  23.3406459  70.5976646  43.6578707  23.1504341
  71.6969395  44.4776333  23.1136646  70.9406107  44.3510763  23.2791276
  65.0343174  38.4098390  28.0782613  65.4153686  37.7276561  28.4650487
  64.2306458  38.1207992  27.8958277  64.9719636  38.2665438  28.1086669
  62.3155751  48.9422365  18.7635436  63.1296389  49.2337258  18.6518207
  62.2514892  48.2882228  18.1893729  62.4258490  48.8887560  18.6624273
  68.5365241  51.6248362  33.1765011  68.3003878  50.7936426  33.0577072
  69.1808470  51.5733969  33.7619855  68.5959911  51.4946049  33.2450905
  58.1863659  52.4143883  23.8907748  58.8237606  52.1755630  24.4359541
  58.6118730  52.6181042  23.1560908  58.3439825  52.4094893  23.8624905
  58.8266474  47.6346173  18.2282637  59.2111627  47.4153879  18.9799182
  58.5778094  48.4609118  18.3583713  58.8468546  47.7244319  18.3583713
  69.5601661  51.4092810  29.2393306  69.2547478  52.1420867  29.6006621
  68.8407877  51.0030740  28.9586092  69.4089004  51.4574543  29.2506443
  60.5685131  52.8916305  25.5701534  60.6424139  52.7291477  26.4243384
  61.3854637  53.0806495  25.3262016  60.7001489  52.8953048  25.6599560
  75.2603454  48.0485811  28.5661650  75.1927954  48.0681770  27.6964237
  75.2459116  48.8916138  28.7917321  75.2482210  48.1759546  28.4714127
  54.3290887  53.2374168  22.5995977  53.5029005  53.4835905  22.4730256
  54.3902879  53.1586249  23.4658035  54.2165054  53.2619117  22.7084922
  56.5466911  39.3043109  23.5591418  55.6789337  39.3765709  23.6249027
  56.8342116  40.1065188  23.7479393  56.4606659  39.4337256  23.5966184
  65.6699800  39.4520969  31.8902739  66.4153392  39.2630779  31.4766165
  65.2537105  39.9779207  31.3316596  65.7184774  39.5023114  31.7467313
  59.1089716  55.8551049  20.3015007  59.3988015  55.4640030  19.5774234
  59.8393197  56.0367753  20.7420283  59.2596601  55.8244862  20.2597814
  73.0462071  46.8230197  26.8408244  73.5969992  46.1898266  27.0805336
  73.0306186  47.3545590  27.5323749  73.1247267  46.8079145  26.9787103
  57.0495632  57.8318431  23.3675157  56.8295927  57.5415786  24.1601824
  56.8290154  57.1733386  22.8393069  56.9843226  57.6918139  23.4064066
  55.9612579  49.9191747  25.6330859  55.6725828  49.2929219  26.1676586
  56.8295927  49.8612035  25.6995539  56.0472831  49.8179292  25.7221813
  66.7490477  45.0626531  25.9512841  66.4055243  44.3416866  26.3020090
  66.8483520  44.8540382  25.1091199  66.7132520  44.9250734  25.8784521
  59.2163588  59.2047821  22.1505849  59.8687646  58.6724263  22.3796875
  58.5189197  58.8516473  22.5373723  59.2094306  59.0737344  22.2418017
  56.1644853  51.5586999  21.5573224  56.9190821  51.9400038  21.7708686
  55.5715465  52.0098142  22.0119920  56.1881566  51.6815826  21.6556102
  67.2103506  51.5252235  21.4936829  67.7761539  52.1845445  21.4095372
  66.5631410  51.8701933  21.9653231  67.1982263  51.6734176  21.5509585
  54.4734263  42.7801369  21.0008294  54.1859059  42.4102639  20.2640241
  55.1604732  43.2496224  20.7391999  54.5323161  42.7948338  20.8523370
  63.6810084  54.4691019  20.9173908  63.4396760  53.7358880  20.5100973
  63.8611417  55.0177876  20.2640241  63.6717708  54.4413410  20.7604131
  58.9109405  49.7599579  22.3294830  58.7152188  50.3674313  21.7355133
  59.1343750  49.0667523  21.8486504  58.9144046  49.7477104  22.1710911
  57.3087935  46.6454317  22.4475699  58.0310587  46.8095475  21.9879505
  56.8295928  47.3663982  22.3415038  57.3451666  46.7752546  22.3641313
  65.2681442  42.9818116  27.8272383  64.4292543  43.0079394  27.5910647
  65.3385810  43.6288851  28.4077730  65.1549836  43.0814241  27.8781500
  63.7150721  39.8803493  22.5599999  64.4177074  39.6811241  22.0819958
  63.4494909  39.1079435  22.8668843  63.7797353  39.7366459  22.5345441
  69.1438966  48.1886102  25.1133625  69.0572941  48.3441528  25.9668404
  68.6889446  48.8324178  24.7393030  69.0642223  48.3061857  25.1840732
  52.0462458  43.5582581  21.8493575  52.1478594  44.3608742  22.1774550
  52.8418345  43.3569917  21.5516655  52.1790364  43.6468480  21.8528930
  63.0164782  45.5096849  23.7359185  62.7699497  45.4292600  24.5695974
  63.3449905  44.7250317  23.5421712  63.0286026  45.3823115  23.8306708
  66.9112831  52.2180209  27.5245966  66.7727190  52.9161255  28.0294708
  66.1312829  52.0628865  27.1682148  66.7756058  52.2980375  27.5472240
  65.2490916  48.5176584  33.7768348  65.2438955  47.6456401  33.7810774
  65.9551910  48.7164753  33.3037803  65.3535920  48.4180458  33.7075383
  58.0489565  56.4356340  30.0143195  58.1979128  55.8759256  29.3616599
  58.8289567  56.5148342  30.3975713  58.1863658  56.3641905  29.9740144
  68.4066204  51.5758463  18.2862465  68.0273013  50.7895601  18.2791755
  67.7432449  52.1245320  18.1434109  68.2524679  51.5403287  18.2643262
  60.5742865  56.6070983  31.2927685  60.4986536  55.9379793  31.8478474
  60.5032724  57.3088771  31.8068352  60.5523472  56.6115890  31.4504534
  65.8610830  34.5184162  25.6896546  65.9794398  34.9760626  24.9563849
  65.6873006  33.7129424  25.4032764  65.8530001  34.4677934  25.5397480
  61.2313112  55.1271982  22.1251291  61.9963003  54.8581625  21.8033956
  61.1291202  54.6421992  22.8421354  61.3294608  55.0161546  22.1831119
  63.7531773  52.1584165  14.1051241  64.5204758  52.2184290  13.6957093
  63.3063082  51.5864607  13.6207559  63.8005200  52.0820741  13.9728951
  64.6509568  50.9638821  26.3903973  63.9754570  50.7324053  26.8917360
  64.6601944  50.3560004  25.7646078  64.5528073  50.8397746  26.3720125
  66.6526303  53.8203954  18.6214151  66.7346140  54.6270940  18.2975602
  67.1376045  53.8399913  19.3454925  66.7363461  53.9424616  18.6801050
  59.9634500  60.0139303  29.7505686  60.4530430  59.3150092  29.5681351
  59.3918732  59.7163173  30.3381744  59.9519030  59.8665526  29.8106727
  55.7505251  48.9940841  22.7212201  55.9069870  48.9287644  23.5768194
  56.0905844  49.7689394  22.5090881  55.8238486  49.0990039  22.8166796
  62.2884396  48.3698725  21.5905565  62.8299941  47.8669106  22.0544185
  62.6030955  48.3163919  20.7795050  62.4148793  48.2878145  21.5389377
  66.1601503  52.5801372  38.7032477  66.9736368  52.3086521  38.8637609
  65.9996469  52.2808912  37.8992673  66.2571452  52.4956298  38.6077883
  60.4570845  53.7616076  18.8745593  60.5263666  52.9030615  19.0138593
  61.2359301  53.9787957  18.5464617  60.5823695  53.6668940  18.8462750
  64.8478333  56.1853777  23.0882086  64.4558125  55.8820493  22.3704952
  65.0031405  57.0222867  22.8987040  64.8131923  56.2637614  22.9538583
  52.3239513  46.1775791  23.0372969  52.7038477  46.5960336  22.3733236
  51.7494877  46.7589247  23.3441812  52.2950837  46.3253650  22.9849710
  65.0118008  52.7503766  23.0288117  64.6532662  52.9218409  23.8052149
  64.5256719  53.2116972  22.4716115  64.8876705  52.8442737  23.0613386
  62.8288394  36.3734965  26.6315208  61.9581952  36.3473686  26.5848517
  63.0828735  36.2012157  25.8141054  62.7381954  36.3445108  26.5035345
  59.8006373  48.4302932  15.5688351  60.0898898  49.2067814  15.8431925
  59.8878172  47.9191663  16.2702850  59.8560629  48.4694850  15.7130849
  59.8537534  38.3841193  28.0888678  59.3376023  37.6921385  28.2140257
  59.2931463  39.0511970  28.0351277  59.6944047  38.3804451  28.0994744
  61.9229768  38.9234153  29.9181531  61.5361521  38.9483185  30.6995061
  61.4362705  38.3575832  29.4656048  61.7942277  38.8429904  29.9669435
  66.1722747  53.6407662  33.9755317  66.8102468  53.1467858  33.6417774
  65.5296839  53.5685063  33.3907544  66.1716974  53.5566671  33.8397672
  67.8979747  45.4896808  28.5421233  67.4707355  45.4023157  27.7869333
  67.2605800  45.5974584  29.1276077  67.7409354  45.4929468  28.5166675
  61.5886909  35.8101139  32.2091791  62.2180027  36.3461439  31.9312861
  61.7572772  35.7178498  33.0605356  61.7064704  35.8762501  32.2940319
  66.2277004  54.3327470  30.6160674  67.0169382  53.9816535  30.7362756
  66.4020602  55.1463859  30.3537308  66.3697285  54.4013328  30.5948542
  53.4445881  45.3655733  25.4973214  53.0502579  45.4398745  24.7223323
  52.8885998  45.7513680  26.0481575  53.3048693  45.4337508  25.4640874
  65.0810828  38.3437027  25.1777093  65.2860421  38.2759335  26.0234090
  64.7537252  39.1495848  25.1098270  65.0626076  38.4522968  25.2936748
  58.8353076  42.9818115  21.4830762  59.1112810  42.2637028  21.0708330
  59.4351745  43.5803035  21.2751869  58.9646341  42.9638486  21.3911524
  68.3344516  38.8968791  24.6579858  67.7218829  39.3839194  25.0433590
  68.4308690  38.2212282  25.2017509  68.2582413  38.8687100  24.7958716
  62.3363597  40.6531633  19.7577357  62.7907343  40.8242193  20.4825202
  62.8103642  40.0399743  19.3575133  62.4731917  40.5882518  19.8051119
  71.9769544  49.9685728  30.0857374  72.0352667  50.4172377  30.8317351
  71.3436011  50.3784541  29.6487454  71.8920839  50.0959463  30.1309923
  65.6168638  55.5889270  26.5212120  65.4188327  56.0780085  25.8268332
  64.9956349  55.7930512  27.0996254  65.4956203  55.6905808  26.5035344
  59.6776617  47.3574167  20.8622365  60.4218662  47.7448443  21.1005315
  59.8237313  46.5131592  21.0262852  59.8087202  47.2904640  20.9216334
  61.5956192  39.1524426  25.8954226  60.7492237  39.3247234  25.7695576
  61.5927324  38.3473770  26.2320054  61.4703342  39.0585455  25.9265353
  62.6654492  42.9299640  26.7616284  62.1914447  42.4041402  27.2721595
  63.0372628  42.3829113  26.1931146  62.6504381  42.7715637  26.7531431
  68.9291223  47.9902016  28.1723065  68.6889446  47.1508431  28.1765491
  69.4083230  48.0702183  28.8963838  68.9643407  47.8783416  28.2797867
  64.5937992  43.8236195  19.8242038  64.0661011  43.9064939  19.1347747
  65.0533700  44.5654066  19.8206683  64.5839843  43.9456857  19.7216733
  70.9296410  44.7703473  26.1252324  70.6906180  44.7299307  25.2873108
  71.0930311  45.6174625  26.2518045  70.9186714  44.8895558  26.0205806
  67.5342440  49.1553422  32.0557369  68.2576639  48.7025949  31.8768389
  67.2692402  49.4358088  31.2729697  67.6023713  49.1304391  31.9136084
  56.5871057  42.0938714  14.8482933  56.2383862  42.7458440  15.3114482
  56.1067503  42.0795827  14.1206804  56.4641301  42.1881768  14.8094024
  64.1475075  52.3939758  18.9551695  64.8709273  52.8597871  18.8116268
  63.7075666  52.4613368  18.2049292  64.1890767  52.4723595  18.8236476
  63.3161230  49.2537301  30.2052384  62.7018223  48.7095351  30.5001019
  63.8328515  48.7401537  29.7258200  63.3016892  49.0973710  30.1776612
  62.5557527  50.3241571  27.9396682  62.1285135  49.6991289  27.5062118
  62.5482471  50.0416493  28.7655690  62.4916668  50.1894351  27.9976510
  63.6140357  37.5267979  31.5635906  63.1180918  37.7231654  30.8727473
  64.3709419  37.9260648  31.3924708  63.6527182  37.6145713  31.4356043
  60.8843237  41.2010325  28.1539216  60.9085724  40.6670438  27.4651996
  61.1354710  40.6927634  28.8164807  60.9253155  41.0471229  28.1503861
  57.1644559  39.9281143  27.5344961  57.2042930  40.4290350  28.2479668
  56.3394223  40.0191537  27.2650884  57.0484085  40.0162960  27.5995499
  56.9594966  44.7197245  20.3608978  57.0997927  45.2169709  21.0637619
  57.4577499  44.0183539  20.5023191  57.0536047  44.6899224  20.4860557
  56.9895188  45.5864356  17.6901554  57.6240268  46.1824781  17.6251016
  57.0720799  45.2867813  18.5047424  57.0951739  45.6305264  17.8004641
  69.9677754  48.1179833  30.5587919  70.5595594  48.7577084  30.5906117
  70.4036749  47.4202870  30.8479985  70.1196185  48.1098184  30.6068751
  58.5674171  41.5178331  17.6646996  58.8890012  41.0381414  17.0106259
  58.8301115  42.3277977  17.4737808  58.6540197  41.5668229  17.5402488
  61.7971144  52.5397206  31.1845812  61.2896235  53.0933052  31.6286443
  61.4997790  52.6005495  30.3664587  61.6776029  52.6303517  31.1294269
  53.4948176  47.7832197  20.9591100  54.0040406  48.3796704  21.3402406
  53.9682449  47.5158170  20.2767520  53.6391552  47.8318012  20.9145623
  64.4078924  56.4560463  19.1149756  63.6908234  56.2821326  18.6496993
  65.0585662  56.2213036  18.5825242  64.3980775  56.3956256  18.9678974
  62.4027549  37.3765625  23.4361052  61.7595867  37.2263271  24.0046191
  62.0626956  37.1307970  22.6710157  62.2572626  37.3177747  23.4064068
  66.9926895  45.3325052  22.8591061  66.3218085  45.8754754  22.7304127
  67.6866646  45.8019907  22.6172756  66.9955763  45.4823323  22.8046589
  61.0413629  57.4721764  28.0902819  60.8179284  56.7140593  28.4586846
  60.5523473  57.5019785  27.3683259  60.9357078  57.3643988  28.0379560
  67.1555023  41.7880935  25.7681434  67.5082633  41.3610658  26.4427233
  66.2969824  41.7031779  25.8982511  67.0804468  41.7125676  25.8876445
  55.8538708  44.4188455  23.8264281  55.1350697  44.8352588  24.0937144
  56.2251070  44.9842694  23.2755919  55.8030640  44.5637737  23.7847088
  59.6892086  57.6922222  25.5439904  59.2752485  57.0296352  25.1543746
  60.3739460  57.8400081  25.0235598  59.7290458  57.6162880  25.4096401
  63.0557380  56.8512307  26.2963521  62.6573664  56.9614578  25.5284341
  62.4408600  57.0594374  26.8790080  62.9056270  56.8985875  26.2694820
  61.6285282  43.4586455  19.1637660  61.0350122  43.7803452  18.6122227
  61.6660560  42.6127550  18.9558766  61.5459671  43.3810783  19.0520432
  68.5879083  36.9099347  26.6965747  68.0809948  36.2028487  26.6286924
  69.3846517  36.5792536  26.8266823  68.6306322  36.7572499  26.7064742
  64.5043099  43.4165960  22.5939410  64.2756792  43.4398661  21.7517769
  64.7641175  42.5923427  22.7134421  64.5089287  43.2982040  22.4864608
  57.5587861  41.9542506  23.8893606  58.0345228  42.3159586  23.2543787
  57.0576461  42.6098973  24.1693749  57.5553220  42.1036695  23.8370347
  59.6014515  44.0983706  17.2566990  59.9813479  44.1163335  16.4718105
  58.8607111  44.5437694  17.1357837  59.5483352  44.1665480  17.1230558
  67.2299805  42.4065897  22.8442569  67.2294032  42.2514553  23.7026845
  67.0255985  43.2528884  22.7883954  67.1999583  42.5086518  22.9630508
  64.9540657  47.0863399  26.4978776  65.4494322  46.3686394  26.4582796
  64.1440433  46.7834196  26.3833263  64.9084550  46.9361045  26.4752502
  60.3999269  50.9361212  18.6475780  59.5910591  50.6127885  18.6009090
  60.9074178  50.2294434  18.5804029  60.3548935  50.7842528  18.6306075
  67.0192476  49.8367086  29.1855904  67.4447548  49.3141508  28.6326329
  66.6549396  50.4347924  28.6644527  67.0279079  49.8477313  29.0264914
  56.6546556  58.1331304  27.9453250  56.9693115  58.9467692  27.9531032
  57.0639969  57.7481522  28.6135409  56.7614654  58.1960006  28.0457342
  63.6071075  53.5501350  25.5157062  64.0782254  54.2641613  25.6847047
  63.9431254  52.9500101  26.0516931  63.7266191  53.5672815  25.6189438
  65.6948060  55.1602664  37.6949134  65.8045026  54.3711224  38.0505881
  66.0238957  55.0708600  36.8923472  65.7600466  55.0308517  37.6291525
  64.2445022  53.3419285  32.2784755  63.6965968  52.7177168  32.0104820
  64.7058051  53.5313557  31.5628834  64.2312231  53.2778335  32.1335186
  63.5972926  35.2459147  29.0696250  62.7918889  35.1356877  29.3864088
  63.4679661  35.3471603  28.2126116  63.4593058  35.2442817  28.9904290
  67.0538886  41.4104639  29.6635947  66.4701875  41.9113846  29.2513514
  67.3743180  40.9034195  29.0300270  67.0152061  41.4096474  29.5094454
  59.5933685  40.3245234  19.9394622  60.4149380  40.4943547  19.6976317
  59.1303336  40.4792495  19.2160919  59.6464848  40.3726967  19.7966266
  63.8103348  54.3470357  28.8094096  64.6301722  54.2033323  29.0710391
  63.5297426  54.9716556  29.3510534  63.8900091  54.4180709  28.9282035
  73.4816683  61.0910860  26.5289903  72.6254579  61.2519358  26.5799019
  73.5284337  60.2202924  26.5494964  73.3615795  60.9861662  26.5395969
  67.8657823  70.6273578  22.2927134  67.1140723  70.2489116  22.0643179
  68.3143835  70.6592011  21.5445944  67.8207490  70.5759185  22.1484636
  76.7910400  67.3597386  36.1350359  77.4977167  66.8649416  36.2637293
  76.9798335  67.8006467  35.4053017  76.9238305  67.3515736  36.0459404
  76.3268504  63.1502904  29.1721554  76.8724464  63.8287991  29.2315524
  76.2685381  63.0090365  28.3123136  76.3984419  63.2294906  29.0533615
  69.4442579  70.6391970  24.5589907  69.5452942  69.8292324  24.8687034
  68.8484324  70.5448916  23.9289585  69.3715118  70.5056998  24.5116145
  62.6407623  66.6612257  24.1842240  62.4057808  65.8279909  24.0774509
  62.7793264  66.9416922  23.3703441  62.6263286  66.5795760  24.0484595
  64.9397711  58.8297987  27.0826548  64.3202743  58.2390634  26.9136563
  64.8381575  59.4209422  26.4490871  64.8335386  58.8302070  26.9631537
  72.0365607  60.5697529  21.4159011  72.7345771  60.7485656  21.9080474
  72.3517939  60.0467868  20.7929400  72.1860944  60.5191301  21.3961021
  64.6666844  62.3750269  29.3270117  64.5425541  62.9612714  29.9619936
  65.3185128  61.8810465  29.6282392  64.7440493  62.3889073  29.4656046
  72.2253542  66.9567974  21.4038803  72.6647177  66.3485074  21.8493575
  72.0758205  66.5775347  20.6324268  72.2675008  66.8106445  21.3557970
  69.6925185  65.5511986  28.6057628  70.3374187  65.0584429  28.2868577
  69.9326962  65.6936772  29.4323706  69.8235770  65.4989428  28.6807161
  72.2311276  68.3966892  28.2564521  72.5134519  67.6018297  28.0351276
  72.9597437  68.8747479  28.2769582  72.3800840  68.3501489  28.2267536
  70.2092470  55.9389926  25.4980286  69.8795800  56.3901069  24.8283984
  69.5337472  55.8606089  26.0453292  70.0602906  55.9941061  25.4803509
  77.4168878  51.9275448  23.7429896  77.1022319  52.6178927  24.1750319
  76.8995820  51.8720231  23.0415397  77.2933348  52.0210337  23.7026845
  64.2024948  71.5397927  25.4598446  63.7192526  72.2648417  25.4358030
  65.0148266  71.8374057  25.5708604  64.2515696  71.6900281  25.4725726
  70.2739102  70.3330108  28.0648261  69.7566044  69.9737523  27.4609569
  70.9713493  69.8092282  28.0754327  70.3004683  70.2027796  27.9778520
  71.4973154  70.0656082  33.0082096  70.9343989  69.6528692  33.5321757
  72.2594177  69.9908988  33.4275239  71.5267603  69.9933483  33.1475096
  68.4148424  54.0002214  20.9803233  69.1694392  54.3680531  20.7420284
  68.2375959  54.3741768  21.7482413  68.5002903  54.1100402  21.0588122
  67.0569145  72.0554103  25.6118726  67.7589725  71.5406092  25.6691483
  66.9766628  72.3828255  26.4165601  67.1492906  72.0268329  25.7391518
  66.7705489  56.4072533  17.6781346  66.5881062  56.6244414  16.8522339
  67.6331102  56.5211546  17.7339961  66.8710078  56.4562431  17.5635833
  66.3819921  68.2460455  25.1204334  67.2208820  68.4783388  25.1678096
  66.4131690  67.3764767  25.0511370  66.5101638  68.1517402  25.1168979
  67.0072624  68.6661330  29.4217640  67.5470849  68.5232461  30.0921012
  66.3242570  69.0658081  29.7901666  66.9864778  68.7041001  29.5752062
  72.4505208  53.4098944  20.7130370  73.1791369  53.2314899  20.2668526
  72.5400101  54.2517023  20.9237548  72.5711870  53.5082822  20.6783888
  76.4313509  64.3452331  24.6162664  77.1871024  64.7783845  24.6551573
  76.5375833  63.6957101  25.1897300  76.5583679  64.3129815  24.7060690
  62.4109769  64.8861621  29.5752061  62.1448184  64.0700738  29.7343052
  62.4248333  64.9314777  28.7047577  62.3734491  64.7718526  29.4705543
  66.3167516  59.6846706  16.1903819  65.6025693  59.3984885  16.6026252
  66.8011485  60.0243331  16.8310207  66.2826879  59.6928355  16.3459454
  67.1608375  58.4240000  32.2219069  66.4680172  57.9536979  32.4679801
  67.7768703  58.1978304  32.7960776  67.1492905  58.3207131  32.3428222
  62.8203183  65.6720401  26.8563806  62.6378756  65.6467287  26.0036098
  63.5552852  66.1419338  26.8952714  62.9017246  65.7381763  26.7361724
  65.8848934  62.3905404  33.3645914  66.6088907  62.3758434  33.8510809
  65.9865071  63.1000759  32.8667882  66.0067143  62.4930107  33.3624701
  73.2593884  65.8704488  38.2294861  72.4666864  66.1848000  38.4147481
  73.3742811  66.0855957  37.3915646  73.1589294  65.9488325  38.1333196
  75.9325203  62.5938479  22.5189877  76.0272057  63.3327773  22.9729503
  75.3084046  62.1655955  22.9524442  75.8534233  62.6399800  22.6498025
  74.1877676  65.7724692  33.1680158  74.7616538  65.1351936  33.3228722
  74.1092480  65.7728774  32.2989816  74.2610911  65.6789803  33.0626569
  62.7874093  62.5513901  27.0062872  63.3647596  62.4150352  27.6455118
  62.0888155  62.0949685  27.2608457  62.7695114  62.4636168  27.1385162
  69.5441395  64.2047957  25.2201355  69.2860639  63.3719692  25.1932655
  69.5989878  64.4305570  24.3793856  69.5141173  64.1145728  25.0921492
  74.6242445  56.3076408  25.3205448  73.9198772  55.8185593  25.4789367
  74.6727420  56.3198882  24.4493893  74.5272497  56.2366056  25.2144788
  68.5176107  61.7585719  25.7066250  67.9425699  61.9177888  26.3430211
  68.1411784  61.1221129  25.2434701  68.3778920  61.6883532  25.7320809
  72.1849396  60.2309069  30.5658629  71.7963829  59.8063286  29.9110820
  71.5204094  60.4791218  31.0735655  72.0296324  60.2047790  30.5446497
  58.2632926  61.4025794  23.7210691  58.3493178  61.0257663  24.5024221
  58.8908724  61.0286240  23.2430649  58.3689477  61.2911276  23.7656168
  76.0075757  53.9283698  28.0782613  76.3886269  53.2461869  28.4650487
  75.2039042  53.6393300  27.8958277  75.9452219  53.7850746  28.1086669
  69.1596242  67.9329191  23.8907748  69.7970189  67.6940938  24.4359541
  69.5851314  68.1366350  23.1560908  69.3172409  67.9280201  23.8624905
  63.8508885  70.1717527  27.7742051  63.8913030  70.4432378  26.9461831
  64.4103409  70.6959435  28.1899839  63.9392231  70.2893282  27.7133940
  69.7999057  63.1531481  18.2282637  70.1844210  62.9339187  18.9799182
  69.5510678  63.9794426  18.3583713  69.8201130  63.2429627  18.3583713
  69.9667598  56.4337896  37.9445221  69.6521039  57.2037458  37.6814784
  69.6457530  55.8708152  37.3597448  69.8726517  56.4648164  37.8186571
  71.5417714  68.4101613  25.5701534  71.6156723  68.2476785  26.4243384
  72.3587221  68.5991803  25.3262016  71.6734073  68.4138356  25.6599560
  65.3023471  68.7559476  22.5995977  64.4761589  69.0021213  22.4730256
  65.3635462  68.6771557  23.4658035  65.1897638  68.7804425  22.7084922
  67.5199495  54.8228417  23.5591418  66.6521920  54.8951017  23.6249027
  67.8074699  55.6250496  23.7479393  67.4339243  54.9522564  23.5966184
  76.6432384  54.9706277  31.8902739  77.3885976  54.7816087  31.4766165
  76.2269688  55.4964515  31.3316596  76.6917358  55.0208422  31.7467313
  70.6717045  66.1754102  31.3868138  70.1728739  66.8869870  31.4653026
  71.4817270  66.4954769  31.3486300  70.7173152  66.3280951  31.3924706
  68.0228216  73.3503739  23.3675157  67.8028511  73.0601094  24.1601824
  67.8022738  72.6918694  22.8393069  67.9575810  73.2103447  23.4064066
  66.9345163  65.4377055  25.6330859  66.6458411  64.8114527  26.1676586
  67.8028511  65.3797343  25.6995539  67.0205415  65.3364600  25.7221813
  77.7223061  60.5811839  25.9512841  77.3787827  59.8602174  26.3020090
  77.8216103  60.3725690  25.1091199  77.6865103  60.4436042  25.8784521
  67.1377436  67.0772306  21.5573224  67.8923404  67.4585346  21.7708686
  66.5448049  67.5283450  22.0119920  67.1614150  67.2001134  21.6556102
  69.5984103  59.0335147  36.6830436  68.7883879  59.3392926  36.5720278
  70.0758790  59.7540729  36.7983020  69.5487582  59.1849748  36.6837507
  68.4575663  68.2480868  26.9313339  67.9356416  68.3881159  27.6165204
  68.8449683  67.4891532  27.1215456  68.4379364  68.1566392  27.0614416
  65.4466847  58.2986677  21.0008294  65.1591643  57.9287947  20.2640241
  66.1337315  58.7681532  20.7391999  65.5055744  58.3133646  20.8523370
  69.8841988  65.2784887  22.3294830  69.6884771  65.8859621  21.7355133
  70.1076334  64.5852831  21.8486504  69.8876629  65.2662412  22.1710911
  68.2820518  62.1639625  22.4475699  69.0043170  62.3280783  21.9879505
  67.8028511  62.8849290  22.3415038  68.3184249  62.2937854  22.3641313
  76.2414026  58.5003424  27.8272383  75.4025127  58.5264702  27.5910647
  76.3118393  59.1474159  28.4077730  76.1282420  58.5999549  27.8781500
  65.9328135  64.5697697  31.5529838  66.4449232  64.8481950  30.9038598
  65.6464478  65.3086991  31.9192651  65.9662998  64.7200051  31.5119716
  74.6883304  55.3988801  22.5599999  75.3909657  55.1996549  22.0819958
  74.4227493  54.6264743  22.8668843  74.7529937  55.2551767  22.5345441
  63.0195041  59.0767889  21.8493575  63.1211178  59.8794050  22.1774550
  63.8150928  58.8755225  21.5516655  63.1522947  59.1653788  21.8528930
  69.4511861  56.6624086  31.6130880  69.2595058  56.6779220  32.4630303
  70.3010457  56.8587760  31.5897535  69.5487582  56.6938437  31.7354175
  63.8358774  59.1915067  29.5914696  63.6944265  58.3399008  29.7159204
  64.1199337  59.2343728  28.7676902  63.8566620  59.0714817  29.4882321
  73.9897366  61.0282157  23.7359185  73.7432080  60.9477908  24.5695974
  74.3182489  60.2435625  23.5421712  74.0018609  60.9008423  23.8306708
  76.2223500  64.0361892  33.7768348  76.2171538  63.1641709  33.7810774
  76.9284494  64.2350061  33.3037803  76.3268504  63.9365766  33.7075383
  69.9494393  63.7638876  33.1482168  70.0937769  64.3440084  32.5125278
  70.2970042  64.1415173  33.8532022  70.0221855  63.9059580  33.1581163
  72.1214311  62.9629044  30.9307299  71.3737625  63.1560059  30.5255577
  72.2755836  62.1374264  30.6931421  72.0336738  62.8694156  30.8352705
  69.0222148  71.9541648  30.0143195  69.1711712  71.3944564  29.3616599
  69.8022150  72.0333650  30.3975713  69.1596242  71.8827213  29.9740144
  72.3616088  56.8579595  31.8202703  72.8188702  57.5903569  31.9475495
  72.4372416  56.4346060  32.5789959  72.4407057  56.9036833  31.9503780
  64.6049079  57.1045415  32.9092147  64.0691268  56.4925773  33.2252914
  64.6666844  57.6793551  33.5625813  64.5344711  57.0992343  33.0527574
  76.8343414  50.0369470  25.6896546  76.9526982  50.4945934  24.9563849
  76.6605589  49.2314732  25.4032764  76.8262585  49.9863242  25.5397480
  70.2398466  58.8481699  28.6644527  69.4494540  58.6673159  28.9861863
  70.6359088  58.0708652  28.6474822  70.1815342  58.7069160  28.7097076
  75.6242152  66.4824129  26.3903973  74.9487154  66.2509361  26.8917360
  75.6334528  65.8745312  25.7646078  75.5260656  66.3583054  26.3720125
  72.7536296  61.3241958  33.1468026  72.6895437  62.1851915  33.0188163
  72.8933484  61.0073951  32.3463577  72.7651766  61.4042125  33.0096239
  71.4355390  64.0174097  27.2884229  71.0117639  64.2178597  26.5523247
  71.2600245  63.1702945  27.4008529  71.3466270  63.9222879  27.1957919
  66.7237835  64.5126149  22.7212201  66.8802454  64.4472952  23.5768194
  67.0638428  65.2874701  22.5090881  66.7971070  64.6175347  22.8166796
  73.2616979  63.8884032  21.5905565  73.8032525  63.3854414  22.0544185
  73.5763538  63.8349227  20.7795050  73.3881376  63.8063453  21.5389377
  77.1334087  68.0986680  38.7032477  77.9468952  67.8271829  38.8637609
  76.9729053  67.7994220  37.8992673  77.2304035  68.0141606  38.6077883
  74.4106249  58.7820337  31.6427865  74.6248218  58.1431251  31.0891219
  73.7940148  59.2266161  31.2135727  74.3511578  58.7530481  31.4978296
  63.2972096  61.6961099  23.0372969  63.6771061  62.1145644  22.3733236
  62.7227461  62.2774555  23.3441812  63.2683421  61.8438958  22.9849710
  76.5745337  60.3909402  32.5811172  75.7622018  60.0835293  32.6624345
  77.0335271  59.9108402  33.1453884  76.5225721  60.2745895  32.6765766
  73.8020977  51.8920273  26.6315208  72.9314535  51.8658994  26.5848517
  74.0561319  51.7197465  25.8141054  73.7114537  51.8630416  26.5035345
  73.6698844  61.7969474  37.3639875  74.1398475  62.4211590  37.7507749
  73.7160724  61.1286449  37.9233089  73.7466720  61.7904154  37.5039946
  70.8270118  53.9026501  28.0888678  70.3108606  53.2106693  28.2140257
  70.2664047  54.5697278  28.0351277  70.6676631  53.8989759  28.0994744
  72.8962351  54.4419461  29.9181531  72.5094104  54.4668493  30.6995061
  72.4095289  53.8761140  29.4656048  72.7674860  54.3615212  29.9669435
  72.5619493  51.3286447  32.2091791  73.1912611  51.8646747  31.9312861
  72.7305356  51.2363806  33.0605356  72.6797288  51.3947809  32.2940319
  72.3633408  56.1157641  34.4818202  73.1906837  55.8442790  34.5376817
  72.3841254  56.9118483  34.8382021  72.4886258  56.1937396  34.5433385
  66.9402898  63.2621504  27.6688463  66.0990904  63.1625378  27.8767357
  67.1492906  64.0316984  28.0202784  66.8467590  63.3613547  27.7515778
  64.4178465  60.8841041  25.4973214  64.0235162  60.9584053  24.7223323
  63.8618582  61.2698987  26.0481575  64.2781277  60.9522816  25.4640874
  76.0543411  53.8622335  25.1777093  76.2593005  53.7944643  26.0234090
  75.7269835  54.6681156  25.1098270  76.0358659  53.9708276  25.2936748
  70.7519563  61.1902903  26.9186061  70.4482700  60.6358892  27.5196468
  70.0498983  61.3695113  26.4314095  70.6035772  61.1347686  26.9355766
  69.8085660  58.5003423  21.4830762  70.0845394  57.7822336  21.0708330
  70.4084329  59.0988343  21.2751869  69.9378924  58.4823794  21.3911524
  68.8137914  68.4052624  31.6258158  68.7058268  68.4154686  32.4920216
  69.0233695  69.2307404  31.4363112  68.8288025  68.5293699  31.7262250
  73.3096180  56.1716941  19.7577357  73.7639927  56.3427501  20.4825202
  73.7836226  55.5585051  19.3575133  73.4464500  56.1067826  19.8051119
  66.8311706  65.6565266  29.0880096  66.2399639  66.2974765  29.0583111
  67.5932729  66.0802884  29.0611395  66.8559966  65.8141105  29.0795243
  67.2272328  56.8167264  29.7548114  67.6873810  56.8906194  30.4923237
  67.2728435  57.6148518  29.4047935  67.3022884  56.9461411  29.8120870
  68.8755678  57.4833959  34.3220141  68.4841243  56.8367306  34.7575918
  69.0441541  58.0745394  34.9414396  68.8426588  57.4748227  34.4782847
  70.6509200  62.8759475  20.8622365  71.3951245  63.2633751  21.1005315
  70.7969896  62.0316900  21.0262852  70.7819785  62.8089948  20.9216334
  72.5688776  54.6709734  25.8954226  71.7224821  54.8432542  25.7695576
  72.5659908  53.8659077  26.2320054  72.4435926  54.5770763  25.9265353
  73.6387076  58.4484948  26.7616284  73.1647030  57.9226710  27.2721595
  74.0105212  57.9014421  26.1931146  73.6236965  58.2900945  26.7531431
  64.0160106  60.4456455  32.1299830  64.8785719  60.3452164  32.0437160
  63.6851889  59.8651164  31.5685402  64.0945303  60.3448082  32.0345236
  75.5670576  59.3421503  19.8242038  75.0393594  59.4250247  19.1347747
  76.0266284  60.0839374  19.8206683  75.5572426  59.4642165  19.7216733
  67.3761892  59.2698904  28.7910248  66.7514962  59.2817296  28.1836201
  67.0407487  59.7459079  29.4401488  67.2347384  59.3417421  28.7966817
  67.5603641  57.6124022  14.8482933  67.2116445  58.2643748  15.3114482
  67.0800087  57.5981135  14.1206804  67.4373885  57.7067076  14.8094024
  64.0887568  67.3299364  30.2314012  63.5587492  66.6391803  30.2808987
  64.3612661  67.3209549  29.4026721  64.0512290  67.2266496  30.1161428
  74.2893813  64.7722609  30.2052384  73.6750806  64.2280659  30.5001019
  74.8061098  64.2586845  29.7258200  74.2749476  64.6159018  30.1776612
  73.5290110  65.8426879  27.9396682  73.1017718  65.2176597  27.5062118
  73.5215055  65.5601800  28.7655690  73.4649252  65.7079659  27.9976510
  66.6452638  60.8792052  31.0085116  66.8046124  60.1235376  31.4136838
  66.4645531  61.4282991  31.6625854  66.6417996  60.8485865  31.1647822
  71.8575820  56.7195633  28.1539216  71.8818307  56.1855745  27.4651996
  72.1087294  56.2112942  28.8164807  71.8985739  56.5656537  28.1503861
  59.3683410  64.0027128  27.5882361  59.2626859  63.9573972  26.7234445
  58.6183630  64.3480909  27.8696645  59.2419013  64.0468036  27.5019690
  68.1377142  55.4466451  27.5344961  68.1775514  55.9475658  28.2479668
  67.3126807  55.5376845  27.2650884  68.0216668  55.5348268  27.5995499
  70.3206755  65.0127191  35.6365255  69.4702386  65.1498906  35.7722900
  70.4834883  64.2790970  36.0812957  70.2190619  64.9241293  35.7220855
  69.5591506  61.9626961  29.8318860  68.7283435  62.1300779  29.6254108
  69.5043023  61.5862912  30.6167745  69.4280921  61.9316692  29.9167388
  67.3675289  55.4535854  35.4675271  67.9927992  54.9097987  35.7404703
  66.9125769  54.9730772  34.8983061  67.3923550  55.3025335  35.4236864
  67.9327550  60.2382553  20.3608978  68.0730511  60.7355017  21.0637619
  68.4310082  59.5368847  20.5023191  68.0268630  60.2084532  20.4860557
  67.9627772  61.1049664  17.6901554  68.5972851  61.7010089  17.6251016
  68.0453383  60.8053121  18.5047424  68.0684323  61.1490572  17.8004641
  69.5406755  57.0363639  17.6646996  69.8622596  56.5566722  17.0106259
  69.8033699  57.8463285  17.4737808  69.6272780  57.0853537  17.5402488
  72.7703728  68.0582514  31.1845812  72.2628819  68.6118360  31.6286443
  72.4730374  68.1190803  30.3664587  72.6508613  68.1488825  31.1294269
  74.9365910  56.4235833  30.0270475  75.3620981  55.9708360  29.4154002
  74.3222903  55.8695904  30.3035263  74.9094555  56.2749809  29.9775501
  64.4680760  63.3017505  20.9591100  64.9772989  63.8982012  21.3402406
  64.9415032  63.0343478  20.2767520  64.6124135  63.3503320  20.9145623
  73.3760133  52.8950933  23.4361052  72.7328451  52.7448579  24.0046191
  73.0359540  52.6493278  22.6710157  73.2305210  52.8363055  23.4064068
  78.1287607  57.3066243  25.7681434  78.4815217  56.8795966  26.4427233
  77.2702408  57.2217087  25.8982511  78.0537051  57.2310984  25.8876445
  66.8271292  59.9373763  23.8264281  66.1083281  60.3537896  24.0937144
  67.1983654  60.5028002  23.2755919  66.7763223  60.0823045  23.7847088
  76.1270872  60.5701612  29.7166277  76.1068800  60.3884907  30.5701055
  76.1750073  61.4413631  29.6925860  76.1305513  60.6718150  29.8389571
  74.0717202  67.1588804  35.6414753  74.0313057  66.5138481  35.0559909
  74.8840520  67.1025421  35.9540165  74.1860356  67.0547771  35.6011702
  72.6017866  58.9771763  19.1637660  72.0082705  59.2988759  18.6122227
  72.6393144  58.1312858  18.9558766  72.5192255  58.8996091  19.0520432
  75.4775682  58.9351267  22.5939410  75.2489376  58.9583969  21.7517769
  75.7373759  58.1108735  22.7134421  75.4821871  58.8167347  22.4864608
  69.7594911  60.7885741  32.1964511  69.2473814  60.1806923  32.5549542
  69.5874407  61.5042333  32.6638486  69.6584548  60.8049040  32.3180734
  64.6060626  59.2323316  34.8466872  64.4363216  59.8924691  34.3015079
  64.1626576  59.4429877  35.5679362  64.5159959  59.3609298  34.8728502
  68.5320445  57.4727814  23.8893606  69.0077811  57.8344894  23.2543787
  68.0309045  58.1284281  24.1693749  68.5285804  57.6222003  23.8370347
  73.6363981  58.7109985  34.6366766  74.1935411  58.4823795  34.0045232
  73.3125046  59.4715651  34.3601979  73.6710391  58.7893822  34.5023263
  61.5062690  62.1370181  30.1055362  60.9589410  61.4670827  30.2236231
  62.2955068  61.7700029  30.1698830  61.5414874  61.9835168  30.1324063
  71.3547099  61.7977638  35.6018773  72.1058426  62.1129315  35.9158328
  71.5469675  61.5956809  34.7752695  71.4938513  61.8145020  35.5262169
  70.5747098  59.6169014  17.2566990  70.9546063  59.6348643  16.4718105
  69.8339694  60.0623002  17.1357837  70.5215936  59.6850788  17.1230558
  78.2032389  57.9251205  22.8442569  78.2026615  57.7699861  23.7026845
  77.9988569  58.7714192  22.7883954  78.1732167  58.0271826  22.9630508
  60.2649660  61.3490989  27.2601385  60.0871421  60.8967598  27.9856301
  59.9768682  62.1517151  27.4439863  60.1962613  61.4013547  27.3944888
  75.9273241  62.6048707  26.4978776  76.4226906  61.8871702  26.4582796
  75.1173016  62.3019504  26.3833263  75.8817134  62.4546353  26.4752502
  62.0022129  63.8818713  24.3723144  61.1367649  63.8704403  24.2605916
  62.1020945  63.6948936  25.2194284  61.8896296  63.8524774  24.4812089
  77.9925060  65.3552394  29.1855904  78.4180131  64.8326816  28.6326329
  77.6281979  65.9533232  28.6644527  78.0011662  65.3662621  29.0264914
  67.6279139  73.6516612  27.9453250  67.9425698  74.4653000  27.9531032
  68.0372553  73.2666830  28.6135409  67.7347237  73.7145314  28.0457342
  74.5803659  69.0686658  25.5157062  75.0514837  69.7826921  25.6847047
  74.9163838  68.4685409  26.0516931  74.6998774  69.0858123  25.6189438
  71.4973154  53.8414129  32.4715157  71.6301060  53.0445122  32.7996132
  71.8818307  54.3680532  33.0513432  71.5729483  53.8014046  32.6058660
  75.2177605  68.8604593  32.2784755  74.6698551  68.2362476  32.0104820
  75.6790634  69.0498865  31.5628834  75.2044815  68.7963643  32.1335186
  74.5705509  50.7644455  29.0696250  73.7651473  50.6542185  29.3864088
  74.4412245  50.8656911  28.2126116  74.4325642  50.7628125  28.9904290
  78.0271470  56.9289947  29.6635947  77.4434459  57.4299153  29.2513514
  78.3475764  56.4219503  29.0300270  77.9884645  56.9281782  29.5094454
  70.5666269  55.8430542  19.9394622  71.3881963  56.0128855  19.6976317
  70.1035920  55.9977803  19.2160919  70.6197431  55.8912275  19.7966266
  69.1561601  53.8373304  30.7193050  69.7006014  53.4964431  31.3097392
  69.2098536  54.6958766  30.8614335  69.2450720  53.9128563  30.8274924
  64.9692160  67.5989720  27.5931858  65.5737017  67.5585554  26.9645679
  64.7619472  68.4460872  27.6235914  65.0281057  67.7177723  27.5047975
  60.2043442  66.5824338  27.4630781  60.1067720  65.7720609  27.7720838
  60.9872312  66.5616131  27.0777050  60.3059578  66.4591428  27.4517644
  36.0596392   5.9391767  12.8944809  36.7033847   6.3804931  13.2840968
  36.3852648   5.1345193  12.8075068  36.2028221   5.8856961  12.9390287
  40.7055767   1.1647130  20.9604481  40.7939113   0.9773270  21.8082691
  41.1345480   0.5184559  20.5609328  40.7817870   1.0410137  21.0276232
  38.2726227   0.4478289  19.9422143  37.7097062   0.0350899  20.4661804
  39.0347251   0.3731195  20.3615286  38.3020676   0.3755690  20.0815143
  40.8175827   0.5956149  23.6248264  41.6016243   0.7086996  23.9904006
  40.6172421  -0.2302714  23.8206950  40.9041852   0.4902868  23.7082650
  40.9746220   2.5066251  17.2714720  40.1761466   2.2665751  17.5288589
  41.4232232   2.5580643  18.0181768  40.9220831   2.4788642  17.4199644
  35.7975221   2.3363855  16.9483241  35.9464785   1.7766771  16.2956646
  36.5775224   2.4155857  17.3315760  35.9349315   2.2649421  16.9080191
  38.3228522   2.5078498  18.2267732  38.2472193   1.8387309  18.7818521
  38.2518381   3.2096286  18.7408399  38.3009129   2.5123405  18.3844580
  37.7120156   5.9146818  16.6845733  38.2016087   5.2157607  16.5021398
  37.1404389   5.6170688  17.2721790  37.7004686   5.7673042  16.7446774
  35.5890987  -1.2125169  18.5598205  35.4811342  -1.2023106  19.4260263
  35.7986768  -0.3870388  18.3703159  35.6041098  -1.0884094  18.6602297
  43.3654295   1.4896785  13.4552167  43.1673984   1.9787600  12.7608379
  42.7442006   1.6938027  14.0336301  43.2441859   1.5913324  13.4375391
  39.5456801  -1.5595279  18.1185859  39.0381892  -1.0059432  18.5626490
  39.2483447  -1.4986989  17.3004634  39.4261686  -1.4688968  18.0634316
  38.7899286   3.3729279  15.0242866  38.5664940   2.6148108  15.3926892
  38.3009129   3.4027300  14.3023306  38.6842735   3.2651504  14.9719607
  40.8043037   2.7519823  13.2303567  40.4059320   2.8622093  12.4624388
  40.1894257   2.9601889  13.8130127  40.6541926   2.7993391  13.2034867
  34.4032213   4.0338819  14.8793297  34.7178772   4.8475207  14.8871078
  34.8125626   3.6489038  15.5475456  34.5100311   4.0967521  14.9797388
  43.4433717   1.0610179  24.6289181  43.5530682   0.2718740  24.9845928
  43.7724613   0.9716115  23.8263519  43.5086123   0.9316032  24.5631572
  41.5589005   0.2477873  15.7434143  42.3787379   0.1040839  16.0050438
  41.2783083   0.8724071  16.2850580  41.6385748   0.3188225  15.8622082
  51.2302340   6.9918375  13.4629949  50.3740236   7.1526874  13.5139066
  51.2769994   6.1210439  13.4835010  51.1101452   6.8869177  13.4736015
  45.6143480  16.5281093   9.2267181  44.8626379  16.1496632   8.9983226
  46.0629491  16.5599527   8.4785991  45.5693147  16.4766700   9.0824683
  54.5396057  13.2604901  23.0690405  55.2462824  12.7656932  23.1977340
  54.7283992  13.7013982  22.3393063  54.6723962  13.2523251  22.9799451
  51.0668440  16.9506463   4.6552728  50.7319808  17.6283384   4.2196950
  51.5795310  16.5611774   4.0669600  51.0934021  16.9931041   4.5039519
  50.6072731  18.9020731  10.5963840  50.9912110  19.4707630  10.0568615
  50.5431872  18.1770242  10.1169656  50.6546158  18.8796195  10.4457702
  54.0754161   9.0510419  16.1061601  54.6210121   9.7295506  16.1655571
  54.0171037   8.9097880  15.2463182  54.1470075   9.1302421  15.9873662
  47.1928236  16.5399485  11.4929953  47.2938599  15.7299839  11.8027081
  46.5969981  16.4456432  10.8629632  47.1200775  16.4064513  11.4456192
  55.8519230  10.4795026   6.9795329  55.7358756  11.2302712   7.4087467
  56.6475116  10.2218980   7.2291416  55.9523819  10.5529873   7.0799420
  47.0328976  21.4577074  12.8944809  47.6766431  21.8990239  13.2840968
  47.3585231  20.6530501  12.8075068  47.1760804  21.4042269  12.9390287
  40.3893280  12.5619772  11.1182287  40.1543465  11.7287424  11.0114556
  40.5278921  12.8424438  10.3043488  40.3748943  12.4803275  10.9824642
  42.6883368   4.7305503  14.0166595  42.0688399   4.1398150  13.8476610
  42.5867231   5.3216938  13.3830918  42.5821043   4.7309585  13.8971584
  47.7349555  14.4689049   8.2664671  48.0565396  15.0094257   7.6625979
  48.3821652  13.8985821   8.3986961  47.8775610  14.4648225   8.1971707
  49.7851263   6.4705044   8.3499058  50.4831428   6.6493172   8.8420521
  50.1003596   5.9475384   7.7269447  49.9346601   6.4198816   8.3301068
  42.4152501   8.2757784  16.2610164  42.2911198   8.8620230  16.8959983
  43.0670785   7.7817980  16.5622439  42.4926150   8.2896589  16.3996093
  49.9739199  12.8575489   8.3378849  50.4132834  12.2492590   8.7833622
  49.8243862  12.4782863   7.5664314  50.0160664  12.7113960   8.2898017
  47.4410842  11.4519501  15.5397675  48.0859844  10.9591944  15.2208623
  47.6812619  11.5944288  16.3663753  47.5721427  11.3996943  15.6147208
  49.9796933  14.2974407  15.1904567  50.2620176  13.5025813  14.9691323
  50.7083094  14.7754994  15.2109628  50.1286497  14.2509004  15.1607583
  47.9578127   1.8397441  12.4320333  47.6281457   2.2908585  11.7624031
  47.2823129   1.7613604  12.9793339  47.8088563   1.8948576  12.4143556
  53.5748535  11.2102671   5.2909619  53.4899830  12.0663637   5.4359187
  54.0632919  10.9346995   5.9591778  53.6337433  11.2959992   5.4111700
  54.5066969   7.8287465   6.7907354  53.9778440   8.0447098   7.4504660
  55.0291988   8.5223603   6.7108323  54.5055422   7.9630602   6.8762953
  59.9615021  13.4033769  12.1640398  59.1312725  13.6144413  12.3273815
  59.9124274  12.5770824  11.8882682  59.8321757  13.3123376  12.1477764
  41.9510605  17.4405443  12.3938493  41.4678183  18.1655932  12.3698077
  42.7633923  17.7381573  12.5048651  42.0001353  17.5907796  12.4065772
  48.0224759  16.2337623  14.9988308  47.5051701  15.8745038  14.3949616
  48.7199150  15.7099798  15.0094374  48.0490340  16.1035311  14.9118566
  51.6788351  16.6832437  20.9604481  51.7671697  16.4958578  21.8082691
  52.1078064  16.0369867  20.5609328  51.7550453  16.5595445  21.0276232
  49.2458811  15.9663597  19.9422143  48.6829646  15.5536207  20.4661804
  50.0079834  15.8916503  20.3615286  49.2753259  15.8940998  20.0815143
  44.8054802  17.9561619  12.5458773  45.5075382  17.4413608  12.6031530
  44.7252285  18.2835770  13.3505648  44.8978563  17.9275845  12.6731565
  59.4568980   6.0504170  15.9590820  58.6197401   6.1206357  16.1938414
  59.4257211   6.0528665  15.0865122  59.3287262   6.0614397  15.8650368
  45.8533709   8.1937206  21.6739188  46.0254212   8.0843100  22.5224470
  46.3903066   8.8391611  21.4370380  45.9578713   8.2729207  21.7644285
  44.1305578  14.1467971  12.0544381  44.9694477  14.3790903  12.1018143
  44.1617347  13.2772282  11.9851417  44.2587295  14.0524917  12.0509026
  44.7558281  14.5668846  16.3557687  45.2956506  14.4239977  17.0261059
  44.0728227  14.9665597  16.7241713  44.7350435  14.6048517  16.5092108
  54.1799166  10.2459846  11.5502711  54.9356681  10.6791361  11.5891620
  54.2861490   9.5964616  12.1237347  54.3069336  10.2137330  11.6400737
  57.2179337  14.0733124  12.3005114  56.7814569  14.0769866  13.0564085
  56.8842252  14.7538623  11.8684691  57.1041957  14.1745579  12.3485947
  51.7908410  16.1141456  23.6248264  52.5748827  16.2272304  23.9904006
  51.5905005  15.2882594  23.8206950  51.8774436  16.0088176  23.7082650
  40.1595426  10.7869137  16.5092108  39.8933841   9.9708253  16.6683098
  40.1733990  10.8322292  15.6387624  40.1220148  10.6726041  16.4045590
  44.9094032   4.3247515  19.1559116  44.2165829   3.8544495  19.4019847
  45.5254359   4.0985819  19.7300823  44.8978562   4.2214647  19.2768268
  51.9478804  18.0251559  17.2714720  51.1494049  17.7851059  17.5288589
  52.3964815  18.0765951  18.0181768  51.8953415  17.9973950  17.4199644
  60.3523683  10.7914044  11.1924751  61.0140117  10.2304712  11.0920660
  59.7115095  10.2966074  11.5177442  60.3552550  10.6350453  11.2257091
  51.2400491  14.0884175   3.5005674  51.6551639  13.7569199   2.8090170
  50.4092420  13.8553077   3.3725811  51.1788499  14.0055431   3.3796522
  40.5688839  11.5727916  13.7903852  40.3864413  11.5474802  12.9376145
  41.3038508  12.0426854  13.8292761  40.6502903  11.6389278  13.6701771
  56.6388514  11.8079426  10.9336740  56.8744103  11.9524625  10.1063591
  56.7878077  12.5721834  11.3268254  56.6954317  11.9418480  10.8700344
  43.6334591   8.2912919  20.2985961  44.3574563   8.2765949  20.7850856
  43.7350728   9.0008274  19.8007929  43.7552800   8.3937622  20.2964748
  58.4678970  10.6481092   8.7706344  58.7987187  11.1808732   8.1646439
  59.0412058  10.7019980   9.4268295  58.6012649  10.7350661   8.7784126
  51.0079540  11.7712003  25.1634908  50.2152521  12.0855515  25.3487528
  51.1228468  11.9863472  24.3255693  50.9074951  11.8495840  25.0673243
  53.6810859   8.4945995   9.4529924  53.7757714   9.2335289   9.9069549
  53.0569703   8.0663470   9.8864488  53.6019890   8.5407315   9.5838071
  51.9363333  11.6732207  20.1020205  52.5102195  11.0359451  20.2568769
  51.8578137  11.6736290  19.2329862  52.0096568  11.5797319  19.9966616
  40.5359750   8.4521417  13.9402919  41.1133252   8.3157867  14.5795164
  39.8373811   7.9957201  14.1948503  40.5180771   8.3643683  14.0725209
  47.2927052  10.1055472  12.1541402  47.0346296   9.2727207  12.1272702
  47.3475535  10.3313085  11.3133903  47.2626830  10.0153244  12.0261539
  46.2661764   7.6593235  12.6406297  45.6911355   7.8185403  13.2770258
  45.8897440   7.0228644  12.1774748  46.1264576   7.5891048  12.6660855
  49.9335053   6.1316584  17.4998675  49.5449485   5.7070802  16.8450867
  49.2689751   6.3798734  18.0075702  49.7781980   6.1055305  17.4786543
  51.0373991  10.3615189   5.6975482  51.8514630  10.6530081   5.5858254
  50.9733132   9.7075051   5.1233775  51.1476730  10.3080383   5.5964320
  57.2583481  13.0441185  20.1105058  57.0222118  12.2129250  19.9917119
  57.9026710  12.9926792  20.6959902  57.3178152  12.9138873  20.1790952
  46.9081899  13.8336706  10.8247794  47.5455846  13.5948454  11.3699588
  47.3336971  14.0373865  10.0900955  47.0658065  13.8287716  10.7964952
  41.5994542  16.0725043  14.7082098  41.6398687  16.3439894  13.8801878
  42.1589066  16.5966951  15.1239886  41.6877888  16.1900798  14.6473986
  47.7153255   2.3345411  24.8785268  47.4006696   3.1044974  24.6154831
  47.3943187   1.7715667  24.2937495  47.6212174   2.3655680  24.7526618
  58.2819902  12.8285634  16.1733353  57.9765719  13.5613690  16.5346668
  57.5626117  12.4223563  15.8926139  58.1307244  12.8767367  16.1846490
  49.2903371  14.3109129  12.5041581  49.3642379  14.1484301  13.3583431
  50.1072877  14.4999318  12.2602062  49.4219730  14.3145871  12.5939606
  63.9821694   9.4678634  15.5001697  63.9146194   9.4874593  14.6304283
  63.9677356  10.3108961  15.7257367  63.9700450   9.5952369  15.4054174
  43.0509128  14.6566992   9.5336024  42.2247246  14.9028729   9.4070303
  43.1121119  14.5779072  10.3998082  42.9383295  14.6811941   9.6424969
  47.8307957  17.2743872   7.2355054  48.1206255  16.8832853   6.5114281
  48.5611438  17.4560577   7.6760329  47.9814841  17.2437686   7.1937861
  61.7680311   8.2423020  13.7748291  62.3188233   7.6091089  14.0145383
  61.7524427   8.7738413  14.4663795  61.8465508   8.2271969  13.9127149
  48.4202702  12.0761618  18.3208185  47.9214396  12.7877385  18.3993073
  49.2302926  12.3962284  18.2826347  48.4658809  12.2288466  18.3264753
  45.7713872  19.2511254  10.3015204  45.5514168  18.9608609  11.0941871
  45.5508394  18.5926209   9.7733116  45.7061467  19.1110963  10.3404113
  44.6830820  11.3384571  12.5670906  44.3944068  10.7122042  13.1016633
  45.5514168  11.2804858  12.6335586  44.7691072  11.2372115  12.6561860
  55.4708717   6.4819354  12.8852887  55.1273483   5.7609689  13.2360137
  55.5701760   6.2733205  12.0431246  55.4350760   6.3443557  12.8124567
  47.9381828  20.6240644   9.0845896  48.5905886  20.0917086   9.3136922
  47.2407437  20.2709296   9.4713770  47.9312546  20.4930167   9.1758064
  44.8863093  12.9779822   8.4913271  45.6409061  13.3592861   8.7048733
  44.2933706  13.4290965   8.9459967  44.9099807  13.1008649   8.5896149
  55.9321747  12.9445058   8.4276875  56.4979779  13.6038268   8.3435418
  55.2849650  13.2894756   8.8993278  55.9200503  13.0926999   8.4849632
  47.3469760   4.9342662  23.6170483  46.5369536   5.2400442  23.5060325
  47.8244447   5.6548244  23.7323067  47.2973239   5.0857263  23.6177554
  46.2061320  14.1488383  13.8653386  45.6842073  14.2888675  14.5505251
  46.5935340  13.3899047  14.0555503  46.1865021  14.0573907  13.9954462
  52.4028325  15.8883842   7.8513955  52.1615001  15.1551703   7.4441020
  52.5829658  16.4370699   7.1980288  52.3935949  15.8606234   7.6944178
  47.6327645  11.1792402   9.2634877  47.4370428  11.7867137   8.6695180
  47.8561991  10.4860346   8.7826551  47.6362286  11.1669928   9.1050958
  46.0306175   8.0647140   9.3815745  46.7528827   8.2288298   8.9219551
  45.5514168   8.7856805   9.2755085  46.0669906   8.1945370   9.2981359
  53.9899683   4.4010939  14.7612430  53.1510783   4.4272218  14.5250694
  54.0604050   5.0481674  15.3417777  53.8768076   4.5007065  14.8121547
  43.6813792  10.4705212  18.4869885  44.1934889  10.7489466  17.8378645
  43.3950135  11.2094507  18.8532698  43.7148655  10.6207566  18.4459763
  57.8657207   9.6078926  12.0473672  57.7791181   9.7634352  12.9008451
  57.4107687  10.2517001  11.6733077  57.7860463   9.7254681  12.1180779
  47.1997517   2.5631601  18.5470927  47.0080714   2.5786735  19.3970350
  48.0496113   2.7595275  18.5237582  47.2973239   2.5945952  18.6694222
  41.5844430   5.0922583  16.5254743  41.4429922   4.2406523  16.6499251
  41.8684994   5.1351243  15.7016949  41.6052276   4.9722333  16.4222367
  51.7383023   6.9289673  10.6699232  51.4917737   6.8485424  11.5036020
  52.0668146   6.1443141  10.4761759  51.7504266   6.8015938  10.7646755
  55.6331072  13.6373032  14.4586013  55.4945431  14.3354078  14.9634755
  54.8531069  13.4821689  14.1022195  55.4974298  13.7173199  14.4812287
  53.9709157   9.9369407  20.7108394  53.9657195   9.0649224  20.7150821
  54.6770151  10.1357577  20.2377850  54.0754161   9.8373282  20.6415430
  47.6980050   9.6646391  20.0822215  47.8423426  10.2447599  19.4465325
  48.0455699  10.0422688  20.7872069  47.7707511   9.8067095  20.0921210
  49.8699967   8.8636560  17.8647346  49.1223281   9.0567574  17.4595624
  50.0241493   8.0381779  17.6271467  49.7822395   8.7701671  17.7692752
  46.7707805  17.8549163  16.9483241  46.9197369  17.2952079  16.2956646
  47.5507807  17.9341165  17.3315760  46.9081899  17.7834729  16.9080191
  49.2961106  18.0263806  18.2267732  49.2204777  17.3572617  18.7818521
  49.2250965  18.7281594  18.7408399  49.2741713  18.0308713  18.3844580
  50.1101744   2.7587110  18.7542750  50.5674359   3.4911085  18.8815542
  50.1858073   2.3353576  19.5130006  50.1892714   2.8044348  18.8843826
  42.3534736   3.0052930  19.8432194  41.8176925   2.3933288  20.1592961
  42.4152500   3.5801066  20.4965860  42.2830368   2.9999858  19.9867620
  49.9531353  16.5464805   9.0591338  50.7181244  16.2774449   8.7374002
  49.8509443  16.0614815   9.7761401  50.0512848  16.4354370   9.1171166
  47.9884122   4.7489214  15.5984574  47.1980197   4.5680674  15.9201910
  48.3844745   3.9716167  15.5814868  47.9300999   4.6076675  15.6437122
  53.3727809  12.3831645  13.3244020  52.6972810  12.1516877  13.8257407
  53.3820185  11.7752827  12.6986125  53.2746313  12.2590570  13.3060172
  50.5021953   7.2249473  20.0808073  50.4381094   8.0859430  19.9528210
  50.6419140   6.9081467  19.2803624  50.5137423   7.3049640  19.9436286
  55.3744543  15.2396777   5.5554198  55.4564381  16.0463763   5.2315649
  55.8594285  15.2592736   6.2794971  55.4581701  15.3617439   5.6141096
  49.1841046   9.9181613  14.2224276  48.7603296  10.1186112  13.4863294
  49.0085902   9.0710461  14.3348576  49.0951927   9.8230394  14.1297966
  48.6852740  21.4332126  16.6845733  49.1748670  20.7342915  16.5021398
  48.1136972  21.1355996  17.2721790  48.6737270  21.2858349  16.7446774
  44.4723491  10.4133664   9.6552248  44.6288111  10.3480467  10.5108240
  44.8124085  11.1882217   9.4430928  44.5456726  10.5182862   9.7506842
  51.0102636   9.7891548   8.5245612  51.5518182   9.2861929   8.9884232
  51.3249195   9.7356743   7.7135097  51.1367033   9.7070969   8.4729424
  54.8819743  13.9994195  25.6372524  55.6954609  13.7279344  25.7977656
  54.7214710  13.7001735  24.8332720  54.9789692  13.9149121  25.5417930
  49.1789086  15.1808899   5.8085640  49.2481906  14.3223438   5.9478640
  49.9577541  15.3980780   5.4804664  49.3041936  15.0861763   5.7802797
  52.1591905   4.6827852  18.5767912  52.3733875   4.0438767  18.0231266
  51.5425805   5.1273676  18.1475774  52.0997235   4.6537996  18.4318343
  53.5696573  17.6046601  10.0222133  53.1776365  17.3013316   9.3044999
  53.7249646  18.4415691   9.8327087  53.5350163  17.6830437   9.8878630
  41.0457753   7.5968615   9.9713015  41.4256718   8.0153160   9.3073283
  40.4713118   8.1782070  10.2781859  41.0169078   7.7446474   9.9189756
  54.3230993   6.2916918  19.5151219  53.5107675   5.9842808  19.5964392
  54.7820928   5.8115918  20.0793931  54.2711378   6.1753410  19.6105813
  53.7336248  14.1696589   9.9628163  53.3750903  14.3411232  10.7392196
  53.2474959  14.6309795   9.4056162  53.6094945  14.2635561   9.9953433
  51.4184501   7.6976989  24.2979921  51.8884132   8.3219105  24.6847795
  51.4646381   7.0293964  24.8573136  51.4952377   7.6911669  24.4379993
  54.8940987  15.0600485  20.9095364  55.5320708  14.5660681  20.5757820
  54.2515079  14.9877886  20.3247591  54.8935214  14.9759494  20.7737719
  56.6197988   6.9089631  15.4761280  56.1925596   6.8215980  14.7209379
  55.9824041   7.0167407  16.0616124  56.4627595   6.9122291  15.4506721
  54.9495244  15.7520294  17.5500721  55.7387622  15.4009358  17.6702803
  55.1238842  16.5656682  17.2877355  55.0915526  15.8206151  17.5288589
  44.6888554   9.1629019  14.6028510  43.8476561   9.0632894  14.8107404
  44.8978562   9.9324500  14.9542831  44.5953247   9.2621063  14.6855825
  42.1664121   6.7848556  12.4313261  41.7720819   6.8591568  11.6563370
  41.6104238   7.1706503  12.9821622  42.0266934   6.8530331  12.3980920
  48.5005219   7.0910419  13.8526107  48.1968357   6.5366407  14.4536515
  47.7984640   7.2702629  13.3654142  48.3521429   7.0355201  13.8695813
  46.5623570  14.3060139  18.5598205  46.4543925  14.3162201  19.4260263
  46.7719352  15.1314920  18.3703159  46.5773681  14.4301214  18.6602297
  44.5797362  11.5572782  16.0220143  43.9885296  12.1982280  15.9923158
  45.3418386  11.9810399  15.9951442  44.6045623  11.7148620  16.0135290
  44.9757985   2.7174779  16.6888160  45.4359467   2.7913709  17.4263284
  45.0214092   3.5156034  16.3387982  45.0508540   2.8468927  16.7460917
  46.6241335   3.3841474  21.2560187  46.2326900   2.7374821  21.6915965
  46.7927198   3.9752910  21.8754443  46.5912245   3.3755742  21.4122893
  60.6987784  11.3878551  17.0197421  60.7570908  11.8365200  17.7657398
  60.0654252  11.7977364  16.5827501  60.6139079  11.5152286  17.0649969
  54.3386879  17.0082093  13.4552167  54.1406567  17.4972908  12.7608379
  53.7174590  17.2123335  14.0336301  54.2174443  17.1098632  13.4375391
  48.3994857   8.7766990   7.7962412  49.1436902   9.1641266   8.0345361
  48.5455553   7.9324416   7.9602899  48.5305442   8.7097463   7.8556381
  51.3872733   4.3492463  13.6956331  50.9132687   3.8234226  14.2061642
  51.7590869   3.8021936  13.1271192  51.3722622   4.1908460  13.6871478
  41.7645763   6.3463970  19.0639877  42.6271376   6.2459679  18.9777206
  41.4337546   5.7658679  18.5025449  41.8430959   6.2455597  18.9685282
  57.6509463   9.4094839  15.1063111  57.4107686   8.5701254  15.1105538
  58.1301471   9.4895006  15.8303885  57.6861647   9.2976239  15.2137914
  59.6514650   6.1896296  13.0592370  59.4124420   6.1492130  12.2213155
  59.8148552   7.0367448  13.1858092  59.6404954   6.3088381  12.9545852
  56.2560681  10.5746246  18.9897416  56.9794879  10.1218772  18.8108436
  55.9910643  10.8550911  18.2069743  56.3241954  10.5497214  18.8476131
  45.1247549   5.1706419  15.7250295  44.5000619   5.1824811  15.1176248
  44.7893144   5.6466594  16.3741535  44.9833041   5.2424936  15.7306863
  41.8373224  13.2306879  17.1654059  41.3073149  12.5399318  17.2149034
  42.1098318  13.2217065  16.3366768  41.7997947  13.1274011  17.0501475
  52.8693315  13.8132582   5.8891742  53.5927514  14.2790695   5.7456315
  52.4293906  13.8806191   5.1389339  52.9109007  13.8916418   5.7576523
  52.0379470  10.6730124  17.1392431  51.4236463  10.1288174  17.4341066
  52.5546755  10.1594360  16.6598247  52.0235132  10.5166533  17.1116659
  51.2775767  11.7434394  14.8736729  50.8503375  11.1184113  14.4402165
  51.2700712  11.4609316  15.6995737  51.2134908  11.6087175  14.9316557
  44.3938294   6.7799567  17.9425163  44.5531781   6.0242891  18.3476885
  44.2131188   7.3290507  18.5965901  44.3903653   6.7493381  18.0987869
  49.6061477   2.6203148  15.0879263  49.6303964   2.0863261  14.3992043
  49.8572950   2.1120457  15.7504854  49.6471396   2.4664052  15.0843908
  37.1169067   9.9034643  14.5222407  37.0112516   9.8581488  13.6574491
  36.3669287  10.2488424  14.8036692  36.9904670   9.9475552  14.4359737
  45.8862799   1.3473967  14.4685008  45.9261171   1.8483173  15.1819715
  45.0612464   1.4384360  14.1990931  45.7702325   1.4355783  14.5335546
  48.0692412  10.9134707  22.5705302  47.2188043  11.0506421  22.7062947
  48.2320540  10.1798485  23.0153004  47.9676276  10.8248808  22.6560901
  47.3077163   7.8634477  16.7658907  46.4769092   8.0308294  16.5594155
  47.2528680   7.4870427  17.5507792  47.1766577   7.8324208  16.8507435
  45.1160946   1.3543369  22.4015317  45.7413649   0.8105502  22.6744750
  44.6611426   0.8738287  21.8323108  45.1409206   1.2032851  22.3576911
  58.6895995   9.5372656  17.4927965  59.2813835  10.1769907  17.5246163
  59.1254989   8.8395693  17.7820032  58.8414426   9.5291007  17.5408798
  50.5189384  13.9590029  18.1185859  50.0114475  14.5125876  18.5626490
  50.2216031  14.0198319  17.3004634  50.3994269  14.0496340  18.0634316
  53.1297165  17.8753287   6.0489803  52.4126474  17.7014149   5.5837040
  53.7803902  17.6405859   5.5165289  53.1199015  17.8149079   5.9019021
  55.7145136   6.7517875   9.7931108  55.0436326   7.2947577   9.6644173
  56.4084886   7.2212730   9.5512803  55.7174003   6.9016146   9.7386636
  49.7631870  18.8914587  15.0242866  49.5397524  18.1333416  15.3926892
  49.2741713  18.9212608  14.3023306  49.6575319  18.7836812  14.9719607
  44.5756948   5.8381278  10.7604328  43.8568937   6.2545411  11.0277191
  44.9469311   6.4035517  10.2095966  44.5248880   5.9830560  10.7187135
  53.8756529   6.4709127  16.6506323  53.8554456   6.2892422  17.5041102
  53.9235730   7.3421146  16.6265907  53.8791170   6.5725666  16.7729618
  51.8202859  13.0596319  22.5754800  51.7798714  12.4145996  21.9899956
  52.6326177  13.0032937  22.8880212  51.9346013  12.9555286  22.5351749
  48.4110327  19.1115045  12.4779951  47.9970725  18.4489175  12.0883792
  49.0957701  19.2592904  11.9575645  48.4508698  19.0355703  12.3436448
  51.7775621  18.2705130  13.2303567  51.3791904  18.3807401  12.4624388
  51.1626840  18.4787197  13.8130127  51.6274510  18.3178698  13.2034867
  53.2261339   4.8358783   9.5279457  52.9975032   4.8591484   8.6857816
  53.4859415   4.0116250   9.6474468  53.2307527   4.7174863   9.4204655
  47.5080568   6.6893256  19.1304558  46.9959471   6.0814439  19.4889589
  47.3360064   7.4049848  19.5978533  47.4070205   6.7056555  19.2520781
  42.3546282   5.1330831  21.7806919  42.1848873   5.7932206  21.2355126
  41.9112232   5.3437392  22.5019408  42.2645616   5.2616813  21.8068549
  46.2806102   3.3735329  10.8233653  46.7563468   3.7352409  10.1883834
  45.7794701   4.0291797  11.1033796  46.2771461   3.5229518  10.7710394
  51.3849638   4.6117500  21.5706813  51.9421068   4.3831310  20.9385278
  51.0610703   5.3723166  21.2942025  51.4196048   4.6901337  21.4363310
  39.2548347   8.0377697  17.0395409  38.7075066   7.3678342  17.1576277
  40.0440725   7.6707545  17.1038876  39.2900531   7.8842683  17.0664110
  49.1032755   7.6985154  22.5358820  49.8544082   8.0136831  22.8498374
  49.2955332   7.4964325  21.7092742  49.2424169   7.7152536  22.4602216
  38.0135316   7.2498505  14.1941432  37.8357078   6.7975114  14.9196348
  37.7254339   8.0524666  14.3779910  37.9448270   7.3021062  14.3284935
  53.6758898   8.5056222  13.4318822  54.1712563   7.7879217  13.3922843
  52.8658673   8.2027020  13.3173309  53.6302791   8.3553868  13.4092548
  49.1217509  12.3554035   5.5815827  48.3128832  12.0320709   5.5349136
  49.6292418  11.6487257   5.5144076  49.0767176  12.2035352   5.5646121
  39.7507786   9.7826228  11.3063191  38.8853306   9.7711919  11.1945962
  39.8506602   9.5956451  12.1534330  39.6381953   9.7532290  11.4152136
  55.7410716  11.2559909  16.1195951  56.1665788  10.7334331  15.5666376
  55.3767636  11.8540747  15.5984574  55.7497319  11.2670136  15.9604961
  45.3764796  19.5524127  14.8793297  45.6911355  20.3660515  14.8871078
  45.7858210  19.1674346  15.5475456  45.4832894  19.6152829  14.9797388
  52.3289316  14.9694174  12.4497109  52.8000494  15.6834436  12.6187094
  52.6649494  14.3692924  12.9856978  52.4484431  14.9865638  12.5529485
  54.4166300  16.5795487  24.6289181  54.5263266  15.7904048  24.9845928
  54.7457197  16.4901423  23.8263519  54.4818706  16.4501340  24.5631572
  52.9663262  14.7612108  19.2124801  52.4184208  14.1369991  18.9444867
  53.4276291  14.9506380  18.4968881  52.9530472  14.6971158  19.0675232
  42.7177816  13.4997235  14.5271905  43.3222674  13.4593069  13.8985726
  42.5105129  14.3468387  14.5575961  42.7766714  13.6185238  14.4388022
  52.5321588  15.7663181  15.7434143  53.3519962  15.6226147  16.0050438
  52.2515666  16.3909379  16.2850580  52.6118332  15.8373533  15.8622082
  37.9529099  12.4831853  14.3970828  37.8553377  11.6728124  14.7060885
  38.7357968  12.4623646  14.0117096  38.0545235  12.3598943  14.3857691
  62.2034924  22.5103683  13.4629949  61.3472819  22.6712181  13.5139066
  62.2502577  21.6395747  13.4835010  62.0834035  22.4054485  13.4736015
  65.5128640  28.7790209  23.0690405  66.2195407  28.2842240  23.1977340
  65.7016576  29.2199290  22.3393063  65.6456546  28.7708559  22.9799451
  62.0401023  32.4691771   4.6552728  61.7052392  33.1468692   4.2196950
  62.5527894  32.0797082   4.0669600  62.0666604  32.5116349   4.5039519
  61.5805315  34.4206039  10.5963840  61.9644694  34.9892938  10.0568615
  61.5164456  33.6955550  10.1169656  61.6278742  34.3981503  10.4457702
  65.0486745  24.5695727  16.1061601  65.5942705  25.2480814  16.1655571
  64.9903621  24.4283188  15.2463182  65.1202659  24.6487729  15.9873662
  58.1660820  32.0584793  11.4929953  58.2671182  31.2485147  11.8027081
  57.5702565  31.9641740  10.8629632  58.0933358  31.9249821  11.4456192
  66.8251813  25.9980334   6.9795329  66.7091339  26.7488020   7.4087467
  67.6207700  25.7404288   7.2291416  66.9256403  26.0715181   7.0799420
  58.0061559  36.9762382  12.8944809  58.6499015  37.4175546  13.2840968
  58.3317815  36.1715809  12.8075068  58.1493388  36.9227577  12.9390287
  51.3625864  28.0805080  11.1182287  51.1276048  27.2472732  11.0114556
  51.5011505  28.3609746  10.3043488  51.3481526  27.9988583  10.9824642
  58.7082139  29.9874357   8.2664671  59.0297980  30.5279565   7.6625979
  59.3554235  29.4171129   8.3986961  58.8508194  29.9833532   8.1971707
  60.7583847  21.9890352   8.3499058  61.4564012  22.1678480   8.8420521
  61.0736179  21.4660692   7.7269447  60.9079184  21.9384124   8.3301068
  53.3885084  23.7943092  16.2610164  53.2643781  24.3805538  16.8959983
  54.0403369  23.3003288  16.5622439  53.4658734  23.8081897  16.3996093
  60.9471782  28.3760797   8.3378849  61.3865418  27.7677898   8.7833622
  60.7976445  27.9968171   7.5664314  60.9893248  28.2299268   8.2898017
  58.4143425  26.9704809  15.5397675  59.0592428  26.4777252  15.2208623
  58.6545202  27.1129596  16.3663753  58.5454010  26.9182251  15.6147208
  60.9529517  29.8159715  15.1904567  61.2352760  29.0211121  14.9691323
  61.6815677  30.2940302  15.2109628  61.1019080  29.7694312  15.1607583
  58.9310711  17.3582749  12.4320333  58.6014041  17.8093892  11.7624031
  58.2555712  17.2798912  12.9793339  58.7821147  17.4133884  12.4143556
  64.5481119  26.7287979   5.2909619  64.4632414  27.5848945   5.4359187
  65.0365502  26.4532303   5.9591778  64.6070016  26.8145300   5.4111700
  65.4799552  23.3472773   6.7907354  64.9511024  23.5632406   7.4504660
  66.0024572  24.0408911   6.7108323  65.4788005  23.4815910   6.8762953
  70.9347605  28.9219077  12.1640398  70.1045308  29.1329721  12.3273815
  70.8856857  28.0956132  11.8882682  70.8054340  28.8308683  12.1477764
  57.3699160  27.2435989   5.5914822  56.7856375  27.7486021   5.9980686
  56.9669255  27.0178376   4.8511414  57.2238464  27.2844238   5.5419847
  52.9243189  32.9590751  12.3938493  52.4410767  33.6841240  12.3698077
  53.7366507  33.2566881  12.5048651  52.9733936  33.1093104  12.4065772
  58.9957343  31.7522931  14.9988308  58.4784284  31.3930346  14.3949616
  59.6931734  31.2285106  15.0094374  59.0222924  31.6220619  14.9118566
  62.6520935  32.2017745  20.9604481  62.7404280  32.0143886  21.8082691
  63.0810647  31.5555175  20.5609328  62.7283037  32.0780753  21.0276232
  60.2191394  31.4848905  19.9422143  59.6562229  31.0721515  20.4661804
  60.9812418  31.4101811  20.3615286  60.2485843  31.4126306  20.0815143
  61.8276374  23.4901642   4.0683742  62.0672378  23.6979625   3.2559085
  62.1492215  22.6859150   4.1772687  61.9113532  23.4015743   3.9644295
  57.1366665  15.4195037   7.9143280  57.8912633  15.7873354   7.6760330
  56.9594199  15.7934592   8.6822460  57.2221143  15.5293225   7.9928169
  55.7787386  33.4746927  12.5458773  56.4807965  32.9598916  12.6031530
  55.6984869  33.8021078  13.3505648  55.8711146  33.4461153  12.6731565
  70.4301563  21.5689478  15.9590820  69.5929984  21.6391665  16.1938414
  70.3989794  21.5713973  15.0865122  70.3019846  21.5799705  15.8650368
  56.8266292  23.7122513  21.6739188  56.9986796  23.6028408  22.5224470
  57.3635650  24.3576919  21.4370380  56.9311296  23.7914515  21.7644285
  55.4923729  17.8265356   4.6121393  55.3099302  18.0437237   3.7862386
  56.3549342  17.9404369   4.6680008  55.5928319  17.8755254   4.4975880
  55.1038161  29.6653279  12.0544381  55.9427061  29.8976211  12.1018143
  55.1349930  28.7957590  11.9851417  55.2319879  29.5710225  12.0509026
  55.7290864  30.0854154  16.3557687  56.2689089  29.9425285  17.0261059
  55.0460811  30.4850904  16.7241713  55.7083018  30.1233825  16.5092108
  65.1531749  25.7645154  11.5502711  65.9089264  26.1976669  11.5891620
  65.2594074  25.1149924  12.1237347  65.2801920  25.7322638  11.6400737
  68.1911920  29.5918432  12.3005114  67.7547152  29.5955174  13.0564085
  67.8574836  30.2723931  11.8684691  68.0774540  29.6930887  12.3485947
  62.7640994  31.6326764  23.6248264  63.5481410  31.7457612  23.9904006
  62.5637588  30.8067901  23.8206950  62.8507019  31.5273484  23.7082650
  51.1328009  26.3054444  16.5092108  50.8666425  25.4893561  16.6683098
  51.1466573  26.3507600  15.6387624  51.0952732  26.1911349  16.4045590
  68.1109403  16.6332259  14.5434542  68.7535312  16.7030364  15.1296457
  68.3632424  15.9661482  14.0414084  68.2431535  16.5458608  14.5561821
  55.0385756  21.1039529   3.1243866  54.3243933  20.8177708   3.5366299
  55.5229725  21.4436155   3.7650254  55.0045120  21.1121179   3.2799501
  55.8826616  19.8432823  19.1559116  55.1898412  19.3729802  19.4019847
  56.4986943  19.6171127  19.7300823  55.8711146  19.7399955  19.2768268
  62.9211387  33.5436866  17.2714720  62.1226633  33.3036367  17.5288589
  63.3697399  33.5951259  18.0181768  62.8685998  33.5159258  17.4199644
  71.3256266  26.3099351  11.1924751  71.9872701  25.7490020  11.0920660
  70.6847678  25.8151382  11.5177442  71.3285134  26.1535761  11.2257091
  62.2133074  29.6069483   3.5005674  62.6284223  29.2754507   2.8090170
  61.3825004  29.3738385   3.3725811  62.1521083  29.5240739   3.3796522
  51.5421423  27.0913224  13.7903852  51.3596996  27.0660110  12.9376145
  52.2771092  27.5612162  13.8292761  51.6235487  27.1574586  13.6701771
  67.6121097  27.3264734  10.9336740  67.8476686  27.4709933  10.1063591
  67.7610661  28.0907142  11.3268254  67.6686900  27.4603788  10.8700344
  54.6067175  23.8098227  20.2985961  55.3307147  23.7951257  20.7850856
  54.7083311  24.5193582  19.8007929  54.7285384  23.9122930  20.2964748
  69.4411554  26.1666400   8.7706344  69.7719771  26.6994040   8.1646439
  70.0144642  26.2205288   9.4268295  69.5745233  26.2535969   8.7784126
  61.9812124  27.2897311  25.1634908  61.1885105  27.6040823  25.3487528
  62.0961051  27.5048780  24.3255693  61.8807535  27.3681148  25.0673243
  64.6543443  24.0131303   9.4529924  64.7490297  24.7520597   9.9069549
  64.0302287  23.5848778   9.8864488  64.5752473  24.0592623   9.5838071
  62.9095917  27.1917515  20.1020205  63.4834779  26.5544759  20.2568769
  62.8310721  27.1921598  19.2329862  62.9829152  27.0982627  19.9966616
  51.5092333  23.9706725  13.9402919  52.0865836  23.8343175  14.5795164
  50.8106395  23.5142509  14.1948503  51.4913355  23.8828991  14.0725209
  58.2659635  25.6240780  12.1541402  58.0078880  24.7912515  12.1272702
  58.3208118  25.8498393  11.3133903  58.2359413  25.5338552  12.0261539
  63.3460686  17.7269231  12.2545495  62.6417012  17.2378416  12.4129414
  63.3945660  17.7391705  11.3833939  63.2490737  17.6558879  12.1484835
  57.2394348  23.1778543  12.6406297  56.6643939  23.3370711  13.2770258
  56.8630024  22.5413952  12.1774748  57.0997160  23.1076356  12.6660855
  60.9067636  21.6501892  17.4998675  60.5182069  21.2256110  16.8450867
  60.2422335  21.8984042  18.0075702  60.7514564  21.6240613  17.4786543
  46.9851166  22.8218617  10.6550738  47.0711418  22.4450486  11.4364268
  47.6126964  22.4479063  10.1770696  47.0907717  22.7104100  10.6996215
  64.7293998  15.3476521  15.0122660  65.1104510  14.6654692  15.3990534
  63.9257282  15.0586123  14.8298324  64.6670460  15.2043569  15.0426716
  62.0106575  25.8800497   5.6975482  62.8247213  26.1715389   5.5858254
  61.9465716  25.2260359   5.1233775  62.1209314  25.8265691   5.5964320
  68.2316065  28.5626493  20.1105058  67.9954702  27.7314558  19.9917119
  68.8759294  28.5112100  20.6959902  68.2910735  28.4324181  20.1790952
  57.8814483  29.3522014  10.8247794  58.5188430  29.1133762  11.3699588
  58.3069554  29.5559173  10.0900955  58.0390649  29.3473024  10.7964952
  52.5727125  31.5910351  14.7082098  52.6131270  31.8625202  13.8801878
  53.1321649  32.1152259  15.1239886  52.6610471  31.7086106  14.6473986
  58.5217298  24.5724304   5.1622684  58.9062451  24.3532011   5.9139229
  58.2728918  25.3987249   5.2923760  58.5419370  24.6622450   5.2923760
  58.6885838  17.8530719  24.8785268  58.3739279  18.6230282  24.6154831
  58.3675771  17.2900975  24.2937495  58.5944757  17.8840988  24.7526618
  69.2552485  28.3470941  16.1733353  68.9498302  29.0798998  16.5346668
  68.5358701  27.9408871  15.8926139  69.1039828  28.3952674  16.1846490
  60.2635955  29.8294437  12.5041581  60.3374963  29.6669609  13.3583431
  61.0805461  30.0184626  12.2602062  60.3952313  29.8331179  12.5939606
  74.9554277  24.9863942  15.5001697  74.8878778  25.0059901  14.6304283
  74.9409940  25.8294269  15.7257367  74.9433034  25.1137677  15.4054174
  54.0241711  30.1752299   9.5336024  53.1979829  30.4214037   9.4070303
  54.0853703  30.0964380  10.3998082  53.9115878  30.1997248   9.6424969
  56.2417735  16.2421240  10.4931464  55.3740161  16.3143840  10.5589074
  56.5292939  17.0443319  10.6819439  56.1557483  16.3715388  10.5306231
  65.3650624  16.3899100  18.8242786  66.1104216  16.2008910  18.4106212
  64.9487929  16.9157338  18.2656643  65.4135598  16.4401245  18.6807359
  58.8040540  32.7929180   7.2355054  59.0938839  32.4018161   6.5114281
  59.5344021  32.9745885   7.6760329  58.9547425  32.7622993   7.1937861
  72.7412895  23.7608328  13.7748291  73.2920816  23.1276397  14.0145383
  72.7257010  24.2923721  14.4663795  72.8198091  23.7457277  13.9127149
  59.3935286  27.5946926  18.3208185  58.8946979  28.3062693  18.3993073
  60.2035510  27.9147592  18.2826347  59.4391392  27.7473774  18.3264753
  56.7446456  34.7696562  10.3015204  56.5246751  34.4793917  11.0941871
  56.5240978  34.1111517   9.7733116  56.6794050  34.6296271  10.3404113
  55.6563403  26.8569879  12.5670906  55.3676652  26.2307350  13.1016633
  56.5246751  26.7990166  12.6335586  55.7423655  26.7557423  12.6561860
  66.4441301  22.0004662  12.8852887  66.1006067  21.2794997  13.2360137
  66.5434344  21.7918513  12.0431246  66.4083344  21.8628865  12.8124567
  58.9114412  36.1425952   9.0845896  59.5638470  35.6102394   9.3136922
  58.2140020  35.7894604   9.4713770  58.9045130  36.0115475   9.1758064
  55.8595677  28.4965130   8.4913271  56.6141645  28.8778169   8.7048733
  55.2666289  28.9476273   8.9459967  55.8832390  28.6193957   8.5896149
  66.9054330  28.4630366   8.4276875  67.4712363  29.1223576   8.3435418
  66.2582234  28.8080064   8.8993278  66.8933087  28.6112307   8.4849632
  58.3202344  20.4527970  23.6170483  57.5102119  20.7585750  23.5060325
  58.7977030  21.1733552  23.7323067  58.2705822  20.6042571  23.6177554
  57.1793903  29.6673691  13.8653386  56.6574657  29.8073983  14.5505251
  57.5667924  28.9084355  14.0555503  57.1597604  29.5759215  13.9954462
  54.1685087  19.7179500   7.9348341  53.8809883  19.3480770   7.1980288
  54.8555555  20.1874355   7.6732046  54.2273985  19.7326469   7.7863416
  63.3760908  31.4069150   7.8513955  63.1347584  30.6737011   7.4441020
  63.5562241  31.9556007   7.1980288  63.3668532  31.3791541   7.6944178
  58.6060229  26.6977710   9.2634877  58.4103011  27.3052445   8.6695180
  58.8294574  26.0045654   8.7826551  58.6094870  26.6855236   9.1050958
  57.0038759  23.5832448   9.3815745  57.7261411  23.7473606   8.9219551
  56.5246752  24.3042113   9.2755085  57.0402490  23.7130678   9.2981359
  64.9632266  19.9196247  14.7612430  64.1243367  19.9457526  14.5250694
  65.0336634  20.5666982  15.3417777  64.8500660  20.0192373  14.8121547
  54.6546376  25.9890520  18.4869885  55.1667472  26.2674774  17.8378645
  54.3682718  26.7279814  18.8532698  54.6881239  26.1392874  18.4459763
  63.4101545  16.8181624   9.4940046  64.1127898  16.6189372   9.0160004
  63.1445733  16.0457566   9.8008890  63.4748177  16.6744590   9.4685488
  68.8389790  25.1264234  12.0473672  68.7523765  25.2819660  12.9008451
  68.3840270  25.7702309  11.6733077  68.7593047  25.2439989  12.1180779
  51.7413282  20.4960712   8.7833622  51.8429418  21.2986874   9.1114597
  52.5369169  20.2948048   8.4856702  51.8741187  20.5846611   8.7868977
  58.1730101  18.0816909  18.5470927  57.9813298  18.0972043  19.3970350
  59.0228697  18.2780583  18.5237582  58.2705823  18.1131260  18.6694222
  52.5577014  20.6107890  16.5254743  52.4162506  19.7591831  16.6499251
  52.8417577  20.6536551  15.7016949  52.5784860  20.4907640  16.4222367
  62.7115606  22.4474981  10.6699232  62.4650321  22.3670732  11.5036020
  63.0400729  21.6628449  10.4761759  62.7236850  22.3201246  10.7646755
  66.6063655  29.1558340  14.4586013  66.4678014  29.8539386  14.9634755
  65.8263653  29.0006996  14.1022195  66.4706882  29.2358507  14.4812287
  64.9441740  25.4554715  20.7108394  64.9389779  24.5834532  20.7150821
  65.6502734  25.6542885  20.2377850  65.0486744  25.3558590  20.6415430
  58.6712634  25.1831699  20.0822215  58.8156009  25.7632907  19.4465325
  59.0188282  25.5607996  20.7872069  58.7440095  25.3252403  20.0921210
  60.8432551  24.3821868  17.8647346  60.0955865  24.5752882  17.4595624
  60.9974076  23.5567087  17.6271467  60.7554979  24.2886979  17.7692752
  57.7440389  33.3734471  16.9483241  57.8929952  32.8137387  16.2956646
  58.5240391  33.4526473  17.3315760  57.8814482  33.3020037  16.9080191
  60.2693689  33.5449114  18.2267732  60.1937360  32.8757925  18.7818521
  60.1983548  34.2466902  18.7408399  60.2474296  33.5494021  18.3844580
  61.0834328  18.2772418  18.7542750  61.5406942  19.0096393  18.8815542
  61.1590657  17.8538884  19.5130006  61.1625298  18.3229656  18.8843826
  53.3267319  18.5238238  19.8432194  52.7909509  17.9118596  20.1592961
  53.3885084  19.0986374  20.4965860  53.2562952  18.5185166  19.9867620
  60.9263936  32.0650113   9.0591338  61.6913827  31.7959757   8.7374002
  60.8242026  31.5800123   9.7761401  61.0245432  31.9539677   9.1171166
  58.9616706  20.2674522  15.5984574  58.1712781  20.0865982  15.9201910
  59.3577329  19.4901475  15.5814868  58.9033582  20.1261983  15.6437122
  64.3460392  27.9016952  13.3244020  63.6705394  27.6702185  13.8257407
  64.3552768  27.2938135  12.6986125  64.2478897  27.7775878  13.3060172
  61.4754536  22.7434781  20.0808073  61.4113677  23.6044738  19.9528210
  61.6151724  22.4266775  19.2803624  61.4870006  22.8234948  19.9436286
  66.3477127  30.7582085   5.5554198  66.4296964  31.5649071   5.2315649
  66.8326869  30.7778044   6.2794971  66.4314285  30.8802747   5.6141096
  60.1573630  25.4366921  14.2224276  59.7335879  25.6371420  13.4863294
  59.9818485  24.5895769  14.3348576  60.0684511  25.3415702  14.1297966
  59.6585324  36.9517434  16.6845733  60.1481254  36.2528223  16.5021398
  59.0869556  36.6541304  17.2721790  59.6469853  36.8043657  16.7446774
  55.4456075  25.9318972   9.6552248  55.6020694  25.8665775  10.5108240
  55.7856668  26.7067525   9.4430928  55.5189310  26.0368170   9.7506842
  61.9835220  25.3076856   8.5245612  62.5250765  24.8047237   8.9884232
  62.2981779  25.2542050   7.7135097  62.1099617  25.2256277   8.4729424
  65.8552327  29.5179503  25.6372524  66.6687192  29.2464652  25.7977656
  65.6947293  29.2187043  24.8332720  65.9522276  29.4334429  25.5417930
  60.1521669  30.6994207   5.8085640  60.2214490  29.8408746   5.9478640
  60.9310125  30.9166088   5.4804664  60.2774519  30.6047071   5.7802797
  63.1324489  20.2013160  18.5767912  63.3466459  19.5624074  18.0231266
  62.5158388  20.6458984  18.1475774  63.0729818  20.1723304  18.4318343
  64.5429157  33.1231909  10.0222133  64.1508949  32.8198624   9.3044999
  64.6982229  33.9600999   9.8327087  64.5082747  33.2015745   9.8878630
  52.0190337  23.1153923   9.9713015  52.3989301  23.5338468   9.3073283
  51.4445701  23.6967378  10.2781859  51.9901661  23.2631781   9.9189756
  65.2963577  21.8102225  19.5151219  64.4840259  21.5028116  19.5964392
  65.7553512  21.3301226  20.0793931  65.2443962  21.6938718  19.6105813
  64.7068832  29.6881897   9.9628163  64.3483486  29.8596540  10.7392196
  64.2207542  30.1495103   9.4056162  64.5827529  29.7820868   9.9953433
  62.5239218  13.3113096  13.5655255  61.6532776  13.2851817  13.5188564
  62.7779559  13.1390288  12.7481100  62.4332778  13.2823240  13.4375392
  59.4957197  25.3681063   2.5028398  59.7849722  26.1445945   2.7771972
  59.5828996  24.8569794   3.2042897  59.5511453  25.4072981   2.6470896
  62.3917085  23.2162297  24.2979921  62.8616716  23.8404413  24.6847795
  62.4378965  22.5479272  24.8573136  62.4684960  23.2096977  24.4379993
  59.5488358  15.3219324  15.0228725  59.0326847  14.6299516  15.1480304
  58.9882287  15.9890101  14.9691324  59.3894871  15.3182582  15.0334791
  61.6180592  15.8612284  16.8521578  61.2312345  15.8861316  17.6335108
  61.1313529  15.2953963  16.3996094  61.4893101  15.7808035  16.9009481
  65.8673571  30.5785793  20.9095364  66.5053292  30.0845989  20.5757820
  65.2247663  30.5063194  20.3247591  65.8667798  30.4944802  20.7737719
  67.5930571  22.4274939  15.4761280  67.1658179  22.3401288  14.7209379
  66.9556624  22.5352715  16.0616124  67.4360178  22.4307599  15.4506721
  61.2837733  12.7479270  19.1431838  61.9130851  13.2839570  18.8652908
  61.4523596  12.6556629  19.9945403  61.4015528  12.8140632  19.2280366
  61.0851648  17.5350465  21.4158249  61.9125078  17.2635613  21.4716864
  61.1059494  18.3311306  21.7722067  61.2104498  17.6130219  21.4773432
  65.9227828  31.2705602  17.5500721  66.7120206  30.9194666  17.6702803
  66.0971425  32.0841990  17.2877355  66.0648109  31.3391459  17.5288589
  55.6621138  24.6814327  14.6028510  54.8209145  24.5818202  14.8107404
  55.8711146  25.4509808  14.9542831  55.5685831  24.7806371  14.6855825
  53.1396705  22.3033864  12.4313261  52.7453403  22.3776876  11.6563370
  52.5836822  22.6891811  12.9821622  52.9999517  22.3715639  12.3980920
  64.7761652  15.2815158  12.1117139  64.9811245  15.2137466  12.9574137
  64.4488076  16.0873980  12.0438317  64.7576900  15.3901099  12.2276795
  59.4737803  22.6095727  13.8526107  59.1700940  22.0551715  14.4536515
  58.7717224  22.7887937  13.3654142  59.3254013  22.5540509  13.8695813
  58.5303900  19.9196246   8.4170809  58.8063634  19.2015159   8.0048377
  59.1302569  20.5181166   8.2091915  58.6597165  19.9016617   8.3251570
  57.5356154  29.8245447  18.5598205  57.4276509  29.8347509  19.4260263
  57.7451935  30.6500228  18.3703159  57.5506265  29.9486522  18.6602297
  55.5529946  27.0758090  16.0220143  54.9617879  27.7167588  15.9923158
  56.3150969  27.4995707  15.9951442  55.5778207  27.2333928  16.0135290
  55.9490569  18.2360087  16.6888160  56.4092050  18.3099017  17.4263284
  55.9946675  19.0341341  16.3387982  56.0241124  18.3654235  16.7460917
  57.5973918  18.9026782  21.2560187  57.2059484  18.2560129  21.6915965
  57.7659781  19.4938218  21.8754443  57.5644829  18.8941050  21.4122893
  71.6720367  26.9063859  17.0197421  71.7303491  27.3550508  17.7657398
  71.0386835  27.3162672  16.5827501  71.5871663  27.0337594  17.0649969
  65.3119462  32.5267401  13.4552167  65.1139151  33.0158216  12.7608379
  64.6907173  32.7308643  14.0336301  65.1907027  32.6283940  13.4375391
  59.3727441  24.2952298   7.7962412  60.1169485  24.6826574   8.0345361
  59.5188137  23.4509723   7.9602899  59.5038026  24.2282771   7.8556381
  61.2907016  16.0902557  12.8294273  60.4443061  16.2625365  12.7035623
  61.2878148  15.2851901  13.1660101  61.1654166  15.9963586  12.8605400
  62.3605316  19.8677771  13.6956331  61.8865271  19.3419533  14.2061642
  62.7323452  19.3207244  13.1271192  62.3455205  19.7093768  13.6871478
  52.7378347  21.8649278  19.0639877  53.6003960  21.7644987  18.9777206
  52.4070130  21.2843987  18.5025449  52.8163543  21.7640905  18.9685282
  68.6242047  24.9280147  15.1063111  68.3840270  24.0886562  15.1105538
  69.1034054  25.0080314  15.8303885  68.6594231  24.8161547  15.2137914
  70.6247234  21.7081604  13.0592370  70.3857004  21.6677438  12.2213155
  70.7881135  22.5552756  13.1858092  70.6137537  21.8273689  12.9545852
  67.2293264  26.0931554  18.9897416  67.9527463  25.6404080  18.8108436
  66.9643226  26.3736219  18.2069743  67.2974537  26.0682522  18.8476131
  56.0980133  20.6891727  15.7250295  55.4733203  20.7010119  15.1176248
  55.7625727  21.1651902  16.3741535  55.9565624  20.7610244  15.7306863
  56.2821881  19.0316846   1.7822980  55.9334686  19.6836571   2.2454529
  55.8018327  19.0173959   1.0546851  56.1592125  19.1259899   1.7434071
  52.8105808  28.7492187  17.1654059  52.2805733  28.0584626  17.2149034
  53.0830901  28.7402373  16.3366768  52.7730530  28.6459319  17.0501475
  63.8425899  29.3317890   5.8891742  64.5660097  29.7976003   5.7456315
  63.4026490  29.3991499   5.1389339  63.8841591  29.4101726   5.7576523
  63.0112054  26.1915432  17.1392431  62.3969047  25.6473482  17.4341066
  63.5279339  25.6779668  16.6598247  62.9967716  26.0351841  17.1116659
  62.2508351  27.2619702  14.8736729  61.8235959  26.6369420  14.4402165
  62.2433295  26.9794624  15.6995737  62.1867492  27.1272482  14.9316557
  55.3670878  22.2984875  17.9425163  55.5264365  21.5428199  18.3476885
  55.1863771  22.8475814  18.5965901  55.3636237  22.2678689  18.0987869
  63.3091181  14.4646110  18.4975953  62.8131742  14.6609785  17.8067519
  64.0660243  14.8638779  18.3264754  63.3478006  14.5523844  18.3696090
  60.5794060  18.1388456  15.0879263  60.6036548  17.6048569  14.3992043
  60.8305534  17.6305765  15.7504854  60.6203979  17.9849360  15.0843908
  48.0901650  25.4219951  14.5222407  47.9845099  25.3766796  13.6574491
  47.3401870  25.7673732  14.8036692  47.9637253  25.4660860  14.4359737
  56.8595383  16.8659275  14.4685008  56.8993754  17.3668481  15.1819715
  56.0345047  16.9569668  14.1990931  56.7434909  16.9541091  14.5335546
  59.0424996  26.4320015  22.5705302  58.1920626  26.5691729  22.7062947
  59.2053123  25.6983793  23.0153004  58.9408859  26.3434116  22.6560901
  58.2809746  23.3819784  16.7658907  57.4501676  23.5493602  16.5594155
  58.2261263  23.0055735  17.5507792  58.1499161  23.3509516  16.8507435
  56.0893529  16.8728677  22.4015317  56.7146233  16.3290810  22.6744750
  55.6344009  16.3923595  21.8323108  56.1141790  16.7218159  22.3576911
  56.6545790  21.6575376   7.2949024  56.7948751  22.1547840   7.9977666
  57.1528323  20.9561670   7.4363238  56.7486871  21.6277355   7.4200603
  56.6846012  22.5242487   4.6241601  57.3191092  23.1202912   4.5591063
  56.7671623  22.2245945   5.4387471  56.7902563  22.5683395   4.7344688
  69.6628578  25.0557964  17.4927965  70.2546418  25.6955215  17.5246163
  70.0987573  24.3581001  17.7820032  69.8147009  25.0476315  17.5408798
  58.2624995  18.4556462   4.5987043  58.5840836  17.9759545   3.9446305
  58.5251939  19.2656108   4.4077855  58.3491021  18.5046360   4.4742535
  61.4921968  29.4775337  18.1185859  60.9847059  30.0311184  18.5626490
  61.1948614  29.5383627  17.3004634  61.3726853  29.5681648  18.0634316
  63.6584150  17.8428656  16.9610522  64.0839222  17.3901183  16.3494049
  63.0441143  17.2888727  17.2375310  63.6312796  17.6942633  16.9115548
  53.1899000  24.7210328   7.8931147  53.6991230  25.3174835   8.2742453
  53.6633272  24.4536301   7.2107567  53.3342376  24.7696143   7.8485670
  64.1029748  33.3938594   6.0489803  63.3859058  33.2199457   5.5837040
  64.7536486  33.1591167   5.5165289  64.0931599  33.3334387   5.9019021
  62.0978373  14.3143756  10.3701099  61.4546691  14.1641403  10.9386238
  61.7577780  14.0686101   9.6050204  61.9523450  14.2555879  10.3404114
  66.6877719  22.2703183   9.7931108  66.0168909  22.8132885   9.6644173
  67.3817470  22.7398038   9.5512803  66.6906587  22.4201454   9.7386636
  60.7364453  34.4099895  15.0242866  60.5130108  33.6518724  15.3926892
  60.2474296  34.4397916  14.3023306  60.6307902  34.3022120  14.9719607
  66.8505847  18.7259067  12.7021481  67.2033457  18.2988790  13.3767280
  65.9920648  18.6409910  12.8322557  66.7755292  18.6503807  12.8216492
  55.5489532  21.3566586  10.7604328  54.8301521  21.7730719  11.0277191
  55.9201894  21.9220825  10.2095966  55.4981464  21.5015868  10.7187135
  64.8489113  21.9894435  16.6506323  64.8287040  21.8077730  17.5041102
  64.8968313  22.8606454  16.6265907  64.8523754  22.0910973  16.7729618
  62.7935443  28.5781627  22.5754800  62.7531297  27.9331304  21.9899956
  63.6058761  28.5218245  22.8880212  62.9078596  28.4740594  22.5351749
  59.3842910  34.6300353  12.4779951  58.9703309  33.9674483  12.0883792
  60.0690284  34.7778212  11.9575645  59.4241282  34.5541011  12.3436448
  62.7508204  33.7890438  13.2303567  62.3524487  33.8992709  12.4624388
  62.1359424  33.9972505  13.8130127  62.6007094  33.8364006  13.2034867
  61.3236106  20.3964586   6.0977707  60.7300946  20.7181583   5.5462274
  61.3611384  19.5505682   5.8898813  61.2410495  20.3188914   5.9860478
  64.1993923  20.3544091   9.5279457  63.9707616  20.3776792   8.6857816
  64.4591999  19.5301558   9.6474468  64.2040111  20.2360171   9.4204655
  58.4813151  22.2078564  19.1304558  57.9692054  21.5999747  19.4889589
  58.3092647  22.9235156  19.5978533  58.3802788  22.2241863  19.2520781
  53.3278866  20.6516139  21.7806919  53.1581456  21.3117514  21.2355126
  52.8844816  20.8622700  22.5019408  53.2378200  20.7802121  21.8068549
  57.2538685  18.8920637  10.8233653  57.7296052  19.2537717  10.1883834
  56.7527285  19.5477105  11.1033796  57.2504044  19.0414826  10.7710394
  62.3582222  20.1302808  21.5706813  62.9153652  19.9016618  20.9385278
  62.0343287  20.8908474  21.2942025  62.3928632  20.2086645  21.4363310
  50.2280931  23.5563005  17.0395409  49.6807650  22.8863650  17.1576277
  51.0173309  23.1892853  17.1038876  50.2633114  23.4027991  17.0664110
  60.0765339  23.2170462  22.5358820  60.8276666  23.5322139  22.8498374
  60.2687915  23.0149633  21.7092742  60.2156753  23.2337844  22.4602216
  59.2965339  21.0361837   4.1907037  59.6764303  21.0541466   3.4058152
  58.5557935  21.4815826   4.0697884  59.2434176  21.1043611   4.0570605
  66.9250629  19.3444028   9.7782616  66.9244855  19.1892685  10.6366892
  66.7206809  20.1907015   9.7224001  66.8950407  19.4464649   9.8970555
  48.9867900  22.7683812  14.1941432  48.8089661  22.3160421  14.9196348
  48.6986922  23.5709974  14.3779910  48.9180853  22.8206370  14.3284935
  64.6491481  24.0241530  13.4318822  65.1445146  23.3064525  13.3922843
  63.8391257  23.7212327  13.3173309  64.6035374  23.8739176  13.4092548
  60.0950093  27.8739343   5.5815827  59.2861415  27.5506017   5.5349136
  60.6025001  27.1672565   5.5144076  60.0499759  27.7220659   5.5646121
  50.7240370  25.3011536  11.3063191  49.8585889  25.2897227  11.1945962
  50.8239186  25.1141759  12.1534330  50.6114537  25.2717597  11.4152136
  66.7143300  26.7745217  16.1195951  67.1398371  26.2519639  15.5666376
  66.3500220  27.3726055  15.5984574  66.7229903  26.7855444  15.9604961
  56.3497380  35.0709435  14.8793297  56.6643939  35.8845823  14.8871078
  56.7590793  34.6859653  15.5475456  56.4565478  35.1338137  14.9797388
  63.3021899  30.4879482  12.4497109  63.7733078  31.2019744  12.6187094
  63.6382078  29.8878232  12.9856978  63.4217014  30.5050946  12.5529485
  65.3898884  32.0980795  24.6289181  65.4995849  31.3089356  24.9845928
  65.7189781  32.0086731  23.8263519  65.4551290  31.9686648  24.5631572
  60.2191394  15.2606952  19.4055204  60.3519300  14.4637946  19.7336179
  60.6036547  15.7873355  19.9853479  60.2947723  15.2206869  19.5398706
  63.9395846  30.2797416  19.2124801  63.3916792  29.6555299  18.9444867
  64.4008874  30.4691688  18.4968881  63.9263055  30.2156466  19.0675232
  63.2923750  12.1837278  16.0036297  62.4869713  12.0735008  16.3204135
  63.1630485  12.2849734  15.1466163  63.1543882  12.1820948  15.9244337
  66.7489710  18.3482770  16.5975994  66.1652699  18.8491977  16.1853561
  67.0694004  17.8412326  15.9640317  66.7102885  18.3474605  16.4434501
  59.2884509  17.2623365   6.8734668  60.1100204  17.4321678   6.6316363
  58.8254160  17.4170626   6.1500966  59.3415671  17.3105098   6.7306313
  57.8779841  15.2566127  17.6533097  58.4224254  14.9157254  18.2437439
  57.9316777  16.1151589  17.7954382  57.9668961  15.3321387  17.7614971
  53.6910400  29.0182543  14.5271905  54.2955257  28.9778377  13.8985726
  53.4837712  29.8653695  14.5575961  53.7499297  29.1370546  14.4388022
  63.5054172  31.2848488  15.7434143  64.3252546  31.1411454  16.0050438
  63.2248250  31.9094687  16.2850580  63.5850915  31.3558840  15.8622082
  48.9261682  28.0017161  14.3970828  48.8285960  27.1913432  14.7060885
  49.7090552  27.9808954  14.0117096  49.0277819  27.8784251  14.3857691
  73.1767507  38.0288991  13.4629949  72.3205403  38.1897489  13.5139066
  73.2235161  37.1581055  13.4835010  73.0566619  37.9239793  13.4736015
  67.5608647  47.5651709   9.2267181  66.8091546  47.1867247   8.9983226
  68.0094659  47.5970143   8.4785991  67.5158314  47.5137316   9.0824683
  76.4861224  44.2975517  23.0690405  77.1927991  43.8027548  23.1977340
  76.6749159  44.7384598  22.3393063  76.6189129  44.2893867  22.9799451
  76.0219328  40.0881035  16.1061601  76.5675288  40.7666122  16.1655571
  75.9636205  39.9468496  15.2463182  76.0935243  40.1673037  15.9873662
  69.1393403  47.5770101  11.4929953  69.2403766  46.7670455  11.8027081
  68.5435148  47.4827048  10.8629632  69.0665942  47.4435129  11.4456192
  68.9794143  52.4947690  12.8944809  69.6231598  52.9360854  13.2840968
  69.3050398  51.6901117  12.8075068  69.1225971  52.4412885  12.9390287
  62.3358447  43.5990388  11.1182287  62.1008632  42.7658040  11.0114556
  62.4744088  43.8795053  10.3043488  62.3214110  43.5173891  10.9824642
  64.6348535  35.7676118  14.0166595  64.0153567  35.1768766  13.8476610
  64.5332398  36.3587554  13.3830918  64.5286210  35.7680201  13.8971584
  71.7316431  37.5075660   8.3499058  72.4296595  37.6863788   8.8420521
  72.0468763  36.9845999   7.7269447  71.8811768  37.4569432   8.3301068
  64.3617668  39.3128400  16.2610164  64.2376365  39.8990846  16.8959983
  65.0135952  38.8188596  16.5622439  64.4391317  39.3267204  16.3996093
  71.9204366  43.8946105   8.3378849  72.3598001  43.2863206   8.7833622
  71.7709029  43.5153479   7.5664314  71.9625832  43.7484576   8.2898017
  69.3876009  42.4890117  15.5397675  70.0325011  41.9962560  15.2208623
  69.6277786  42.6314904  16.3663753  69.5186594  42.4367559  15.6147208
  71.9262100  45.3345023  15.1904567  72.2085343  44.5396429  14.9691323
  72.6548261  45.8125610  15.2109628  72.0751664  45.2879620  15.1607583
  69.9043294  32.8768057  12.4320333  69.5746624  33.3279200  11.7624031
  69.2288296  32.7984220  12.9793339  69.7553730  32.9319192  12.4143556
  63.8975772  48.4776059  12.3938493  63.4143350  49.2026548  12.3698077
  64.7099090  48.7752189  12.5048651  63.9466520  48.6278412  12.4065772
  69.9689926  47.2708239  14.9988308  69.4516868  46.9115654  14.3949616
  70.6664317  46.7470414  15.0094374  69.9955507  47.1405927  14.9118566
  73.6253518  47.7203053  20.9604481  73.7136864  47.5329194  21.8082691
  74.0543231  47.0740483  20.5609328  73.7015620  47.5966061  21.0276232
  71.1923978  47.0034213  19.9422143  70.6294813  46.5906823  20.4661804
  71.9545001  46.9287119  20.3615286  71.2218427  46.9311614  20.0815143
  68.1099248  30.9380345   7.9143280  68.8645216  31.3058662   7.6760330
  67.9326783  31.3119900   8.6822460  68.1953727  31.0478533   7.9928169
  66.7519969  48.9932234  12.5458773  67.4540549  48.4784224  12.6031530
  66.6717452  49.3206386  13.3505648  66.8443730  48.9646461  12.6731565
  67.7998876  39.2307821  21.6739188  67.9719380  39.1213716  22.5224470
  68.3368233  39.8762227  21.4370380  67.9043880  39.3099823  21.7644285
  66.4656313  33.3450664   4.6121393  66.2831886  33.5622545   3.7862386
  67.3281926  33.4589677   4.6680008  66.5660902  33.3940562   4.4975880
  66.0770745  45.1838586  12.0544381  66.9159644  45.4161519  12.1018143
  66.1082514  44.3142898  11.9851417  66.2052462  45.0895533  12.0509026
  66.7023448  45.6039462  16.3557687  67.2421673  45.4610593  17.0261059
  66.0193394  46.0036212  16.7241713  66.6815602  45.6419133  16.5092108
  76.1264333  41.2830462  11.5502711  76.8821848  41.7161977  11.5891620
  76.2326657  40.6335232  12.1237347  76.2534503  41.2507946  11.6400737
  73.7373577  47.1512072  23.6248264  74.5213994  47.2642920  23.9904006
  73.5370172  46.3253209  23.8206950  73.8239603  47.0458792  23.7082650
  62.1060593  41.8239752  16.5092108  61.8399008  41.0078869  16.6683098
  62.1199157  41.8692908  15.6387624  62.0685315  41.7096657  16.4045590
  66.0118340  36.6224837   3.1243866  65.2976517  36.3363016   3.5366299
  66.4962309  36.9621463   3.7650254  65.9777703  36.6306487   3.2799501
  66.8559199  35.3618131  19.1559116  66.1630996  34.8915110  19.4019847
  67.4719527  35.1356435  19.7300823  66.8443729  35.2585263  19.2768268
  73.8943971  49.0622174  17.2714720  73.0959216  48.8221674  17.5288589
  74.3429982  49.1136567  18.0181768  73.8418582  49.0344566  17.4199644
  62.5154007  42.6098532  13.7903852  62.3329580  42.5845418  12.9376145
  63.2503675  43.0797470  13.8292761  62.5968070  42.6759894  13.6701771
  65.5799758  39.3283535  20.2985961  66.3039731  39.3136565  20.7850856
  65.6815895  40.0378890  19.8007929  65.7017967  39.4308238  20.2964748
  72.9544708  42.8082619  25.1634908  72.1617688  43.1226131  25.3487528
  73.0693635  43.0234088  24.3255693  72.8540118  42.8866456  25.0673243
  75.6276027  39.5316610   9.4529924  75.7222881  40.2705905   9.9069549
  75.0034870  39.1034086   9.8864488  75.5485057  39.5777931   9.5838071
  73.8828500  42.7102823  20.1020205  74.4567362  42.0730067  20.2568769
  73.8043304  42.7106905  19.2329862  73.9561735  42.6167934  19.9966616
  62.4824917  39.4892033  13.9402919  63.0598419  39.3528483  14.5795164
  61.7838979  39.0327817  14.1948503  62.4645938  39.4014299  14.0725209
  69.2392219  41.1426088  12.1541402  68.9811463  40.3097823  12.1272702
  69.2940702  41.3683701  11.3133903  69.2091997  41.0523859  12.0261539
  74.3193269  33.2454539  12.2545495  73.6149596  32.7563724  12.4129414
  74.3678244  33.2577013  11.3833939  74.2223321  33.1744187  12.1484835
  68.2126931  38.6963851  12.6406297  67.6376522  38.8556019  13.2770258
  67.8362607  38.0599260  12.1774748  68.0729744  38.6261664  12.6660855
  71.8800220  37.1687200  17.4998675  71.4914653  36.7441418  16.8450867
  71.2154918  37.4169350  18.0075702  71.7247148  37.1425921  17.4786543
  57.9583750  38.3403925  10.6550738  58.0444002  37.9635794  11.4364268
  58.5859548  37.9664371  10.1770696  58.0640301  38.2289408  10.6996215
  75.7026581  30.8661829  15.0122660  76.0837093  30.1840000  15.3990534
  74.8989866  30.5771431  14.8298324  75.6403043  30.7228877  15.0426716
  68.8547066  44.8707322  10.8247794  69.4921013  44.6319069  11.3699588
  69.2802138  45.0744481  10.0900955  69.0123233  44.8658332  10.7964952
  63.5459709  47.1095658  14.7082098  63.5863854  47.3810510  13.8801878
  64.1054233  47.6337567  15.1239886  63.6343055  47.2271414  14.6473986
  69.4949881  40.0909612   5.1622684  69.8795034  39.8717318   5.9139229
  69.2461502  40.9172557   5.2923760  69.5151954  40.1807758   5.2923760
  69.6618422  33.3716027  24.8785268  69.3471863  34.1415590  24.6154831
  69.3408354  32.8086283  24.2937495  69.5677341  33.4026296  24.7526618
  71.2368538  45.3479745  12.5041581  71.3107547  45.1854916  13.3583431
  72.0538045  45.5369934  12.2602062  71.3684897  45.3516487  12.5939606
  64.9974295  45.6937607   9.5336024  64.1712413  45.9399345   9.4070303
  65.0586286  45.6149688  10.3998082  64.8848462  45.7182556   9.6424969
  67.2150319  31.7606548  10.4931464  66.3472744  31.8329148  10.5589074
  67.5025523  32.5628627  10.6819439  67.1290067  31.8900696  10.5306231
  76.3383207  31.9084408  18.8242786  77.0836800  31.7194218  18.4106212
  75.9220512  32.4342646  18.2656643  76.3868182  31.9586553  18.6807359
  70.3667869  43.1132234  18.3208185  69.8679563  43.8248001  18.3993073
  71.1768093  43.4332900  18.2826347  70.4123976  43.2659082  18.3264753
  67.7179040  50.2881870  10.3015204  67.4979335  49.9979225  11.0941871
  67.4973562  49.6296825   9.7733116  67.6526634  50.1481578  10.3404113
  66.6295987  42.3755187  12.5670906  66.3409235  41.7492658  13.1016633
  67.4979335  42.3175474  12.6335586  66.7156239  42.2742731  12.6561860
  77.4173885  37.5189970  12.8852887  77.0738650  36.7980305  13.2360137
  77.5166927  37.3103821  12.0431246  77.3815927  37.3814173  12.8124567
  66.8328260  44.0150438   8.4913271  67.5874228  44.3963477   8.7048733
  66.2398873  44.4661581   8.9459967  66.8564974  44.1379265   8.5896149
  69.2934927  35.9713278  23.6170483  68.4834703  36.2771058  23.5060325
  69.7709614  36.6918860  23.7323067  69.2438406  36.1227879  23.6177554
  68.1526487  45.1858999  13.8653386  67.6307240  45.3259291  14.5505251
  68.5400507  44.4269663  14.0555503  68.1330188  45.0944523  13.9954462
  65.1417671  35.2364808   7.9348341  64.8542467  34.8666078   7.1980288
  65.8288139  35.7059663   7.6732046  65.2006568  35.2511777   7.7863416
  69.5792812  42.2163018   9.2634877  69.3835595  42.8237753   8.6695180
  69.8027158  41.5230962   8.7826551  69.5827453  42.2040544   9.1050958
  67.9771342  39.1017756   9.3815745  68.6993994  39.2658914   8.9219551
  67.4979335  39.8227421   9.2755085  68.0135073  39.2315985   9.2981359
  75.9364850  35.4381555  14.7612430  75.0975951  35.4642834  14.5250694
  76.0069217  36.0852290  15.3417777  75.8233243  35.5377681  14.8121547
  65.6278959  41.5075828  18.4869885  66.1400056  41.7860082  17.8378645
  65.3415302  42.2465122  18.8532698  65.6613822  41.6578182  18.4459763
  74.3834128  32.3366932   9.4940046  75.0860481  32.1374680   9.0160004
  74.1178317  31.5642874   9.8008890  74.4480761  32.1929898   9.4685488
  62.7145865  36.0146020   8.7833622  62.8162002  36.8172182   9.1114597
  63.5101752  35.8133356   8.4856702  62.8473771  36.1031919   8.7868977
  69.1462684  33.6002217  18.5470927  68.9545882  33.6157351  19.3970350
  69.9961280  33.7965891  18.5237582  69.2438406  33.6316568  18.6694222
  63.5309597  36.1293198  16.5254743  63.3895089  35.2777139  16.6499251
  63.8150161  36.1721859  15.7016949  63.5517444  36.0092948  16.4222367
  73.6848190  37.9660289  10.6699232  73.4382904  37.8856040  11.5036020
  74.0133313  37.1813756  10.4761759  73.6969433  37.8386554  10.7646755
  77.5796239  44.6743648  14.4586013  77.4410598  45.3724694  14.9634755
  76.7996237  44.5192304  14.1022195  77.4439466  44.7543815  14.4812287
  75.9174324  40.9740023  20.7108394  75.9122362  40.1019840  20.7150821
  76.6235318  41.1728192  20.2377850  76.0219328  40.8743897  20.6415430
  69.6445217  40.7017007  20.0822215  69.7888593  41.2818215  19.4465325
  69.9920866  41.0793304  20.7872069  69.7172679  40.8437711  20.0921210
  71.8165134  39.9007176  17.8647346  71.0688449  40.0938190  17.4595624
  71.9706660  39.0752395  17.6271467  71.7287562  39.8072287  17.7692752
  68.7172972  48.8919779  16.9483241  68.8662536  48.3322695  16.2956646
  69.4972974  48.9711781  17.3315760  68.8547066  48.8205344  16.9080191
  71.2426273  49.0634422  18.2267732  71.1669944  48.3943232  18.7818521
  71.1716132  49.7652210  18.7408399  71.2206880  49.0679329  18.3844580
  72.0566912  33.7957726  18.7542750  72.5139526  34.5281701  18.8815542
  72.1323240  33.3724192  19.5130006  72.1357881  33.8414964  18.8843826
  64.2999903  34.0423546  19.8432194  63.7642092  33.4303904  20.1592961
  64.3617667  34.6171682  20.4965860  64.2295535  34.0370474  19.9867620
  69.9349289  35.7859830  15.5984574  69.1445364  35.6051290  15.9201910
  70.3309912  35.0086783  15.5814868  69.8766166  35.6447291  15.6437122
  75.3192976  43.4202260  13.3244020  74.6437978  43.1887493  13.8257407
  75.3285352  42.8123443  12.6986125  75.2211480  43.2961186  13.3060172
  72.4487120  38.2620089  20.0808073  72.3846261  39.1230046  19.9528210
  72.5884307  37.9452083  19.2803624  72.4602590  38.3420256  19.9436286
  71.1306214  40.9552229  14.2224276  70.7068463  41.1556728  13.4863294
  70.9551069  40.1081077  14.3348576  71.0417094  40.8601010  14.1297966
  70.6317907  52.4702742  16.6845733  71.1213837  51.7713531  16.5021398
  70.0602139  52.1726612  17.2721790  70.6202437  52.3228965  16.7446774
  66.4188659  41.4504280   9.6552248  66.5753278  41.3851083  10.5108240
  66.7589252  42.2252833   9.4430928  66.4921893  41.5553478   9.7506842
  72.9567803  40.8262164   8.5245612  73.4983349  40.3232545   8.9884232
  73.2714362  40.7727358   7.7135097  73.0832200  40.7441585   8.4729424
  76.8284911  45.0364811  25.6372524  77.6419776  44.7649960  25.7977656
  76.6679877  44.7372351  24.8332720  76.9254859  44.9519737  25.5417930
  74.1057073  35.7198468  18.5767912  74.3199042  35.0809382  18.0231266
  73.4890972  36.1644292  18.1475774  74.0462402  35.6908612  18.4318343
  62.9922920  38.6339231   9.9713015  63.3721885  39.0523776   9.3073283
  62.4178285  39.2152686  10.2781859  62.9634245  38.7817089   9.9189756
  76.2696161  37.3287533  19.5151219  75.4572842  37.0213424  19.5964392
  76.7286095  36.8486534  20.0793931  76.2176545  37.2124026  19.6105813
  73.4971801  28.8298404  13.5655255  72.6265359  28.8037125  13.5188564
  73.7512143  28.6575596  12.7481100  73.4065361  28.8008548  13.4375392
  73.3649668  38.7347605  24.2979921  73.8349299  39.3589721  24.6847795
  73.4111548  38.0664580  24.8573136  73.4417544  38.7282285  24.4379993
  70.5220942  30.8404632  15.0228725  70.0059430  30.1484824  15.1480304
  69.9614871  31.5075409  14.9691324  70.3627455  30.8367890  15.0334791
  72.5913175  31.3797592  16.8521578  72.2044928  31.4046624  17.6335108
  72.1046112  30.8139271  16.3996094  72.4625684  31.2993343  16.9009481
  76.8406155  46.0971101  20.9095364  77.4785875  45.6031297  20.5757820
  76.1980246  46.0248502  20.3247591  76.8400381  46.0130110  20.7737719
  78.5663155  37.9460247  15.4761280  78.1390763  37.8586596  14.7209379
  77.9289208  38.0538023  16.0616124  78.4092762  37.9492907  15.4506721
  72.2570317  28.2664578  19.1431838  72.8863435  28.8024878  18.8652908
  72.4256180  28.1741937  19.9945403  72.3748111  28.3325940  19.2280366
  72.0584232  33.0535773  21.4158249  72.8857661  32.7820921  21.4716864
  72.0792078  33.8496614  21.7722067  72.1837082  33.1315527  21.4773432
  76.8960411  46.7890910  17.5500721  77.6852789  46.4379974  17.6702803
  77.0704009  47.6027298  17.2877355  77.0380693  46.8576767  17.5288589
  66.6353722  40.1999635  14.6028510  65.7941728  40.1003509  14.8107404
  66.8443730  40.9695116  14.9542831  66.5418414  40.2991679  14.6855825
  64.1129289  37.8219172  12.4313261  63.7185986  37.8962184  11.6563370
  63.5569405  38.2077119  12.9821622  63.9732101  37.8900947  12.3980920
  75.7494235  30.8000466  12.1117139  75.9543829  30.7322774  12.9574137
  75.4220659  31.6059288  12.0438317  75.7309483  30.9086407  12.2276795
  70.4470386  38.1281035  13.8526107  70.1433524  37.5737023  14.4536515
  69.7449807  38.3073244  13.3654142  70.2986596  38.0725817  13.8695813
  69.5036484  35.4381554   8.4170809  69.7796218  34.7200467   8.0048377
  70.1035153  36.0366474   8.2091915  69.6329748  35.4201925   8.3251570
  68.5088738  45.3430755  18.5598205  68.4009092  45.3532817  19.4260263
  68.7184519  46.1685536  18.3703159  68.5238849  45.4671830  18.6602297
  66.5262530  42.5943398  16.0220143  65.9350463  43.2352896  15.9923158
  67.2883553  43.0181015  15.9951442  66.5510790  42.7519236  16.0135290
  66.9223152  33.7545395  16.6888160  67.3824634  33.8284325  17.4263284
  66.9679259  34.5526649  16.3387982  66.9973708  33.8839542  16.7460917
  68.5706502  34.4212090  21.2560187  68.1792067  33.7745437  21.6915965
  68.7392365  35.0123526  21.8754443  68.5377412  34.4126358  21.4122893
  76.2852046  48.0452709  13.4552167  76.0871734  48.5343524  12.7608379
  75.6639757  48.2493951  14.0336301  76.1639610  48.1469247  13.4375391
  70.3460024  39.8137606   7.7962412  71.0902069  40.2011882   8.0345361
  70.4920720  38.9695031   7.9602899  70.4770609  39.7468079   7.8556381
  72.2639600  31.6087865  12.8294273  71.4175645  31.7810673  12.7035623
  72.2610732  30.8037209  13.1660101  72.1386749  31.5148894  12.8605400
  73.3337900  35.3863079  13.6956331  72.8597854  34.8604841  14.2061642
  73.7056036  34.8392552  13.1271192  73.3187789  35.2279076  13.6871478
  63.7110930  37.3834586  19.0639877  64.5736543  37.2830295  18.9777206
  63.3802713  36.8029295  18.5025449  63.7896126  37.2826213  18.9685282
  67.0712716  36.2077035  15.7250295  66.4465786  36.2195427  15.1176248
  66.7358311  36.6837210  16.3741535  66.9298208  36.2795552  15.7306863
  67.2554465  34.5502154   1.7822980  66.9067269  35.2021879   2.2454529
  66.7750911  34.5359267   1.0546851  67.1324709  34.6445207   1.7434071
  63.7838392  44.2677495  17.1654059  63.2538316  43.5769934  17.2149034
  64.0563485  44.2587680  16.3366768  63.7463114  44.1644627  17.0501475
  73.9844637  41.7100740  17.1392431  73.3701630  41.1658790  17.4341066
  74.5011922  41.1964976  16.6598247  73.9700300  41.5537149  17.1116659
  73.2240934  42.7805010  14.8736729  72.7968542  42.1554728  14.4402165
  73.2165879  42.4979932  15.6995737  73.1600076  42.6457790  14.9316557
  66.3403461  37.8170183  17.9425163  66.4996948  37.0613507  18.3476885
  66.1596355  38.3661122  18.5965901  66.3368820  37.7863997  18.0987869
  74.2823764  29.9831418  18.4975953  73.7864326  30.1795093  17.8067519
  75.0392826  30.3824087  18.3264754  74.3210589  30.0709152  18.3696090
  71.5526644  33.6573764  15.0879263  71.5769131  33.1233877  14.3992043
  71.8038118  33.1491073  15.7504854  71.5936563  33.5034668  15.0843908
  59.0634234  40.9405259  14.5222407  58.9577683  40.8952104  13.6574491
  58.3134454  41.2859040  14.8036692  58.9369837  40.9846167  14.4359737
  67.8327966  32.3844583  14.4685008  67.8726338  32.8853789  15.1819715
  67.0077631  32.4754976  14.1990931  67.7167492  32.4726399  14.5335546
  70.0157579  41.9505323  22.5705302  69.1653210  42.0877037  22.7062947
  70.1785707  41.2169101  23.0153004  69.9141443  41.8619424  22.6560901
  69.2542330  38.9005092  16.7658907  68.4234259  39.0678910  16.5594155
  69.1993847  38.5241043  17.5507792  69.1231745  38.8694824  16.8507435
  67.0626113  32.3913985  22.4015317  67.6878816  31.8476118  22.6744750
  66.6076593  31.9108903  21.8323108  67.0874374  32.2403467  22.3576911
  67.6278373  37.1760684   7.2949024  67.7681335  37.6733148   7.9977666
  68.1260906  36.4746978   7.4363238  67.7219454  37.1462663   7.4200603
  67.6578596  38.0427795   4.6241601  68.2923675  38.6388220   4.5591063
  67.7404207  37.7431253   5.4387471  67.7635147  38.0868703   4.7344688
  69.2357579  33.9741770   4.5987043  69.5573420  33.4944853   3.9446305
  69.4984522  34.7841416   4.4077855  69.3223604  34.0231668   4.4742535
  72.4654552  44.9960645  18.1185859  71.9579643  45.5496492  18.5626490
  72.1681198  45.0568935  17.3004634  72.3459436  45.0866956  18.0634316
  74.6316734  33.3613964  16.9610522  75.0571805  32.9086491  16.3494049
  74.0173727  32.8074035  17.2375310  74.6045379  33.2127941  16.9115548
  64.1631584  40.2395636   7.8931147  64.6723813  40.8360143   8.2742453
  64.6365856  39.9721609   7.2107567  64.3074959  40.2881451   7.8485670
  73.0710957  29.8329064  10.3701099  72.4279275  29.6826710  10.9386238
  72.7310364  29.5871409   9.6050204  72.9256034  29.7741187  10.3404114
  77.6610303  37.7888491   9.7931108  76.9901493  38.3318193   9.6644173
  78.3550053  38.2583346   9.5512803  77.6639171  37.9386762   9.7386636
  71.7097037  49.9285203  15.0242866  71.4862691  49.1704032  15.3926892
  71.2206880  49.9583224  14.3023306  71.6040486  49.8207427  14.9719607
  77.8238430  34.2444375  12.7021481  78.1766041  33.8174097  13.3767280
  76.9653232  34.1595218  12.8322557  77.7487875  34.1689115  12.8216492
  66.5222115  36.8751894  10.7604328  65.8034105  37.2916027  11.0277191
  66.8934478  37.4406133  10.2095966  66.4714047  37.0201176  10.7187135
  75.8221696  37.5079743  16.6506323  75.8019624  37.3263038  17.5041102
  75.8700897  38.3791762  16.6265907  75.8256337  37.6096281  16.7729618
  73.7668026  44.0966935  22.5754800  73.7263881  43.4516612  21.9899956
  74.5791344  44.0403553  22.8880212  73.8811180  43.9925902  22.5351749
  70.3575494  50.1485661  12.4779951  69.9435892  49.4859791  12.0883792
  71.0422868  50.2963520  11.9575645  70.3973865  50.0726319  12.3436448
  73.7240788  49.3075746  13.2303567  73.3257071  49.4178017  12.4624388
  73.1092007  49.5157813  13.8130127  73.5739677  49.3549314  13.2034867
  72.2968690  35.9149894   6.0977707  71.7033529  36.2366891   5.5462274
  72.3343968  35.0690990   5.8898813  72.2143079  35.8374222   5.9860478
  75.1726506  35.8729399   9.5279457  74.9440199  35.8962100   8.6857816
  75.4324583  35.0486866   9.6474468  75.1772694  35.7545479   9.4204655
  69.4545735  37.7263872  19.1304558  68.9424638  37.1185055  19.4889589
  69.2825231  38.4420464  19.5978533  69.3535372  37.7427171  19.2520781
  64.3011450  36.1701447  21.7806919  64.1314040  36.8302822  21.2355126
  63.8577399  36.3808008  22.5019408  64.2110783  36.2987429  21.8068549
  68.2271269  34.4105945  10.8233653  68.7028635  34.7723025  10.1883834
  67.7259869  35.0662413  11.1033796  68.2236628  34.5600134  10.7710394
  73.3314805  35.6488116  21.5706813  73.8886235  35.4201926  20.9385278
  73.0075870  36.4093782  21.2942025  73.3661215  35.7271953  21.4363310
  61.2013514  39.0748313  17.0395409  60.6540234  38.4048958  17.1576277
  61.9905892  38.7078160  17.1038876  61.2365698  38.9213299  17.0664110
  71.0497922  38.7355770  22.5358820  71.8009249  39.0507446  22.8498374
  71.2420499  38.5334941  21.7092742  71.1889337  38.7523151  22.4602216
  70.2697922  36.5547145   4.1907037  70.6496887  36.5726774   3.4058152
  69.5290518  37.0001134   4.0697884  70.2166760  36.6228919   4.0570605
  77.8983213  34.8629336   9.7782616  77.8977439  34.7077993  10.6366892
  77.6939393  35.7092323   9.7224001  77.8682990  34.9649957   9.8970555
  59.9600484  38.2869120  14.1941432  59.7822245  37.8345729  14.9196348
  59.6719506  39.0895282  14.3779910  59.8913437  38.3391678  14.3284935
  75.6224065  39.5426838  13.4318822  76.1177730  38.8249833  13.3922843
  74.8123840  39.2397635  13.3173309  75.5767958  39.3924484  13.4092548
  61.6972953  40.8196844  11.3063191  60.8318473  40.8082535  11.1945962
  61.7971769  40.6327067  12.1534330  61.5847120  40.7902905  11.4152136
  77.6875884  42.2930525  16.1195951  78.1130955  41.7704947  15.5666376
  77.3232803  42.8911363  15.5984574  77.6962486  42.3040752  15.9604961
  67.3229963  50.5894743  14.8793297  67.6376522  51.4031131  14.8871078
  67.7323377  50.2044961  15.5475456  67.4298061  50.6523445  14.9797388
  74.2754483  46.0064790  12.4497109  74.7465661  46.7205052  12.6187094
  74.6114661  45.4063540  12.9856978  74.3949598  46.0236254  12.5529485
  76.3631468  47.6166103  24.6289181  76.4728433  46.8274663  24.9845928
  76.6922364  47.5272039  23.8263519  76.4283873  47.4871956  24.5631572
  71.1923978  30.7792260  19.4055204  71.3251884  29.9823254  19.7336179
  71.5769131  31.3058663  19.9853479  71.2680307  30.7392177  19.5398706
  74.9128429  45.7982724  19.2124801  74.3649375  45.1740607  18.9444867
  75.3741458  45.9876996  18.4968881  74.8995639  45.7341774  19.0675232
  74.2656333  27.7022586  16.0036297  73.4602297  27.5920316  16.3204135
  74.1363069  27.8035042  15.1466163  74.1276466  27.7006256  15.9244337
  77.7222294  33.8668078  16.5975994  77.1385282  34.3677285  16.1853561
  78.0426588  33.3597634  15.9640317  77.6835469  33.8659913  16.4434501
  70.2617093  32.7808673   6.8734668  71.0832787  32.9506986   6.6316363
  69.7986744  32.9355934   6.1500966  70.3148255  32.8290406   6.7306313
  68.8512425  30.7751435  17.6533097  69.3956838  30.4342562  18.2437439
  68.9049360  31.6336897  17.7954382  68.9401544  30.8506695  17.7614971
  64.6642983  44.5367851  14.5271905  65.2687841  44.4963685  13.8985726
  64.4570296  45.3839003  14.5575961  64.7231881  44.6555854  14.4388022
  74.4786756  46.8033796  15.7434143  75.2985129  46.6596762  16.0050438
  74.1980833  47.4279995  16.2850580  74.5583499  46.8744148  15.8622082
  59.8994266  43.5202469  14.3970828  59.8018544  42.7098740  14.7060885
  60.6823135  43.4994262  14.0117096  60.0010402  43.3969559  14.3857691
  75.6081118  51.2861426  14.0166595  74.9886150  50.6954074  13.8476610
  75.5064982  51.8772861  13.3830918  75.5018794  51.2865509  13.8971584
  73.0793176  57.3425060  16.5092108  72.8131592  56.5264177  16.6683098
  73.0931741  57.3878216  15.6387624  73.0417899  57.2281965  16.4045590
  77.8291783  50.8803439  19.1559116  77.1363580  50.4100418  19.4019847
  78.4452110  50.6541743  19.7300823  77.8176313  50.7770570  19.2768268
  76.5532342  54.8468843  20.2985961  77.2772314  54.8321873  20.7850856
  76.6548478  55.5564198  19.8007929  76.6750551  54.9493546  20.2964748
  76.6011543  57.0261136  18.4869885  77.1132640  57.3045390  17.8378645
  76.3147885  57.7650430  18.8532698  76.6346406  57.1763490  18.4459763
  74.5042181  51.6478506  16.5254743  74.3627673  50.7962447  16.6499251
  74.7882744  51.6907167  15.7016949  74.5250027  51.5278256  16.4222367
  75.2732486  49.5608854  19.8432194  74.7374676  48.9489212  20.1592961
  75.3350251  50.1356990  20.4965860  75.2028119  49.5555782  19.9867620
  77.8955736  49.2730703  16.6888160  78.3557217  49.3469633  17.4263284
  77.9411843  50.0711957  16.3387982  77.9706291  49.4024850  16.7460917
  74.6843514  52.9019894  19.0639877  75.5469127  52.8015603  18.9777206
  74.3535297  52.3214603  18.5025449  74.7628710  52.8011521  18.9685282
  78.0445300  51.7262343  15.7250295  77.4198370  51.7380735  15.1176248
  77.7090895  52.2022518  16.3741535  77.9030791  51.7980860  15.7306863
  77.3136045  53.3355491  17.9425163  77.4729532  52.5798815  18.3476885
  77.1328939  53.8846430  18.5965901  77.3101404  53.3049305  18.0987869
  75.2744033  51.6886755  21.7806919  75.1046623  52.3488130  21.2355126
  74.8309983  51.8993316  22.5019408  75.1843367  51.8172737  21.8068549
  72.1746098  54.5933621  17.0395409  71.6272817  53.9234266  17.1576277
  72.9638476  54.2263468  17.1038876  72.2098281  54.4398607  17.0664110
  70.9333067  53.8054428  14.1941432  70.7554828  53.3531037  14.9196348
  70.6452089  54.6080590  14.3779910  70.8646020  53.8576986  14.3284935
   4.4652799  45.7804370  47.6322239   4.4346803  46.6349007  47.8040508
   5.0634148  45.4799663  48.1908383   4.5489957  45.8620867  47.7397041
   0.9746200  51.1366547  61.9935625   1.6812967  50.6418577  62.1222560
   1.1634136  51.5775628  61.2638283   1.1074106  51.1284897  61.9044671
   0.5104305  46.9272065  55.0306821   1.0560265  47.6057152  55.0900791
   0.4521181  46.7859526  54.1708403   0.5820219  47.0064067  54.9118882
   2.2869373  48.3556672  45.9040549   2.1708899  49.1064358  46.3332687
   3.0825260  48.0980625  46.1536636   2.3873963  48.4291519  46.0044640
   1.6004678  35.7044610  49.6015163   1.2858119  36.3948088  50.0335586
   1.0831620  35.6489392  48.9000664   1.4769149  35.7979498  49.5612112
   0.9417112  45.7049111  45.7152574   0.4128584  45.9208744  46.3749880
   1.4642132  46.3985249  45.6353543   0.9405565  45.8392247  45.8008173
   6.3965165  51.2795415  51.0885618   5.5662868  51.4906059  51.2519035
   6.3474417  50.4532470  50.8127902   6.2671900  51.1885021  51.0722984
   5.8919123  43.9265816  54.8836040   5.0547544  43.9968003  55.1183634
   5.8607354  43.9290311  54.0110342   5.7637406  43.9376043  54.7895588
   0.6149309  48.1221492  50.4747931   1.3706824  48.5553007  50.5136840
   0.7211634  47.4726262  51.0482567   0.7419480  48.0898976  50.5645957
   3.6529480  51.9494769  51.2250334   3.2164712  51.9531512  51.9809305
   3.3192396  52.6300268  50.7929911   3.5392100  52.0507225  51.2731167
   3.5726963  38.9908597  53.4679762   4.2152872  39.0606702  54.0541677
   3.8249984  38.3237820  52.9659304   3.7049095  38.9034946  53.4807041
   6.7873826  48.6675689  50.1169971   7.4490261  48.1066358  50.0165880
   6.1465238  48.1727720  50.4422662   6.7902694  48.5112098  50.1502311
   3.0738657  49.6841072  49.8581960   3.3094246  49.8286271  49.0308811
   3.2228221  50.4483480  50.2513474   3.1304460  49.8180126  49.7945564
   4.9029114  48.5242738  47.6951564   5.2337331  49.0570378  47.0891659
   5.4762202  48.5781625  48.3513515   5.0362793  48.6112307  47.7029346
   0.3684024  48.2156380  41.6112096   0.2864187  48.2858567  42.4767083
   1.0063745  48.7786124  41.4195837   0.4503862  48.3095351  41.7102045
   6.0108465  43.7653235  49.1991725   5.7545030  42.9533176  49.0089608
   6.8537779  43.7730802  48.9721913   6.0974491  43.6465232  49.1376543
   3.6933625  50.9202831  59.0350278   3.4572262  50.0890895  58.9162339
   4.3376854  50.8688438  59.6205122   3.7528295  50.7900519  59.1036172
   4.7170045  50.7047279  55.0978573   4.4115862  51.4375336  55.4591888
   3.9976261  50.2985209  54.8171359   4.5657388  50.7529012  55.1091710
  10.4171837  47.3440280  54.4246917  10.3496338  47.3636239  53.5549503
  10.4027500  48.1870607  54.6502587  10.4050594  47.4714015  54.3299394
   0.8268184  38.7475438  57.7488006   1.5721776  38.5585248  57.3351432
   0.4105489  39.2733676  57.1901863   0.8753158  38.7977583  57.6052579
   8.2030455  46.1184666  52.6993511   8.7538376  45.4852735  52.9390603
   8.1874570  46.6500059  53.3909015   8.2815651  46.1033614  52.8372369
   1.9058861  44.3581000  51.8098107   1.5623627  43.6371335  52.1605357
   2.0051904  44.1494851  50.9676466   1.8700904  44.2205203  51.7369787
   2.3671890  50.8206704  47.3522096   2.9329923  51.4799914  47.2680638
   1.7199794  51.1656402  47.8238498   2.3550647  50.9688645  47.4094852
   4.3007350  47.4840571  50.9718892   4.2141325  47.6395998  51.8253671
   3.8457830  48.1278647  50.5978297   4.2210607  47.6016327  51.0425999
   2.0681215  51.5134678  53.3831233   1.9295574  52.2115724  53.8879975
   1.2881213  51.3583334  53.0267415   1.9324442  51.5934845  53.4057507
   0.4059300  47.8131053  59.6353614   0.4007339  46.9410870  59.6396041
   1.1120294  48.0119222  59.1623070   0.5104304  47.7134927  59.5660650
   3.5634588  50.8712932  44.1447732   3.1841397  50.0850070  44.1377021
   2.9000833  51.4199789  44.0019376   3.4093063  50.8357756  44.1228529
   1.0179214  33.8138631  51.5481813   1.1362782  34.2715095  50.8149116
   0.8441390  33.0083893  51.2618030   1.0098385  33.7632404  51.3982747
   1.8094687  53.1158423  44.4799418   1.8914524  53.9225409  44.1560869
   2.2944429  53.1354382  45.2040191   1.8931845  53.2379085  44.5386316
   1.3169887  51.8755841  64.5617744   2.1304752  51.6040990  64.7222876
   1.1564853  51.5763381  63.7577940   1.4139836  51.7910767  64.4663150
   1.3291131  52.9362131  59.8340584   1.9670852  52.4422327  59.5003040
   0.6865223  52.8639532  59.2492811   1.3285358  52.8521140  59.6982939
   3.0548131  44.7851277  54.4006500   2.6275739  44.6977626  53.6454599
   2.4174184  44.8929053  54.9861344   2.8977738  44.7883937  54.3751941
   1.3845388  53.6281940  56.4745941   2.1737766  53.2771004  56.5948023
   1.5588985  54.4418328  56.2122575   1.5265669  53.6967797  56.4533809
   3.4912900  38.1923261  50.5165125   2.8787213  38.6793663  50.9018857
   3.5877074  37.5166751  51.0602776   3.4150797  38.1641569  50.6543983
   7.1337927  49.2640197  55.9442641   7.1921051  49.7126846  56.6902618
   6.5004395  49.6739010  55.5072721   7.0489223  49.3913932  55.9895189
   4.0859607  47.2856485  54.0308331   3.8457830  46.4462900  54.0350758
   4.5651614  47.3656652  54.7549105   4.1211791  47.1737885  54.1383134
   6.0864794  44.0657942  51.9837590   5.8474564  44.0253776  51.1458375
   6.2498695  44.9129094  52.1103312   6.0755097  44.1850027  51.8791072
   2.6910824  48.4507891  57.9142636   3.4145023  47.9980418  57.7353656
   2.4260786  48.7312557  57.1314963   2.7592097  48.4258860  57.7721351
   5.1246138  47.4134302  56.4173185   5.7163978  48.0531553  56.4491383
   5.5605133  46.7157339  56.7065252   5.2764569  47.4052653  56.4654018
   2.1495279  44.6279521  48.7176328   1.4786469  45.1709223  48.5889393
   2.8435030  45.0974376  48.4758023   2.1524147  44.7777792  48.6631856
   2.3123407  41.0835405  51.6266701   2.6651017  40.6565127  52.3012500
   1.4538208  40.9986248  51.7567777   2.2372852  41.0080145  51.7461712
   0.3106673  44.3470773  55.5751543   0.2904600  44.1654068  56.4286322
   0.3585873  45.2182792  55.5511127   0.3141314  44.4487311  55.6974838
   3.7447467  36.2053816  52.5551014   3.2378332  35.4982956  52.4872191
   4.5414901  35.8747005  52.6852090   3.7874706  36.0526968  52.5650009
   5.9467607  50.7218743  45.5391878   6.3301213  51.4710099  45.7689975
   5.1511720  50.9684563  45.2803867   5.8861389  50.8688437  45.5349452
   2.3868189  41.7020366  48.7027836   2.3862415  41.5469022  49.5612112
   2.1824369  42.5483353  48.6469221   2.3567967  41.8040987  48.8215775
   2.1760860  49.1321555  55.0441171   2.6015932  48.6095977  54.4911596
   1.8117780  49.7302393  54.5229794   2.1847463  49.1431782  54.8850181
   2.2107270  40.7059108  55.5221214   1.6270259  41.2068315  55.1098781
   2.5311564  40.1988664  54.8885537   2.1720445  40.7050943  55.3679721
  15.4385382  61.2989678  47.6322239  15.4079387  62.1534315  47.8040508
  16.0366731  60.9984971  48.1908383  15.5222540  61.3806175  47.7397041
   8.6385067  60.3865329  52.3875169   7.7822963  60.5473827  52.4384286
   8.6852721  59.5157393  52.4080230   8.5184179  60.2816131  52.3981235
  11.9478784  66.6551855  61.9935625  12.6545551  66.1603885  62.1222560
  12.1366719  67.0960936  61.2638283  12.0806689  66.6470205  61.9044671
  11.4836888  62.4457373  55.0306821  12.0292848  63.1242460  55.0900791
  11.4253765  62.3044834  54.1708403  11.5552803  62.5249375  54.9118882
  13.2601957  63.8741980  45.9040549  13.1441483  64.6249666  46.3332687
  14.0557844  63.6165933  46.1536636  13.3606546  63.9476827  46.0044640
   5.1432282  67.8636003  47.1909891   5.4648124  68.4041210  46.5871199
   5.7904379  67.2932774  47.3232181   5.2858338  67.8595178  47.1216927
   7.1933991  59.8651998  47.2744278   7.8914155  60.0440126  47.7665741
   7.5086323  59.3422337  46.6514667   7.3429328  59.8145770  47.2546288
   7.3821926  66.2522443  47.2624069   7.8215561  65.6439544  47.7078842
   7.2326589  65.8729816  46.4909534   7.4243392  66.1060914  47.2143237
   4.8493569  64.8466455  54.4642895   5.4942571  64.3538898  54.1453843
   5.0895346  64.9891241  55.2908973   4.9804154  64.7943897  54.5392428
   7.3879660  67.6921361  54.1149787   7.6702903  66.8972766  53.8936543
   8.1165821  68.1701948  54.1354848   7.5369224  67.6455958  54.0852803
   5.3660854  55.2344395  51.3565553   5.0364184  55.6855538  50.6869251
   4.6905856  55.1560558  51.9038559   5.2171290  55.2895530  51.3388776
  10.9831262  64.6049624  44.2154839  10.8982558  65.4610591  44.3604407
  11.4715646  64.3293948  44.8836998  11.0420160  64.6906946  44.3356920
  12.5737262  51.2229918  49.6015163  12.2590703  51.9133396  50.0335586
  12.0564204  51.1674700  48.9000664  12.4501732  51.3164806  49.5612112
  11.9149696  61.2234419  45.7152574  11.3861167  61.4394052  46.3749880
  12.4374716  61.9170557  45.6353543  11.9138149  61.3577555  45.8008173
  17.3697749  66.7980723  51.0885618  16.5395452  67.0091367  51.2519035
  17.3207001  65.9717778  50.8127902  17.2404484  66.7070329  51.0722984
   3.8049303  65.1197635  44.5160042   3.2206519  65.6247667  44.9225906
   3.4019399  64.8940022  43.7756634   3.6588607  65.1605884  44.4665067
   9.0871078  70.0779391  59.8849701   9.1754424  69.8905532  60.7327911
   9.5160791  69.4316821  59.4854548   9.1633180  69.9542399  59.9521452
   6.6541538  69.3610551  58.8667363   6.0912373  68.9483161  59.3907024
   7.4162561  69.2863457  59.2860506   6.6835987  69.2887952  59.0060363
   8.2626518  61.3663287  42.9928962   8.5022522  61.5741271  42.1804305
   8.5842359  60.5620796  43.1017907   8.3463676  61.2777389  42.8889515
   3.5716808  53.2956683  46.8388500   4.3262776  53.6635000  46.6005550
   3.3944343  53.6696237  47.6067680   3.6571287  53.4054871  46.9173389
  16.8651707  59.4451124  54.8836040  16.0280128  59.5153311  55.1183634
  16.8339938  59.4475618  54.0110342  16.7369989  59.4561351  54.7895588
   3.2616436  61.5884159  60.5984408   3.4336940  61.4790054  61.4469690
   3.7985793  62.2338565  60.3615600   3.3661440  61.6676161  60.6889505
   1.9273873  55.7027002  43.5366613   1.7449446  55.9198883  42.7107606
   2.7899486  55.8166015  43.5925228   2.0278462  55.7516900  43.4221100
   1.5388305  67.5414924  50.9789601   2.3777204  67.7737857  51.0263363
   1.5700074  66.6719236  50.9096637   1.6670022  67.4471871  50.9754246
   7.6073592  52.7053413  46.5715637   8.3359752  52.5269368  46.1253793
   7.6968485  53.5471493  46.7822815   7.7280254  52.8037291  46.5369155
  11.5881893  63.6406800  50.4747931  12.3439408  64.0738314  50.5136840
  11.6944217  62.9911570  51.0482567  11.7152063  63.6084284  50.5645957
  14.6262064  67.4680077  51.2250334  14.1897296  67.4716820  51.9809305
  14.2924979  68.1485576  50.7929911  14.5124684  67.5692533  51.2731167
  14.5459547  54.5093905  53.4679762  15.1885455  54.5792010  54.0541677
  14.7982567  53.8423128  52.9659304  14.6781679  54.4220254  53.4807041
   1.4735900  58.9801175  42.0489086   0.7594077  58.6939354  42.4611519
   1.9579869  59.3197801  42.6895474   1.4395263  58.9882824  42.2044721
   2.3176759  57.7194469  58.0804336   1.6248556  57.2491448  58.3265067
   2.9337087  57.4932773  58.6546043   2.3061289  57.6161600  58.2013488
  17.7606410  64.1860997  50.1169971  18.4222844  63.6251666  50.0165880
  17.1197822  63.6913028  50.4422662  17.7635278  64.0297406  50.1502311
   8.6483218  67.4831129  42.4250894   9.0634366  67.1516153  41.7335390
   7.8175147  67.2500031  42.2971031   8.5871226  67.4002385  42.3041742
  14.0471241  65.2026380  49.8581960  14.2826830  65.3471579  49.0308811
  14.1960804  65.9668788  50.2513474  14.1037044  65.3365434  49.7945564
   1.0417318  61.6859873  59.2231181   1.7657291  61.6712903  59.7096076
   1.1433455  62.3955228  58.7253149   1.1635527  61.7884576  59.2209968
  15.8761697  64.0428046  47.6951564  16.2069915  64.5755686  47.0891659
  16.4494786  64.0966933  48.3513515  16.0095377  64.1297614  47.7029346
  11.0893587  61.8892948  48.3775144  11.1840441  62.6282242  48.8314769
  10.4652430  61.4610424  48.8109708  11.0102617  61.9354269  48.5083291
   9.3446060  65.0679161  59.0265425   9.9184922  64.4306405  59.1813989
   9.2660864  65.0683243  58.1575082   9.4179295  64.9744272  58.9211836
  11.3416608  63.7341688  41.6112096  11.2596770  63.8043875  42.4767083
  11.9796328  64.2971432  41.4195837  11.4236445  63.8280659  41.7102045
   4.7009779  63.5002426  51.0786622   4.4429023  62.6674161  51.0517922
   4.7558262  63.7260039  50.2379123   4.6709557  63.4100197  50.9506759
   9.7810829  55.6030877  51.1790715   9.0767156  55.1140062  51.3374634
   9.8295804  55.6153351  50.3079159   9.6840881  55.5320525  51.0730055
   3.6744491  61.0540189  51.5651517   3.0994082  61.2132357  52.2015478
   3.2980167  60.4175598  51.1019968   3.5347304  60.9838001  51.5906075
   7.3417780  59.5263538  56.4243895   6.9532213  59.1017756  55.7696087
   6.6772478  59.7745687  56.9320922   7.1864708  59.5002259  56.4031763
  16.9841049  59.2838542  49.1991725  16.7277614  58.4718484  49.0089608
  17.8270363  59.2916110  48.9721913  17.0707074  59.1650540  49.1376543
  11.1644141  53.2238167  53.9367880  11.5454653  52.5416338  54.3235754
  10.3607426  52.9347769  53.7543544  11.1020603  53.0805215  53.9671936
   8.4456718  63.7562142  44.6220702   9.2597357  64.0477035  44.5103474
   8.3815859  63.1022005  44.0478995   8.5559457  63.7027337  44.5209540
  14.6666208  66.4388139  59.0350278  14.4304846  65.6076203  58.9162339
  15.3109437  66.3873746  59.6205122  14.7260879  66.3085826  59.1036172
   4.3164626  67.2283660  49.7493014   4.9538573  66.9895407  50.2944808
   4.7419698  67.4320819  49.0146175   4.4740793  67.2234670  49.7210172
   4.9567441  62.4485950  44.0867904   5.3412594  62.2293656  44.8384449
   4.7079062  63.2748895  44.2168980   4.9769514  62.5384096  44.2168980
   5.1235982  55.7292365  63.8030488   4.8089423  56.4991928  63.5400051
   4.8025914  55.1662621  63.2182715   5.0294901  55.7602634  63.6771838
  15.6902629  66.2232587  55.0978573  15.3848446  66.9560644  55.4591888
  14.9708845  65.8170517  54.8171359  15.5389971  66.2714320  55.1091710
   6.6986098  67.7056082  51.4286801   6.7725107  67.5431254  52.2828651
   7.5155605  67.8946272  51.1847282   6.8302457  67.7092825  51.5184826
  21.3904421  62.8625588  54.4246917  21.3228921  62.8821547  53.5549503
  21.3760083  63.7055915  54.6502587  21.3783177  62.9899323  54.3299394
   2.6767879  54.1182886  49.4176684   1.8090304  54.1905486  49.4834294
   2.9643083  54.9204965  49.6064659   2.5907627  54.2477033  49.4551451
  11.8000767  54.2660746  57.7488006  12.5454360  54.0770556  57.3351432
  11.3838072  54.7918984  57.1901863  11.8485742  54.3162891  57.6052579
  19.1763038  61.6369974  52.6993511  19.7270960  61.0038043  52.9390603
  19.1607154  62.1685367  53.3909015  19.2548235  61.6218922  52.8372369
   5.8285429  65.4708571  57.2453405   5.3297123  66.1824339  57.3238293
   6.6385653  65.7909238  57.2071567   5.8741536  65.6235420  57.2509973
   2.0913547  64.7331524  51.4916126   1.8026795  64.1068996  52.0261853
   2.9596895  64.6751812  51.5580806   2.1773799  64.6319069  51.5807080
  12.8791445  59.8766308  51.8098107  12.5356210  59.1556643  52.1605357
  12.9784487  59.6680159  50.9676466  12.8433487  59.7390511  51.7369787
   2.2945820  66.3726776  47.4158491   3.0491788  66.7539815  47.6293953
   1.7016433  66.8237919  47.8705187   2.3182534  66.4955603  47.5141369
  13.3404474  66.3392012  47.3522096  13.9062506  66.9985222  47.2680638
  12.6932377  66.6841710  47.8238498  13.3283230  66.4873953  47.4094852
   4.7552487  58.3289616  62.5415703   3.9452263  58.6347396  62.4305545
   5.2327174  59.0495198  62.6568287   4.7055966  58.4804217  62.5422774
   3.6144047  67.5435337  52.7898606   3.0924800  67.6835629  53.4750471
   4.0018067  66.7846001  52.9800723   3.5947748  67.4520861  52.9199682
   0.6035231  57.5941146  46.8593561   0.3160027  57.2242416  46.1225508
   1.2905699  58.0636001  46.5977266   0.6624128  57.6088115  46.7108636
   9.8111052  69.2830796  46.7759175   9.5697728  68.5498657  46.3686240
   9.9912385  69.8317653  46.1225508   9.8018676  69.2553187  46.6189398
   5.0410372  64.5739356  48.1880097   4.8453155  65.1814090  47.5940400
   5.2644718  63.8807300  47.7071771   5.0445013  64.5616881  48.0296178
   3.4388902  61.4594094  48.3060965   4.1611554  61.6235252  47.8464771
   2.9596895  62.1803759  48.2000305   3.4752633  61.5892323  48.2226579
  11.3982410  57.7957893  53.6857650  10.5593511  57.8219171  53.4495914
  11.4686777  58.4428628  54.2662997  11.2850803  57.8954018  53.7366767
   9.8451688  54.6943270  48.4185266  10.5478041  54.4951018  47.9405224
   9.5795877  53.9219212  48.7254110   9.9098321  54.5506236  48.3930708
  15.2739934  63.0025879  50.9718892  15.1873908  63.1581305  51.8253671
  14.8190414  63.6463955  50.5978297  15.1943190  63.1201634  51.0425999
   4.6080244  55.9578555  57.4716147   4.4163442  55.9733689  58.3215570
   5.4578840  56.1542229  57.4482802   4.7055966  55.9892906  57.5939442
   9.1465750  60.3236626  49.5944452   8.9000464  60.2432377  50.4281240
   9.4750873  59.5390094  49.4006979   9.1586993  60.1962892  49.6891975
  13.0413799  67.0319986  53.3831233  12.9028158  67.7301032  53.8879975
  12.2613797  66.8768642  53.0267415  12.9057026  67.1120152  53.4057507
  11.3791884  63.3316361  59.6353614  11.3739922  62.4596178  59.6396041
  12.0852878  63.5304530  59.1623070  11.4836888  63.2320235  59.5660650
   5.1062777  63.0593345  59.0067435   5.2506153  63.6394553  58.3710545
   5.4538426  63.4369642  59.7117289   5.1790239  63.2014049  59.0166430
   7.2782695  62.2583513  56.7892566   6.5306009  62.4514528  56.3840844
   7.4324220  61.4328733  56.5516688   7.1905122  62.1648625  56.6937972
  14.5367172  66.3898240  44.1447732  14.1573980  65.6035378  44.1377021
  13.8733417  66.9385097  44.0019376  14.3825646  66.3543064  44.1228529
   7.5184472  56.1534064  57.6787970   7.9757086  56.8858038  57.8060762
   7.5940800  55.7300529  58.4375226   7.5975441  56.1991302  57.8089046
  11.9911797  49.3323939  51.5481813  12.1095366  49.7900403  50.8149116
  11.8173973  48.5269201  51.2618030  11.9830968  49.2817711  51.3982747
   5.3966849  58.1436168  54.5229794   4.6062924  57.9627628  54.8447130
   5.7927472  57.3663121  54.5060088   5.3383726  58.0023629  54.5682342
   9.8832740  66.9723942  39.9636508  10.6505725  67.0324067  39.5542359
   9.4364049  66.4004384  39.4792826   9.9306167  66.8960518  39.8314218
  10.7810536  65.7778598  52.2489240  10.1055538  65.5463830  52.7502627
  10.7902912  65.1699781  51.6231345  10.6829040  65.6537523  52.2305392
   7.9104680  60.6196427  59.0053293   7.8463821  61.4806384  58.8773430
   8.0501867  60.3028420  58.2048844   7.9220150  60.6996594  58.8681506
  12.7827270  68.6343731  44.4799418  12.8647108  69.4410717  44.1560869
  13.2677013  68.6539690  45.2040191  12.8664428  68.7564393  44.5386316
   6.5923774  63.3128567  53.1469496   6.1686023  63.5133066  52.4108514
   6.4168629  62.4657415  53.2593796   6.5034654  63.2177348  53.0543186
   1.8806219  63.8080618  48.5797468   2.0370838  63.7427421  49.4353460
   2.2206812  64.5829171  48.3676148   1.9539453  63.9129816  48.6752062
   8.4185363  63.1838502  47.4490832   8.9600909  62.6808883  47.9129452
   8.7331922  63.1303696  46.6380317   8.5449760  63.1017922  47.3974644
  12.2902471  67.3941149  64.5617744  13.1037336  67.1226298  64.7222876
  12.1297437  67.0948689  63.7577940  12.3872419  67.3096075  64.4663150
   6.5871813  68.5755853  44.7330860   6.6564633  67.7170392  44.8723860
   7.3660268  68.7927734  44.4049884   6.7124663  68.4808717  44.7048017
   9.5674633  58.0774806  57.5013132   9.7816602  57.4385720  56.9476486
   8.9508532  58.5220630  57.0720994   9.5079962  58.0484950  57.3563563
  11.7313721  59.6863871  58.4396439  10.9190402  59.3789762  58.5209612
  12.1903655  59.2062871  59.0039151  11.6794105  59.5700364  58.5351033
  11.1418975  67.5643543  48.8873383  10.7833630  67.7358186  49.6637416
  10.6557686  68.0256749  48.3301382  11.0177672  67.6582514  48.9198653
   8.9589361  51.1874742  52.4900475   8.0882919  51.1613463  52.4433784
   9.2129703  51.0151934  51.6726320   8.8682921  51.1584885  52.3620612
   5.9307341  63.2442709  41.4273618   6.2199865  64.0207591  41.7017192
   6.0179140  62.7331440  42.1288117   5.9861597  63.2834627  41.5716116
   8.8267228  61.0923943  63.2225141   9.2966859  61.7166059  63.6093016
   8.8729108  60.4240918  63.7818356   8.9035104  61.0858623  63.3625213
   5.9838502  53.1980970  53.9473945   5.4676990  52.5061162  54.0725524
   5.4232431  53.8651747  53.8936544   5.8245015  53.1944228  53.9580011
   8.0530735  53.7373930  55.7766798   7.6662488  53.7622962  56.5580328
   7.5663672  53.1715609  55.3241314   7.9243244  53.6569681  55.8254701
  14.0280715  60.3036585  54.4006500  13.6008323  60.2162934  53.6454599
  13.3906768  60.4114361  54.9861344  13.8710322  60.3069245  54.3751941
   7.7187877  50.6240916  58.0677058   8.3480995  51.1601216  57.7898128
   7.8873740  50.5318275  58.9190623   7.8365671  50.6902278  58.1525586
   7.5201792  55.4112110  60.3403469   8.3475221  55.1397259  60.3962084
   7.5409638  56.2072952  60.6967287   7.6454642  55.4891865  60.4018652
  12.3577971  69.1467247  56.4745941  13.1470349  68.7956312  56.5948023
  12.5321569  69.9603636  56.2122575  12.4998253  69.2153105  56.4533809
   2.0971282  62.5575973  53.5273730   1.2559288  62.4579847  53.7352624
   2.3061290  63.3271453  53.8788051   2.0035974  62.6568017  53.6101045
  11.2111795  53.1576804  51.0362359  11.4161389  53.0899112  51.8819357
  10.8838219  53.9635625  50.9683537  11.1927043  53.2662745  51.1522015
   5.9087946  60.4857372  52.7771327   5.6051084  59.9313361  53.3781735
   5.2067367  60.6649582  52.2899362   5.7604156  60.4302155  52.7941033
   4.9654044  57.7957892  47.3416029   5.2413778  57.0776805  46.9293597
   5.5652713  58.3942812  47.1337135   5.0947308  57.7778263  47.2496790
  14.4645483  53.7108568  50.5165125  13.8519797  54.1978971  50.9018857
  14.5609658  53.0352059  51.0602776  14.3883381  53.6826877  50.6543983
   8.4664564  55.4671410  45.6162624   8.9208311  55.6381970  46.3410469
   8.9404610  54.8539520  45.2160400   8.6032884  55.4022295  45.6636386
   1.9880090  64.9519736  54.9465363   1.3968023  65.5929234  54.9168378
   2.7501113  65.3757353  54.9196662   2.0128350  65.1095574  54.9380510
   2.3840712  56.1121733  55.6133380   2.8442194  56.1860663  56.3508504
   2.4296819  56.9102987  55.2633202   2.4591268  56.2415880  55.6706137
   4.0324062  56.7788428  60.1805408   3.6409627  56.1321775  60.6161185
   4.2009925  57.3699863  60.7999663   3.9994972  56.7702696  60.3368113
  18.1070511  64.7825505  55.9442641  18.1653635  65.2312154  56.6902618
  17.4736979  65.1924318  55.5072721  18.0221806  64.9099240  55.9895189
  11.7469606  70.4029047  52.3797387  11.5489294  70.8919862  51.6853599
  11.1257317  70.6070289  52.9581521  11.6257170  70.5045585  52.3620611
   5.8077584  62.1713944  46.7207632   6.5519629  62.5588220  46.9590581
   5.9538280  61.3271369  46.8848119   5.9388169  62.1044417  46.7801601
   7.7257160  53.9664203  51.7539493   6.8793205  54.1387011  51.6280843
   7.7228292  53.1613547  52.0905321   7.6004309  53.8725232  51.7850620
   8.7955460  57.7439417  52.6201551   8.3215414  57.2181179  53.1306862
   9.1673596  57.1968890  52.0516412   8.7805349  57.5855414  52.6116698
  15.0592191  62.8041793  54.0308331  14.8190413  61.9648208  54.0350758
  15.5384198  62.8841960  54.7549105  15.0944374  62.6923193  54.1383134
  10.7238960  58.6375972  45.6827305  10.1961978  58.7204716  44.9933014
  11.1834668  59.3793843  45.6791949  10.7140810  58.7596634  45.5802000
  17.0597378  59.5843250  51.9837590  16.8207148  59.5439084  51.1458375
  17.2231279  60.4314402  52.1103312  17.0487681  59.7035335  51.8791072
  13.6643408  63.9693199  57.9142636  14.3877607  63.5165726  57.7353656
  13.3993370  64.2497865  57.1314963  13.7324681  63.9444168  57.7721351
   2.5330276  58.5653373  54.6495515   1.9083346  58.5771765  54.0421468
   2.1975871  59.0413548  55.2986755   2.3915768  58.6371890  54.6552083
   2.7172025  56.9078491  40.7068200   2.3684829  57.5598217  41.1699749
   2.2368471  56.8935604  39.9792071   2.5942269  57.0021545  40.6679291
  10.2776042  67.2079535  44.8136962  11.0010241  67.6737648  44.6701535
   9.8376633  67.2753145  44.0634559  10.3191734  67.2863372  44.6821743
   9.4462197  64.0677078  56.0637651   8.8319190  63.5235128  56.3586286
   9.9629482  63.5541314  55.5843467   9.4317860  63.9113487  56.0361879
   8.6858494  65.1381348  53.7981949   8.2586102  64.5131066  53.3647385
   8.6783439  64.8556270  54.6240957   8.6217636  65.0034128  53.8561777
   1.8021021  60.1746521  56.8670383   1.9614508  59.4189845  57.2722105
   1.6213915  60.7237460  57.5211121   1.7986380  60.1440334  57.0233089
   9.7441324  52.3407756  57.4221173   9.2481886  52.5371431  56.7312740
  10.5010386  52.7400425  57.2509974   9.7828149  52.4285490  57.2941310
   7.0144204  56.0150102  54.0124483   7.0386691  55.4810215  53.3237263
   7.2655678  55.5067411  54.6750074   7.0554123  55.8611006  54.0089128
   3.2945526  54.7420920  53.3930228   3.3343898  55.2430127  54.1064935
   2.4695191  54.8331314  53.1236151   3.1785052  54.8302737  53.4580766
   4.7159890  61.2581430  55.6904127   3.8851819  61.4255248  55.4839375
   4.6611407  60.8817381  56.4753012   4.5849305  61.2271162  55.7752655
   2.5243673  54.7490323  61.3260537   3.1496376  54.2052456  61.5989970
   2.0694153  54.2685241  60.7568328   2.5491934  54.5979805  61.2822131
   3.0895933  59.5337022  46.2194244   3.2298895  60.0309486  46.9222886
   3.5878466  58.8323316  46.3608458   3.1837014  59.5039001  46.3445823
   3.1196156  60.4004133  43.5486821   3.7541235  60.9964558  43.4836283
   3.2021767  60.1007590  44.3632691   3.2252707  60.4445041  43.6589908
  16.0978722  62.9319610  56.4173185  16.6896562  63.5716861  56.4491383
  16.5337716  62.2342647  56.7065252  16.2497153  62.9237961  56.4654018
   4.6975139  56.3318108  43.5232263   5.0190980  55.8521191  42.8691525
   4.9602082  57.1417754  43.3323075   4.7841164  56.3808006  43.3987755
   7.9272112  67.3536983  57.0431079   7.4197203  67.9072829  57.4871710
   7.6298758  67.4145272  56.2249854   7.8076996  67.4443294  56.9879536
  10.0934294  55.7190302  55.8855742  10.5189365  55.2662829  55.2739269
   9.4791287  55.1650373  56.1620530  10.0662939  55.5704278  55.8360768
   8.5328517  52.1905402  49.2946319   7.8896835  52.0403048  49.8631458
   8.1927924  51.9447747  48.5295424   8.3873594  52.1317524  49.2649334
  13.1227863  60.1464829  48.7176328  12.4519053  60.6894531  48.5889393
  13.8167613  60.6159684  48.4758023  13.1256731  60.2963100  48.6631856
  13.2855991  56.6020712  51.6266701  13.6383601  56.1750435  52.3012500
  12.4270792  56.5171556  51.7567777  13.2105435  56.5265453  51.7461712
   1.9839675  59.2328232  49.6849548   1.2651665  59.6492365  49.9522411
   2.3552038  59.7982471  49.1341186   1.9331607  59.3777514  49.6432355
  11.2839256  59.8656081  55.5751543  11.2637184  59.6839376  56.4286322
  11.3318457  60.7368100  55.5511127  11.2873897  59.9672619  55.6974838
   9.2285586  66.4543273  61.5000020   9.1881441  65.8092950  60.9145176
  10.0408904  66.3979890  61.8125432   9.3428740  66.3502240  61.4596969
   7.7586250  58.2726232  45.0222927   7.1651089  58.5943229  44.4707494
   7.7961528  57.4267327  44.8144033   7.6760639  58.1950560  44.9105698
  14.7180051  51.7239124  52.5551014  14.2110915  51.0168264  52.4872191
  15.5147484  51.3932313  52.6852090  14.7607290  51.5712276  52.5650009
  10.6344066  58.2305737  48.4524677  10.4057759  58.2538438  47.6103036
  10.8942143  57.4063204  48.5719688  10.6390254  58.1121816  48.3449875
   4.9163295  60.0840210  58.0549778   4.4042198  59.4761393  58.4134809
   4.7442791  60.7996802  58.5223753   4.8152932  60.1003509  58.1766001
   3.6888829  56.7682283  49.7478873   4.1646195  57.1299363  49.1129054
   3.1877429  57.4238750  50.0279016   3.6854188  56.9176472  49.6955614
  16.9200191  66.2404051  45.5391878  17.3033796  66.9895407  45.7689975
  16.1244304  66.4869871  45.2803867  16.8593973  66.3873745  45.5349452
   8.7932365  58.0064454  60.4952033   9.3503795  57.7778264  59.8630499
   8.4693430  58.7670120  60.2187245   8.8278775  58.0848291  60.3608530
   6.5115482  61.0932108  61.4604040   7.2626809  61.4083784  61.7743594
   6.7038059  60.8911278  60.6337962   6.6506897  61.1099489  61.3847436
   5.7315482  58.9123483  43.1152257   6.1114447  58.9303112  42.3303372
   4.9908078  59.3577471  42.9943104   5.6784320  58.9805257  42.9815825
  13.3600773  57.2205674  48.7027836  13.3594999  57.0654330  49.5612112
  13.1556953  58.0668661  48.6469221  13.3300550  57.3226295  48.8215775
  11.0841625  61.9003176  52.3564042  11.5795290  61.1826171  52.3168063
  10.2741400  61.5973973  52.2418529  11.0385518  61.7500822  52.3337768
   6.5300236  65.7500989  44.5061047   5.7211559  65.4267662  44.4594356
   7.0375145  65.0434211  44.4389296   6.4849903  65.5982305  44.4891341
  13.1493444  64.6506863  55.0441171  13.5748515  64.1281285  54.4911596
  12.7850363  65.2487701  54.5229794  13.1580046  64.6617090  54.8850181
   9.7372043  68.3641127  51.3742329  10.2083221  69.0781390  51.5432314
  10.0732221  67.7639878  51.9102198   9.8567158  68.3812592  51.4774705
   6.6541538  53.1368598  58.3300424   6.7869444  52.3399591  58.6581399
   7.0386691  53.6635001  58.9098699   6.7297867  53.0968515  58.4643926
  10.3745989  68.1559062  58.1370021   9.8266935  67.5316945  57.8690087
  10.8359018  68.3453334  57.4214101  10.3613199  68.0918112  57.9920452
   9.7273893  50.0598924  54.9281517   8.9219857  49.9496654  55.2449355
   9.5980629  50.1611380  54.0711383   9.5894026  50.0582594  54.8489557
  13.1839854  56.2244416  55.5221214  12.6002842  56.7253623  55.1098781
  13.5044148  55.7173972  54.8885537  13.1453029  56.2236251  55.3679721
   5.7234653  55.1385011  45.7979888   6.5450347  55.3083324  45.5561583
   5.2604304  55.2932272  45.0746186   5.7765815  55.1866744  45.6551533
   4.3129985  53.1327773  56.5778317   4.8574398  52.7918900  57.1682659
   4.3666920  53.9913235  56.7199602   4.4019104  53.2083032  56.6860191
   9.9404316  69.1610134  54.6679363  10.7602689  69.0173100  54.9295658
   9.6598393  69.7856333  55.2095800  10.0201059  69.2320486  54.7867302
  16.3393438  70.7529703  51.3565553  16.0096768  71.2040846  50.6869251
  15.6638439  70.6745866  51.9038559  16.1903874  70.8080838  51.3388776
  23.5469845  66.7415225  49.6015163  23.2323286  67.4318704  50.0335586
  23.0296787  66.6860008  48.9000664  23.4234316  66.8350114  49.5612112
  14.5449392  68.8141991  46.8388500  15.2995360  69.1820308  46.6005550
  14.3676926  69.1881545  47.6067680  14.6303870  68.9240179  46.9173389
  27.8384290  74.9636432  54.8836040  27.0012712  75.0338619  55.1183634
  27.8072521  74.9660926  54.0110342  27.7102573  74.9746659  54.7895588
  12.9006456  71.2212310  43.5366613  12.7182030  71.4384191  42.7107606
  13.7632069  71.3351323  43.5925228  13.0011046  71.2702208  43.4221100
  18.5806176  68.2238721  46.5715637  19.3092336  68.0454676  46.1253793
  18.6701068  69.0656800  46.7822815  18.7012838  68.3222599  46.5369155
  25.5192130  70.0279213  53.4679762  26.1618039  70.0977318  54.0541677
  25.7715151  69.3608436  52.9659304  25.6514262  69.9405562  53.4807041
  20.7543413  71.1216185  51.1790715  20.0499739  70.6325370  51.3374634
  20.8028387  71.1338659  50.3079159  20.6573464  71.0505833  51.0730055
  27.9573633  74.8023850  49.1991725  27.7010197  73.9903792  49.0089608
  28.8002947  74.8101418  48.9721913  28.0439658  74.6835848  49.1376543
  22.1376725  68.7423474  53.9367880  22.5187237  68.0601646  54.3235754
  21.3340009  68.4533077  53.7543544  22.0753187  68.5990523  53.9671936
  16.0968565  71.2477673  63.8030488  15.7822006  72.0177235  63.5400051
  15.7758498  70.6847929  63.2182715  16.0027484  71.2787941  63.6771838
  13.6500462  69.6368194  49.4176684  12.7822888  69.7090794  49.4834294
  13.9375667  70.4390273  49.6064659  13.5640210  69.7662341  49.4551451
  22.7733351  69.7846054  57.7488006  23.5186943  69.5955864  57.3351432
  22.3570656  70.3104292  57.1901863  22.8218325  69.8348199  57.6052579
  30.1495622  77.1555282  52.6993511  30.7003543  76.5223351  52.9390603
  30.1339737  77.6870675  53.3909015  30.2280818  77.1404230  52.8372369
  23.8524028  75.3951616  51.8098107  23.5088794  74.6741951  52.1605357
  23.9517071  75.1865467  50.9676466  23.8166071  75.2575819  51.7369787
  22.3714994  73.3143201  53.6857650  21.5326094  73.3404479  53.4495914
  22.4419361  73.9613936  54.2662997  22.2583387  73.4139326  53.7366767
  20.8184272  70.2128578  48.4185266  21.5210625  70.0136326  47.9405224
  20.5528461  69.4404520  48.7254110  20.8830904  70.0691544  48.3930708
  15.5812828  71.4763863  57.4716147  15.3896025  71.4918997  58.3215570
  16.4311424  71.6727537  57.4482802  15.6788550  71.5078214  57.5939442
  18.4917055  71.6719372  57.6787970  18.9489669  72.4043346  57.8060762
  18.5673384  71.2485837  58.4375226  18.5708025  71.7176610  57.8089046
  22.9644381  64.8509247  51.5481813  23.0827949  65.3085711  50.8149116
  22.7906557  64.0454509  51.2618030  22.9563552  64.8003019  51.3982747
  20.5407216  73.5960114  57.5013132  20.7549186  72.9571028  56.9476486
  19.9241115  74.0405938  57.0720994  20.4812545  73.5670258  57.3563563
  22.7046304  75.2049179  58.4396439  21.8922986  74.8975070  58.5209612
  23.1636239  74.7248179  59.0039151  22.6526689  75.0885672  58.5351033
  19.9321945  66.7060050  52.4900475  19.0615503  66.6798771  52.4433784
  20.1862286  66.5337242  51.6726320  19.8415505  66.6770193  52.3620612
  16.9571085  68.7166278  53.9473945  16.4409574  68.0246470  54.0725524
  16.3965014  69.3837055  53.8936544  16.7977599  68.7129536  53.9580011
  19.0263319  69.2559238  55.7766798  18.6395072  69.2808270  56.5580328
  18.5396256  68.6900917  55.3241314  18.8975828  69.1754989  55.8254701
  18.6920461  66.1426224  58.0677058  19.3213578  66.6786524  57.7898128
  18.8606323  66.0503583  58.9190623  18.8098255  66.2087586  58.1525586
  18.4934375  70.9297418  60.3403469  19.3207805  70.6582567  60.3962084
  18.5142221  71.7258260  60.6967287  18.6187225  71.0077173  60.4018652
  22.1844379  68.6762112  51.0362359  22.3893972  68.6084420  51.8819357
  21.8570803  69.4820933  50.9683537  22.1659627  68.7848053  51.1522015
  25.4378067  69.2293876  50.5165125  24.8252380  69.7164279  50.9018857
  25.5342242  68.5537367  51.0602776  25.3615964  69.2012185  50.6543983
  19.4397148  70.9856718  45.6162624  19.8940894  71.1567278  46.3410469
  19.9137193  70.3724828  45.2160400  19.5765468  70.9207603  45.6636386
  18.6989743  69.4849511  51.7539493  17.8525788  69.6572319  51.6280843
  18.6960876  68.6798854  52.0905321  18.5736893  69.3910540  51.7850620
  19.7688044  73.2624725  52.6201551  19.2947998  72.7366487  53.1306862
  20.1406179  72.7154198  52.0516412  19.7537932  73.1040722  52.6116698
  21.6971543  74.1561280  45.6827305  21.1694562  74.2390024  44.9933014
  22.1567251  74.8979151  45.6791949  21.6873394  74.2781942  45.5802000
  28.0329961  75.1028558  51.9837590  27.7939731  75.0624392  51.1458375
  28.1963862  75.9499710  52.1103312  28.0220265  75.2220643  51.8791072
  20.7173908  67.8593064  57.4221173  20.2214469  68.0556738  56.7312740
  21.4742970  68.2585732  57.2509974  20.7560733  67.9470798  57.2941310
  17.9876788  71.5335410  54.0124483  18.0119275  70.9995522  53.3237263
  18.2388261  71.0252719  54.6750074  18.0286706  71.3796314  54.0089128
  14.2678110  70.2606228  53.3930228  14.3076481  70.7615435  54.1064935
  13.4427775  70.3516622  53.1236151  14.1517636  70.3488045  53.4580766
  13.4976256  70.2675631  61.3260537  14.1228960  69.7237764  61.5989970
  13.0426736  69.7870549  60.7568328  13.5224517  70.1165112  61.2822131
  15.6707722  71.8503416  43.5232263  15.9923563  71.3706499  42.8691525
  15.9334666  72.6603062  43.3323075  15.7573748  71.8993314  43.3987755
  21.0666877  71.2375610  55.8855742  21.4921949  70.7848137  55.2739269
  20.4523870  70.6835681  56.1620530  21.0395523  71.0889586  55.8360768
  19.5061100  67.7090710  49.2946319  18.8629418  67.5588356  49.8631458
  19.1660507  67.4633055  48.5295424  19.3606177  67.6502832  49.2649334
  24.2588574  72.1206020  51.6266701  24.6116184  71.6935743  52.3012500
  23.4003376  72.0356864  51.7567777  24.1838019  72.0450761  51.7461712
  25.6912634  67.2424432  52.5551014  25.1843499  66.5353572  52.4872191
  26.4880068  66.9117621  52.6852090  25.7339873  67.0897584  52.5650009
  21.6076650  73.7491044  48.4524677  21.3790343  73.7723746  47.6103036
  21.8674726  72.9248511  48.5719688  21.6122838  73.6307124  48.3449875
  24.3333356  72.7390982  48.7027836  24.3327583  72.5839638  49.5612112
  24.1289536  73.5853969  48.6469221  24.3033134  72.8411603  48.8215775
  17.6274122  68.6553906  58.3300424  17.7602027  67.8584899  58.6581399
  18.0119274  69.1820309  58.9098699  17.7030450  68.6153823  58.4643926
  20.7006477  65.5784232  54.9281517  19.8952440  65.4681962  55.2449355
  20.5713212  65.6796688  54.0711383  20.5626610  65.5767902  54.8489557
  24.1572437  71.7429724  55.5221214  23.5735426  72.2438930  55.1098781
  24.4776731  71.2359280  54.8885537  24.1185613  71.7421559  55.3679721
  16.6967236  70.6570319  45.7979888  17.5182931  70.8268632  45.5561583
  16.2336887  70.8117580  45.0746186  16.7498399  70.7052052  45.6551533
  15.2862568  68.6513081  56.5778317  15.8306981  68.3104208  57.1682659
  15.3399504  69.5098543  56.7199602  15.3751688  68.7268340  56.6860191
   4.1603623  22.7182501  34.5662286   4.1297627  23.5727138  34.7380555
   4.7584972  22.4177794  35.1248429   4.2440781  22.7998998  34.6737088
   0.6697024  28.0744678  48.9275672   1.3763791  27.5796709  49.0562607
   0.8584960  28.5153759  48.1978330   0.8024930  28.0663028  48.8384718
   1.9820197  25.2934803  32.8380596   1.8659723  26.0442489  33.2672734
   2.7776084  25.0358757  33.0876683   2.0824787  25.3669650  32.9384687
   1.2955502  12.6422741  36.5355210   0.9808943  13.3326219  36.9675632
   0.7782444  12.5867523  35.8340711   1.1719973  12.7357629  36.4952159
   6.0915989  28.2173546  38.0225665   5.2613692  28.4284190  38.1859082
   6.0425241  27.3910601  37.7467949   5.9622724  28.1263153  38.0063030
   5.5869947  20.8643947  41.8176086   4.7498368  20.9346134  42.0523681
   5.5558178  20.8668442  40.9450389   5.4588230  20.8754174  41.7235634
   0.3100133  25.0599623  37.4087978   1.0657648  25.4931138  37.4476887
   0.4162458  24.4104393  37.9822614   0.4370304  25.0277107  37.4986003
   3.3480304  28.8872901  38.1590381   2.9115536  28.8909643  38.9149352
   3.0143220  29.5678400  37.7269958   3.2342924  28.9885356  38.2071213
   3.2677787  15.9286728  40.4019809   3.9103696  15.9984833  40.9881724
   3.5200808  15.2615951  39.8999351   3.3999919  15.8413077  40.4147088
   6.4824650  25.6053821  37.0510018   7.1441084  25.0444489  36.9505927
   5.8416062  25.1105851  37.3762709   6.4853518  25.4490230  37.0842358
   2.7689481  26.6219203  36.7922007   3.0045070  26.7664402  35.9648857
   2.9179045  27.3861611  37.1853520   2.8255284  26.7558257  36.7285611
   4.5979938  25.4620869  34.6291611   4.9288155  25.9948509  34.0231705
   5.1713026  25.5159757  35.2853562   4.7313617  25.5490438  34.6369392
   5.7059289  20.7031366  36.1331772   5.4495854  19.8911307  35.9429655
   6.5488603  20.7108933  35.9061960   5.7925315  20.5843363  36.0716589
   3.3884449  27.8580962  45.9690325   3.1523086  27.0269027  45.8502385
   4.0327678  27.8066569  46.5545169   3.4479119  27.7278650  46.0376218
   4.4120869  27.6425411  42.0318619   4.1066686  28.3753467  42.3931935
   3.6927085  27.2363340  41.7511405   4.2608212  27.6907144  42.0431756
  10.1122661  24.2818411  41.3586964  10.0447162  24.3014370  40.4889550
  10.0978324  25.1248738  41.5842634  10.1001418  24.4092146  41.2639440
   7.8981279  23.0562797  39.6333558   8.4489200  22.4230866  39.8730650
   7.8825394  23.5878190  40.3249062   7.9766475  23.0411746  39.7712416
   1.6009685  21.2959131  38.7438154   1.2574451  20.5749466  39.0945404
   1.7002727  21.0872982  37.9016512   1.5651728  21.1583334  38.6709834
   2.0622714  27.7584835  34.2862142   2.6280747  28.4178045  34.2020685
   1.4150617  28.1034533  34.7578544   2.0501470  27.9066776  34.3434899
   3.9958174  24.4218703  37.9058939   3.9092149  24.5774129  38.7593718
   3.5408654  25.0656778  37.5318344   3.9161431  24.5394458  37.9766046
   1.7632039  28.4512809  40.3171280   1.6246398  29.1493855  40.8220022
   0.9832037  28.2961466  39.9607461   1.6275266  28.5312976  40.3397554
   3.2585412  27.8091063  31.0787779   2.8792221  27.0228201  31.0717068
   2.5951657  28.3577920  30.9359423   3.1043887  27.7735887  31.0568576
   1.5045511  30.0536554  31.4139465   1.5865348  30.8603540  31.0900916
   1.9895253  30.0732513  32.1380238   1.5882669  30.1757216  31.4726363
   1.0120711  28.8133972  51.4957791   1.8255576  28.5419121  51.6562923
   0.8515677  28.5141512  50.6917986   1.1090659  28.7288898  51.4003196
   1.0241955  29.8740262  46.7680631   1.6621676  29.3800458  46.4343087
   0.3816047  29.8017663  46.1832858   1.0236182  29.7899271  46.6322986
   2.7498955  21.7229408  41.3346547   2.3226563  21.6355757  40.5794646
   2.1125008  21.8307184  41.9201391   2.5928562  21.7262068  41.3091988
   1.0796212  30.5660071  43.4085988   1.8688590  30.2149135  43.5288070
   1.2539809  31.3796459  43.1462622   1.2216493  30.6345928  43.3873856
   3.1863723  15.1301392  37.4505172   2.5738037  15.6171794  37.8358904
   3.2827898  14.4544883  37.9942823   3.1101621  15.1019700  37.5884030
   6.8288751  26.2018328  42.8782688   6.8871875  26.6504977  43.6242664
   6.1955219  26.6117141  42.4412768   6.7440047  26.3292063  42.9235236
   3.7810431  24.2234616  40.9648378   3.5408654  23.3841031  40.9690805
   4.2602438  24.3034783  41.6889152   3.8162615  24.1116016  41.0723181
   5.7815618  21.0036073  38.9177637   5.5425388  20.9631907  38.0798422
   5.9449519  21.8507225  39.0443358   5.7705921  21.1228158  38.8131119
   2.3861648  25.3886023  44.8482682   3.1095847  24.9358549  44.6693702
   2.1211610  25.6690688  44.0655010   2.4542921  25.3636991  44.7061398
   4.8196962  24.3512433  43.3513232   5.4114802  24.9909684  43.3831430
   5.2555957  23.6535470  43.6405299   4.9715393  24.3430784  43.3994065
   1.8446103  21.5657652  35.6516375   1.1737293  22.1087354  35.5229440
   2.5385854  22.0352507  35.4098070   1.8474971  21.7155923  35.5971902
   2.0074231  18.0213536  38.5606748   2.3601841  17.5943259  39.2352547
   1.1489032  17.9364379  38.6907824   1.9323676  17.9458276  38.6801758
   5.6418431  27.6596874  32.4731925   6.0252037  28.4088230  32.7030022
   4.8462544  27.9062694  32.2143914   5.5812213  27.8066568  32.4689498
   2.0819013  18.6398497  35.6367882   2.0813239  18.4847154  36.4952159
   1.8775193  19.4861484  35.5809268   2.0518791  18.7419118  35.7555822
   1.8711684  26.0699686  41.9781218   2.2966755  25.5474108  41.4251643
   1.5068604  26.6680524  41.4569841   1.8798286  26.0809913  41.8190228
   0.5467268  31.3935264  50.4874448   0.6564233  30.6043825  50.8431195
   0.8758165  31.3041200  49.6848786   0.6119674  31.2641117  50.4216838
   1.9058094  17.6437239  42.4561260   1.3221083  18.1446446  42.0438828
   2.2262388  17.1366795  41.8225584   1.8671269  17.6429074  42.3019768
  15.1336206  38.2367809  34.5662286  15.1030211  39.0912446  34.7380555
  15.7317555  37.9363102  35.1248429  15.2173364  38.3184306  34.6737088
   8.3335891  37.3243460  39.3215216   7.4773787  37.4851958  39.3724333
   8.3803545  36.4535524  39.3420277   8.2135003  37.2194262  39.3321282
   2.7177031  46.8606178  35.0852448   1.9659930  46.4821716  34.8568493
   3.1663043  46.8924612  34.3371258   2.6726698  46.8091785  34.9409950
  11.6429608  43.5929986  48.9275672  12.3496375  43.0982017  49.0562607
  11.8317543  44.0339067  48.1978330  11.7757513  43.5848336  48.8384718
   8.1701991  47.2831548  30.5137995   7.8353359  47.9608469  30.0782217
   8.6828861  46.8936859  29.9254866   8.1967572  47.3256126  30.3624786
   7.7106282  49.2345816  36.4549106   8.0945661  49.8032715  35.9153882
   7.6465423  48.5095327  35.9754922   7.7579709  49.2121280  36.3042969
  11.1787712  39.3835504  41.9646868  11.7243672  40.0620591  42.0240837
  11.1204589  39.2422965  41.1048449  11.2503627  39.4627506  41.8458928
   4.2961787  46.8724570  37.3515220   4.3972150  46.0624924  37.6612348
   3.7003532  46.7781517  36.7214899   4.2234326  46.7389598  37.3041459
  12.9552781  40.8120111  32.8380596  12.8392307  41.5627797  33.2672734
  13.7508668  40.5544065  33.0876683  13.0557370  40.8854958  32.9384687
   4.1362527  51.7902159  38.7530076   4.7799982  52.2315323  39.1426235
   4.4618782  50.9855586  38.6660335   4.2794355  51.7367354  38.7975554
   4.8383106  44.8014134  34.1249938   5.1598947  45.3419342  33.5211246
   5.4855203  44.2310906  34.2572228   4.9809162  44.7973309  34.0556973
   6.8884814  36.8030129  34.2084325   7.5864979  36.9818257  34.7005788
   7.2037147  36.2800469  33.5854714   7.0380152  36.7523901  34.1886335
   7.0772750  43.1900574  34.1964116   7.5166385  42.5817675  34.6418889
   6.9277413  42.8107948  33.4249581   7.1194216  43.0439045  34.1483284
   4.5444393  41.7844586  41.3982942   5.1893395  41.2917029  41.0793890
   4.7846170  41.9269373  42.2249020   4.6754978  41.7322028  41.4732475
   7.0830484  44.6299492  41.0489834   7.3653727  43.8350898  40.8276590
   7.8116645  45.1080079  41.0694895   7.2320048  44.5834089  41.0192849
   5.0611678  32.1722526  38.2905599   4.7315008  32.6233669  37.6209298
   4.3856680  32.0938689  38.8378606   4.9122114  32.2273661  38.2728823
  10.6782086  41.5427756  31.1494885  10.5933381  42.3988722  31.2944454
  11.1666470  41.2672080  31.8177045  10.7370984  41.6285077  31.2696967
  12.2688086  28.1608049  36.5355210  11.9541527  28.8511527  36.9675632
  11.7515027  28.1052831  35.8340711  12.1452556  28.2542937  36.4952159
  11.6100520  38.1612550  32.6492621  11.0811991  38.3772183  33.3089927
  12.1325540  38.8548688  32.5693590  11.6088973  38.2955687  32.7348220
  17.0648573  43.7358854  38.0225665  16.2346276  43.9469498  38.1859082
  17.0157825  42.9095909  37.7467949  16.9355308  43.6448460  38.0063030
   3.5000127  42.0575766  31.4500089   2.9157343  42.5625798  31.8565952
   3.0970223  41.8318153  30.7096680   3.3539431  42.0984015  31.4005114
   5.1258310  46.5662708  40.8573575   4.6085252  46.2070123  40.2534883
   5.8232701  46.0424883  40.8679641   5.1523891  46.4360396  40.7703833
   8.7821902  47.0157522  46.8189748   8.8705248  46.8283663  47.6667958
   9.2111615  46.3694952  46.4194594   8.8584004  46.8920530  46.8861499
   6.3492362  46.2988682  45.8007410   5.7863197  45.8861292  46.3247071
   7.1113385  46.2241588  46.2200553   6.3786810  46.2266083  45.9400410
   7.9577342  38.3041419  29.9269009   8.1973346  38.5119402  29.1144352
   8.2793183  37.4998927  30.0357954   8.0414500  38.2155520  29.8229562
   3.2667632  30.2334814  33.7728547   4.0213600  30.6013131  33.5345597
   3.0895167  30.6074369  34.5407727   3.3522110  30.3433002  33.8513436
   1.9088353  48.2886704  38.4044040   2.6108933  47.7738693  38.4616796
   1.8285836  48.6160855  39.2090915   2.0012114  48.2600930  38.5316832
  16.5602531  36.3829255  41.8176086  15.7230952  36.4531442  42.0523681
  16.5290762  36.3853750  40.9450389  16.4320813  36.3939482  41.7235634
   2.9567260  38.5262290  47.5324455   3.1287764  38.4168185  48.3809736
   3.4936617  39.1716696  47.2955647   3.0612264  38.6054292  47.6229552
   1.6224697  32.6405133  30.4706660   1.4400270  32.8577014  29.6447653
   2.4850310  32.7544146  30.5265274   1.7229286  32.6895031  30.3561147
   1.2339129  44.4793055  37.9129648   2.0728028  44.7115988  37.9603410
   1.2650898  43.6097367  37.8436683   1.3620846  44.3850002  37.9094293
   1.8591832  44.8993931  42.2142953   2.3990057  44.7565062  42.8846326
   1.1761778  45.2990681  42.5826980   1.8383986  44.9373602  42.3677375
   7.3024416  29.6431544  33.5055684   8.0310576  29.4647499  33.0593840
   7.3919309  30.4849624  33.7162862   7.4231078  29.7415422  33.4709202
  11.2832717  40.5784931  37.4087978  12.0390232  41.0116446  37.4476887
  11.3895041  39.9289701  37.9822614  11.4102887  40.5462415  37.4986003
  14.3212888  44.4058209  38.1590381  13.8848120  44.4094951  38.9149352
  13.9875803  45.0863708  37.7269958  14.2075508  44.5070664  38.2071213
   8.8941961  46.4466541  49.4833531   9.6782378  46.5597389  49.8489273
   8.6938556  45.6207678  49.6792217   8.9807987  46.3413261  49.5667917
  14.2410371  31.4472036  40.4019809  14.8836279  31.5170141  40.9881724
  14.4933391  30.7801259  39.8999351  14.3732503  31.3598385  40.4147088
   1.1686724  35.9179306  28.9829133   0.4544901  35.6317485  29.3951566
   1.6530692  36.2575932  29.6235521   1.1346087  35.9260956  29.1384768
   2.0127583  34.6572600  45.0144383   1.3199380  34.1869579  45.2605114
   2.6287911  34.4310904  45.5886090   2.0012113  34.5539732  45.1353535
   9.0512355  48.3576643  43.1299987   8.2527600  48.1176144  43.3873855
   9.4998366  48.4091036  43.8767034   8.9986966  48.3299035  43.2784911
   8.3434042  44.4209260  29.3590941   8.7585190  44.0894284  28.6675437
   7.5125971  44.1878162  29.2311078   8.2822050  44.3380516  29.2381789
  13.7422065  42.1404511  36.7922007  13.9777654  42.2849710  35.9648857
  13.8911628  42.9046919  37.1853520  13.7987868  42.2743565  36.7285611
   0.7368142  38.6238004  46.1571228   1.4608114  38.6091034  46.6436123
   0.8384279  39.3333359  45.6593196   0.8586351  38.7262707  46.1550015
  15.5712521  40.9806177  34.6291611  15.9020738  41.5133817  34.0231705
  16.1445610  41.0345065  35.2853562  15.7046201  41.0675746  34.6369392
   8.1113092  42.1037088  51.0220175   7.3186072  42.4180600  51.2072795
   8.2262019  42.3188557  50.1840960   8.0108502  42.1820925  50.9258510
  10.7844411  38.8271080  35.3115191  10.8791265  39.5660374  35.7654816
  10.1603254  38.3988555  35.7449755  10.7053441  38.8732400  35.4423338
   9.0396884  42.0057292  45.9605472   9.6135746  41.3684536  46.1154036
   8.9611688  42.0061375  45.0915129   9.1130119  41.9122404  45.8551883
  11.0367432  40.6719819  28.5452143  10.9547594  40.7422006  29.4107130
  11.6747152  41.2349563  28.3535883  11.1187269  40.7658790  28.6442092
   4.3960603  40.4380557  38.0126669   4.1379847  39.6052292  37.9857969
   4.4509086  40.6638170  37.1719169   4.3660381  40.3478329  37.8846806
   9.4761653  32.5409008  38.1130762   8.7717980  32.0518193  38.2714681
   9.5246627  32.5531482  37.2419206   9.3791705  32.4698656  38.0070102
   3.3695315  37.9918320  38.4991564   2.7944906  38.1510488  39.1355525
   2.9930991  37.3553729  38.0360014   3.2298127  37.9216133  38.5246122
   7.0368604  36.4641669  43.3583942   6.6483037  36.0395887  42.7036133
   6.3723302  36.7123819  43.8660969   6.8815532  36.4380390  43.3371810
  16.6791873  36.2216674  36.1331772  16.4228438  35.4096615  35.9429655
  17.5221187  36.2294241  35.9061960  16.7657898  36.1028671  36.0716589
  10.8594965  30.1616298  40.8707926  11.2405477  29.4794469  41.2575801
  10.0558250  29.8725900  40.6883591  10.7971427  30.0183346  40.9011982
   8.1407542  40.6940274  31.5560749   8.9548181  40.9855166  31.4443521
   8.0766683  40.0400136  30.9819042   8.2510281  40.6405468  31.4549587
  14.3617032  43.3766270  45.9690325  14.1255670  42.5454335  45.8502385
  15.0060261  43.3251877  46.5545169  14.4211703  43.2463958  46.0376218
   4.0115450  44.1661791  36.6833061   4.6489397  43.9273539  37.2284855
   4.4370522  44.3698950  35.9486222   4.1691617  44.1612801  36.6550219
   4.6518265  39.3864081  31.0207951   5.0363418  39.1671788  31.7724496
   4.4029886  40.2127026  31.1509027   4.6720338  39.4762227  31.1509027
   4.8186806  32.6670496  50.7370535   4.5040247  33.4370059  50.4740098
   4.4976738  32.1040752  50.1522762   4.7245725  32.6980765  50.6111885
  15.3853453  43.1610718  42.0318619  15.0799270  43.8938775  42.3931935
  14.6659668  42.7548648  41.7511405  15.2340795  43.2092451  42.0431756
   6.3936922  44.6434214  38.3626848   6.4675931  44.4809386  39.2168697
   7.2106429  44.8324403  38.1187329   6.5253281  44.6470956  38.4524873
   2.3718703  31.0561017  36.3516731   1.5041128  31.1283617  36.4174340
   2.6593907  31.8583096  36.5404706   2.2858451  31.1855165  36.3891498
  11.4951591  31.2038877  44.6828053  12.2405183  31.0148687  44.2691478
  11.0788896  31.7297115  44.1241909  11.5436566  31.2541022  44.5392626
   4.9341508  47.6068957  33.0940321   5.2239806  47.2157938  32.3699548
   5.6644989  47.7885662  33.5345596   5.0848392  47.5762770  33.0523128
   5.5236253  42.4086703  44.1793451   5.0247947  43.1202470  44.2578340
   6.3336477  42.7287369  44.1411614   5.5692360  42.5613551  44.1850020
   2.8747424  49.5836339  36.1600471   2.6547719  49.2933694  36.9527138
   2.6541946  48.9251294  35.6318383   2.8095018  49.4436048  36.1989379
   1.7864371  41.6709656  38.4256172   1.4977619  41.0447127  38.9601900
   2.6547719  41.6129943  38.4920853   1.8724623  41.5697200  38.5147127
  12.5742269  36.8144439  38.7438154  12.2307034  36.0934774  39.0945404
  12.6735311  36.6058290  37.9016512  12.5384311  36.6768642  38.6709834
   5.0415379  50.9565729  34.9431163   5.6939437  50.4242171  35.1722189
   4.3440988  50.6034381  35.3299037   5.0346097  50.8255252  35.0343331
   1.9896644  43.3104907  34.3498537   2.7442612  43.6917946  34.5634000
   1.3967257  43.7616050  34.8045234   2.0133358  43.4333734  34.4481416
  13.0355298  43.2770143  34.2862142  13.6013330  43.9363353  34.2020685
  12.3883201  43.6219841  34.7578544  13.0234054  43.4252084  34.3434899
   4.4503311  35.2667747  49.4755750   3.6403087  35.5725527  49.3645592
   4.9277998  35.9873329  49.5908334   4.4006790  35.4182348  49.4762821
   3.3094871  44.4813468  39.7238653   2.7875624  44.6213760  40.4090517
   3.6968891  43.7224132  39.9140770   3.2898572  44.3898992  39.8539729
   9.5061876  46.2208927  33.7099222   9.2648552  45.4876788  33.3026286
   9.6863209  46.7695784  33.0565555   9.4969500  46.1931318  33.5529444
   4.7361196  41.5117487  35.1220144   4.5403979  42.1192222  34.5280447
   4.9595542  40.8185431  34.6411818   4.7395837  41.4995013  34.9636225
   3.1339726  38.3972225  35.2401012   3.8562378  38.5613383  34.7804818
   2.6547719  39.1181890  35.1340352   3.1703457  38.5270455  35.1566626
  11.0933234  34.7336024  40.6197697  10.2544335  34.7597303  40.3835960
  11.1637601  35.3806759  41.2003044  10.9801627  34.8332150  40.6706814
   0.7847343  40.8030297  44.3455152   1.2968440  41.0814551  43.6963912
   0.4983686  41.5419591  44.7117965   0.8182206  40.9532651  44.3045030
   9.5402512  31.6321401  35.3525313  10.2428865  31.4329149  34.8745271
   9.2746701  30.8597343  35.6594156   9.6049145  31.4884367  35.3270755
  14.9690758  39.9404011  37.9058939  14.8824732  40.0959437  38.7593718
  14.5141238  40.5842086  37.5318344  14.8894014  40.0579766  37.9766046
   4.3031068  32.8956686  44.4056194   4.1114265  32.9111820  45.2555617
   5.1529664  33.0920360  44.3822848   4.4006790  32.9271037  44.5279488
   8.8416574  37.2614758  36.5284498   8.5951288  37.1810509  37.3621287
   9.1701697  36.4768225  36.3347026   8.8537817  37.1341023  36.6232021
  12.7364623  43.9698117  40.3171280  12.5978982  44.6679163  40.8220022
  11.9564621  43.8146773  39.9607461  12.6007850  44.0498284  40.3397554
  11.0742708  40.2694492  46.5693661  11.0690746  39.3974309  46.5736088
  11.7803702  40.4682662  46.0963117  11.1787712  40.1698367  46.5000697
   4.8013601  39.9971476  45.9407481   4.9456977  40.5772684  45.3050591
   5.1489250  40.3747773  46.6457336   4.8741062  40.1392180  45.9506476
   6.9733518  39.1961645  43.7232613   6.2256832  39.3892659  43.3180891
   7.1275044  38.3706864  43.4856734   6.8855946  39.1026756  43.6278019
   3.8741356  48.1874248  42.8068508   4.0230920  47.6277164  42.1541913
   4.6541358  48.2666250  43.1901027   4.0115450  48.1159814  42.7665457
   6.3994657  48.3588891  44.0852999   6.3238328  47.6897702  44.6403787
   6.3284516  49.0606679  44.5993665   6.3775264  48.3633798  44.2429847
   7.2135295  33.0912195  44.6128017   7.6707910  33.8236170  44.7400809
   7.2891624  32.6678661  45.3715273   7.2926265  33.1369433  44.7429093
  11.6862621  26.2702071  38.4821860  11.8046190  26.7278534  37.7489162
  11.5124797  25.4647332  38.1958077  11.6781792  26.2195843  38.3322793
   7.0564904  46.8789890  34.9176605   7.8214795  46.6099534  34.5959269
   6.9542994  46.3939900  35.6346668   7.1546399  46.7679454  34.9756433
   5.0917673  35.0814299  41.4569841   4.3013748  34.9005759  41.7787177
   5.4878296  34.3041252  41.4400135   5.0334550  34.9401760  41.5022389
   9.5783564  43.9102074  26.8976554  10.3456549  43.9702199  26.4882406
   9.1314873  43.3382515  26.4132873   9.6256991  43.8338649  26.7654265
  10.4761360  42.7156729  39.1829287   9.8006362  42.4841962  39.6842674
  10.4853736  42.1077912  38.5571392  10.3779864  42.5915655  39.1645439
   7.6055504  37.5574558  45.9393340   7.5414645  38.4184515  45.8113476
   7.7452691  37.2406552  45.1388891   7.6170974  37.6374725  45.8021553
  12.4778094  45.5721862  31.4139465  12.5597932  46.3788848  31.0900916
  12.9627836  45.5917821  32.1380238  12.5615252  45.6942524  31.4726363
   6.2874598  40.2506698  40.0809543   5.8636847  40.4511197  39.3448561
   6.1119453  39.4035546  40.1933842   6.1985478  40.1555479  39.9883233
   5.7886291  51.7657211  42.5431000   6.2782221  51.0668000  42.3606665
   5.2170523  51.4681081  43.1307057   5.7770821  51.6183434  42.6032041
   1.5757043  40.7458749  35.5137515   1.7321662  40.6805552  36.3693507
   1.9157636  41.5207302  35.3016195   1.6490277  40.8507947  35.6092109
   8.1136187  40.1216633  34.3830878   8.6551733  39.6187014  34.8469499
   8.4282746  40.0681827  33.5720364   8.2400584  40.0396054  34.3314690
  11.9853295  44.3319280  51.4957791  12.7988160  44.0604429  51.6562923
  11.8248261  44.0326820  50.6917986  12.0823243  44.2474206  51.4003196
   6.2822637  45.5133984  31.6670906   6.3515457  44.6548523  31.8063907
   7.0611092  45.7305865  31.3389931   6.4075487  45.4186848  31.6388064
   9.2625457  35.0152937  44.4353179   9.4767426  34.3763851  43.8816533
   8.6459356  35.4598761  44.0061041   9.2030786  34.9863081  44.2903610
  10.6730124  47.9371686  35.8807400  10.2809916  47.6338401  35.1630266
  10.8283197  48.7740776  35.6912353  10.6383714  48.0155522  35.7463897
  11.4264545  36.6242002  45.3736486  10.6141226  36.3167893  45.4549659
  11.8854479  36.1441003  45.9379198  11.3744929  36.5078495  45.4691080
  10.8369799  44.5021674  35.8213430  10.4784454  44.6736317  36.5977463
  10.3508510  44.9634880  35.2641429  10.7128496  44.5960645  35.8538699
   8.6540185  28.1252873  39.4240522   7.7833743  28.0991594  39.3773831
   8.9080526  27.9530065  38.6066367   8.5633745  28.0963017  39.2960658
   5.6258165  40.1820840  28.3613665   5.9150689  40.9585722  28.6357239
   5.7129963  39.6709571  29.0628164   5.6812421  40.2212758  28.5056162
   8.5218052  38.0302074  50.1565188   8.9917683  38.6544190  50.5433062
   8.5679932  37.3619049  50.7158403   8.5985928  38.0236754  50.2965260
   5.6789326  30.1359101  40.8813992   5.1627814  29.4439293  41.0065571
   5.1183255  30.8029878  40.8276591   5.5195839  30.1322359  40.8920058
   7.7481559  30.6752061  42.7106845   7.3613312  30.7001093  43.4920374
   7.2614496  30.1093740  42.2581361   7.6194068  30.5947812  42.7594748
  11.9974539  45.3925570  46.7680631  12.6354259  44.8985766  46.4343087
  11.3548630  45.3202971  46.1832858  11.9968765  45.3084579  46.6322986
  13.7231539  37.2414716  41.3346547  13.2959147  37.1541065  40.5794646
  13.0857592  37.3492492  41.9201391  13.5661146  37.2447376  41.3091988
   7.4138701  27.5619047  45.0017104   8.0431819  28.0979347  44.7238175
   7.5824564  27.4696406  45.8530670   7.5316495  27.6280409  45.0865633
   7.2152616  32.3490242  47.2743516   8.0426045  32.0775390  47.3302131
   7.2360462  33.1451083  47.6307334   7.3405466  32.4269996  47.3358699
  12.0528795  46.0845379  43.4085988  12.8421173  45.7334443  43.5288070
  12.2272393  46.8981767  43.1462622  12.1949077  46.1531236  43.3873856
   1.7922106  39.4954104  40.4613777   0.9510112  39.3957979  40.6692671
   2.0012114  40.2649585  40.8128097   1.6986798  39.5946148  40.5441092
  10.9062619  30.0954935  37.9702406  11.1112213  30.0277243  38.8159403
  10.5789043  30.9013757  37.9023584  10.8877867  30.2040876  38.0862061
   5.6038770  37.4235504  39.7111374   5.3001908  36.8691492  40.3121782
   4.9018191  37.6027714  39.2239408   5.4554980  37.3680286  39.7281080
   4.6604868  34.7336023  34.2756076   4.9364602  34.0154936  33.8633644
   5.2603537  35.3320943  34.0677182   4.7898132  34.7156394  34.1836837
  14.1596307  30.6486700  37.4505172  13.5470621  31.1357102  37.8358904
  14.2560482  29.9730190  37.9942823  14.0834205  30.6205008  37.5884030
   8.1615388  32.4049541  32.5502671   8.6159135  32.5760101  33.2750516
   8.6355434  31.7917651  32.1500447   8.2983708  32.3400426  32.5976433
   1.6830913  41.8897867  41.8805410   1.0918847  42.5307365  41.8508425
   2.4451937  42.3135484  41.8536709   1.7079174  42.0473705  41.8720557
   2.0791536  33.0499864  42.5473427   2.5393018  33.1238794  43.2848551
   2.1247643  33.8481118  42.1973249   2.1542092  33.1794011  42.6046184
   3.7274886  33.7166559  47.1145454   3.3360451  33.0699906  47.5501232
   3.8960749  34.3077995  47.7339710   3.6945796  33.7080827  47.2708160
  17.8021335  41.7203636  42.8782688  17.8604459  42.1690285  43.6242664
  17.1687803  42.1302449  42.4412768  17.7172630  41.8477371  42.9235236
  11.4420430  47.3407178  39.3137434  11.2440118  47.8297993  38.6193645
  10.8208141  47.5448420  39.8921567  11.3207994  47.4423717  39.2960657
   5.5028408  39.1092075  33.6547678   6.2470453  39.4966351  33.8930628
   5.6489104  38.2649500  33.8188166   5.6338993  39.0422548  33.7141648
   7.4207984  30.9042334  38.6879540   6.5744029  31.0765142  38.5620890
   7.4179116  30.0991678  39.0245368   7.2955133  30.8103363  38.7190667
   8.4906284  34.6817548  39.5541598   8.0166238  34.1559310  40.0646909
   8.8624420  34.1347021  38.9856459   8.4756173  34.5233545  39.5456745
  14.7543014  39.7419924  40.9648378  14.5141237  38.9026339  40.9690805
  15.2335022  39.8220091  41.6889152  14.7895198  39.6301324  41.0723181
  10.4189784  35.5754103  32.6167351   9.8912802  35.6582847  31.9273060
  10.8785492  36.3171974  32.6131996  10.4091634  35.6974765  32.5142047
  16.7548202  36.5221381  38.9177637  16.5157971  36.4817215  38.0798422
  16.9182103  37.3692533  39.0443358  16.7438505  36.6413466  38.8131119
  13.3594232  40.9071331  44.8482682  14.0828431  40.4543857  44.6693702
  13.0944194  41.1875996  44.0655010  13.4275505  40.8822299  44.7061398
   2.2281100  35.5031504  41.5835562   1.6034170  35.5149896  40.9761514
   1.8926695  35.9791679  42.2326802   2.0866592  35.5750021  41.5892130
   2.4122849  33.8456623  27.6408247   2.0635653  34.4976348  28.1039796
   1.9319295  33.8313736  26.9132118   2.2893093  33.9399676  27.6019338
   9.9726866  44.1457667  31.7477009  10.6961065  44.6115780  31.6041582
   9.5327457  44.2131276  30.9974606  10.0142558  44.2241503  31.6161790
   9.1413021  41.0055209  42.9977698   8.5270014  40.4613259  43.2926333
   9.6580306  40.4919445  42.5183514   9.1268684  40.8491618  42.9701926
   8.3809318  42.0759479  40.7321996   7.9536926  41.4509197  40.2987432
   8.3734263  41.7934401  41.5581003   8.3168459  41.9412259  40.7901824
   1.4971845  37.1124652  43.8010430   1.6565332  36.3567976  44.2062152
   1.3164739  37.6615591  44.4551168   1.4937204  37.0818466  43.9573136
   9.4392148  29.2785887  44.3561220   8.9432710  29.4749562  43.6652786
  10.1961210  29.6778556  44.1850021   9.4778973  29.3663621  44.2281356
   6.7095028  32.9528233  40.9464530   6.7337515  32.4188346  40.2577310
   6.9606502  32.4445542  41.6090121   6.7504947  32.7989137  40.9429175
   2.9896350  31.6799052  40.3270274   3.0294722  32.1808258  41.0404982
   2.1646015  31.7709445  40.0576198   2.8735876  31.7680868  40.3920813
   5.1725963  41.2459792  48.4290569   4.3221594  41.3831506  48.5648214
   5.3354091  40.5123570  48.8738271   5.0709827  41.1573893  48.5146168
   4.4110714  38.1959561  42.6244173   3.5802643  38.3633379  42.4179422
   4.3562231  37.8195512  43.4093059   4.2800128  38.1649293  42.7092702
   2.2194497  31.6868454  48.2600584   2.8447200  31.1430587  48.5330016
   1.7644977  31.2063372  47.6908375   2.2442757  31.5357936  48.2162178
   2.7846757  36.4715153  33.1534291   2.9249719  36.9687617  33.8562933
   3.2829290  35.7701447  33.2948505   2.8787838  36.4417132  33.2785870
   2.8146980  37.3382264  30.4826868   3.4492059  37.9342689  30.4176330
   2.8972591  37.0385722  31.2972738   2.9203531  37.3823172  30.5929955
  15.7929546  39.8697741  43.3513232  16.3847386  40.5094992  43.3831430
  16.2288540  39.1720778  43.6405299  15.9447977  39.8616092  43.3994065
   4.3925963  33.2696239  30.4572310   4.7141804  32.7899322  29.8031572
   4.6552906  34.0795885  30.2663122   4.4791988  33.3186137  30.3327802
   7.6222935  44.2915114  43.9771126   7.1148027  44.8450961  44.4211757
   7.3249582  44.3523404  43.1589901   7.5027820  44.3821425  43.9219583
   9.7885118  32.6568433  42.8195789  10.2140189  32.2040960  42.2079315
   9.1742111  32.1028504  43.0960577   9.7613763  32.5082410  42.7700814
  10.2330716  48.2078371  31.9075070   9.5160025  48.0339234  31.4422307
  10.8837453  47.9730944  31.3750556  10.2232566  48.1474164  31.7604288
   8.2279341  29.1283533  36.2286366   7.5847658  28.9781180  36.7971505
   7.8878747  28.8825878  35.4635471   8.0824418  29.0695656  36.1989381
  12.8178687  37.0842960  35.6516375  12.1469877  37.6272662  35.5229440
  13.5118437  37.5537815  35.4098070  12.8207554  37.2341231  35.5971902
   6.8665421  49.2239672  40.8828133   6.6431075  48.4658501  41.2512159
   6.3775264  49.2537693  40.1608573   6.7608870  49.1161897  40.8304874
  12.9806814  33.5398844  38.5606748  13.3334425  33.1128567  39.2352547
  12.1221616  33.4549687  38.6907824  12.9056259  33.4643584  38.6801758
   1.6790499  36.1706363  36.6189594   0.9602489  36.5870496  36.8862458
   2.0502862  36.7360602  36.0681233   1.6282431  36.3155645  36.5772401
  10.9790080  36.8034212  42.5091590  10.9588008  36.6217507  43.3626369
  11.0269281  37.6746231  42.4851174  10.9824721  36.9050750  42.6314885
   8.9236410  43.3921404  48.4340067   8.8832265  42.7471081  47.8485223
   9.7359728  43.3358022  48.7465479   9.0379564  43.2880371  48.3937016
   5.5143878  49.4440130  38.3365218   5.1004276  48.7814260  37.9469059
   6.1991252  49.5917989  37.8160912   5.5542249  49.3680788  38.2021715
   8.8809172  48.6030215  39.0888834   8.4825455  48.7132486  38.3209654
   8.2660391  48.8112282  39.6715394   8.7308061  48.6503783  39.0620134
   7.4537074  35.2104363  31.9562974   6.8601913  35.5321360  31.4047541
   7.4912351  34.3645459  31.7484080   7.3711463  35.1328691  31.8445745
  14.4130875  28.6617255  39.4891060  13.9061739  27.9546395  39.4212238
  15.2098308  28.3310444  39.6192137  14.4558114  28.5090407  39.4990055
  10.3294890  35.1683868  35.3864724  10.1008583  35.1916569  34.5443082
  10.5892967  34.3441335  35.5059735  10.3341078  35.0499948  35.2789922
   4.6114119  37.0218341  44.9889824   4.0993022  36.4139524  45.3474856
   4.4393615  37.7374933  45.4563800   4.5103756  37.0381640  45.1106048
   3.3839653  33.7060414  36.6818920   3.8597019  34.0677494  36.0469101
   2.8828253  34.3616882  36.9619063   3.3805012  33.8554603  36.6295661
  16.6151014  43.1782182  32.4731925  16.9984620  43.9273538  32.7030022
  15.8195128  43.4248002  32.2143914  16.5544797  43.3251876  32.4689498
   8.4883189  34.9442585  47.4292080   9.0454619  34.7156395  46.7970545
   8.1644254  35.7048251  47.1527292   8.5229599  35.0226422  47.2948577
   6.2066306  38.0310239  48.3944087   6.9577633  38.3461916  48.7083641
   6.3988883  37.8289410  47.5678009   6.3457721  38.0477621  48.3187483
   5.4266306  35.8501614  30.0492304   5.8065271  35.8681243  29.2643419
   4.6858902  36.2955603  29.9283151   5.3735144  35.9183388  29.9155872
  13.0551597  34.1583805  35.6367882  13.0545823  34.0032462  36.4952159
  12.8507777  35.0046792  35.5809268  13.0251374  34.2604426  35.7555822
  10.7792449  38.8381307  39.2904089  11.2746114  38.1204302  39.2508110
   9.9692224  38.5352104  39.1758576  10.7336342  38.6878953  39.2677815
   6.2251060  42.6879120  31.4401094   5.4162383  42.3645794  31.3934403
   6.7325969  41.9812342  31.3729342   6.1800727  42.5360436  31.4231388
  12.8444267  41.5884994  41.9781218  13.2699339  41.0659416  41.4251643
  12.4801187  42.1865832  41.4569841  12.8530870  41.5995221  41.8190228
   2.4798347  49.8849212  40.7378564   2.7944906  50.6985600  40.7456345
   2.8891761  49.4999430  41.4060723   2.5866445  49.9477914  40.8382655
   9.4322867  45.3019259  38.3082376   9.9034045  46.0159521  38.4772361
   9.7683045  44.7018009  38.8442245   9.5517982  45.3190723  38.4114751
  11.5199852  46.9120572  50.4874448  11.6296817  46.1229133  50.8431195
  11.8490748  46.8226508  49.6848786  11.5852257  46.7826425  50.4216838
   6.3492362  30.0746729  45.2640470   6.4820267  29.2777723  45.5921446
   6.7337515  30.6013132  45.8438746   6.4248691  30.0346646  45.3983973
  10.0696813  45.0937193  45.0710068   9.5217759  44.4695076  44.8030133
  10.5309842  45.2831465  44.3554148  10.0564023  45.0296243  44.9260499
   9.4224717  26.9977055  41.8621564   8.6170681  26.8874785  42.1789402
   9.2931453  27.0989511  41.0051429   9.2844850  26.9960725  41.7829604
  12.8790678  33.1622547  42.4561260  12.2953666  33.6631754  42.0438828
  13.1994972  32.6552103  41.8225584  12.8403853  33.1614382  42.3019768
   5.4185477  32.0763142  32.7319935   6.2401171  32.2461455  32.4901630
   4.9555128  32.2310403  32.0086233   5.4716639  32.1244875  32.5891580
   4.0080809  30.0705904  43.5118364   4.5525222  29.7297031  44.1022706
   4.0617744  30.9291366  43.6539649   4.0969928  30.1461164  43.6200237
   9.6355140  46.0988265  41.6019409  10.4553513  45.9551231  41.8635705
   9.3549217  46.7234464  42.1435847   9.7151883  46.1698617  41.7207349
  19.3068475  52.8428768  39.3215216  18.4506370  53.0037266  39.3724333
  19.3536128  51.9720832  39.3420277  19.1867586  52.7379570  39.3321282
  13.6909614  62.3791486  35.0852448  12.9392514  62.0007024  34.8568493
  14.1395626  62.4109920  34.3371258  13.6459281  62.3277093  34.9409950
  22.6162191  59.1115294  48.9275672  23.3228959  58.6167325  49.0562607
  22.8050127  59.5524375  48.1978330  22.7490097  59.1033644  48.8384718
  19.1434574  62.8016856  30.5137995  18.8085943  63.4793777  30.0782217
  19.6561445  62.4122167  29.9254866  19.1700155  62.8441434  30.3624786
  18.6838866  64.7531124  36.4549106  19.0678245  65.3218023  35.9153882
  18.6198007  64.0280635  35.9754922  18.7312293  64.7306588  36.3042969
  22.1520296  54.9020812  41.9646868  22.6976256  55.5805899  42.0240837
  22.0937172  54.7608273  41.1048449  22.2236210  54.9812814  41.8458928
  15.2694371  62.3909878  37.3515220  15.3704734  61.5810232  37.6612348
  14.6736116  62.2966825  36.7214899  15.1966909  62.2574906  37.3041459
  23.9285364  56.3305419  32.8380596  23.8124890  57.0813105  33.2672734
  24.7241251  56.0729372  33.0876683  24.0289954  56.4040266  32.9384687
  15.1095110  67.3087467  38.7530076  15.7532566  67.7500631  39.1426235
  15.4351366  66.5040894  38.6660335  15.2526939  67.2552662  38.7975554
   8.4659415  58.4130165  36.9767554   8.2309599  57.5797817  36.8699823
   8.6045056  58.6934830  36.1628755   8.4515077  58.3313668  36.8409909
  10.7649502  50.5815895  39.8751862  10.1454534  49.9908543  39.7061876
  10.6633366  51.1727331  39.2416185  10.6587178  50.5819978  39.7556851
  15.8115690  60.3199442  34.1249938  16.1331531  60.8604650  33.5211246
  16.4587786  59.7496214  34.2572228  15.9541745  60.3158617  34.0556973
  17.8617398  52.3215437  34.2084325  18.5597563  52.5003565  34.7005788
  18.1769731  51.7985776  33.5854714  18.0112735  52.2709209  34.1886335
  10.4918635  54.1268177  42.1195431  10.3677332  54.7130623  42.7545249
  11.1436920  53.6328373  42.4207706  10.5692285  54.1406981  42.2581360
  18.0505333  58.7085882  34.1964116  18.4898969  58.1002983  34.6418889
  17.9009996  58.3293255  33.4249581  18.0926799  58.5624353  34.1483284
  15.5176976  57.3029894  41.3982942  16.1625979  56.8102337  41.0793890
  15.7578753  57.4454681  42.2249020  15.6487562  57.2507336  41.4732475
  18.0563068  60.1484800  41.0489834  18.3386311  59.3536206  40.8276590
  18.7849228  60.6265387  41.0694895  18.2052631  60.1019397  41.0192849
  16.0344262  47.6907834  38.2905599  15.7047592  48.1418977  37.6209298
  15.3589263  47.6123997  38.8378606  15.8854698  47.7458969  38.2728823
  21.6514670  57.0613063  31.1494885  21.5665965  57.9174030  31.2944454
  22.1399053  56.7857388  31.8177045  21.7103567  57.1470385  31.2696967
  22.5833103  53.6797858  32.6492621  22.0544575  53.8957491  33.3089927
  23.1058123  54.3733996  32.5693590  22.5821556  53.8140995  32.7348220
  14.4732711  57.5761074  31.4500089  13.8889926  58.0811106  31.8565952
  14.0702806  57.3503461  30.7096680  14.3272015  57.6169323  31.4005114
  10.0276740  63.2915836  38.2523760   9.5444318  64.0166325  38.2283344
  10.8400058  63.5891966  38.3633918  10.0767487  63.4418189  38.2651039
  16.0990894  62.0848016  40.8573575  15.5817835  61.7255431  40.2534883
  16.7965285  61.5610191  40.8679641  16.1256475  61.9545704  40.7703833
  19.7554486  62.5342830  46.8189748  19.8437831  62.3468971  47.6667958
  20.1844198  61.8880260  46.4194594  19.8316588  62.4105838  46.8861499
  17.3224945  61.8173990  45.8007410  16.7595780  61.4046600  46.3247071
  18.0845969  61.7426896  46.2200553  17.3519394  61.7451391  45.9400410
  18.9309925  53.8226726  29.9269009  19.1705929  54.0304710  29.1144352
  19.2525766  53.0184235  30.0357954  19.0147083  53.7340828  29.8229562
  14.2400216  45.7520122  33.7728547  14.9946184  46.1198439  33.5345597
  14.0627750  46.1259677  34.5407727  14.3254694  45.8618310  33.8513436
  12.8820937  63.8072011  38.4044040  13.5841516  63.2924001  38.4616796
  12.8018420  64.1346163  39.2090915  12.9744697  63.7786238  38.5316832
  27.5335114  51.9014563  41.8176086  26.6963535  51.9716750  42.0523681
  27.5023345  51.9039058  40.9450389  27.4053397  51.9124790  41.7235634
  13.9299843  54.0447598  47.5324455  14.1020347  53.9353493  48.3809736
  14.4669201  54.6902004  47.2955647  14.0344847  54.1239600  47.6229552
  12.5957280  48.1590441  30.4706660  12.4132854  48.3762322  29.6447653
  13.4582893  48.2729454  30.5265274  12.6961870  48.2080339  30.3561147
  12.2071712  59.9978363  37.9129648  13.0460612  60.2301296  37.9603410
  12.2383481  59.1282675  37.8436683  12.3353430  59.9035310  37.9094293
  12.8324415  60.4179239  42.2142953  13.3722640  60.2750370  42.8846326
  12.1494362  60.8175989  42.5826980  12.8116569  60.4558910  42.3677375
  18.2757000  45.1616852  33.5055684  19.0043160  44.9832807  33.0593840
  18.3651892  46.0034932  33.7162862  18.3963662  45.2600730  33.4709202
  22.2565300  56.0970239  37.4087978  23.0122815  56.5301754  37.4476887
  22.3627625  55.4475009  37.9822614  22.3835471  56.0647723  37.4986003
  25.2945471  59.9243517  38.1590381  24.8580703  59.9280259  38.9149352
  24.9608387  60.6049015  37.7269958  25.1808091  60.0255972  38.2071213
  19.8674545  61.9651849  49.4833531  20.6514962  62.0782697  49.8489273
  19.6671139  61.1392986  49.6792217  19.9540570  61.8598569  49.5667917
   8.2361560  56.6379529  42.3677375   7.9699976  55.8218646  42.5268365
   8.2500125  56.6832685  41.4972891   8.1986283  56.5236434  42.2630857
  12.1419307  51.4364614  28.9829133  11.4277484  51.1502793  29.3951566
  12.6263276  51.7761240  29.6235521  12.1078671  51.4446264  29.1384768
  12.9860167  50.1757908  45.0144383  12.2931964  49.7054887  45.2605114
  13.6020494  49.9496212  45.5886090  12.9744697  50.0725040  45.1353535
  20.0244938  63.8761951  43.1299987  19.2260184  63.6361451  43.3873855
  20.4730950  63.9276344  43.8767034  19.9719550  63.8484343  43.2784911
  19.3166625  59.9394568  29.3590941  19.7317774  59.6079592  28.6675437
  18.4858555  59.7063470  29.2311078  19.2554634  59.8565824  29.2381789
   8.6454974  57.4238309  39.6489119   8.4630547  57.3985195  38.7961411
   9.3804643  57.8937247  39.6878028   8.7269038  57.4899671  39.5287038
  11.7100726  54.1423312  46.1571228  12.4340698  54.1276342  46.6436123
  11.8116862  54.8518667  45.6593196  11.8318935  54.2448015  46.1550015
  19.0845675  57.6222396  51.0220175  18.2918656  57.9365908  51.2072795
  19.1994602  57.8373865  50.1840960  18.9841086  57.7006233  50.9258510
  21.7576994  54.3456387  35.3115191  21.8523848  55.0845682  35.7654816
  21.1335838  53.9173863  35.7449755  21.6786024  54.3917708  35.4423338
  20.0129468  57.5242600  45.9605472  20.5868330  56.8869844  46.1154036
  19.9344272  57.5246682  45.0915129  20.0862703  57.4307711  45.8551883
   8.6125884  54.3031810  39.7988186   9.1899387  54.1668260  40.4380431
   7.9139946  53.8467594  40.0533770   8.5946906  54.2154076  39.9310476
  22.0100015  56.1905127  28.5452143  21.9280178  56.2607314  29.4107130
  22.6479736  56.7534871  28.3535883  22.0919853  56.2844098  28.6442092
  15.3693187  55.9565865  38.0126669  15.1112431  55.1237600  37.9857969
  15.4241669  56.1823478  37.1719169  15.3392964  55.8663636  37.8846806
  20.4494237  48.0594316  38.1130762  19.7450563  47.5703501  38.2714681
  20.4979211  48.0716790  37.2419206  20.3524288  47.9883964  38.0070102
  14.3427899  53.5103628  38.4991564  13.7677490  53.6695796  39.1355525
  13.9663575  52.8739037  38.0360014  14.2030711  53.4401441  38.5246122
  18.0101187  51.9826977  43.3583942  17.6215620  51.5581195  42.7036133
  17.3455886  52.2309127  43.8660969  17.8548115  51.9565698  43.3371810
   4.0884718  53.1543702  36.5136004   4.1744969  52.7775571  37.2949534
   4.7160515  52.7804148  36.0355963   4.1941269  53.0429185  36.5581482
  21.8327549  45.6801606  40.8707926  22.2138061  44.9979777  41.2575801
  21.0290833  45.3911208  40.6883591  21.7704011  45.5368654  40.9011982
  19.1140126  56.2125582  31.5560749  19.9280764  56.5040474  31.4443521
  19.0499267  55.5585444  30.9819042  19.2242865  56.1590776  31.4549587
  25.3349616  58.8951578  45.9690325  25.0988253  58.0639642  45.8502385
  25.9792845  58.8437185  46.5545169  25.3944287  58.7649266  46.0376218
  14.9848034  59.6847099  36.6833061  15.6221981  59.4458846  37.2284855
  15.4103105  59.8884258  35.9486222  15.1424200  59.6798109  36.6550219
   9.6760676  61.9235435  40.5667365   9.7164822  62.1950287  39.7387145
  10.2355200  62.4477344  40.9825153   9.7644022  62.0411191  40.5059253
  15.6250849  54.9049389  31.0207951  16.0096002  54.6857095  31.7724496
  15.3762469  55.7312334  31.1509027  15.6452921  54.9947535  31.1509027
  15.7919389  48.1855804  50.7370535  15.4772830  48.9555367  50.4740098
  15.4709322  47.6226060  50.1522762  15.6978308  48.2166073  50.6111885
  26.3586036  58.6796026  42.0318619  26.0531853  59.4124083  42.3931935
  25.6392252  58.2733956  41.7511405  26.2073379  58.7277759  42.0431756
  17.3669506  60.1619522  38.3626848  17.4408514  59.9994693  39.2168697
  18.1839012  60.3509711  38.1187329  17.4985864  60.1656264  38.4524873
  32.0587829  55.3189027  41.3586964  31.9912329  55.3384986  40.4889550
  32.0443491  56.1619354  41.5842634  32.0466585  55.4462762  41.2639440
  11.1275263  60.5077384  35.3921291  10.3013380  60.7539122  35.2655570
  11.1887254  60.4289465  36.2583349  11.0149429  60.5322333  35.5010235
  13.3451286  46.5746325  36.3516731  12.4773712  46.6468925  36.4174340
  13.6326491  47.3768404  36.5404706  13.2591034  46.7040472  36.3891498
  22.4684175  46.7224185  44.6828053  23.2137767  46.5333995  44.2691478
  22.0521480  47.2482423  44.1241909  22.5169149  46.7726330  44.5392626
  15.9074092  63.1254265  33.0940321  16.1972390  62.7343246  32.3699548
  16.6377572  63.3070970  33.5345596  16.0580976  63.0948078  33.0523128
  16.4968837  57.9272011  44.1793451  15.9980530  58.6387778  44.2578340
  17.3069061  58.2472677  44.1411614  16.5424943  58.0798859  44.1850020
  13.8480007  65.1021647  36.1600471  13.6280303  64.8119002  36.9527138
  13.6274529  64.4436602  35.6318383  13.7827601  64.9621355  36.1989379
  12.7596954  57.1894964  38.4256172  12.4710203  56.5632435  38.9601900
  13.6280302  57.1315251  38.4920853  12.8457206  57.0882508  38.5147127
  23.5474852  52.3329747  38.7438154  23.2039618  51.6120082  39.0945404
  23.6467895  52.1243598  37.9016512  23.5116895  52.1953950  38.6709834
  16.0147963  66.4751037  34.9431163  16.6672021  65.9427479  35.1722189
  15.3173572  66.1219689  35.3299037  16.0078681  66.3440560  35.0343331
  12.9629228  58.8290215  34.3498537  13.7175196  59.2103254  34.5634000
  12.3699840  59.2801358  34.8045234  12.9865941  58.9519042  34.4481416
  24.0087881  58.7955451  34.2862142  24.5745914  59.4548661  34.2020685
  23.3615785  59.1405149  34.7578544  23.9966638  58.9437392  34.3434899
  15.4235895  50.7853055  49.4755750  14.6135670  51.0910835  49.3645592
  15.9010581  51.5058637  49.5908334  15.3739373  50.9367656  49.4762821
  14.2827454  59.9998776  39.7238653  13.7608208  60.1399068  40.4090517
  14.6701475  59.2409440  39.9140770  14.2631155  59.9084300  39.8539729
  11.2718638  50.0504585  33.7933607  10.9843434  49.6805855  33.0565555
  11.9589107  50.5199440  33.5317312  11.3307536  50.0651554  33.6448683
  20.4794459  61.7394235  33.7099222  20.2381135  61.0062096  33.3026286
  20.6595792  62.2881092  33.0565555  20.4702083  61.7116626  33.5529444
  15.7093780  57.0302795  35.1220144  15.5136563  57.6377530  34.5280447
  15.9328125  56.3370739  34.6411818  15.7128421  57.0180321  34.9636225
  14.1072310  53.9157533  35.2401012  14.8294962  54.0798691  34.7804818
  13.6280303  54.6367198  35.1340352  14.1436041  54.0455762  35.1566626
  22.0665818  50.2521332  40.6197697  21.2276918  50.2782611  40.3835960
  22.1370185  50.8992067  41.2003044  21.9534211  50.3517458  40.6706814
  11.7579927  56.3215605  44.3455152  12.2701024  56.5999859  43.6963912
  11.4716269  57.0604899  44.7117965  11.7914790  56.4717959  44.3045030
  20.5135096  47.1506709  35.3525313  21.2161449  46.9514457  34.8745271
  20.2479285  46.3782651  35.6594156  20.5781728  47.0069675  35.3270755
   8.8446833  50.8285797  34.6418889   8.9462969  51.6311959  34.9699864
   9.6402720  50.6273133  34.3441969   8.9774739  50.9171696  34.6454244
  15.2763652  48.4141994  44.4056194  15.0846849  48.4297128  45.2555617
  16.1262248  48.6105668  44.3822848  15.3739374  48.4456345  44.5279488
   9.6610565  50.9432975  42.3840010   9.5196057  50.0916916  42.5084518
   9.9451128  50.9861636  41.5602216   9.6818411  50.8232725  42.2807634
  19.8149157  52.7800066  36.5284498  19.5683872  52.6995817  37.3621287
  20.1434280  51.9953533  36.3347026  19.8270401  52.6526331  36.6232021
  23.7097206  59.4883425  40.3171280  23.5711566  60.1864471  40.8220022
  22.9297204  59.3332081  39.9607461  23.5740433  59.5683592  40.3397554
  22.0475291  55.7879800  46.5693661  22.0423330  54.9159617  46.5736088
  22.7536285  55.9867969  46.0963117  22.1520295  55.6883674  46.5000697
  15.7746185  55.5156784  45.9407481  15.9189560  56.0957992  45.3050591
  16.1221833  55.8933081  46.6457336  15.8473646  55.6577488  45.9506476
  17.9466102  54.7146953  43.7232613  17.1989416  54.9077967  43.3180891
  18.1007627  53.8892172  43.4856734  17.8588530  54.6212064  43.6278019
  14.8473940  63.7059556  42.8068508  14.9963503  63.1462472  42.1541913
  15.6273942  63.7851558  43.1901027  14.9848033  63.6345121  42.7665457
  25.2050579  58.8461679  31.0787779  24.8257388  58.0598817  31.0717068
  24.5416824  59.3948536  30.9359423  25.0509054  58.8106503  31.0568576
  17.3727240  63.8774199  44.0852999  17.2970911  63.2083009  44.6403787
  17.3017099  64.5791987  44.5993665  17.3507847  63.8819106  44.2429847
  18.1867879  48.6097503  44.6128017  18.6440493  49.3421478  44.7400809
  18.2624208  48.1863969  45.3715273  18.2658849  48.6554741  44.7429093
  10.4300870  48.8563323  45.7017460   9.8943060  48.2443681  46.0178228
  10.4918635  49.4311459  46.3551127  10.3596503  48.8510251  45.8452887
  18.0297487  62.3975198  34.9176605  18.7947378  62.1284841  34.5959269
  17.9275577  61.9125208  35.6346668  18.1278983  62.2864762  34.9756433
  16.0650257  50.5999607  41.4569841  15.2746332  50.4191067  41.7787177
  16.4610880  49.8226560  41.4400135  16.0067133  50.4587068  41.5022389
  20.5516148  59.4287382  26.8976554  21.3189133  59.4887506  26.4882406
  20.1047457  58.8567823  26.4132873  20.5989575  59.3523957  26.7654265
  21.4493943  58.2342037  39.1829287  20.7738945  58.0027270  39.6842674
  21.4586319  57.6263220  38.5571392  21.3512448  58.1100963  39.1645439
  18.5788087  53.0759866  45.9393340  18.5147228  53.9369823  45.8113476
  18.7185275  52.7591860  45.1388891  18.5903557  53.1560033  45.8021553
  17.2607181  55.7692006  40.0809543  16.8369430  55.9696505  39.3448561
  17.0852036  54.9220854  40.1933842  17.1718062  55.6740787  39.9883233
  16.7618875  67.2842519  42.5431000  17.2514805  66.5853308  42.3606665
  16.1903107  66.9866389  43.1307057  16.7503405  67.1368742  42.6032041
  12.5489626  56.2644057  35.5137515  12.7054245  56.1990860  36.3693507
  12.8890219  57.0392610  35.3016195  12.6222861  56.3693255  35.6092109
  19.0868771  55.6401941  34.3830878  19.6284316  55.1372322  34.8469499
  19.4015330  55.5867135  33.5720364  19.2133168  55.5581362  34.3314690
  22.9585878  59.8504588  51.4957791  23.7720743  59.5789737  51.6562923
  22.7980844  59.5512128  50.6917986  23.0555827  59.7659514  51.4003196
  17.2555220  61.0319292  31.6670906  17.3248041  60.1733831  31.8063907
  18.0343676  61.2491173  31.3389931  17.3808071  60.9372156  31.6388064
  20.2358040  50.5338245  44.4353179  20.4500010  49.8949159  43.8816533
  19.6191939  50.9784069  44.0061041  20.1763369  50.5048389  44.2903610
  21.6462708  63.4556993  35.8807400  21.2542500  63.1523709  35.1630266
  21.8015780  64.2926083  35.6912353  21.6116298  63.5340830  35.7463897
   9.1223888  53.4479008  35.8298282   9.5022852  53.8663552  35.1658550
   8.5479252  54.0292463  36.1367126   9.0935212  53.5956866  35.7775023
  22.3997128  52.1427310  45.3736486  21.5873810  51.8353201  45.4549659
  22.8587063  51.6626310  45.9379198  22.3477513  52.0263803  45.4691080
  21.8102383  60.0206982  35.8213430  21.4517038  60.1921625  36.5977463
  21.3241094  60.4820188  35.2641429  21.6861080  60.1145953  35.8538699
  19.6272769  43.6438181  39.4240522  18.7566327  43.6176902  39.3773831
  19.8813110  43.4715373  38.6066367  19.5366329  43.6148325  39.2960658
  16.5990748  55.7006148  28.3613665  16.8883273  56.4771030  28.6357239
  16.6862547  55.1894879  29.0628164  16.6545004  55.7398066  28.5056162
  19.4950636  53.5487382  50.1565188  19.9650267  54.1729498  50.5433062
  19.5412516  52.8804357  50.7158403  19.5718511  53.5422062  50.2965260
  16.6521909  45.6544409  40.8813992  16.1360398  44.9624601  41.0065571
  16.0915838  46.3215186  40.8276591  16.4928423  45.6507667  40.8920058
  18.7214143  46.1937369  42.7106845  18.3345896  46.2186401  43.4920374
  18.2347080  45.6279048  42.2581361  18.5926652  46.1133120  42.7594748
  22.9707122  60.9110878  46.7680631  23.6086843  60.4171074  46.4343087
  22.3281214  60.8388279  46.1832858  22.9701349  60.8269887  46.6322986
  24.6964122  52.7600024  41.3346547  24.2691730  52.6726373  40.5794646
  24.0590175  52.8677800  41.9201391  24.5393729  52.7632684  41.3091988
  18.3871284  43.0804355  45.0017104  19.0164402  43.6164655  44.7238175
  18.5557147  42.9881714  45.8530670  18.5049079  43.1465717  45.0865633
  18.1885199  47.8675550  47.2743516  19.0158629  47.5960698  47.3302131
  18.2093045  48.6636391  47.6307334  18.3138049  47.9455304  47.3358699
  23.0261379  61.6030687  43.4085988  23.8153757  61.2519751  43.5288070
  23.2004977  62.4167075  43.1462622  23.1681660  61.6716544  43.3873856
  12.7654689  55.0139412  40.4613777  11.9242696  54.9143286  40.6692671
  12.9744697  55.7834893  40.8128097  12.6719382  55.1131456  40.5441092
  10.2430256  52.6358949  38.2898527   9.8486954  52.7101961  37.5148637
   9.6870373  53.0216896  38.8406889  10.1033068  52.7040724  38.2566187
  16.5771354  52.9420812  39.7111374  16.2734492  52.3876800  40.3121782
  15.8750775  53.1213021  39.2239408  16.4287564  52.8865594  39.7281080
  15.6337451  50.2521331  34.2756076  15.9097185  49.5340244  33.8633644
  16.2336120  50.8506251  34.0677182  15.7630716  50.2341702  34.1836837
  14.6389705  60.1570532  44.4183472  14.5310060  60.1672594  45.2845530
  14.8485487  60.9825313  44.2288426  14.6539816  60.2811607  44.5187564
  19.1347972  47.9234849  32.5502671  19.5891718  48.0945409  33.2750516
  19.6088017  47.3102959  32.1500447  19.2716292  47.8585734  32.5976433
  12.6563497  57.4083175  41.8805410  12.0651430  58.0492673  41.8508425
  13.4184521  57.8320792  41.8536709  12.6811758  57.5659013  41.8720557
  13.0524120  48.5685172  42.5473427  13.5125601  48.6424102  43.2848551
  13.0980227  49.3666426  42.1973249  13.1274675  48.6979319  42.6046184
  14.7007470  49.2351867  47.1145454  14.3093035  48.5885214  47.5501232
  14.8693332  49.8263303  47.7339710  14.6678380  49.2266135  47.2708160
  28.7753919  57.2388944  42.8782688  28.8337042  57.6875593  43.6242664
  28.1420386  57.6487757  42.4412768  28.6905214  57.3662679  42.9235236
  22.4153013  62.8592486  39.3137434  22.2172702  63.3483301  38.6193645
  21.7940724  63.0633728  39.8921567  22.2940578  62.9609024  39.2960657
  16.4760992  54.6277383  33.6547678  17.2203037  55.0151659  33.8930628
  16.6221688  53.7834808  33.8188166  16.6071577  54.5607856  33.7141648
  18.3940567  46.4227642  38.6879540  17.5476612  46.5950450  38.5620890
  18.3911700  45.6176986  39.0245368  18.2687717  46.3288671  38.7190667
  19.4638867  50.2002856  39.5541598  18.9898822  49.6744618  40.0646909
  19.8357003  49.6532329  38.9856459  19.4488756  50.0418853  39.5456745
   9.8411898  52.1974363  44.9225143  10.7037511  52.0970072  44.8362473
   9.5103681  51.6169072  44.3610716   9.9197094  52.0965990  44.8270549
  25.7275598  55.2605232  40.9648378  25.4873821  54.4211647  40.9690805
  26.2067605  55.3405399  41.6889152  25.7627782  55.1486632  41.0723181
  21.3922367  51.0939411  32.6167351  20.8645386  51.1768155  31.9273060
  21.8518075  51.8357282  32.6131996  21.3824218  51.2160073  32.5142047
  27.7280785  52.0406689  38.9177637  27.4890555  52.0002523  38.0798422
  27.8914686  52.8877841  39.0443358  27.7171089  52.1598774  38.8131119
  24.3326815  56.4256638  44.8482682  25.0561014  55.9729165  44.6693702
  24.0676778  56.7061304  44.0655010  24.4008089  56.4007607  44.7061398
  13.2013684  51.0216812  41.5835562  12.5766754  51.0335204  40.9761514
  12.8659278  51.4976987  42.2326802  13.0599175  51.0935329  41.5892130
  13.3855432  49.3641931  27.6408247  13.0368237  50.0161656  28.1039796
  12.9051878  49.3499044  26.9132118  13.2625676  49.4584984  27.6019338
   9.9139359  59.0817272  43.0239326   9.3839284  58.3909711  43.0734301
  10.1864452  59.0727457  42.1952034   9.8764081  58.9784404  42.9086742
  20.9459450  59.6642974  31.7477009  21.6693649  60.1301087  31.6041582
  20.5060041  59.7316584  30.9974606  20.9875142  59.7426811  31.6161790
  20.1145605  56.5240517  42.9977698  19.5002598  55.9798567  43.2926333
  20.6312890  56.0104753  42.5183514  20.1001267  56.3676926  42.9701926
  19.3541902  57.5944787  40.7321996  18.9269510  56.9694505  40.2987432
  19.3466846  57.3119709  41.5581003  19.2901043  57.4597567  40.7901824
  12.4704429  52.6309960  43.8010430  12.6297916  51.8753284  44.2062152
  12.2897323  53.1800899  44.4551168  12.4669788  52.6003774  43.9573136
  17.6827612  48.4713541  40.9464530  17.7070099  47.9373654  40.2577310
  17.9339085  47.9630850  41.6090121  17.7237530  48.3174445  40.9429175
   5.1935201  55.7545036  40.3807674   5.0878650  55.7091881  39.5159758
   4.4435421  56.0998817  40.6621959   5.0670804  55.7985944  40.2945004
  13.9628934  47.1984360  40.3270274  14.0027305  47.6993566  41.0404982
  13.1378598  47.2894753  40.0576198  13.8468460  47.2866176  40.3920813
  16.1458547  56.7645100  48.4290569  15.2954177  56.9016814  48.5648214
  16.3086674  56.0308878  48.8738271  16.0442410  56.6759201  48.5146168
  15.3843297  53.7144869  42.6244173  14.5535227  53.8818687  42.4179422
  15.3294814  53.3380820  43.4093059  15.2532712  53.6834601  42.7092702
  13.1927080  47.2053762  48.2600584  13.8179784  46.6615895  48.5330016
  12.7377560  46.7248680  47.6908375  13.2175341  47.0543244  48.2162178
  13.7579341  51.9900461  33.1534291  13.8982302  52.4872925  33.8562933
  14.2561874  51.2886755  33.2948505  13.8520422  51.9602440  33.2785870
  13.7879563  52.8567572  30.4826868  14.4224643  53.4527997  30.4176330
  13.8705174  52.5571030  31.2972738  13.8936114  52.9008480  30.5929955
  26.7662129  55.3883049  43.3513232  27.3579969  56.0280300  43.3831430
  27.2021124  54.6906086  43.6405299  26.9180560  55.3801400  43.3994065
  15.3658546  48.7881547  30.4572310  15.6874387  48.3084630  29.8031572
  15.6285490  49.5981193  30.2663122  15.4524572  48.8371445  30.3327802
  18.5955519  59.8100422  43.9771126  18.0880610  60.3636269  44.4211757
  18.2982165  59.8708712  43.1589901  18.4760404  59.9006733  43.9219583
  20.7617701  48.1753741  42.8195789  21.1872773  47.7226268  42.2079315
  20.1474694  47.6213812  43.0960577  20.7346347  48.0267718  42.7700814
  10.2932551  55.0535413  33.7516414  10.8024781  55.6499920  34.1327720
  10.7666824  54.7861386  33.0692834  10.4375927  55.1021228  33.7070937
  21.2063299  63.7263679  31.9075070  20.4892609  63.5524542  31.4422307
  21.8570037  63.4916252  31.3750556  21.1965150  63.6659472  31.7604288
  19.2011924  44.6468841  36.2286366  18.5580242  44.4966487  36.7971505
  18.8611331  44.4011186  35.4635471  19.0557001  44.5880964  36.1989381
  23.7911271  52.6028268  35.6516375  23.1202460  53.1457970  35.5229440
  24.4851021  53.0723123  35.4098070  23.7940138  52.7526539  35.5971902
  17.8398004  64.7424980  40.8828133  17.6163659  63.9843809  41.2512159
  17.3507848  64.7723001  40.1608573  17.7341453  64.6347204  40.8304874
  23.9539398  49.0584152  38.5606748  24.3067008  48.6313874  39.2352547
  23.0954200  48.9734995  38.6907824  23.8788843  48.9828892  38.6801758
  12.6523083  51.6891671  36.6189594  11.9335072  52.1055804  36.8862458
  13.0235445  52.2545910  36.0681233  12.6015015  51.8340953  36.5772401
  21.9522664  52.3219520  42.5091590  21.9320591  52.1402815  43.3626369
  22.0001865  53.1931539  42.4851174  21.9557305  52.4236058  42.6314885
  19.8968994  58.9106712  48.4340067  19.8564849  58.2656389  47.8485223
  20.7092312  58.8543330  48.7465479  20.0112147  58.8065679  48.3937016
  16.4876461  64.9625438  38.3365218  16.0736860  64.2999568  37.9469059
  17.1723835  65.1103297  37.8160912  16.5274833  64.8866096  38.2021715
  19.8541755  64.1215523  39.0888834  19.4558039  64.2317794  38.3209654
  19.2392975  64.3297590  39.6715394  19.7040645  64.1689091  39.0620134
  18.4269657  50.7289671  31.9562974  17.8334497  51.0506668  31.4047541
  18.4644935  49.8830767  31.7484080  18.3444046  50.6513999  31.8445745
  21.3027474  50.6869176  35.3864724  21.0741167  50.7101877  34.5443082
  21.5625550  49.8626643  35.5059735  21.3073662  50.5685256  35.2789922
  15.5846702  52.5403649  44.9889824  15.0725605  51.9324832  45.3474856
  15.4126199  53.2560241  45.4563800  15.4836339  52.5566948  45.1106048
  10.4312417  50.9841224  47.6392186  10.2615007  51.6442599  47.0940393
   9.9878367  51.1947785  48.3604675  10.3411751  51.1127206  47.6653816
  14.3572236  49.2245722  36.6818920  14.8329603  49.5862802  36.0469101
  13.8560836  49.8802190  36.9619063  14.3537595  49.3739911  36.6295661
  19.4615773  50.4627893  47.4292080  20.0187203  50.2341703  46.7970545
  19.1376838  51.2233559  47.1527292  19.4962183  50.5411730  47.2948577
   7.3314482  53.8888090  42.8980676   6.7841201  53.2188735  43.0161544
   8.1206860  53.5217937  42.9624143   7.3666665  53.7353076  42.9249377
  17.1798890  53.5495547  48.3944087  17.9310217  53.8647223  48.7083641
  17.3721466  53.3474718  47.5678009  17.3190304  53.5662928  48.3187483
  16.3998890  51.3686922  30.0492304  16.7797854  51.3866551  29.2643419
  15.6591486  51.8140911  29.9283151  16.3467727  51.4368696  29.9155872
   6.0901451  53.1008897  40.0526699   5.9123212  52.6485506  40.7781615
   5.8020473  53.9035059  40.2365177   6.0214404  53.1531455  40.1870202
  21.7525032  54.3566615  39.2904089  22.2478697  53.6389610  39.2508110
  20.9424808  54.0537412  39.1758576  21.7068925  54.2064261  39.2677815
  17.1983644  58.2064428  31.4401094  16.3894966  57.8831102  31.3934403
  17.7058553  57.4997650  31.3729342  17.1533310  58.0545744  31.4231388
   7.8273921  55.6336621  37.1648458   6.9619440  55.6222312  37.0531229
   7.9272737  55.4466844  38.0119597   7.7148088  55.6042682  37.2737402
  23.8176851  57.1070302  41.9781218  24.2431923  56.5844724  41.4251643
  23.4533771  57.7051140  41.4569841  23.8263454  57.1180529  41.8190228
  13.4530931  65.4034520  40.7378564  13.7677490  66.2170908  40.7456345
  13.8624344  65.0184738  41.4060723  13.5599029  65.4663222  40.8382655
  20.4055450  60.8204567  38.3082376  20.8766629  61.5344829  38.4772361
  20.7415629  60.2203317  38.8442245  20.5250566  60.8376031  38.4114751
  22.4932435  62.4305880  50.4874448  22.6029401  61.6414440  50.8431195
  22.8223332  62.3411816  49.6848786  22.5584841  62.3011733  50.4216838
  17.3224945  45.5932037  45.2640470  17.4552851  44.7963031  45.5921446
  17.7070098  46.1198440  45.8438746  17.3981274  45.5531954  45.3983973
  21.0429397  60.6122501  45.0710068  20.4950343  59.9880384  44.8030133
  21.5042426  60.8016773  44.3554148  21.0296606  60.5481551  44.9260499
  20.3957301  42.5162363  41.8621564  19.5903264  42.4060093  42.1789402
  20.2664036  42.6174819  41.0051429  20.2577433  42.5146033  41.7829604
  23.8523261  48.6807855  42.4561260  23.2686250  49.1817062  42.0438828
  24.1727555  48.1737411  41.8225584  23.8136437  48.6799690  42.3019768
  16.3918060  47.5948450  32.7319935  17.2133755  47.7646763  32.4901630
  15.9287711  47.7495711  32.0086233  16.4449223  47.6430183  32.5891580
  14.9813392  45.5891212  43.5118364  15.5257805  45.2482339  44.1022706
  15.0350328  46.4476674  43.6539649  15.0702512  45.6646472  43.6200237
  10.7943951  59.3507628  40.3857172  11.3988808  59.3103462  39.7570993
  10.5871264  60.1978780  40.4161228  10.8532848  59.4695631  40.2973289
  20.6087723  61.6173573  41.6019409  21.4286097  61.4736539  41.8635705
  20.3281801  62.2419772  42.1435847  20.6884466  61.6883925  41.7207349
   6.0295233  58.3342246  40.2556095   5.9319511  57.5238517  40.5646152
   6.8124103  58.3134039  39.8702363   6.1311370  58.2109336  40.2442958
  37.0801374  69.2738425  34.5662286  37.0495378  70.1283062  34.7380555
  37.6782722  68.9733718  35.1248429  37.1638531  69.3554922  34.6737088
  30.2801058  68.3614076  39.3215216  29.4238954  68.5222574  39.3724333
  30.3268712  67.4906140  39.3420277  30.1600170  68.2564878  39.3321282
  33.5894775  74.6300602  48.9275672  34.2961542  74.1352632  49.0562607
  33.7782710  75.0709683  48.1978330  33.7222681  74.6218952  48.8384718
  33.1252879  70.4206120  41.9646868  33.6708839  71.0991207  42.0240837
  33.0669756  70.2793581  41.1048449  33.1968794  70.4998122  41.8458928
  34.9017948  71.8490727  32.8380596  34.7857474  72.5998413  33.2672734
  35.6973835  71.5914680  33.0876683  35.0022537  71.9225574  32.9384687
  21.7382086  66.1001203  39.8751862  21.1187118  65.5093851  39.7061876
  21.6365950  66.6912638  39.2416185  21.6319761  66.1005286  39.7556851
  26.7848274  75.8384750  34.1249938  27.1064115  76.3789957  33.5211246
  27.4320370  75.2681522  34.2572228  26.9274329  75.8343925  34.0556973
  28.8349982  67.8400745  34.2084325  29.5330146  68.0188873  34.7005788
  29.1502314  67.3171084  33.5854714  28.9845319  67.7894517  34.1886335
  21.4651219  69.6453485  42.1195431  21.3409916  70.2315930  42.7545249
  22.1169504  69.1513681  42.4207706  21.5424868  69.6592289  42.2581360
  29.0237917  74.2271190  34.1964116  29.4631552  73.6188291  34.6418889
  28.8742580  73.8478563  33.4249581  29.0659383  74.0809661  34.1483284
  26.4909560  72.8215202  41.3982942  27.1358563  72.3287645  41.0793890
  26.7311337  72.9639989  42.2249020  26.6220145  72.7692644  41.4732475
  29.0295651  75.6670108  41.0489834  29.3118894  74.8721514  40.8276590
  29.7581812  76.1450695  41.0694895  29.1785215  75.6204705  41.0192849
  27.0076845  63.2093142  38.2905599  26.6780175  63.6604285  37.6209298
  26.3321847  63.1309305  38.8378606  26.8587282  63.2644277  38.2728823
  32.6247254  72.5798371  31.1494885  32.5398549  73.4359338  31.2944454
  33.1131637  72.3042695  31.8177045  32.6836151  72.6655693  31.2696967
  33.5565687  69.1983166  32.6492621  33.0277158  69.4142799  33.3089927
  34.0790707  69.8919304  32.5693590  33.5554140  69.3326302  32.7348220
  39.0113740  74.7729470  38.0225665  38.1811443  74.9840114  38.1859082
  38.9622992  73.9466525  37.7467949  38.8820475  74.6819076  38.0063030
  25.4465295  73.0946382  31.4500089  24.8622510  73.5996414  31.8565952
  25.0435390  72.8688769  30.7096680  25.3004598  73.1354631  31.4005114
  30.7287069  78.0528138  46.8189748  30.8170415  77.8654279  47.6667958
  31.1576782  77.4065568  46.4194594  30.8049172  77.9291146  46.8861499
  29.9042509  69.3412034  29.9269009  30.1438513  69.5490018  29.1144352
  30.2258350  68.5369543  30.0357954  29.9879667  69.2526136  29.8229562
  25.2132799  61.2705430  33.7728547  25.9678767  61.6383747  33.5345597
  25.0360334  61.6444985  34.5407727  25.2987278  61.3803618  33.8513436
  24.9032427  69.5632906  47.5324455  25.0752931  69.4538801  48.3809736
  25.4401785  70.2087312  47.2955647  25.0077431  69.6424908  47.6229552
  23.5689864  63.6775749  30.4706660  23.3865437  63.8947630  29.6447653
  24.4315477  63.7914762  30.5265274  23.6694453  63.7265647  30.3561147
  33.2297884  71.6155547  37.4087978  33.9855399  72.0487062  37.4476887
  33.3360208  70.9660317  37.9822614  33.3568054  71.5833031  37.4986003
  36.2678055  75.4428824  38.1590381  35.8313287  75.4465567  38.9149352
  35.9340970  76.1234323  37.7269958  36.1540675  75.5441280  38.2071213
  30.8407129  77.4837157  49.4833531  31.6247545  77.5968005  49.8489273
  30.6403723  76.6578294  49.6792217  30.9273154  77.3783877  49.5667917
  19.2094144  72.1564837  42.3677375  18.9432559  71.3403954  42.5268365
  19.2232708  72.2017993  41.4972891  19.1718866  72.0421742  42.2630857
  36.1875538  62.4842652  40.4019809  36.8301446  62.5540757  40.9881724
  36.4398559  61.8171875  39.8999351  36.3197670  62.3969001  40.4147088
  23.1151891  66.9549922  28.9829133  22.4010068  66.6688101  29.3951566
  23.5995860  67.2946548  29.6235521  23.0811254  66.9631571  29.1384768
  23.9592750  65.6943216  45.0144383  23.2664547  65.2240195  45.2605114
  24.5753078  65.4681520  45.5886090  23.9477280  65.5910347  45.1353535
  39.4022401  72.1609744  37.0510018  40.0638835  71.6000413  36.9505927
  38.7613813  71.6661775  37.3762709  39.4051269  72.0046153  37.0842358
  30.2899209  75.4579876  29.3590941  30.7050357  75.1264900  28.6675437
  29.4591138  75.2248778  29.2311078  30.2287218  75.3751132  29.2381789
  19.6187558  72.9423617  39.6489119  19.4363131  72.9170503  38.7961411
  20.3537227  73.4122555  39.6878028  19.7001622  73.0084979  39.5287038
  35.6887232  73.1775127  36.7922007  35.9242821  73.3220326  35.9648857
  35.8376795  73.9417535  37.1853520  35.7453035  73.3114181  36.7285611
  22.6833309  69.6608620  46.1571228  23.4073282  69.6461650  46.6436123
  22.7849446  70.3703975  45.6593196  22.8051518  69.7633323  46.1550015
  37.5177689  72.0176793  34.6291611  37.8485906  72.5504433  34.0231705
  38.0910777  72.0715680  35.2853562  37.6511368  72.1046361  34.6369392
  30.0578259  73.1407704  51.0220175  29.2651239  73.4551216  51.2072795
  30.1727186  73.3559173  50.1840960  29.9573669  73.2191541  50.9258510
  32.7309578  69.8641695  35.3115191  32.8256432  70.6030989  35.7654816
  32.1068421  69.4359171  35.7449755  32.6518608  69.9103016  35.4423338
  30.9862052  73.0427908  45.9605472  31.5600913  72.4055152  46.1154036
  30.9076855  73.0431990  45.0915129  31.0595286  72.9493019  45.8551883
  19.5858468  69.8217117  39.7988186  20.1631971  69.6853568  40.4380431
  18.8872530  69.3652902  40.0533770  19.5679489  69.7339384  39.9310476
  32.9832599  71.7090435  28.5452143  32.9012762  71.7792622  29.4107130
  33.6212319  72.2720179  28.3535883  33.0652436  71.8029406  28.6442092
  26.3425770  71.4751173  38.0126669  26.0845014  70.6422908  37.9857969
  26.3974253  71.7008786  37.1719169  26.3125548  71.3848944  37.8846806
  31.4226820  63.5779624  38.1130762  30.7183147  63.0888809  38.2714681
  31.4711795  63.5902098  37.2419206  31.3256872  63.5069272  38.0070102
  25.3160482  69.0288936  38.4991564  24.7410074  69.1881104  39.1355525
  24.9396159  68.3924345  38.0360014  25.1763295  68.9586748  38.5246122
  28.9833771  67.5012285  43.3583942  28.5948204  67.0766503  42.7036133
  28.3188469  67.7494434  43.8660969  28.8280699  67.4751006  43.3371810
  38.6257040  67.2587290  36.1331772  38.3693605  66.4467231  35.9429655
  39.4686354  67.2664857  35.9061960  38.7123065  67.1399287  36.0716589
  15.0617301  68.6729010  36.5136004  15.1477553  68.2960879  37.2949534
  15.6893099  68.2989456  36.0355963  15.1673852  68.5614492  36.5581482
  32.8060132  61.1986914  40.8707926  33.1870644  60.5165085  41.2575801
  32.0023417  60.9096516  40.6883591  32.7436594  61.0553962  40.9011982
  30.0872709  71.7310889  31.5560749  30.9013348  72.0225782  31.4443521
  30.0231850  71.0770752  30.9819042  30.1975448  71.6776084  31.4549587
  36.3082199  74.4136886  45.9690325  36.0720837  73.5824950  45.8502385
  36.9525428  74.3622493  46.5545169  36.3676870  74.2834574  46.0376218
  25.9580617  75.2032407  36.6833061  26.5954564  74.9644154  37.2284855
  26.3835689  75.4069566  35.9486222  26.1156784  75.1983417  36.6550219
  26.5983432  70.4234697  31.0207951  26.9828585  70.2042403  31.7724496
  26.3495053  71.2497642  31.1509027  26.6185505  70.5132843  31.1509027
  26.7651973  63.7041112  50.7370535  26.4505414  64.4740675  50.4740098
  26.4441905  63.1411368  50.1522762  26.6710892  63.7351381  50.6111885
  37.3318620  74.1981334  42.0318619  37.0264437  74.9309391  42.3931935
  36.6124836  73.7919264  41.7511405  37.1805962  74.2463067  42.0431756
  28.3402089  75.6804830  38.3626848  28.4141098  75.5180001  39.2168697
  29.1571596  75.8695019  38.1187329  28.4718448  75.6841572  38.4524873
  43.0320412  70.8374335  41.3586964  42.9644912  70.8570294  40.4889550
  43.0176075  71.6804662  41.5842634  43.0199169  70.9648070  41.2639440
  24.3183870  62.0931633  36.3516731  23.4506295  62.1654233  36.4174340
  24.6059074  62.8953712  36.5404706  24.2323618  62.2225780  36.3891498
  33.4416759  62.2409493  44.6828053  34.1870351  62.0519303  44.2691478
  33.0254063  62.7667731  44.1241909  33.4901733  62.2911638  44.5392626
  40.8179029  69.6118721  39.6333558  41.3686951  68.9786790  39.8730650
  40.8023145  70.1434114  40.3249062  40.8964226  69.5967669  39.7712416
  27.4701420  73.4457318  44.1793451  26.9713114  74.1573086  44.2578340
  28.2801645  73.7657985  44.1411614  27.5157527  73.5984167  44.1850020
  23.7329538  72.7080271  38.4256172  23.4442787  72.0817743  38.9601900
  24.6012886  72.6500559  38.4920853  23.8189790  72.6067816  38.5147127
  34.5207436  67.8515055  38.7438154  34.1772202  67.1305390  39.0945404
  34.6200478  67.6428906  37.9016512  34.4849479  67.7139258  38.6709834
  23.9361811  74.3475523  34.3498537  24.6907779  74.7288562  34.5634000
  23.3432424  74.7986666  34.8045234  23.9598525  74.4704350  34.4481416
  34.9820465  74.3140759  34.2862142  35.5478497  74.9733969  34.2020685
  34.3348368  74.6590457  34.7578544  34.9699221  74.4622700  34.3434899
  26.3968478  66.3038363  49.4755750  25.5868254  66.6096143  49.3645592
  26.8743165  67.0243945  49.5908334  26.3471957  66.4552964  49.4762821
  25.2560038  75.5184084  39.7238653  24.7340791  75.6584376  40.4090517
  25.6434058  74.7594748  39.9140770  25.2363739  75.4269608  39.8539729
  22.2451222  65.5689893  33.7933607  21.9576018  65.1991163  33.0565555
  22.9321690  66.0384748  33.5317312  22.3040119  65.5836862  33.6448683
  31.4527043  77.2579543  33.7099222  31.2113719  76.5247404  33.3026286
  31.6328376  77.8066400  33.0565555  31.4434667  77.2301934  33.5529444
  26.6826363  72.5488103  35.1220144  26.4869146  73.1562837  34.5280447
  26.9060709  71.8556047  34.6411818  26.6861005  72.5365628  34.9636225
  25.0804893  69.4342841  35.2401012  25.8027545  69.5983999  34.7804818
  24.6012886  70.1552506  35.1340352  25.1168624  69.5641070  35.1566626
  33.0398401  65.7706640  40.6197697  32.2009502  65.7967919  40.3835960
  33.1102768  66.4177375  41.2003044  32.9266795  65.8702765  40.6706814
  22.7312510  71.8400913  44.3455152  23.2433607  72.1185167  43.6963912
  22.4448853  72.5790207  44.7117965  22.7647373  71.9903267  44.3045030
  36.9155925  70.9774626  37.9058939  36.8289899  71.1330052  38.7593718
  36.4606405  71.6212702  37.5318344  36.8359182  71.0950382  37.9766046
  19.8179417  66.3471105  34.6418889  19.9195553  67.1497267  34.9699864
  20.6135303  66.1458441  34.3441969  19.9507322  66.4357004  34.6454244
  26.2496236  63.9327302  44.4056194  26.0579433  63.9482436  45.2555617
  27.0994832  64.1290976  44.3822848  26.3471958  63.9641653  44.5279488
  20.6343149  66.4618283  42.3840010  20.4928640  65.6102224  42.5084518
  20.9183712  66.5046944  41.5602216  20.6550995  66.3418033  42.2807634
  30.7881741  68.2985374  36.5284498  30.5416455  68.2181124  37.3621287
  31.1166864  67.5138841  36.3347026  30.8002985  68.1711639  36.6232021
  34.6829790  75.0068733  40.3171280  34.5444149  75.7049779  40.8220022
  33.9029788  74.8517389  39.9607461  34.5473017  75.0868900  40.3397554
  33.0207875  71.3065108  46.5693661  33.0155913  70.4344925  46.5736088
  33.7268869  71.5053277  46.0963117  33.1252879  71.2068982  46.5000697
  26.7478768  71.0342092  45.9407481  26.8922144  71.6143300  45.3050591
  27.0954417  71.4118389  46.6457336  26.8206230  71.1762796  45.9506476
  28.9198686  70.2332260  43.7232613  28.1722000  70.4263275  43.3180891
  29.0740211  69.4077480  43.4856734  28.8321113  70.1397372  43.6278019
  36.1783163  74.3646987  31.0787779  35.7989971  73.5784125  31.0717068
  35.5149408  74.9133844  30.9359423  36.0241637  74.3291811  31.0568576
  29.1600463  64.1282811  44.6128017  29.6173077  64.8606786  44.7400809
  29.2356791  63.7049276  45.3715273  29.2391432  64.1740049  44.7429093
  21.4033454  64.3748631  45.7017460  20.8675643  63.7628989  46.0178228
  21.4651219  64.9496767  46.3551127  21.3329087  64.3695559  45.8452887
  33.6327789  57.3072686  38.4821860  33.7511357  57.7649150  37.7489162
  33.4589964  56.5017948  38.1958077  33.6246960  57.2566459  38.3322793
  27.0382841  66.1184915  41.4569841  26.2478915  65.9376375  41.7787177
  27.4343463  65.3411868  41.4400135  26.9799717  65.9772376  41.5022389
  31.5248731  74.9472689  26.8976554  32.2921716  75.0072814  26.4882406
  31.0780040  74.3753131  26.4132873  31.5722159  74.8709265  26.7654265
  32.4226527  73.7527345  39.1829287  31.7471529  73.5212578  39.6842674
  32.4318903  73.1448528  38.5571392  32.3245031  73.6286270  39.1645439
  29.5520671  68.5945174  45.9393340  29.4879812  69.4555131  45.8113476
  29.6917859  68.2777167  45.1388891  29.5636141  68.6745341  45.8021553
  34.4243261  76.6092478  31.4139465  34.5063099  77.4159464  31.0900916
  34.9093004  76.6288437  32.1380238  34.5080419  76.7313140  31.4726363
  28.2339765  71.2877314  40.0809543  27.8102014  71.4881813  39.3448561
  28.0584620  70.4406162  40.1933842  28.1450645  71.1926095  39.9883233
  23.5222210  71.7829365  35.5137515  23.6786829  71.7176168  36.3693507
  23.8622803  72.5577918  35.3016195  23.5955445  71.8878563  35.6092109
  30.0601354  71.1587249  34.3830878  30.6016900  70.6557630  34.8469499
  30.3747913  71.1052443  33.5720364  30.1865751  71.0766670  34.3314690
  33.9318462  75.3689896  51.4957791  34.7453327  75.0975045  51.6562923
  33.7713428  75.0697436  50.6917986  34.0288410  75.2844822  51.4003196
  28.2287804  76.5504600  31.6670906  28.2980624  75.6919139  31.8063907
  29.0076259  76.7676481  31.3389931  28.3540654  76.4557464  31.6388064
  31.2090624  66.0523553  44.4353179  31.4232593  65.4134467  43.8816533
  30.5924523  66.4969377  44.0061041  31.1495953  66.0233697  44.2903610
  20.0956471  68.9664315  35.8298282  20.4755436  69.3848860  35.1658550
  19.5211836  69.5477771  36.1367126  20.0667796  69.1142174  35.7775023
  33.3729712  67.6612618  45.3736486  32.5606393  67.3538509  45.4549659
  33.8319646  67.1811618  45.9379198  33.3210096  67.5449111  45.4691080
  32.7834966  75.5392290  35.8213430  32.4249621  75.7106933  36.5977463
  32.2973677  76.0005496  35.2641429  32.6593663  75.6331261  35.8538699
  27.5723332  71.2191456  28.3613665  27.8615857  71.9956338  28.6357239
  27.6595131  70.7080187  29.0628164  27.6277588  71.2583374  28.5056162
  30.4683219  69.0672690  50.1565188  30.9382850  69.6914806  50.5433062
  30.5145099  68.3989665  50.7158403  30.5451095  69.0607370  50.2965260
  27.6254493  61.1729717  40.8813992  27.1092981  60.4809909  41.0065571
  27.0648422  61.8400494  40.8276591  27.4661006  61.1692975  40.8920058
  29.6946726  61.7122677  42.7106845  29.3078479  61.7371709  43.4920374
  29.2079664  61.1464356  42.2581361  29.5659235  61.6318428  42.7594748
  33.9439706  76.4296186  46.7680631  34.5819426  75.9356382  46.4343087
  33.3013797  76.3573587  46.1832858  33.9433932  76.3455195  46.6322986
  35.6696706  68.2785332  41.3346547  35.2424314  68.1911681  40.5794646
  35.0322759  68.3863108  41.9201391  35.5126313  68.2817992  41.3091988
  29.3603868  58.5989663  45.0017104  29.9896986  59.1349963  44.7238175
  29.5289731  58.5067022  45.8530670  29.4781663  58.6651025  45.0865633
  29.1617783  63.3860857  47.2743516  29.9891212  63.1146006  47.3302131
  29.1825629  64.1821699  47.6307334  29.2870633  63.4640612  47.3358699
  33.9993962  77.1215995  43.4085988  34.7886340  76.7705059  43.5288070
  34.1737560  77.9352383  43.1462622  34.1414244  77.1901852  43.3873856
  23.7387273  70.5324720  40.4613777  22.8975279  70.4328594  40.6692671
  23.9477281  71.3020201  40.8128097  23.6451965  70.6316764  40.5441092
  21.2162840  68.1544257  38.2898527  20.8219537  68.2287269  37.5148637
  20.6602957  68.5402204  38.8406889  21.0765652  68.2226032  38.2566187
  27.5503938  68.4606119  39.7111374  27.2467075  67.9062108  40.3121782
  26.8483358  68.6398329  39.2239408  27.4020147  68.4050902  39.7281080
  26.6070035  65.7706639  34.2756076  26.8829769  65.0525552  33.8633644
  27.2068704  66.3691559  34.0677182  26.7363299  65.7527010  34.1836837
  23.6296081  72.9268483  41.8805410  23.0384014  73.5677981  41.8508425
  24.3917104  73.3506100  41.8536709  23.6544341  73.0844321  41.8720557
  24.0256703  64.0870480  42.5473427  24.4858185  64.1609410  43.2848551
  24.0712810  64.8851734  42.1973249  24.1007259  64.2164627  42.6046184
  25.6740053  64.7537175  47.1145454  25.2825618  64.1070522  47.5501232
  25.8425916  65.3448610  47.7339710  25.6410963  64.7451443  47.2708160
  39.7486502  72.7574252  42.8782688  39.8069626  73.2060901  43.6242664
  39.1152970  73.1673065  42.4412768  39.6637797  72.8847987  42.9235236
  33.3885597  78.3777794  39.3137434  33.1905285  78.8668609  38.6193645
  32.7673308  78.5819036  39.8921567  33.2673161  78.4794332  39.2960657
  27.4493575  70.1462691  33.6547678  28.1935620  70.5336967  33.8930628
  27.5954271  69.3020116  33.8188166  27.5804160  70.0793164  33.7141648
  29.3673151  61.9412950  38.6879540  28.5209196  62.1135758  38.5620890
  29.3644283  61.1362294  39.0245368  29.2420301  61.8473979  38.7190667
  30.4371451  65.7188164  39.5541598  29.9631405  65.1929926  40.0646909
  30.8089587  65.1717637  38.9856459  30.4221340  65.5604161  39.5456745
  20.8144481  67.7159671  44.9225143  21.6770094  67.6155380  44.8362473
  20.4836264  67.1354380  44.3610716  20.8929678  67.6151298  44.8270549
  36.7008182  70.7790540  40.9648378  36.4606405  69.9396955  40.9690805
  37.1800189  70.8590707  41.6889152  36.7360365  70.6671940  41.0723181
  32.3654951  66.6124719  32.6167351  31.8377969  66.6953463  31.9273060
  32.8250659  67.3542590  32.6131996  32.3556801  66.7345381  32.5142047
  38.7013369  67.5591997  38.9177637  38.4623139  67.5187831  38.0798422
  38.8647270  68.4063149  39.0443358  38.6903672  67.6784082  38.8131119
  35.3059399  71.9441946  44.8482682  36.0293598  71.4914473  44.6693702
  35.0409361  72.2246612  44.0655010  35.3740672  71.9192915  44.7061398
  24.1746267  66.5402120  41.5835562  23.5499337  66.5520512  40.9761514
  23.8391862  67.0162295  42.2326802  24.0331759  66.6120637  41.5892130
  24.3588016  64.8827238  27.6408247  24.0100820  65.5346964  28.1039796
  23.8784462  64.8684351  26.9132118  24.2358260  64.9770292  27.6019338
  20.8871943  74.6002580  43.0239326  20.3571867  73.9095019  43.0734301
  21.1597036  74.5912765  42.1952034  20.8496665  74.4969712  42.9086742
  31.9192033  75.1828282  31.7477009  32.6426232  75.6486395  31.6041582
  31.4792624  75.2501892  30.9974606  31.9607725  75.2612119  31.6161790
  31.0878188  72.0425825  42.9977698  30.4735181  71.4983875  43.2926333
  31.6045473  71.5290061  42.5183514  31.0733851  71.8862234  42.9701926
  23.4437013  68.1495268  43.8010430  23.6030499  67.3938592  44.2062152
  23.2629906  68.6986207  44.4551168  23.4402372  68.1189082  43.9573136
  31.3857316  60.3156503  44.3561220  30.8897877  60.5120178  43.6652786
  32.1426378  60.7149172  44.1850021  31.4244140  60.4034237  44.2281356
  28.6560195  63.9898849  40.9464530  28.6802682  63.4558962  40.2577310
  28.9071669  63.4816158  41.6090121  28.6970114  63.8359753  40.9429175
  16.1667785  71.2730344  40.3807674  16.0611234  71.2277189  39.5159758
  15.4168005  71.6184125  40.6621959  16.0403388  71.3171252  40.2945004
  24.9361517  62.7169667  40.3270274  24.9759889  63.2178874  41.0404982
  24.1111182  62.8080061  40.0576198  24.8201043  62.8051484  40.3920813
  27.1191130  72.2830407  48.4290569  26.2686761  72.4202122  48.5648214
  27.2819258  71.5494186  48.8738271  27.0174994  72.1944509  48.5146168
  26.3575881  69.2330177  42.6244173  25.5267810  69.4003995  42.4179422
  26.3027398  68.8566128  43.4093059  26.2265296  69.2019909  42.7092702
  24.1659664  62.7239070  48.2600584  24.7912367  62.1801203  48.5330016
  23.7110144  62.2433988  47.6908375  24.1907925  62.5728552  48.2162178
  24.7311925  67.5085769  33.1534291  24.8714886  68.0058233  33.8562933
  25.2294457  66.8072063  33.2948505  24.8253005  67.4787748  33.2785870
  24.7612147  68.3752880  30.4826868  25.3957226  68.9713305  30.4176330
  24.8437758  68.0756337  31.2972738  24.8668698  68.4193788  30.5929955
  37.7394713  70.9068357  43.3513232  38.3312553  71.5465608  43.3831430
  38.1753707  70.2091394  43.6405299  37.8913144  70.8986708  43.3994065
  26.3391130  64.3066855  30.4572310  26.6606971  63.8269938  29.8031572
  26.6018074  65.1166501  30.2663122  26.4257155  64.3556753  30.3327802
  29.5688103  75.3285730  43.9771126  29.0613194  75.8821576  44.4211757
  29.2714749  75.3894020  43.1589901  29.4492988  75.4192041  43.9219583
  31.7350285  63.6939049  42.8195789  32.1605356  63.2411576  42.2079315
  31.1207278  63.1399120  43.0960577  31.7078930  63.5453025  42.7700814
  21.2665135  70.5720721  33.7516414  21.7757364  71.1685228  34.1327720
  21.7399407  70.3046694  33.0692834  21.4108511  70.6206536  33.7070937
  34.7643854  68.1213576  35.6516375  34.0935044  68.6643278  35.5229440
  35.4583604  68.5908431  35.4098070  34.7672722  68.2711847  35.5971902
  34.9271982  64.5769459  38.5606748  35.2799592  64.1499182  39.2352547
  34.0686783  64.4920303  38.6907824  34.8521426  64.5014200  38.6801758
  23.6255667  67.2076979  36.6189594  22.9067656  67.6241112  36.8862458
  23.9968029  67.7731218  36.0681233  23.5747598  67.3526261  36.5772401
  32.9255247  67.8404828  42.5091590  32.9053175  67.6588123  43.3626369
  32.9734448  68.7116847  42.4851174  32.9289888  67.9421366  42.6314885
  30.8701577  74.4292020  48.4340067  30.8297432  73.7841697  47.8485223
  31.6824896  74.3728637  48.7465479  30.9844731  74.3250987  48.3937016
  29.4002241  66.2474979  31.9562974  28.8067080  66.5691976  31.4047541
  29.4377519  65.4016074  31.7484080  29.3176630  66.1699307  31.8445745
  36.3596042  59.6987871  39.4891060  35.8526906  58.9917011  39.4212238
  37.1563475  59.3681060  39.6192137  36.4023281  59.5461023  39.4990055
  32.2760058  66.2054484  35.3864724  32.0473751  66.2287185  34.5443082
  32.5358134  65.3811951  35.5059735  32.2806246  66.0870564  35.2789922
  26.5579286  68.0588957  44.9889824  26.0458189  67.4510140  45.3474856
  26.3858782  68.7745549  45.4563800  26.4568923  68.0752256  45.1106048
  21.4045001  66.5026532  47.6392186  21.2347591  67.1627907  47.0940393
  20.9610951  66.7133093  48.3604675  21.3144334  66.6312514  47.6653816
  25.3304820  64.7431030  36.6818920  25.8062186  65.1048110  36.0469101
  24.8293420  65.3987497  36.9619063  25.3270179  64.8925219  36.6295661
  38.5616182  74.2152798  32.4731925  38.9449787  74.9644154  32.7030022
  37.7660295  74.4618618  32.2143914  38.5009964  74.3622492  32.4689498
  30.4348356  65.9813201  47.4292080  30.9919786  65.7527011  46.7970545
  30.1109421  66.7418867  47.1527292  30.4694766  66.0597038  47.2948577
  18.3047065  69.4073398  42.8980676  17.7573785  68.7374043  43.0161544
  19.0939443  69.0403245  42.9624143  18.3399249  69.2538384  42.9249377
  28.1531474  69.0680855  48.3944087  28.9042801  69.3832531  48.7083641
  28.3454050  68.8660025  47.5678009  28.2922888  69.0848236  48.3187483
  27.3731473  66.8872230  30.0492304  27.7530438  66.9051859  29.2643419
  26.6324069  67.3326219  29.9283151  27.3200311  66.9554004  29.9155872
  35.0016764  65.1954421  35.6367882  35.0010990  65.0403077  36.4952159
  34.7972944  66.0417408  35.5809268  34.9716542  65.2975042  35.7555822
  17.0634035  68.6194205  40.0526699  16.8855796  68.1670814  40.7781615
  16.7753057  69.4220367  40.2365177  16.9946988  68.6716763  40.1870202
  32.7257616  69.8751923  39.2904089  33.2211281  69.1574918  39.2508110
  31.9157391  69.5722720  39.1758576  32.6801509  69.7249569  39.2677815
  28.1716227  73.7249736  31.4401094  27.3627550  73.4016409  31.3934403
  28.6791136  73.0182958  31.3729342  28.1265894  73.5731052  31.4231388
  18.8006505  71.1521929  37.1648458  17.9352024  71.1407620  37.0531229
  18.9005320  70.9652152  38.0119597  18.6880672  71.1227990  37.2737402
  34.7909435  72.6255610  41.9781218  35.2164506  72.1030032  41.4251643
  34.4266354  73.2236448  41.4569841  34.7996037  72.6365837  41.8190228
  31.3788034  76.3389874  38.3082376  31.8499212  77.0530137  38.4772361
  31.7148213  75.7388625  38.8442245  31.4983149  76.3561339  38.4114751
  33.4665019  77.9491188  50.4874448  33.5761984  77.1599748  50.8431195
  33.7955915  77.8597124  49.6848786  33.5317424  77.8197041  50.4216838
  28.2957529  61.1117345  45.2640470  28.4285435  60.3148338  45.5921446
  28.6802682  61.6383748  45.8438746  28.3713858  61.0717262  45.3983973
  32.0161980  76.1307809  45.0710068  31.4682926  75.5065692  44.8030133
  32.4775009  76.3202081  44.3554148  32.0029190  76.0666859  44.9260499
  31.3689884  58.0347671  41.8621564  30.5635848  57.9245401  42.1789402
  31.2396620  58.1360127  41.0051429  31.2310017  58.0331341  41.7829604
  34.8255845  64.1993163  42.4561260  34.2418834  64.7002370  42.0438828
  35.1460139  63.6922719  41.8225584  34.7869020  64.1984998  42.3019768
  27.3650644  63.1133758  32.7319935  28.1866338  63.2832071  32.4901630
  26.9020295  63.2681019  32.0086233  27.4181806  63.1615491  32.5891580
  25.9545976  61.1076520  43.5118364  26.4990389  60.7667647  44.1022706
  26.0082912  61.9661982  43.6539649  26.0435095  61.1831779  43.6200237
  31.5820307  77.1358881  41.6019409  32.4018681  76.9921847  41.8635705
  31.3014384  77.7605080  42.1435847  31.6617050  77.2069233  41.7207349
  37.9809429  78.7278450  38.2905599  37.6512759  79.1789593  37.6209298
  37.3054431  78.6494613  38.8378606  37.8319865  78.7829585  38.2728823
  45.1885837  74.7163973  36.5355210  44.8739278  75.4067451  36.9675632
  44.6712778  74.6608755  35.8340711  45.0650307  74.8098861  36.4952159
  36.1865383  76.7890738  33.7728547  36.9411351  77.1569055  33.5345597
  36.0092917  77.1630292  34.5407727  36.2719861  76.8988926  33.8513436
  49.4800282  82.9385179  41.8176086  48.6428703  83.0087366  42.0523681
  49.4488512  82.9409673  40.9450389  49.3518564  82.9495406  41.7235634
  40.2222167  76.1987468  33.5055684  40.9508327  76.0203423  33.0593840
  40.3117060  77.0405548  33.7162862  40.3428829  76.2971346  33.4709202
  47.1608121  78.0027960  40.4019809  47.8034030  78.0726065  40.9881724
  47.4131142  77.3357183  39.8999351  47.2930253  77.9154309  40.4147088
  42.3959404  79.0964932  38.1130762  41.6915731  78.6074117  38.2714681
  42.4444378  79.1087406  37.2419206  42.2989455  79.0254580  38.0070102
  49.5989624  82.7772597  36.1331772  49.3426188  81.9652539  35.9429655
  50.4418938  82.7850165  35.9061960  49.6855649  82.6584595  36.0716589
  43.7792716  76.7172222  40.8707926  44.1603228  76.0350393  41.2575801
  42.9756000  76.4281824  40.6883591  43.7169178  76.5739270  40.9011982
  37.7384556  79.2226420  50.7370535  37.4237998  79.9925983  50.4740098
  37.4174489  78.6596676  50.1522762  37.6443476  79.2536688  50.6111885
  35.2916453  77.6116941  36.3516731  34.4238879  77.6839541  36.4174340
  35.5791658  78.4139020  36.5404706  35.2056202  77.7411088  36.3891498
  44.4149342  77.7594801  44.6828053  45.1602934  77.5704611  44.2691478
  43.9986647  78.2853039  44.1241909  44.4634316  77.8096946  44.5392626
  44.0130985  81.2891948  40.6197697  43.1742085  81.3153226  40.3835960
  44.0835352  81.9362683  41.2003044  43.8999378  81.3888073  40.6706814
  42.4600263  78.1877325  35.3525313  43.1626616  77.9885073  34.8745271
  42.1944452  77.4153267  35.6594156  42.5246895  78.0440291  35.3270755
  37.2228819  79.4512610  44.4056194  37.0312016  79.4667744  45.2555617
  38.0727415  79.6476284  44.3822848  37.3204541  79.4826961  44.5279488
  40.1333046  79.6468119  44.6128017  40.5905660  80.3792093  44.7400809
  40.2089375  79.2234584  45.3715273  40.2124016  79.6925357  44.7429093
  44.6060372  72.8257994  38.4821860  44.7243940  73.2834458  37.7489162
  44.4322548  72.0203256  38.1958077  44.5979543  72.7751766  38.3322793
  41.5737936  74.6808797  39.4240522  40.7031494  74.6547518  39.3773831
  41.8278277  74.5085989  38.6066367  41.4831496  74.6518940  39.2960658
  38.5987076  76.6915025  40.8813992  38.0825565  75.9995217  41.0065571
  38.0381005  77.3585802  40.8276591  38.4393590  76.6878283  40.8920058
  40.3336452  74.1174971  45.0017104  40.9629570  74.6535271  44.7238175
  40.5022314  74.0252330  45.8530670  40.4514246  74.1836333  45.0865633
  40.1350366  78.9046165  47.2743516  40.9623796  78.6331314  47.3302131
  40.1558213  79.7007007  47.6307334  40.2603217  78.9825920  47.3358699
  43.8260370  76.6510859  37.9702406  44.0309963  76.5833167  38.8159403
  43.4986794  77.4569680  37.9023584  43.8075618  76.7596800  38.0862061
  47.0794058  77.2042623  37.4505172  46.4668371  77.6913026  37.8358904
  47.1758233  76.5286114  37.9942823  47.0031955  77.1760932  37.5884030
  41.0813139  78.9605465  32.5502671  41.5356885  79.1316025  33.2750516
  41.5553185  78.3473575  32.1500447  41.2181459  78.8956350  32.5976433
  40.3405734  77.4598258  38.6879540  39.4941779  77.6321066  38.5620890
  40.3376867  76.6547602  39.0245368  40.2152884  77.3659287  38.7190667
  41.4104035  81.2373472  39.5541598  40.9363989  80.7115234  40.0646909
  41.7822170  80.6902945  38.9856459  41.3953924  81.0789469  39.5456745
  49.6745952  83.0777305  38.9177637  49.4355722  83.0373139  38.0798422
  49.8379853  83.9248457  39.0443358  49.6636256  83.1969390  38.8131119
  42.3589899  75.8341811  44.3561220  41.8630460  76.0305485  43.6652786
  43.1158961  76.2334480  44.1850021  42.3976724  75.9219545  44.2281356
  39.6292779  79.5084157  40.9464530  39.6535266  78.9744269  40.2577310
  39.8804252  79.0001466  41.6090121  39.6702697  79.3545061  40.9429175
  35.9094101  78.2354975  40.3270274  35.9492473  78.7364182  41.0404982
  35.0843766  78.3265369  40.0576198  35.7933627  78.3236792  40.3920813
  35.1392248  78.2424378  48.2600584  35.7644951  77.6986511  48.5330016
  34.6842728  77.7619296  47.6908375  35.1640508  78.0913859  48.2162178
  42.7082868  79.2124357  42.8195789  43.1337940  78.7596884  42.2079315
  42.0939861  78.6584428  43.0960577  42.6811514  79.0638333  42.7700814
  41.1477091  75.6839457  36.2286366  40.5045409  75.5337103  36.7971505
  40.8076498  75.4381802  35.4635471  41.0022169  75.6251579  36.1989381
  45.9004565  80.0954767  38.5606748  46.2532175  79.6684490  39.2352547
  45.0419367  80.0105611  38.6907824  45.8254010  80.0199508  38.6801758
  47.3328625  75.2173179  39.4891060  46.8259490  74.5102319  39.4212238
  48.1296059  74.8866368  39.6192137  47.3755864  75.0646331  39.4990055
  43.2492641  81.7239792  35.3864724  43.0206334  81.7472493  34.5443082
  43.5090717  80.8997259  35.5059735  43.2538829  81.6055871  35.2789922
  45.9749347  80.7139729  35.6367882  45.9743574  80.5588385  36.4952159
  45.7705527  81.5602716  35.5809268  45.9449125  80.8160350  35.7555822
  39.2690113  76.6302653  45.2640470  39.4018018  75.8333646  45.5921446
  39.6535265  77.1569056  45.8438746  39.3446441  76.5902570  45.3983973
  42.3422468  73.5532979  41.8621564  41.5368431  73.4430709  42.1789402
  42.2129203  73.6545435  41.0051429  42.2042601  73.5516649  41.7829604
  45.7988428  79.7178471  42.4561260  45.2151417  80.2187677  42.0438828
  46.1192722  79.2108027  41.8225584  45.7601604  79.7170306  42.3019768
  38.3383227  78.6319066  32.7319935  39.1598922  78.8017379  32.4901630
  37.8752878  78.7866327  32.0086233  38.3914390  78.6800799  32.5891580
  36.9278559  76.6261828  43.5118364  37.4722972  76.2852955  44.1022706
  36.9815495  77.4847290  43.6539649  37.0167679  76.7017087  43.6200237
  14.8287030  15.1745940  21.5002333  14.7981035  16.0290577  21.6720602
  15.4268379  14.8741233  22.0588476  14.9124188  15.2562437  21.6077135
   8.0286715  14.2621591  26.2555263   7.1724611  14.4230090  26.3064380
   8.0754369  13.3913655  26.2760324   7.9085827  14.1572393  26.2661329
   2.4127855  23.7984309  22.0192495   1.6610754  23.4199848  21.7908540
   2.8613867  23.8302743  21.2711305   2.3677522  23.7469916  21.8749997
  11.3380432  20.5308117  35.8615719  12.0447199  20.0360148  35.9902654
  11.5268367  20.9717199  35.1318377  11.4708337  20.5226467  35.7724765
   7.8652815  24.2209679  17.4478042   7.5304183  24.8986600  17.0122264
   8.3779685  23.8314990  16.8594913   7.8918396  24.2634257  17.2964833
   7.4057106  26.1723947  23.3889153   7.7896485  26.7410846  22.8493928
   7.3416247  25.4473458  22.9094969   7.4530533  26.1499411  23.2383016
  10.8738536  16.3213635  28.8986915  11.4194496  16.9998722  28.9580884
  10.8155412  16.1801096  28.0388496  10.9454451  16.4005637  28.7798975
   3.9912611  23.8102701  24.2855267   4.0922974  23.0003055  24.5952395
   3.3954356  23.7159648  23.6554946   3.9185150  23.6767730  24.2381505
  12.6503605  17.7498242  19.7720642  12.5343131  18.5005928  20.2012781
  13.4459491  17.4922196  20.0216729  12.7508194  17.8233089  19.8724734
   3.8313351  28.7280291  25.6870123   4.4750806  29.1693455  26.0766281
   4.1569606  27.9233717  25.6000382   3.9745179  28.6745485  25.7315600
   4.5333930  21.7392265  21.0589985   4.8549771  22.2797473  20.4551293
   5.1806027  21.1689037  21.1912275   4.6759986  21.7351441  20.9897020
   6.5835638  13.7408260  21.1424372   7.2815803  13.9196388  21.6345835
   6.8987971  13.2178600  20.5194761   6.7330976  13.6902032  21.1226382
   6.7723574  20.1278705  21.1304163   7.2117209  19.5195806  21.5758936
   6.6228237  19.7486079  20.3589628   6.8145039  19.9817177  21.0823330
   4.2395217  18.7222717  28.3322988   4.8844219  18.2295160  28.0133937
   4.4796994  18.8647504  29.1589067   4.3705802  18.6700159  28.4072522
   6.7781308  21.5677623  27.9829881   7.0604551  20.7729029  27.7616637
   7.5067469  22.0458211  28.0034942   6.9270872  21.5212220  27.9532896
  10.3732910  18.4805887  18.0834932  10.2884205  19.3366853  18.2284501
  10.8617294  18.2050211  18.7517091  10.4321808  18.5663208  18.2037014
  11.3051344  15.0990681  19.5832667  10.7762815  15.3150314  20.2429974
  11.8276363  15.7926819  19.5033637  11.3039797  15.2333818  19.6688267
  16.7599396  20.6736985  24.9565712  15.9297100  20.8847629  25.1199128
  16.7108649  19.8474040  24.6807995  16.6306132  20.5826592  24.9403077
   4.8209134  23.5040839  27.7913621   4.3036076  23.1448254  27.1874929
   5.5183525  22.9803014  27.8019687   4.8474715  23.3738527  27.7043880
   8.4772726  23.9535654  33.7529794   8.5656072  23.7661794  34.6008005
   8.9062439  23.3073083  33.3534641   8.5534828  23.8298661  33.8201546
   6.0443186  23.2366814  32.7347457   5.4814021  22.8239423  33.2587118
   6.8064209  23.1619719  33.1540600   6.0737634  23.1644214  32.8740457
   1.6039177  25.2264835  25.3384087   2.3059757  24.7116824  25.3956843
   1.5236660  25.5538986  26.1430962   1.6962938  25.1979061  25.4656879
  16.2553355  13.3207386  28.7516133  15.4181776  13.3909573  28.9863728
  16.2241586  13.3231881  27.8790436  16.1271637  13.3317613  28.6575681
   2.6518084  15.4640422  34.4664502   2.8238588  15.3546316  35.3149783
   3.1887441  16.1094827  34.2295694   2.7563088  15.5432423  34.5569599
   0.9289953  21.4171187  24.8469695   1.7678852  21.6494119  24.8943456
   0.9601722  20.5475498  24.7776730   1.0571670  21.3228133  24.8434339
   1.5542656  21.8372062  29.1483000   2.0940881  21.6943193  29.8186373
   0.8712602  22.2368813  29.5167027   1.5334810  21.8751733  29.3017422
  10.9783541  17.5163062  24.3428025  11.7341056  17.9494577  24.3816933
  11.0845865  16.8667832  24.9162661  11.1053711  17.4840546  24.4326050
  14.0163712  21.3436340  25.0930428  13.5798944  21.3473082  25.8489399
  13.6826627  22.0241839  24.6610005  13.9026332  21.4448796  25.1411260
   8.5892785  23.3844673  36.4173578   9.3733202  23.4975520  36.7829320
   8.3889380  22.5585810  36.6132264   8.6758811  23.2791392  36.5007964
  13.9361195   8.3850168  27.3359856  14.5787103   8.4548272  27.9221771
  14.1884215   7.7179390  26.8339397  14.0683327   8.2976516  27.3487135
   8.7463179  25.2954775  30.0640034   7.9478424  25.0554275  30.3213902
   9.1949190  25.3469168  30.8107081   8.6937790  25.2677166  30.2124958
  17.1508058  18.0617260  23.9850065  17.8124492  17.5007928  23.8845973
  16.5099470  17.5669290  24.3102756  17.1536925  17.9053669  24.0182405
   8.0384866  21.3587391  16.2930988   8.4536014  21.0272415  15.6015484
   7.2076795  21.1256293  16.1651125   7.9772874  21.2758647  16.1721836
  13.4372889  19.0782642  23.7262054  13.6728478  19.2227841  22.8988904
  13.5862452  19.8425050  24.1193567  13.4938692  19.2121696  23.6625657
   0.4318966  15.5616135  33.0911275   1.1558938  15.5469166  33.5776169
   0.5335103  16.2711490  32.5933243   0.5537175  15.6640838  33.0890062
  15.2663345  17.9184308  21.5631657  15.5971562  18.4511948  20.9571752
  15.8396433  17.9723196  22.2193608  15.3997024  18.0053877  21.5709439
   7.8063915  19.0415220  37.9560222   7.0136896  19.3558731  38.1412841
   7.9212843  19.2566688  37.1181006   7.7059326  19.1199056  37.8598556
  10.4795234  15.7649211  22.2455238  10.5742089  16.5038505  22.6994863
   9.8554078  15.3366686  22.6789802  10.4004265  15.8110531  22.3763385
   8.7347708  18.9435423  32.8945518   9.3086570  18.3062667  33.0494082
   8.6562512  18.9439506  32.0255176   8.8080943  18.8500535  32.7891929
   4.0911427  17.3758688  24.9466716   3.8330671  16.5430423  24.9198015
   4.1459910  17.6016301  24.1059216   4.0611205  17.2856460  24.8186853
   9.1712477   9.4787139  25.0470809   8.4668804   8.9896325  25.2054728
   9.2197451   9.4909614  24.1759253   9.0742529   9.4076787  24.9410148
   3.0646139  14.9296451  25.4331611   2.4895730  15.0888619  26.0695572
   2.6881815  14.2931860  24.9700061   2.9248951  14.8594264  25.4586169
   6.7319428  13.4019800  30.2923989   6.3433860  12.9774018  29.6376180
   6.0674126  13.6501950  30.8001016   6.5766355  13.3758521  30.2711857
  16.3742697  13.1594805  23.0671819  16.1179262  12.3474746  22.8769702
  17.2172011  13.1672372  22.8402006  16.4608722  13.0406802  23.0056636
  10.5545789   7.0994429  27.8047973  10.9356301   6.4172600  28.1915847
   9.7509074   6.8104031  27.6223638  10.4922251   6.9561477  27.8352029
   7.8358366  17.6318405  18.4900796   8.6499005  17.9233298  18.3783567
   7.7717507  16.9778267  17.9159089   7.9461105  17.5783599  18.3889633
  14.0567856  20.3144401  32.9030372  13.8206494  19.4832466  32.7842432
  14.7011085  20.2630008  33.4885216  14.1162527  20.1842089  32.9716265
   3.7066274  21.1039922  23.6173108   4.3440221  20.8651670  24.1624901
   4.1321346  21.3077081  22.8826269   3.8642440  21.0990932  23.5890265
  15.0804277  20.0988850  28.9658666  14.7750094  20.8316906  29.3271982
  14.3610492  19.6926779  28.6851452  14.9291619  20.1470583  28.9771803
   6.0887746  21.5812345  25.2966894   6.1626754  21.4187517  26.1508744
   6.9057253  21.7702534  25.0527376   6.2204105  21.5849087  25.3864920
  20.7806069  16.7381850  28.2927010  20.7130569  16.7577809  27.4229597
  20.7661731  17.5812178  28.5182681  20.7684825  16.8655585  28.1979487
  11.1902415   8.1417008  31.6168100  11.9356007   7.9526818  31.2031525
  10.7739720   8.6675246  31.0581956  11.2387390   8.1919153  31.4732673
   4.6292332  24.5447088  20.0280368   4.9190630  24.1536069  19.3039594
   5.3595813  24.7263793  20.4685643   4.7799216  24.5140902  19.9863175
  18.5664686  15.5126237  26.5673605  19.1172608  14.8794306  26.8070697
  18.5508802  16.0441629  27.2589109  18.6449883  15.4975185  26.7052463
   5.2187077  19.3464834  31.1133498   4.7198771  20.0580602  31.1918387
   6.0287301  19.6665500  31.0751661   5.2643184  19.4991682  31.1190067
   2.5698247  26.5214470  23.0940517   2.3498543  26.2311825  23.8867184
   2.3492770  25.8629425  22.5658430   2.5045842  26.3814179  23.1329426
   1.4815195  18.6087787  25.3596219   1.1928443  17.9825258  25.8941946
   2.3498543  18.5508074  25.4260900   1.5675447  18.5075331  25.4487174
  12.2693092  13.7522570  25.6778201  11.9257858  13.0312905  26.0285451
  12.3686135  13.5436421  24.8356559  12.2335135  13.6146773  25.6049881
   4.7366203  27.8943860  21.8771210   5.3890261  27.3620303  22.1062236
   4.0391812  27.5412513  22.2639084   4.7296921  27.7633383  21.9683378
   1.6847468  20.2483038  21.2838584   2.4393436  20.6296077  21.4974047
   1.0918081  20.6994182  21.7385281   1.7084182  20.3711865  21.3821463
  12.7306122  20.2148274  21.2202189  13.2964154  20.8741484  21.1360732
  12.0834025  20.5597972  21.6918591  12.7184878  20.3630216  21.2774946
   4.1454135  12.2045878  36.4095797   3.3353911  12.5103658  36.2985639
   4.6228822  12.9251461  36.5248381   4.0957614  12.3560479  36.4102868
   3.0045695  21.4191599  26.6578700   2.4826448  21.5591891  27.3430564
   3.3919715  20.6602264  26.8480817   2.9849396  21.3277123  26.7879776
   9.2012700  23.1587058  20.6439268   8.9599376  22.4254919  20.2366333
   9.3814033  23.7073915  19.9905602   9.1920324  23.1309450  20.4869491
   4.4312020  18.4495618  22.0560191   4.2354803  19.0570353  21.4620494
   4.6546366  17.7563562  21.5751865   4.4346661  18.4373144  21.8976271
   2.8290550  15.3350356  22.1741059   3.5513202  15.4991514  21.7144865
   2.3498543  16.0560021  22.0680399   2.8654281  15.4648586  22.0906673
  10.7884058  11.6714155  27.5537744   9.9495158  11.6975434  27.3176007
  10.8588425  12.3184890  28.1343091  10.6752451  11.7710281  27.6046861
   9.2353336   8.5699532  22.2865360   9.9379689   8.3707280  21.8085318
   8.9697525   7.7975474  22.5934203   9.2999968   8.4262498  22.2610801
  14.6641582  16.8782142  24.8398986  14.5775556  17.0337568  25.6933765
  14.2092062  17.5220217  24.4658391  14.5844838  16.9957897  24.9106092
   3.9981892   9.8334817  31.3396240   3.8065089   9.8489952  32.1895664
   4.8480488  10.0298491  31.3162895   4.0957614   9.8649168  31.4619535
   8.5367398  14.1992889  23.4624545   8.2902112  14.1188640  24.2961334
   8.8652521  13.4146357  23.2687073   8.5488641  14.0719154  23.5572068
  12.4315447  20.9076248  27.2511326  12.2929806  21.6057294  27.7560069
  11.6515444  20.7524905  26.8947508  12.2958673  20.9876415  27.2737601
  10.7693532  17.2072624  33.5033708  10.7641570  16.3352440  33.5076135
  11.4754526  17.4060793  33.0303164  10.8738536  17.1076498  33.4340743
   4.4964425  16.9349607  32.8747528   4.6407801  17.5150816  32.2390638
   4.8440074  17.3125904  33.5797383   4.5691886  17.0770311  32.8846523
   6.6684342  16.1339776  30.6572660   5.9207656  16.3270790  30.2520938
   6.8225868  15.3084995  30.4196781   6.5806770  16.0404887  30.5618066
   3.5692180  25.1252379  29.7408555   3.7181744  24.5655295  29.0881960
   4.3492182  25.2044381  30.1241074   3.7066274  25.0537945  29.7005504
  13.9268819  20.2654502  18.0127826  13.5475628  19.4791640  18.0057115
  13.2635065  20.8141359  17.8699470  13.7727294  20.2299326  17.9908623
   6.0945481  25.2967022  31.0193046   6.0189152  24.6275833  31.5743834
   6.0235340  25.9984810  31.5333712   6.0726088  25.3011929  31.1769894
   6.9086119  10.0290326  31.5468064   7.3658734  10.7614301  31.6740856
   6.9842448   9.6056792  32.3055319   6.9877089  10.0747565  31.6769140
   6.7515728  23.8168021  21.8516652   7.5165619  23.5477665  21.5299316
   6.6493818  23.3318031  22.5686715   6.8497223  23.7057586  21.9096479
   4.7868497  12.0192430  28.3909888   3.9964572  11.8383891  28.7127223
   5.1829120  11.2419383  28.3740182   4.7285374  11.8779891  28.4362436
  10.1712184  19.6534861  26.1169334   9.4957185  19.4220093  26.6182721
  10.1804560  19.0456044  25.4911439  10.0730688  19.5293786  26.0985486
   7.3006328  14.4952690  32.8733387   7.2365469  15.3562646  32.7453523
   7.4403515  14.1784683  32.0728938   7.3121798  14.5752856  32.7361599
  12.1728918  22.5099993  18.3479511  12.2548756  23.3166979  18.0240962
  12.6578660  22.5295952  19.0720285  12.2566076  22.6320655  18.4066410
   5.9825422  17.1884829  27.0149589   5.5587671  17.3889328  26.2788608
   5.8070277  16.3413677  27.1273889   5.8936302  17.0933610  26.9223280
   5.4837115  28.7035342  29.4771047   5.9733045  28.0046131  29.2946711
   4.9121347  28.4059212  30.0647104   5.4721645  28.5561566  29.5372087
   1.2707866  17.6836880  22.4477562   1.4272486  17.6183683  23.3033554
   1.6108460  18.4585433  22.2356242   1.3441101  17.7886078  22.5432156
   7.8087011  17.0594764  21.3170925   8.3502557  16.5565145  21.7809546
   8.1233570  17.0059959  20.5060410   7.9351408  16.9774185  21.2654737
  11.6804119  21.2697411  38.4297837  12.4938984  20.9982560  38.5902970
  11.5199085  20.9704951  37.6258033  11.7774067  21.1852337  38.3343243
   5.9773461  22.4512115  18.6010953   6.0466281  21.5926654  18.7403954
   6.7561916  22.6683996  18.2729978   6.1026311  22.3564979  18.5728110
   8.9576280  11.9531068  31.3693226   9.1718250  11.3141983  30.8156580
   8.3410180  12.3976892  30.9401087   8.8981610  11.9241212  31.2243657
  10.3680948  24.8749817  22.8147447   9.9760740  24.5716532  22.0970313
  10.5234021  25.7118907  22.6252400  10.3334538  24.9533653  22.6803944
  11.1215368  13.5620134  32.3076533  10.3092050  13.2546024  32.3889705
  11.5805303  13.0819134  32.8719245  11.0695753  13.4456626  32.4031127
  10.5320623  21.4399806  22.7553477  10.1735278  21.6114448  23.5317509
  10.0459334  21.9013011  22.1981476  10.4079320  21.5338777  22.7878746
   8.2168876  14.9680205  37.0905235   8.6868507  15.5922321  37.4773109
   8.2630756  14.2997181  37.6498450   8.2936752  14.9614885  37.2305306
  11.6925363  22.3303702  33.7020678  12.3305083  21.8363897  33.3683134
  11.0499454  22.2581102  33.1172905  11.6919589  22.2462710  33.5663033
  13.4182363  14.1792847  28.2686594  12.9909971  14.0919196  27.5134693
  12.7808416  14.2870623  28.8541438  13.2611970  14.1825507  28.2432035
   6.9103440   9.2868373  34.2083563   7.7376869   9.0153522  34.2642177
   6.9311286  10.0829214  34.5647381   7.0356290   9.3648127  34.2698746
  11.7479619  23.0223510  30.3426035  12.5371997  22.6712575  30.4628116
  11.9223217  23.8359898  30.0802669  11.8899901  23.0909367  30.3213903
   1.4872930  16.4332236  27.3953824   0.6460936  16.3336110  27.6032717
   1.6962937  17.2027716  27.7468144   1.3937622  16.5324279  27.4781138
  10.6013443   7.0333066  24.9042453  10.8063037   6.9655374  25.7499450
  10.2739867   7.8391888  24.8363631  10.5828691   7.1419007  25.0202108
   5.2989594  14.3613635  26.6451421   4.9952732  13.8069623  27.2461829
   4.5969015  14.5405845  26.1579455   5.1505804  14.3058417  26.6621127
   3.3607945  21.5763355  31.3523519   3.2528300  21.5865418  32.2185577
   3.5703727  22.4018136  31.1628473   3.3758056  21.7004430  31.4527610
  13.8547131   7.5864831  24.3845219  13.2421445   8.0735233  24.7698950
  13.9511306   6.9108322  24.9282870  13.7785029   7.5583139  24.5224077
   1.3781737  18.8275998  28.8145456   0.7869671  19.4685496  28.7848472
   2.1402761  19.2513615  28.7876756   1.4029998  18.9851836  28.8060604
   3.4225710  10.6544690  34.0485501   3.0311275  10.0078038  34.4841279
   3.5911573  11.2456126  34.6679757   3.3896620  10.6458958  34.2048207
  17.4972159  18.6581768  29.8122735  17.5555283  19.1068416  30.5582711
  16.8638627  19.0680580  29.3752815  17.4123454  18.7855502  29.8575283
  11.1371254  24.2785309  26.2477481  10.9390942  24.7676124  25.5533692
  10.5158965  24.4826551  26.8261614  11.0158818  24.3801848  26.2300704
   5.1979232  16.0470206  20.5887725   5.9421277  16.4344483  20.8270675
   5.3439928  15.2027632  20.7528213   5.3289817  15.9800679  20.6481695
  14.4493838  16.6798055  27.8988425  14.2092061  15.8404470  27.9030851
  14.9285846  16.7598222  28.6229198  14.4846022  16.5679455  28.0063227
  16.4499025  13.4599512  25.8517684  16.2108795  13.4195347  25.0138469
  16.6132927  14.3070664  25.9783405  16.4389329  13.5791597  25.7471166
  13.0545056  17.8449462  31.7822729  13.7779254  17.3921988  31.6033749
  12.7895018  18.1254127  30.9995057  13.1226329  17.8200430  31.6401445
   1.9231924  12.4409635  28.5175608   1.2984994  12.4528027  27.9101561
   1.5877519  12.9169810  29.1666849   1.7817416  12.5128152  28.5232177
   9.6677690  21.0835798  18.6817055  10.3911889  21.5493911  18.5381629
   9.2278281  21.1509407  17.9314652   9.7093382  21.1619634  18.5501837
   8.8363845  17.9433340  29.9317744   8.2220838  17.3991390  30.2266380
   9.3531130  17.4297576  29.4523560   8.8219507  17.7869749  29.9041973
   8.0760142  19.0137610  27.6662043   7.6487750  18.3887329  27.2327478
   8.0685087  18.7312532  28.4921050   8.0119283  18.8790391  27.7241871
   1.1922669  14.0502783  30.7350477   1.3516156  13.2946107  31.1402199
   1.0115563  14.5993723  31.3891215   1.1888028  14.0196597  30.8913183
   9.1342972   6.2164019  31.2901266   8.6383534   6.4127693  30.5992833
   9.8912034   6.6156687  31.1190068   9.1729797   6.3041752  31.1621403
   6.4045852   9.8906365  27.8804577   6.4288339   9.3566477  27.1917357
   6.6557326   9.3823673  28.5430168   6.4455771   9.7367268  27.8769222
   4.8676787  18.1837923  35.3630616   4.0172418  18.3209637  35.4988261
   5.0304915  17.4501701  35.8078318   4.7660651  18.0952024  35.4486215
   4.1061538  15.1337693  29.5584220   3.2753467  15.3011511  29.3519468
   4.0513055  14.7573643  30.3433106   3.9750952  15.1027424  29.6432748
  15.4880370  16.8075873  30.2853279  16.0798210  17.4473123  30.3171477
  15.9239364  16.1098909  30.5745346  15.6398801  16.7994223  30.3334112
   7.3173759  21.2293245  30.9111173   6.8098850  21.7829092  31.3551803
   7.0200406  21.2901535  30.0929947   7.1978644  21.3199556  30.8559630
   9.4835942   9.5946565  29.7535836   9.9091013   9.1419091  29.1419362
   8.8692935   9.0406635  30.0300623   9.4564587   9.4460541  29.7040861
   9.9281540  25.1456503  18.8415116   9.2110849  24.9717365  18.3762354
  10.5788277  24.9109075  18.3090602   9.9183390  25.0852295  18.6944334
  12.5129511  14.0221091  22.5856421  11.8420701  14.5650793  22.4569487
  13.2069261  14.4915947  22.3438116  12.5158378  14.1719362  22.5311949
   6.5616245  26.1617803  27.8168180   6.3381899  25.4036632  28.1852206
   6.0726088  26.1915824  27.0948619   6.4559694  26.0540028  27.7644921
  12.6757638  10.4776975  25.4946795  13.0285248  10.0506698  26.1692593
  11.8172440  10.3927818  25.6247871  12.6007083  10.4021715  25.6141805
   1.3741323  13.1084495  23.5529641   0.6553312  13.5248627  23.8202505
   1.7453686  13.6738733  23.0021279   1.3233255  13.2533776  23.5112448
  10.6740904  13.7412343  29.4431637  10.6538831  13.5595639  30.2966416
  10.7220105  14.6124362  29.4191221  10.6775545  13.8428882  29.5654932
   8.6187234  20.3299535  35.3680114   8.5783089  19.6849212  34.7825269
   9.4310552  20.2736153  35.6805526   8.7330388  20.2258502  35.3277063
   5.2094702  26.3818261  25.2705264   4.7955100  25.7192392  24.8809106
   5.8942076  26.5296120  24.7500959   5.2493073  26.3058919  25.1361762
   8.5759996  25.5408347  26.0228881   8.1776279  25.6510617  25.2549701
   7.9611215  25.7490413  26.6055441   8.4258885  25.5881915  25.9960180
  14.1081698   5.5995387  26.4231107  13.6012563   4.8924526  26.3552285
  14.9049132   5.2688575  26.5532184  14.1508938   5.4468538  26.4330102
  10.0245714  12.1061999  22.3204771   9.7959407  12.1294700  21.4783129
  10.2843791  11.2819466  22.4399781  10.0291902  11.9878079  22.2129969
   4.3064943  13.9596472  31.9229871   3.7943846  13.3517655  32.2814903
   4.1344439  14.6753064  32.3903847   4.2054580  13.9759771  32.0446095
   3.0790477  10.6438545  23.6158967   3.5547843  11.0055625  22.9809148
   2.5779076  11.2995013  23.8959109   3.0755836  10.7932734  23.5635708
  16.3101838  20.1160313  19.4071972  16.6935444  20.8651669  19.6370069
  15.5145952  20.3626133  19.1483961  16.2495621  20.2630007  19.4029545
   8.1834013  11.8820717  34.3632127   8.7405443  11.6534526  33.7310592
   7.8595078  12.6426382  34.0867339   8.2180423  11.9604553  34.2288624
   5.9017130  14.9688370  35.3284134   6.6528457  15.2840047  35.6423688
   6.0939707  14.7667541  34.5018056   6.0408545  14.9855752  35.2527530
  12.7502421  11.0961936  22.5707929  12.7496647  10.9410593  23.4292206
  12.5458601  11.9424923  22.5149315  12.7202198  11.1982557  22.6895869
  10.4743273  15.7759438  26.2244136  10.9696938  15.0582433  26.1848156
   9.6643048  15.4730236  26.1098623  10.4287166  15.6257084  26.2017862
   5.9201884  19.6257251  18.3741141   5.1113207  19.3023925  18.3274450
   6.4276793  18.9190473  18.3069389   5.8751551  19.4738568  18.3571435
  12.5395091  18.5263125  28.9121265  12.9650163  18.0037547  28.3591690
  12.1752011  19.1243963  28.3909888  12.5481694  18.5373353  28.7530275
   2.1749171  26.8227343  27.6718610   2.4895730  27.6363731  27.6796392
   2.5842585  26.4377562  28.3400770   2.2817269  26.8856045  27.7722702
   9.1273691  22.2397390  25.2422422   9.5984869  22.9537652  25.4112408
   9.4633869  21.6396140  25.7782292   9.2468806  22.2568854  25.3454798
  11.2150675  23.8498703  37.4214494  11.3247641  23.0607264  37.7771242
  11.5441572  23.7604639  36.6188833  11.2803081  23.7204556  37.3556885
   9.7647637  22.0315324  32.0050115   9.2168583  21.4073208  31.7370180
  10.2260666  22.2209596  31.2894194   9.7514847  21.9674374  31.8600546
  12.5741502  10.1000678  29.3901307  11.9904490  10.6009885  28.9778875
  12.8945796   9.5930235  28.7565631  12.5354677  10.0992513  29.2359815
   9.3305963  23.0366397  28.5359456  10.1504337  22.8929363  28.7975751
   9.0500041  23.6612595  29.0775894   9.4102707  23.1076749  28.6547396
  19.0019299  29.7806899  26.2555263  18.1457194  29.9415398  26.3064380
  19.0486952  28.9098963  26.2760324  18.8818410  29.6757701  26.2661329
  13.3860438  39.3169617  22.0192495  12.6343338  38.9385156  21.7908540
  13.8346450  39.3488051  21.2711305  13.3410105  39.2655224  21.8749997
  18.8385398  39.7394987  17.4478042  18.5036767  40.4171908  17.0122264
  19.3512269  39.3500298  16.8594913  18.8650979  39.7819565  17.2964833
  18.3789690  41.6909255  23.3889153  18.7629069  42.2596154  22.8493928
  18.3148831  40.9658766  22.9094969  18.4263117  41.6684719  23.2383016
  14.9645195  39.3288009  24.2855267  15.0655558  38.5188363  24.5952395
  14.3686940  39.2344956  23.6554946  14.8917733  39.1953037  24.2381505
  23.6236188  33.2683550  19.7720642  23.5075714  34.0191236  20.2012781
  24.4192075  33.0107504  20.0216729  23.7240778  33.3418397  19.8724734
   8.1610239  35.3508296  23.9107601   7.9260423  34.5175948  23.8039870
   8.2995880  35.6312962  23.0968802   8.1465901  35.2691799  23.7749956
  10.4600326  27.5194027  26.8091908   9.8405358  26.9286674  26.6401923
  10.3584190  28.1105462  26.1756232  10.3538002  27.5198109  26.6896898
  15.5066514  37.2577573  21.0589985  15.8282355  37.7982781  20.4551293
  16.1538610  36.6874345  21.1912275  15.6492569  37.2536749  20.9897020
  17.5568222  29.2593568  21.1424372  18.2548387  29.4381696  21.6345835
  17.8720554  28.7363908  20.5194761  17.7063559  29.2087340  21.1226382
  10.1869459  31.0646308  29.0535477  10.0628156  31.6508754  29.6885296
  10.8387744  30.5706504  29.3547752  10.2643109  31.0785113  29.1921407
  17.7456157  35.6464013  21.1304163  18.1849793  35.0381114  21.5758936
  17.5960820  35.2671387  20.3589628  17.7877623  35.5002484  21.0823330
  15.2127800  34.2408025  28.3322988  15.8576803  33.7480468  28.0133937
  15.4529577  34.3832812  29.1589067  15.3438385  34.1885467  28.4072522
  17.7513892  37.0862931  27.9829881  18.0337135  36.2914337  27.7616637
  18.4800052  37.5643518  28.0034942  17.9003455  37.0397528  27.9532896
  15.7295086  24.6285965  25.2245646  15.3998416  25.0797109  24.5549345
  15.0540087  24.5502128  25.7718653  15.5805522  24.6837100  25.2068869
  21.3465494  33.9991195  18.0834932  21.2616789  34.8552161  18.2284501
  21.8349877  33.7235519  18.7517091  21.4054391  34.0848516  18.2037014
  22.9371493  20.6171488  23.4695257  22.6224934  21.3074966  23.9015679
  22.4198435  20.5616270  22.7680757  22.8135964  20.7106376  23.4292206
  22.2783927  30.6175989  19.5832667  21.7495399  30.8335622  20.2429974
  22.8008947  31.3112127  19.5033637  22.2772380  30.7519126  19.6688267
  14.1683535  34.5139206  18.3840135  13.5840750  35.0189237  18.7905999
  13.7653630  34.2881592  17.6436727  14.0222839  34.5547454  18.3345161
   9.7227564  40.2293967  25.1863807   9.2395142  40.9544456  25.1623390
  10.5350882  40.5270097  25.2973965   9.7718311  40.3796320  25.1991086
  15.7941718  39.0226147  27.7913621  15.2768659  38.6633562  27.1874929
  16.4916109  38.4988322  27.8019687  15.8207299  38.8923835  27.7043880
  18.6260749  30.7604858  16.8609056  18.8656753  30.9682841  16.0484399
  18.9476590  29.9562366  16.9698000  18.7097907  30.6718959  16.7569609
  13.9351040  22.6898253  20.7068594  14.6897008  23.0576570  20.4685644
  13.7578574  23.0637808  21.4747773  14.0205518  22.7996441  20.7853482
  12.5771761  40.7450143  25.3384087  13.2792340  40.2302132  25.3956843
  12.4969244  41.0724294  26.1430962  12.6695521  40.7164369  25.4656879
  13.6250667  30.9825730  34.4664502  13.7971171  30.8731624  35.3149783
  14.1620025  31.6280135  34.2295694  13.7295671  31.0617731  34.5569599
  12.2908104  25.0968572  17.4046707  12.1083677  25.3140453  16.5787700
  13.1533717  25.2107585  17.4605321  12.3912694  25.1458470  17.2901194
  11.9022536  36.9356495  24.8469695  12.7411436  37.1679427  24.8943456
  11.9334305  36.0660806  24.7776730  12.0304254  36.8413441  24.8434339
  12.5275239  37.3557370  29.1483000  13.0673464  37.2128501  29.8186373
  11.8445186  37.7554121  29.5167027  12.5067393  37.3937041  29.3017422
  17.9707823  22.0994983  20.4395731  18.6993984  21.9210938  19.9933887
  18.0602716  22.9413063  20.6502909  18.0914486  22.1978861  20.4049248
   7.9312384  33.5757661  29.3017422   7.6650800  32.7596777  29.4608412
   7.9450948  33.6210816  28.4312937   7.8937107  33.4614565  29.1970904
  11.8370131  28.3742745  15.9169180  11.1228308  28.0880925  16.3291612
  12.3214100  28.7139371  16.5575567  11.8029495  28.3824395  16.0724815
  12.6810991  27.1136039  31.9484430  11.9882787  26.6433019  32.1945161
  13.2971318  26.8874343  32.5226137  12.6695521  27.0103171  32.0693582
  19.0117449  36.8772699  16.2930988  19.4268598  36.5457723  15.6015484
  18.1809379  36.6441601  16.1651125  18.9505458  36.7943955  16.1721836
   8.3405798  34.3616440  26.5829166   8.1581371  34.3363326  25.7301458
   9.0755467  34.8315378  26.6218075   8.4219862  34.4277802  26.4627085
  24.4105472  34.5967950  23.7262054  24.6461061  34.7413149  22.8988904
  24.5595036  35.3610358  24.1193567  24.4671275  34.7307004  23.6625657
  11.4051550  31.0801443  33.0911275  12.1291522  31.0654474  33.5776169
  11.5067686  31.7896798  32.5933243  11.5269759  31.1826146  33.0890062
  26.2395929  33.4369616  21.5631657  26.5704146  33.9697256  20.9571752
  26.8129017  33.4908504  22.2193608  26.3729608  33.5239185  21.5709439
  18.7796499  34.5600527  37.9560222  17.9869480  34.8744039  38.1412841
  18.8945426  34.7751996  37.1181006  18.6791910  34.6384364  37.8598556
  21.4527818  31.2834519  22.2455238  21.5474672  32.0223813  22.6994863
  20.8286662  30.8551994  22.6789802  21.3736848  31.3295839  22.3763385
   8.3076708  31.2409941  26.7328233   8.8850211  31.1046391  27.3720478
   7.6090770  30.7845725  26.9873817   8.2897730  31.1532207  26.8650522
  21.7050839  33.1283258  15.4792190  21.6231002  33.1985446  16.3447177
  22.3430560  33.6913002  15.2875930  21.7870677  33.2222229  15.5782139
  15.0644010  32.8943996  24.9466716  14.8063255  32.0615731  24.9198015
  15.1192493  33.1201609  24.1059216  15.0343788  32.8041768  24.8186853
  20.1445061  24.9972447  25.0470809  19.4401387  24.5081633  25.2054728
  20.1930035  25.0094921  24.1759253  20.0475112  24.9262095  24.9410148
  14.0378723  30.4481759  25.4331611  13.4628314  30.6073927  26.0695572
  13.6614399  29.8117168  24.9700061  13.8981535  30.3779572  25.4586169
  17.7052011  28.9205108  30.2923989  17.3166444  28.4959326  29.6376180
  17.0406710  29.1687258  30.8001016  17.5498939  28.8943829  30.2711857
   3.7835542  30.0921834  23.4476051   3.8695793  29.7153702  24.2289581
   4.4111339  29.7182279  22.9696009   3.8892093  29.9807316  23.4921529
  18.8090950  33.1503713  18.4900796  19.6231588  33.4418605  18.3783567
  18.7450091  32.4963575  17.9159089  18.9193689  33.0968907  18.3889633
  14.6798858  36.6225230  23.6173108  15.3172805  36.3836978  24.1624901
  15.1053929  36.8262389  22.8826269  14.8375024  36.6176240  23.5890265
   9.3711500  38.8613567  27.5007412   9.4115645  39.1328418  26.6727191
   9.9306024  39.3855475  27.9165200   9.4594846  38.9789322  27.4399300
  15.3201673  31.8427520  17.9547997  15.7046826  31.6235227  18.7064543
  15.0713293  32.6690465  18.0849074  15.3403745  31.9325666  18.0849074
  15.4870213  25.1233935  37.6710582  15.1723654  25.8933498  37.4080144
  15.1660146  24.5604191  37.0862809  15.3929132  25.1544204  37.5451932
  17.0620330  37.0997653  25.2966894  17.1359338  36.9372825  26.1508744
  17.8789836  37.2887842  25.0527376  17.1936688  37.1034395  25.3864920
  10.8226086  37.4455516  22.3261338   9.9964204  37.6917253  22.1995617
  10.8838078  37.3667596  23.1923396  10.7100253  37.4700465  22.4350282
  13.0402110  23.5124457  23.2856778  12.1724536  23.5847056  23.3514387
  13.3277315  24.3146536  23.4744753  12.9541858  23.6418604  23.3231545
  15.6024915  40.0632396  20.0280368  15.8923214  39.6721377  19.3039594
  16.3328396  40.2449101  20.4685643  15.7531800  40.0326210  19.9863175
  16.1919661  34.8650142  31.1133498  15.6931354  35.5765909  31.1918387
  17.0019885  35.1850808  31.0751661  16.2375767  35.0176990  31.1190067
  13.5430831  42.0399778  23.0940517  13.3231126  41.7497133  23.8867184
  13.3225353  41.3814733  22.5658430  13.4778425  41.8999487  23.1329426
  12.4547778  34.1273095  25.3596219  12.1661027  33.5010566  25.8941946
  13.3231126  34.0693382  25.4260900  12.5408030  34.0260639  25.4487174
  15.7098787  43.4129168  21.8771210  16.3622845  42.8805610  22.1062236
  15.0124395  43.0597820  22.2639084  15.7029505  43.2818691  21.9683378
  12.6580052  35.7668346  21.2838584  13.4126020  36.1481385  21.4974047
  12.0650664  36.2179489  21.7385281  12.6816765  35.8897173  21.3821463
  23.7038705  35.7333582  21.2202189  24.2696738  36.3926792  21.1360732
  23.0566609  36.0783280  21.6918591  23.6917462  35.8815524  21.2774946
  15.1186719  27.7231186  36.4095797  14.3086494  28.0288966  36.2985639
  15.5961405  28.4436768  36.5248381  15.0690197  27.8745787  36.4102868
  13.9778278  36.9376907  26.6578700  13.4559032  37.0777199  27.3430564
  14.3652299  36.1787571  26.8480817  13.9581979  36.8462431  26.7879776
  10.9669462  26.9882716  20.7273654  10.6794258  26.6183986  19.9905602
  11.6539931  27.4577571  20.4657359  11.0258360  27.0029685  20.5788730
  20.1745283  38.6772366  20.6439268  19.9331959  37.9440227  20.2366333
  20.3546616  39.2259223  19.9905602  20.1652907  38.6494758  20.4869491
  15.4044604  33.9680926  22.0560191  15.2087386  34.5755661  21.4620494
  15.6278949  33.2748870  21.5751865  15.4079245  33.9558452  21.8976271
  13.8023134  30.8535664  22.1741059  14.5245786  31.0176822  21.7144865
  13.3231127  31.5745329  22.0680399  13.8386865  30.9833894  22.0906673
  11.4530751  33.2593736  31.2795199  11.9651847  33.5377990  30.6303959
  11.1667093  33.9983031  31.6458012  11.4865614  33.4096090  31.2385077
  20.2085920  24.0884840  22.2865360  20.9112273  23.8892588  21.8085318
  19.9430108  23.3160782  22.5934203  20.2732552  23.9447806  22.2610801
   8.5397657  27.7663928  21.5758935   8.6413793  28.5690090  21.9039911
   9.3353544  27.5651264  21.2782016   8.6725563  27.8549827  21.5794291
  14.9714476  25.3520125  31.3396240  14.7797673  25.3675260  32.1895664
  15.8213072  25.5483799  31.3162895  15.0690198  25.3834476  31.4619535
   9.3561389  27.8811107  29.3180057   9.2146881  27.0295047  29.4424565
   9.6401952  27.9239767  28.4942263   9.3769235  27.7610857  29.2147681
  19.5099981  29.7178197  23.4624545  19.2634696  29.6373948  24.2961334
  19.8385104  28.9331665  23.2687073  19.5221225  29.5904462  23.5572068
  15.4697009  32.4534915  32.8747528  15.6140384  33.0336123  32.2390638
  15.8172657  32.8311212  33.5797383  15.5424470  32.5955619  32.8846523
  14.5424764  40.6437687  29.7408555  14.6914327  40.0840603  29.0881960
  15.3224766  40.7229689  30.1241074  14.6798857  40.5723253  29.7005504
  24.9001403  35.7839810  18.0127826  24.5208212  34.9976948  18.0057115
  24.2367648  36.3326667  17.8699470  24.7459878  35.7484634  17.9908623
  17.8818703  25.5475634  31.5468064  18.3391317  26.2799609  31.6740856
  17.9575032  25.1242100  32.3055319  17.9609673  25.5932873  31.6769140
  10.1251694  25.7941454  32.6357507   9.5893884  25.1821812  32.9518275
  10.1869459  26.3689590  33.2891174  10.0547327  25.7888382  32.7792934
  22.3546029  18.7265510  25.4161907  22.4729597  19.1841973  24.6829209
  22.1808205  17.9210771  25.1298124  22.3465200  18.6759282  25.2662840
  17.7248311  39.3353329  21.8516652  18.4898202  39.0662973  21.5299316
  17.6226401  38.8503339  22.5686715  17.8229807  39.2242894  21.9096479
  15.7601081  27.5377738  28.3909888  14.9697156  27.3569198  28.7127223
  16.1561704  26.7604691  28.3740182  15.7017957  27.3965199  28.4362436
  20.2466972  36.3665513  13.8316601  21.0139957  36.4265638  13.4222453
  19.7998281  35.7945954  13.3472920  20.2940399  36.2902088  13.6994312
  21.1444767  35.1720169  26.1169334  20.4689769  34.9405401  26.6182721
  21.1537143  34.5641351  25.4911439  21.0463272  35.0479094  26.0985486
  18.2738911  30.0137997  32.8733387  18.2098052  30.8747954  32.7453523
  18.4136099  29.6969991  32.0728938  18.2854381  30.0938164  32.7361599
  23.1461502  38.0285301  18.3479511  23.2281339  38.8352287  18.0240962
  23.6311244  38.0481260  19.0720285  23.2298660  38.1505963  18.4066410
  16.9558005  32.7070137  27.0149589  16.5320254  32.9074636  26.2788608
  16.7802860  31.8598985  27.1273889  16.8668886  32.6118918  26.9223280
  16.4569699  44.2220650  29.4771047  16.9465629  43.5231439  29.2946711
  15.8853931  43.9244520  30.0647104  16.4454228  44.0746873  29.5372087
  12.2440450  33.2022188  22.4477562  12.4005069  33.1368991  23.3033554
  12.5841043  33.9770741  22.2356242  12.3173685  33.3071386  22.5432156
  18.7819595  32.5780072  21.3170925  19.3235140  32.0750453  21.7809546
  19.0966154  32.5245267  20.5060410  18.9083992  32.4959493  21.2654737
  16.9506044  37.9697423  18.6010953  17.0198865  37.1111962  18.7403954
  17.7294500  38.1869304  18.2729978  17.0758894  37.8750287  18.5728110
  21.3413532  40.3935125  22.8147447  20.9493324  40.0901840  22.0970313
  21.4966604  41.2304215  22.6252400  21.3067122  40.4718961  22.6803944
   8.8174712  30.3857139  22.7638329   9.1973676  30.8041684  22.0998596
   8.2430076  30.9670594  23.0707172   8.7886036  30.5334998  22.7115070
  21.5053207  36.9585114  22.7553477  21.1467861  37.1299756  23.5317509
  21.0191918  37.4198319  22.1981476  21.3811904  37.0524085  22.7878746
  19.3223593  20.5816312  26.3580568  18.4517151  20.5555033  26.3113878
  19.5763934  20.4093504  25.5406414  19.2317153  20.5526456  26.2300705
  16.2941572  32.6384279  15.2953711  16.5834097  33.4149161  15.5697286
  16.3813371  32.1273010  15.9968211  16.3495828  32.6776197  15.4396209
  16.3472733  22.5922540  27.8154039  15.8311222  21.9002732  27.9405618
  15.7866662  23.2593317  27.7616638  16.1879246  22.5885798  27.8260105
  18.4164967  23.1315500  29.6446891  18.0296720  23.1564532  30.4260421
  17.9297904  22.5657179  29.1921408  18.2877476  23.0511251  29.6934795
  18.0822108  20.0182486  31.9357151  18.7115226  20.5542786  31.6578222
  18.2507971  19.9259845  32.7870717  18.1999903  20.0843848  32.0205679
  17.8836023  24.8053681  34.2083563  18.7109453  24.5338830  34.2642177
  17.9043869  25.6014522  34.5647381  18.0088873  24.8833435  34.2698746
  12.4605513  31.9517543  27.3953824  11.6193520  31.8521418  27.6032717
  12.6695521  32.7213024  27.7468144  12.3670206  32.0509587  27.4781138
   9.9381080  29.5737080  25.2238574   9.5437778  29.6480092  24.4488684
   9.3821197  29.9595027  25.7746936   9.7983892  29.6418855  25.1906234
  21.5746027  22.5518374  24.9042453  21.7795620  22.4840682  25.7499450
  21.2472451  23.3577196  24.8363631  21.5561275  22.6604315  25.0202108
  16.2722178  29.8798943  26.6451421  15.9685315  29.3254931  27.2461829
  15.5701599  30.0591153  26.1579455  16.1238388  29.8243725  26.6621127
  15.3288275  27.1899462  21.2096123  15.6048009  26.4718375  20.7973690
  15.9286944  27.7884382  21.0017229  15.4581540  27.1719833  21.1176884
  14.3340529  37.0948663  31.3523519  14.2260884  37.1050726  32.2185577
  14.5436310  37.9203444  31.1628473  14.3490640  37.2189738  31.4527610
  24.8279715  23.1050139  24.3845219  24.2154028  23.5920541  24.7698950
  24.9243889  22.4293630  24.9282870  24.7517612  23.0768447  24.5224077
  18.8298796  24.8612980  19.4842718  19.2842542  25.0323540  20.2090562
  19.3038841  24.2481091  19.0840494  18.9667116  24.7963865  19.5316479
  12.3514321  34.3461306  28.8145456  11.7602254  34.9870804  28.7848472
  13.1135345  34.7698923  28.7876756  12.3762582  34.5037144  28.8060604
  12.7474944  25.5063304  29.4813474  13.2076425  25.5802233  30.2188598
  12.7931050  26.3044558  29.1313295  12.8225499  25.6357451  29.5386231
  14.3958294  26.1729998  34.0485501  14.0043859  25.5263346  34.4841279
  14.5644156  26.7641434  34.6679757  14.3629204  26.1644266  34.2048207
  22.1103837  39.7970617  26.2477481  21.9123526  40.2861432  25.5533692
  21.4891548  40.0011859  26.8261614  21.9891402  39.8987156  26.2300704
  16.1711816  31.5655514  20.5887725  16.9153861  31.9529790  20.8270675
  16.3172512  30.7212940  20.7528213  16.3022401  31.4985987  20.6481695
  18.0891391  23.3605773  25.6219587  17.2427436  23.5328581  25.4960936
  18.0862523  22.5555117  25.9585415  17.9638541  23.2666802  25.6530714
  19.1589691  27.1380987  26.4881644  18.6849646  26.6122750  26.9986955
  19.5307827  26.5910460  25.9196506  19.1439580  26.9796984  26.4796792
   9.5362722  29.1352494  31.8565190  10.3988335  29.0348203  31.7702520
   9.2054505  28.5547203  31.2950762   9.6147918  29.0344121  31.7610596
  21.0873191  28.0317542  19.5507398  20.5596210  28.1146286  18.8613107
  21.5468899  28.7735414  19.5472043  21.0775042  28.1538204  19.4482093
  12.8964508  27.9594943  28.5175608  12.2717578  27.9713335  27.9101561
  12.5610102  28.4355118  29.1666849  12.7549999  28.0313460  28.5232177
  13.0806256  26.3020062  14.5748293  12.7319061  26.9539787  15.0379843
  12.6002702  26.2877175  13.8472165  12.9576500  26.3963115  14.5359385
   9.6090183  36.0195403  29.9579373   9.0790108  35.3287842  30.0074347
   9.8815276  36.0105589  29.1292081   9.5714905  35.9162535  29.8426789
  20.6410274  36.6021106  18.6817055  21.3644472  37.0679219  18.5381629
  20.2010865  36.6694715  17.9314652  20.6825966  36.6804942  18.5501837
  19.0492726  34.5322918  27.6662043  18.6220334  33.9072637  27.2327478
  19.0417670  34.2497840  28.4921050  18.9851867  34.3975699  27.7241871
  12.1655253  29.5688091  30.7350477  12.3248740  28.8131415  31.1402199
  11.9848147  30.1179031  31.3891215  12.1620612  29.5381905  30.8913183
  20.1075556  21.7349327  31.2901266  19.6116117  21.9313001  30.5992833
  20.8644618  22.1341995  31.1190068  20.1462381  21.8227060  31.1621403
  17.3778435  25.4091672  27.8804577  17.4020923  24.8751785  27.1917357
  17.6289909  24.9008981  28.5430168  17.4188354  25.2552576  27.8769222
   4.8886025  32.6923167  27.3147721   4.7829474  32.6470012  26.4499805
   4.1386245  33.0376948  27.5962006   4.7621628  32.7364076  27.2285051
  13.6579758  24.1362491  27.2610321  13.6978129  24.6371697  27.9745029
  12.8329422  24.2272884  26.9916244  13.5419284  24.2244307  27.3260860
  15.8409371  33.7023231  35.3630616  14.9905001  33.8394945  35.4988261
  16.0037498  32.9687009  35.8078318  15.7393234  33.6137332  35.4486215
  15.0794121  30.6523001  29.5584220  14.2486051  30.8196819  29.3519468
  15.0245638  30.2758951  30.3433106  14.9483536  30.6212732  29.6432748
  12.8877904  24.1431893  35.1940631  13.5130608  23.5994026  35.4670063
  12.4328384  23.6626811  34.6248421  12.9126165  23.9921375  35.1502225
  13.4530165  28.9278592  20.0874338  13.5933126  29.4251056  20.7902979
  13.9512698  28.2264886  20.2288552  13.5471246  28.8980571  20.2125917
  13.4830387  29.7945703  17.4166915  14.1175467  30.3906128  17.3516377
  13.5655998  29.4949161  18.2312785  13.5886938  29.8386611  17.5270001
  15.0609370  25.7259679  17.3912357  15.3825211  25.2462761  16.7371619
  15.3236314  26.5359325  17.2003168  15.1475396  25.7749576  17.2667849
  18.2906343  36.7478553  30.9111173  17.7831434  37.3014400  31.3551803
  17.9932989  36.8086843  30.0929947  18.1711228  36.8384864  30.8559630
   9.9883375  31.9913544  20.6856461  10.4975605  32.5878051  21.0667766
  10.4617647  31.7239518  20.0032880  10.1326751  32.0399359  20.6410984
  20.9014123  40.6641811  18.8415116  20.1843433  40.4902673  18.3762354
  21.5520861  40.4294383  18.3090602  20.8915974  40.6037603  18.6944334
  18.8962748  21.5846972  23.1626413  18.2531066  21.4344619  23.7311551
  18.5562155  21.3389318  22.3975518  18.7507825  21.5259095  23.1329428
  17.5348828  41.6803111  27.8168180  17.3114483  40.9221940  28.1852206
  17.0458672  41.7101132  27.0948619  17.4292277  41.5725336  27.7644921
  23.6490222  25.9962283  25.4946795  24.0017832  25.5692006  26.1692593
  22.7905023  25.9113126  25.6247871  23.5739667  25.9207023  25.6141805
  12.3473907  28.6269802  23.5529641  11.6285896  29.0433935  23.8202505
  12.7186269  29.1924041  23.0021279  12.2965839  28.7719084  23.5112448
  16.1827285  41.9003569  25.2705264  15.7687684  41.2377699  24.8809106
  16.8674659  42.0481428  24.7500959  16.2225657  41.8244227  25.1361762
  19.5492579  41.0593655  26.0228881  19.1508863  41.1695925  25.2549701
  18.9343799  41.2675721  26.6055441  19.3991469  41.1067223  25.9960180
  18.1220481  27.6667802  18.8903021  17.5285321  27.9884799  18.3387588
  18.1595759  26.8208898  18.6824127  18.0394870  27.5892131  18.7785792
  25.0814282  21.1180695  26.4231107  24.5745147  20.4109834  26.3552285
  25.8781716  20.7873883  26.5532184  25.1241521  20.9653846  26.4330102
  20.9978298  27.6247307  22.3204771  20.7691991  27.6480008  21.4783129
  21.2576374  26.8004774  22.4399781  21.0024486  27.5063387  22.2129969
  15.2797526  29.4781780  31.9229871  14.7676429  28.8702963  32.2814903
  15.1077022  30.1938372  32.3903847  15.1787163  29.4945079  32.0446095
  10.1263241  27.9219355  34.5732233   9.9565831  28.5820730  34.0280440
   9.6829191  28.1325916  35.2944722  10.0362575  28.0505337  34.5993862
  14.0523060  26.1623853  23.6158967  14.5280427  26.5240933  22.9809148
  13.5511660  26.8180321  23.8959109  14.0488419  26.3118042  23.5635708
  27.2834422  35.6345621  19.4071972  27.6668028  36.3836977  19.6370069
  26.4878535  35.8811441  19.1483961  27.2228204  35.7815315  19.4029545
  19.1566597  27.4006025  34.3632127  19.7138027  27.1719834  33.7310592
  18.8327662  28.1611690  34.0867339  19.1913007  27.4789861  34.2288624
   7.0265306  30.8266221  29.8320723   6.4792025  30.1566866  29.9501591
   7.8157684  30.4596069  29.8964190   7.0617489  30.6731207  29.8589423
  16.8749714  30.4873678  35.3284134  17.6261041  30.8025355  35.6423688
  17.0672290  30.2852849  34.5018056  17.0141128  30.5041060  35.2527530
  16.0949714  28.3065053  16.9832351  16.4748678  28.3244682  16.1983465
  15.3542310  28.7519042  16.8623198  16.0418551  28.3746828  16.8495919
  23.7235004  26.6147244  22.5707929  23.7229230  26.4595901  23.4292206
  23.5191184  27.4610231  22.5149315  23.6934782  26.7167865  22.6895869
   5.7852275  30.0387029  26.9866746   5.6074036  29.5863638  27.7121661
   5.4971297  30.8413190  27.1705223   5.7165228  30.0909586  27.1210249
  16.8934468  35.1442559  18.3741141  16.0845790  34.8209233  18.3274450
  17.4009377  34.4375781  18.3069389  16.8484134  34.9923876  18.3571435
   7.5224745  32.5714752  24.0988505   6.6570264  32.5600443  23.9871276
   7.6223561  32.3844975  24.9459644   7.4098912  32.5420814  24.2077449
  13.1481755  42.3412651  27.6718610  13.4628314  43.1549039  27.6796392
  13.5575168  41.9562870  28.3400770  13.2549853  42.4041353  27.7722702
  20.1006274  37.7582698  25.2422422  20.5717453  38.4722960  25.4112408
  20.4366453  37.1581448  25.7782292  20.2201389  37.7754162  25.3454798
  17.0175769  22.5310168  32.1980517  17.1503675  21.7341162  32.5261493
  17.4020922  23.0576571  32.7778793  17.0932098  22.4910085  32.3324020
  20.0908125  19.4540494  28.7961610  19.2854088  19.3438224  29.1129449
  19.9614860  19.5552950  27.9391476  19.9528257  19.4524164  28.7169651
  16.0868884  24.5326581  19.6659982  16.9084579  24.7024894  19.4241677
  15.6238535  24.6873842  18.9426280  16.1400047  24.5808314  19.5231626
  14.6764216  22.5269343  30.4458411  15.2208629  22.1860470  31.0362753
  14.7301152  23.3854805  30.5879695  14.7653336  22.6024603  30.5540284
  10.4894775  36.2885759  27.3197219  11.0939632  36.2481594  26.6911040
  10.2822087  37.1356911  27.3501275  10.5483672  36.4073762  27.2313335
   5.7246057  35.2720377  27.1896142   5.6270335  34.4616648  27.4986199
   6.5074927  35.2512170  26.8042410   5.8262194  35.1487467  27.1783005
  36.7752197  46.2116556  21.5002333  36.7446202  47.0661193  21.6720602
  37.3733546  45.9111849  22.0588476  36.8589355  46.2933053  21.6077135
  29.9751882  45.2992207  26.2555263  29.1189778  45.4600706  26.3064380
  30.0219536  44.4284271  26.2760324  29.8550994  45.1943009  26.2661329
  24.3593022  54.8354925  22.0192495  23.6075922  54.4570463  21.7908540
  24.8079034  54.8673359  21.2711305  24.3142689  54.7840532  21.8749997
  29.8117982  55.2580295  17.4478042  29.4769350  55.9357216  17.0122264
  30.3244852  54.8685606  16.8594913  29.8383563  55.3004873  17.2964833
  29.3522273  57.2094563  23.3889153  29.7361653  57.7781462  22.8493928
  29.2881414  56.4844074  22.9094969  29.3995700  57.1870027  23.2383016
  32.8203703  47.3584251  28.8986915  33.3659663  48.0369338  28.9580884
  32.7620580  47.2171712  28.0388496  32.8919618  47.4376253  28.7798975
  25.9377778  54.8473317  24.2855267  26.0388141  54.0373671  24.5952395
  25.3419523  54.7530264  23.6554946  25.8650317  54.7138345  24.2381505
  34.5968772  48.7868858  19.7720642  34.4808298  49.5376544  20.2012781
  35.3924659  48.5292812  20.0216729  34.6973361  48.8603705  19.8724734
  25.7778518  59.7650906  25.6870123  26.4215973  60.2064070  26.0766281
  26.1034773  58.9604333  25.6000382  25.9210346  59.7116101  25.7315600
  19.1342822  50.8693604  23.9107601  18.8993007  50.0361256  23.8039870
  19.2728463  51.1498270  23.0968802  19.1198485  50.7877107  23.7749956
  21.4332910  43.0379334  26.8091908  20.8137942  42.4471982  26.6401923
  21.3316774  43.6290770  26.1756232  21.3270585  43.0383417  26.6896898
  26.4799097  52.7762881  21.0589985  26.8014939  53.3168089  20.4551293
  27.1271194  52.2059653  21.1912275  26.6225153  52.7722056  20.9897020
  28.5300806  44.7778876  21.1424372  29.2280970  44.9567004  21.6345835
  28.8453138  44.2549216  20.5194761  28.6796143  44.7272648  21.1226382
  21.1602043  46.5831616  29.0535477  21.0360740  47.1694062  29.6885296
  21.8120327  46.0891812  29.3547752  21.2375692  46.5970421  29.1921407
  28.7188741  51.1649321  21.1304163  29.1582376  50.5566422  21.5758936
  28.5693404  50.7856695  20.3589628  28.7610207  51.0187792  21.0823330
  26.1860384  49.7593333  28.3322988  26.8309386  49.2665776  28.0133937
  26.4262161  49.9018120  29.1589067  26.3170969  49.7070775  28.4072522
  28.7246475  52.6048239  27.9829881  29.0069718  51.8099645  27.7616637
  29.4532636  53.0828826  28.0034942  28.8736039  52.5582836  27.9532896
  26.7027669  40.1471273  25.2245646  26.3730999  40.5982416  24.5549345
  26.0272671  40.0687436  25.7718653  26.5538105  40.2022408  25.2068869
  32.3198078  49.5176503  18.0834932  32.2349373  50.3737469  18.2284501
  32.8082461  49.2420827  18.7517091  32.3786975  49.6033824  18.2037014
  33.2516511  46.1361297  19.5832667  32.7227982  46.3520930  20.2429974
  33.7741531  46.8297435  19.5033637  33.2504964  46.2704434  19.6688267
  25.1416119  50.0324514  18.3840135  24.5573334  50.5374545  18.7905999
  24.7386214  49.8066900  17.6436727  24.9955422  50.0732762  18.3345161
  20.6960147  55.7479275  25.1863807  20.2127725  56.4729764  25.1623390
  21.5083465  56.0455405  25.2973965  20.7450895  55.8981628  25.1991086
  26.7674301  54.5411455  27.7913621  26.2501243  54.1818870  27.1874929
  27.4648692  54.0173630  27.8019687  26.7939882  54.4109143  27.7043880
  29.5993333  46.2790166  16.8609056  29.8389337  46.4868149  16.0484399
  29.9209174  45.4747674  16.9698000  29.6830491  46.1904267  16.7569609
  24.9083623  38.2083561  20.7068594  25.6629591  38.5761878  20.4685644
  24.7311158  38.5823116  21.4747773  24.9938102  38.3181749  20.7853482
  23.5504344  56.2635451  25.3384087  24.2524924  55.7487440  25.3956843
  23.4701827  56.5909602  26.1430962  23.6428105  56.2349677  25.4656879
  23.2640688  40.6153880  17.4046707  23.0816261  40.8325761  16.5787700
  24.1266301  40.7292893  17.4605321  23.3645277  40.6643778  17.2901194
  22.8755120  52.4541803  24.8469695  23.7144019  52.6864735  24.8943456
  22.9066889  51.5846114  24.7776730  23.0036837  52.3598749  24.8434339
  23.5007823  52.8742678  29.1483000  24.0406048  52.7313809  29.8186373
  22.8177769  53.2739429  29.5167027  23.4799977  52.9122349  29.3017422
  28.9440407  37.6180291  20.4395731  29.6726567  37.4396246  19.9933887
  29.0335300  38.4598371  20.6502909  29.0647069  37.7164169  20.4049248
  18.9044968  49.0942969  29.3017422  18.6383383  48.2782085  29.4608412
  18.9183532  49.1396124  28.4312937  18.8669690  48.9799873  29.1970904
  22.8102715  43.8928053  15.9169180  22.0960892  43.6066232  16.3291612
  23.2946684  44.2324679  16.5575567  22.7762078  43.9009703  16.0724815
  29.9850033  52.3958007  16.2930988  30.4001181  52.0643031  15.6015484
  29.1541962  52.1626909  16.1651125  29.9238042  52.3129263  16.1721836
  19.3138382  49.8801748  26.5829166  19.1313955  49.8548634  25.7301458
  20.0488050  50.3500686  26.6218075  19.3952445  49.9463110  26.4627085
  22.3784133  46.5986751  33.0911275  23.1024106  46.5839781  33.5776169
  22.4800270  47.3082106  32.5933243  22.5002342  46.7011454  33.0890062
  32.4260402  46.8019827  22.2455238  32.5207256  47.5409121  22.6994863
  31.8019245  46.3737302  22.6789802  32.3469432  46.8481147  22.3763385
  19.2809292  46.7595249  26.7328233  19.8582795  46.6231699  27.3720478
  18.5823354  46.3031033  26.9873817  19.2630313  46.6717515  26.8650522
  32.6783423  48.6468566  15.4792190  32.5963585  48.7170753  16.3447177
  33.3163143  49.2098310  15.2875930  32.7603260  48.7407537  15.5782139
  26.0376594  48.4129304  24.9466716  25.7795838  47.5801039  24.9198015
  26.0925077  48.6386917  24.1059216  26.0076372  48.3227076  24.8186853
  31.1177644  40.5157755  25.0470809  30.4133971  40.0266940  25.2054728
  31.1662619  40.5280229  24.1759253  31.0207696  40.4447403  24.9410148
  25.0111306  45.9667067  25.4331611  24.4360897  46.1259235  26.0695572
  24.6346983  45.3302476  24.9700061  24.8714119  45.8964880  25.4586169
  28.6784595  44.4390416  30.2923989  28.2899028  44.0144634  29.6376180
  28.0139293  44.6872566  30.8001016  28.5231523  44.4129137  30.2711857
  38.3207864  44.1965421  23.0671819  38.0644429  43.3845362  22.8769702
  39.1637178  44.2042988  22.8402006  38.4073889  44.0777418  23.0056636
  14.7568125  45.6107142  23.4476051  14.8428377  45.2339010  24.2289581
  15.3843923  45.2367587  22.9696009  14.8624676  45.4992624  23.4921529
  32.5010956  38.1365045  27.8047973  32.8821468  37.4543216  28.1915847
  31.6974241  37.8474647  27.6223638  32.4387418  37.9932093  27.8352029
  29.7823533  48.6689021  18.4900796  30.5964172  48.9603913  18.3783567
  29.7182674  48.0148883  17.9159089  29.8926272  48.6154215  18.3889633
  25.6531441  52.1410538  23.6173108  26.2905388  51.9022286  24.1624901
  26.0786513  52.3447697  22.8826269  25.8107608  52.1361548  23.5890265
  20.3444084  54.3798875  27.5007412  20.3848229  54.6513726  26.6727191
  20.9038608  54.9040783  27.9165200  20.4327430  54.4974630  27.4399300
  26.2934256  47.3612828  17.9547997  26.6779409  47.1420535  18.7064543
  26.0445877  48.1875773  18.0849074  26.3136329  47.4510974  18.0849074
  28.0352913  52.6182961  25.2966894  28.1091922  52.4558133  26.1508744
  28.8522420  52.8073150  25.0527376  28.1669272  52.6219703  25.3864920
  21.7958670  52.9640824  22.3261338  20.9696788  53.2102561  22.1995617
  21.8570661  52.8852904  23.1923396  21.6832837  52.9885772  22.4350282
  24.0134694  39.0309765  23.2856778  23.1457119  39.1032364  23.3514387
  24.3009898  39.8331843  23.4744753  23.9274442  39.1603912  23.3231545
  26.5757499  55.5817704  20.0280368  26.8655797  55.1906685  19.3039594
  27.3060980  55.7634409  20.4685643  26.7264383  55.5511518  19.9863175
  24.5163415  57.5585086  23.0940517  24.2963710  57.2682441  23.8867184
  24.2957937  56.9000041  22.5658430  24.4511009  57.4184795  23.1329426
  23.4280362  49.6458403  25.3596219  23.1393610  49.0195874  25.8941946
  24.2963710  49.5878690  25.4260900  23.5140614  49.5445947  25.4487174
  26.6831370  58.9314476  21.8771210  27.3355428  58.3990918  22.1062236
  25.9856979  58.5783128  22.2639084  26.6762088  58.8003999  21.9683378
  23.6312635  51.2853654  21.2838584  24.3858603  51.6666693  21.4974047
  23.0383248  51.7364797  21.7385281  23.6549349  51.4082481  21.3821463
  34.6771289  51.2518890  21.2202189  35.2429321  51.9112100  21.1360732
  34.0299192  51.5968588  21.6918591  34.6650045  51.4000831  21.2774946
  24.9510862  52.4562215  26.6578700  24.4291615  52.5962507  27.3430564
  25.3384882  51.6972879  26.8480817  24.9314563  52.3647739  26.7879776
  21.9402046  42.5068024  20.7273654  21.6526842  42.1369294  19.9905602
  22.6272514  42.9762879  20.4657359  21.9990943  42.5214993  20.5788730
  31.1477867  54.1957674  20.6439268  30.9064543  53.4625535  20.2366333
  31.3279200  54.7444531  19.9905602  31.1385491  54.1680065  20.4869491
  26.3777187  49.4866234  22.0560191  26.1819970  50.0940969  21.4620494
  26.6011533  48.7934178  21.5751865  26.3811828  49.4743760  21.8976271
  24.7755717  46.3720972  22.1741059  25.4978369  46.5362130  21.7144865
  24.2963710  47.0930637  22.0680399  24.8119448  46.5019202  22.0906673
  32.7349225  42.7084771  27.5537744  31.8960326  42.7346050  27.3176007
  32.8053592  43.3555506  28.1343091  32.6217619  42.8080897  27.6046861
  22.4263334  48.7779044  31.2795199  22.9384431  49.0563298  30.6303959
  22.1399677  49.5168338  31.6458012  22.4598197  48.9281398  31.2385077
  31.1818503  39.6070148  22.2865360  31.8844856  39.4077896  21.8085318
  30.9162692  38.8346090  22.5934203  31.2465136  39.4633114  22.2610801
  19.5130240  43.2849236  21.5758935  19.6146377  44.0875398  21.9039911
  20.3086127  43.0836572  21.2782016  19.6458146  43.3735135  21.5794291
  30.4832565  45.2363505  23.4624545  30.2367279  45.1559256  24.2961334
  30.8117688  44.4516973  23.2687073  30.4953808  45.1089770  23.5572068
  34.3780614  51.9446864  27.2511326  34.2394973  52.6427910  27.7560069
  33.5980612  51.7895520  26.8947508  34.2423841  52.0247031  27.2737601
  25.5157347  56.1622995  29.7408555  25.6646911  55.6025911  29.0881960
  26.2957349  56.2414997  30.1241074  25.6531441  56.0908561  29.7005504
  35.8733987  51.3025118  18.0127826  35.4940795  50.5162256  18.0057115
  35.2100232  51.8511975  17.8699470  35.7192461  51.2669942  17.9908623
  28.0410648  56.3337638  31.0193046  27.9654319  55.6646449  31.5743834
  27.9700507  57.0355426  31.5333712  28.0191255  56.3382545  31.1769894
  28.6980895  54.8538637  21.8516652  29.4630786  54.5848281  21.5299316
  28.5958985  54.3688647  22.5686715  28.7962390  54.7428201  21.9096479
  26.7333664  43.0563046  28.3909888  25.9429739  42.8754506  28.7127223
  27.1294287  42.2789999  28.3740182  26.6750541  42.9150507  28.4362436
  31.2199555  51.8850821  13.8316601  31.9872540  51.9450946  13.4222453
  30.7730864  51.3131262  13.3472920  31.2672983  51.8087396  13.6994312
  32.1177351  50.6905476  26.1169334  31.4422353  50.4590709  26.6182721
  32.1269727  50.0826659  25.4911439  32.0195855  50.5664402  26.0985486
  34.1194085  53.5470609  18.3479511  34.2013923  54.3537595  18.0240962
  34.6043828  53.5666568  19.0720285  34.2031243  53.6691271  18.4066410
  27.9290589  48.2255445  27.0149589  27.5052838  48.4259944  26.2788608
  27.7535444  47.3784293  27.1273889  27.8401469  48.1304226  26.9223280
  27.4302282  59.7405958  29.4771047  27.9198212  59.0416747  29.2946711
  26.8586514  59.4429828  30.0647104  27.4186812  59.5932181  29.5372087
  23.2173034  48.7207496  22.4477562  23.3737653  48.6554299  23.3033554
  23.5573627  49.4956049  22.2356242  23.2906268  48.8256694  22.5432156
  29.7552178  48.0965380  21.3170925  30.2967724  47.5935761  21.7809546
  30.0698737  48.0430574  20.5060410  29.8816575  48.0144801  21.2654737
  27.9238628  53.4882731  18.6010953  27.9931448  52.6297270  18.7403954
  28.7027083  53.7054612  18.2729978  28.0491478  53.3935595  18.5728110
  32.3146116  55.9120433  22.8147447  31.9225907  55.6087148  22.0970313
  32.4699188  56.7489523  22.6252400  32.2799705  55.9904269  22.6803944
  19.7907295  45.9042447  22.7638329  20.1706260  46.3226992  22.0998596
  19.2162660  46.4855902  23.0707172  19.7618620  46.0520305  22.7115070
  32.4785790  52.4770421  22.7553477  32.1200445  52.6485064  23.5317509
  31.9924501  52.9383627  22.1981476  32.3544487  52.5709393  22.7878746
  27.2674156  48.1569587  15.2953711  27.5566681  48.9334469  15.5697286
  27.3545955  47.6458318  15.9968211  27.3228412  48.1961505  15.4396209
  23.4338097  47.4702851  27.3953824  22.5926103  47.3706726  27.6032717
  23.6428105  48.2398332  27.7468144  23.3402789  47.5694895  27.4781138
  20.9113664  45.0922388  25.2238574  20.5170361  45.1665400  24.4488684
  20.3553780  45.4780335  25.7746936  20.7716476  45.1604163  25.1906234
  27.2454762  45.3984251  26.6451421  26.9417899  44.8440239  27.2461829
  26.5434182  45.5776461  26.1579455  27.0970971  45.3429033  26.6621127
  26.3020859  42.7084770  21.2096123  26.5780593  41.9903683  20.7973690
  26.9019528  43.3069690  21.0017229  26.4314123  42.6905141  21.1176884
  25.3073113  52.6133971  31.3523519  25.1993467  52.6236033  32.2185577
  25.5168894  53.4388752  31.1628473  25.3223224  52.7375046  31.4527610
  35.8012298  38.6235447  24.3845219  35.1886612  39.1105849  24.7698950
  35.8976473  37.9478937  24.9282870  35.7250196  38.5953755  24.5224077
  29.8031379  40.3798288  19.4842718  30.2575126  40.5508848  20.2090562
  30.2771425  39.7666398  19.0840494  29.9399699  40.3149173  19.5316479
  23.3246905  49.8646614  28.8145456  22.7334838  50.5056112  28.7848472
  24.0867928  50.2884231  28.7876756  23.3495165  50.0222452  28.8060604
  27.1444399  47.0840822  20.5887725  27.8886444  47.4715098  20.8270675
  27.2905095  46.2398247  20.7528213  27.2754984  47.0171295  20.6481695
  30.1322275  42.6566295  26.4881644  29.6582229  42.1308057  26.9986955
  30.5040411  42.1095768  25.9196506  30.1172164  42.4982292  26.4796792
  32.0605775  43.5502850  19.5507398  31.5328793  43.6331594  18.8613107
  32.5201483  44.2920721  19.5472043  32.0507625  43.6723512  19.4482093
  23.8697091  43.4780251  28.5175608  23.2450161  43.4898643  27.9101561
  23.5342686  43.9540426  29.1666849  23.7282583  43.5498768  28.5232177
  24.0538840  41.8205370  14.5748293  23.7051644  42.4725095  15.0379843
  23.5735286  41.8062483  13.8472165  23.9309084  41.9148423  14.5359385
  20.5822767  51.5380711  29.9579373  20.0522691  50.8473150  30.0074347
  20.8547860  51.5290897  29.1292081  20.5447489  51.4347843  29.8426789
  31.6142857  52.1206414  18.6817055  32.3377056  52.5864527  18.5381629
  31.1743448  52.1880023  17.9314652  31.6558549  52.1990250  18.5501837
  30.7829012  48.9803956  29.9317744  30.1686005  48.4362006  30.2266380
  31.2996297  48.4668192  29.4523560  30.7684675  48.8240365  29.9041973
  30.0225309  50.0508226  27.6662043  29.5952917  49.4257945  27.2327478
  30.0150254  49.7683148  28.4921050  29.9584451  49.9161007  27.7241871
  23.1387836  45.0873399  30.7350477  23.2981323  44.3316723  31.1402199
  22.9580730  45.6364338  31.3891215  23.1353195  45.0567213  30.8913183
  28.3511019  40.9276980  27.8804577  28.3753506  40.3937093  27.1917357
  28.6022493  40.4194289  28.5430168  28.3920938  40.7737884  27.8769222
  15.8618609  48.2108475  27.3147721  15.7562058  48.1655320  26.4499805
  15.1118829  48.5562256  27.5962006  15.7354212  48.2549384  27.2285051
  24.6312341  39.6547799  27.2610321  24.6710713  40.1557005  27.9745029
  23.8062006  39.7458192  26.9916244  24.5151867  39.7429615  27.3260860
  26.0526705  46.1708308  29.5584220  25.2218634  46.3382126  29.3519468
  25.9978222  45.7944259  30.3433106  25.9216120  46.1398040  29.6432748
  24.4262749  44.4463900  20.0874338  24.5665710  44.9436364  20.7902979
  24.9245281  43.7450194  20.2288552  24.5203829  44.4165879  20.2125917
  24.4562971  45.3131011  17.4166915  25.0908050  45.9091436  17.3516377
  24.5388582  45.0134469  18.2312785  24.5619522  45.3571919  17.5270001
  26.0341954  41.2444986  17.3912357  26.3557795  40.7648069  16.7371619
  26.2968898  42.0544633  17.2003168  26.1207979  41.2934884  17.2667849
  20.9615959  47.5098852  20.6856461  21.4708188  48.1063359  21.0667766
  21.4350231  47.2424825  20.0032880  21.1059334  47.5584667  20.6410984
  31.8746707  56.1827118  18.8415116  31.1576017  56.0087981  18.3762354
  32.5253444  55.9479691  18.3090602  31.8648557  56.1222911  18.6944334
  34.4594678  45.0591707  22.5856421  33.7885868  45.6021409  22.4569487
  35.1534428  45.5286562  22.3438116  34.4623546  45.2089978  22.5311949
  34.6222806  41.5147591  25.4946795  34.9750416  41.0877314  26.1692593
  33.7637607  41.4298434  25.6247871  34.5472250  41.4392331  25.6141805
  23.3206491  44.1455110  23.5529641  22.6018480  44.5619243  23.8202505
  23.6918853  44.7109349  23.0021279  23.2698422  44.2904392  23.5112448
  27.1559869  57.4188877  25.2705264  26.7420267  56.7563007  24.8809106
  27.8407243  57.5666736  24.7500959  27.1958240  57.3429535  25.1361762
  30.5225163  56.5778962  26.0228881  30.1241446  56.6881233  25.2549701
  29.9076382  56.7861029  26.6055441  30.3724052  56.6252530  25.9960180
  29.0953065  43.1853110  18.8903021  28.5017904  43.5070107  18.3387588
  29.1328343  42.3394206  18.6824127  29.0127454  43.1077439  18.7785792
  31.9710881  43.1432615  22.3204771  31.7424574  43.1665316  21.4783129
  32.2308958  42.3190082  22.4399781  31.9757070  43.0248695  22.2129969
  25.0255644  41.6809161  23.6158967  25.5013010  42.0426241  22.9809148
  24.5244244  42.3365629  23.8959109  25.0221003  41.8303350  23.5635708
  17.9997889  46.3451529  29.8320723  17.4524609  45.6752174  29.9501591
  18.7890267  45.9781377  29.8964190  18.0350073  46.1916515  29.8589423
  27.0682297  43.8250361  16.9832351  27.4481262  43.8429990  16.1983465
  26.3274893  44.2704350  16.8623198  27.0151135  43.8932135  16.8495919
  34.6967588  42.1332552  22.5707929  34.6961814  41.9781209  23.4292206
  34.4923768  42.9795539  22.5149315  34.6667366  42.2353173  22.6895869
  16.7584859  45.5572336  26.9866746  16.5806620  45.1048945  27.7121661
  16.4703881  46.3598498  27.1705223  16.6897812  45.6094894  27.1210249
  32.4208440  46.8130054  26.2244136  32.9162105  46.0953049  26.1848156
  31.6108215  46.5100852  26.1098623  32.3752333  46.6627700  26.2017862
  27.8667051  50.6627867  18.3741141  27.0578374  50.3394541  18.3274450
  28.3741960  49.9561089  18.3069389  27.8216718  50.5109183  18.3571435
  18.4957328  48.0900060  24.0988505  17.6302848  48.0785751  23.9871276
  18.5956144  47.9030283  24.9459644  18.3831495  48.0606121  24.2077449
  24.1214338  57.8597959  27.6718610  24.4360897  58.6734347  27.6796392
  24.5307752  57.4748178  28.3400770  24.2282436  57.9226661  27.7722702
  31.0738858  53.2768006  25.2422422  31.5450036  53.9908268  25.4112408
  31.4099037  52.6766756  25.7782292  31.1933973  53.2939470  25.3454798
  27.0601468  40.0511889  19.6659982  27.8817162  40.2210202  19.4241677
  26.5971119  40.2059150  18.9426280  27.1132630  40.0993622  19.5231626
  21.4627359  51.8071067  27.3197219  22.0672216  51.7666901  26.6911040
  21.2554671  52.6542219  27.3501275  21.5216256  51.9259070  27.2313335
  16.6978641  50.7905685  27.1896142  16.6002919  49.9801956  27.4986199
  17.4807510  50.7697478  26.8042410  16.7994777  50.6672775  27.1783005
  35.3325606  70.3540233  22.0192495  34.5808505  69.9755771  21.7908540
  35.7811617  70.3858667  21.2711305  35.2875272  70.3025840  21.8749997
  44.2578182  67.0864041  35.8615719  44.9644950  66.5916072  35.9902654
  44.4466118  67.5273122  35.1318377  44.3906088  67.0782391  35.7724765
  40.7850565  70.7765603  17.4478042  40.4501934  71.4542524  17.0122264
  41.2977436  70.3870914  16.8594913  40.8116147  70.8190181  17.2964833
  40.3254857  72.7279871  23.3889153  40.7094236  73.2966770  22.8493928
  40.2613998  72.0029382  22.9094969  40.3728284  72.7055335  23.2383016
  43.7936287  62.8769559  28.8986915  44.3392247  63.5554646  28.9580884
  43.7353163  62.7357020  28.0388496  43.8652201  62.9561561  28.7798975
  36.9110362  70.3658625  24.2855267  37.0120725  69.5558979  24.5952395
  36.3152107  70.2715572  23.6554946  36.8382900  70.2323653  24.2381505
  45.5701356  64.3054166  19.7720642  45.4540881  65.0561852  20.2012781
  46.3657242  64.0478119  20.0216729  45.6705945  64.3789013  19.8724734
  36.7511101  75.2836214  25.6870123  37.3948557  75.7249378  26.0766281
  37.0767357  74.4789641  25.6000382  36.8942930  75.2301409  25.7315600
  30.1075406  66.3878912  23.9107601  29.8725590  65.5546564  23.8039870
  30.2461047  66.6683577  23.0968802  30.0931068  66.3062415  23.7749956
  32.4065493  58.5564642  26.8091908  31.7870525  57.9657290  26.6401923
  32.3049357  59.1476078  26.1756232  32.3003169  58.5568725  26.6896898
  37.4531681  68.2948189  21.0589985  37.7747522  68.8353397  20.4551293
  38.1003778  67.7244961  21.1912275  37.5957736  68.2907364  20.9897020
  39.5033389  60.2964184  21.1424372  40.2013554  60.4752312  21.6345835
  39.8185722  59.7734524  20.5194761  39.6528726  60.2457956  21.1226382
  39.6921324  66.6834629  21.1304163  40.1314960  66.0751730  21.5758936
  39.5425987  66.3042003  20.3589628  39.7342790  66.5373100  21.0823330
  39.6979059  68.1233547  27.9829881  39.9802302  67.3284953  27.7616637
  40.4265219  68.6014134  28.0034942  39.8468623  68.0768144  27.9532896
  43.2930661  65.0361810  18.0834932  43.2081956  65.8922777  18.2284501
  43.7815044  64.7606135  18.7517091  43.3519558  65.1219132  18.2037014
  44.2249094  61.6546605  19.5832667  43.6960566  61.8706238  20.2429974
  44.7474114  62.3482743  19.5033637  44.2237547  61.7889742  19.6688267
  49.6797147  67.2292909  24.9565712  48.8494850  67.4403553  25.1199128
  49.6306400  66.4029964  24.6807995  49.5503883  67.1382515  24.9403077
  36.1148702  65.5509821  18.3840135  35.5305917  66.0559853  18.7905999
  35.7118797  65.3252208  17.6436727  35.9688006  65.5918070  18.3345161
  31.6692731  71.2664583  25.1863807  31.1860309  71.9915072  25.1623390
  32.4816049  71.5640713  25.2973965  31.7183478  71.4166936  25.1991086
  37.7406885  70.0596763  27.7913621  37.2233826  69.7004178  27.1874929
  38.4381276  69.5358938  27.8019687  37.7672466  69.9294451  27.7043880
  41.3970477  70.5091577  33.7529794  41.4853823  70.3217718  34.6008005
  41.8260189  69.8629007  33.3534641  41.4732579  70.3854585  33.8201546
  38.9640937  69.7922737  32.7347457  38.4011771  69.3795347  33.2587118
  39.7261960  69.7175643  33.1540600  38.9935385  69.7200138  32.8740457
  40.5725917  61.7975474  16.8609056  40.8121920  62.0053457  16.0484399
  40.8941757  60.9932982  16.9698000  40.6563074  61.7089575  16.7569609
  35.8816207  53.7268869  20.7068594  36.6362175  54.0947186  20.4685644
  35.7043741  54.1008424  21.4747773  35.9670685  53.8367057  20.7853482
  34.5236928  71.7820758  25.3384087  35.2257507  71.2672748  25.3956843
  34.4434411  72.1094910  26.1430962  34.6160688  71.7534985  25.4656879
  34.2373271  56.1339188  17.4046707  34.0548845  56.3511069  16.5787700
  35.0998884  56.2478201  17.4605321  34.3377861  56.1829086  17.2901194
  33.8487703  67.9727110  24.8469695  34.6876603  68.2050043  24.8943456
  33.8799473  67.1031422  24.7776730  33.9769421  67.8784057  24.8434339
  34.4740406  68.3927986  29.1483000  35.0138631  68.2499117  29.8186373
  33.7910353  68.7924736  29.5167027  34.4532560  68.4307657  29.3017422
  43.8981291  64.0718986  24.3428025  44.6538806  64.5050501  24.3816933
  44.0043616  63.4223756  24.9162661  44.0251462  64.0396470  24.4326050
  46.9361462  67.8992264  25.0930428  46.4996694  67.9029006  25.8489399
  46.6024378  68.5797763  24.6610005  46.8224082  68.0004719  25.1411260
  41.5090536  69.9400596  36.4173578  42.2930953  70.0531444  36.7829320
  41.3087131  69.1141733  36.6132264  41.5956561  69.8347316  36.5007964
  29.8777551  64.6128276  29.3017422  29.6115967  63.7967393  29.4608412
  29.8916116  64.6581432  28.4312937  29.8402274  64.4985181  29.1970904
  33.7835298  59.4113361  15.9169180  33.0693476  59.1251540  16.3291612
  34.2679267  59.7509987  16.5575567  33.7494662  59.4195011  16.0724815
  41.6660929  71.8510698  30.0640034  40.8676175  71.6110198  30.3213902
  42.1146941  71.9025091  30.8107081  41.6135541  71.8233090  30.2124958
  40.9582616  67.9143315  16.2930988  41.3733765  67.5828339  15.6015484
  40.1274546  67.6812217  16.1651125  40.8970625  67.8314571  16.1721836
  30.2870965  65.3987056  26.5829166  30.1046538  65.3733942  25.7301458
  31.0220634  65.8685994  26.6218075  30.3685029  65.4648418  26.4627085
  46.3570639  65.6338566  23.7262054  46.5926229  65.7783765  22.8988904
  46.5060203  66.3980974  24.1193567  46.4136443  65.7677620  23.6625657
  48.1861096  64.4740232  21.5631657  48.5169313  65.0067872  20.9571752
  48.7594184  64.5279120  22.2193608  48.3194775  64.5609801  21.5709439
  40.7261666  65.5971143  37.9560222  39.9334647  65.9114655  38.1412841
  40.8410593  65.8122612  37.1181006  40.6257077  65.6754980  37.8598556
  43.3992985  62.3205134  22.2455238  43.4939840  63.0594429  22.6994863
  42.7751829  61.8922610  22.6789802  43.3202015  62.3666455  22.3763385
  41.6545459  65.4991347  32.8945518  42.2284321  64.8618591  33.0494082
  41.5760263  65.4995430  32.0255176  41.7278694  65.4056458  32.7891929
  43.6516006  64.1653874  15.4792190  43.5696169  64.2356061  16.3447177
  44.2895727  64.7283618  15.2875930  43.7335844  64.2592845  15.5782139
  37.0109178  63.9314612  24.9466716  36.7528422  63.0986347  24.9198015
  37.0657660  64.1572225  24.1059216  36.9808956  63.8412383  24.8186853
  25.7300709  61.1292449  23.4476051  25.8160961  60.7524318  24.2289581
  26.3576506  60.7552895  22.9696009  25.8357260  61.0177932  23.4921529
  40.7556117  64.1874329  18.4900796  41.5696756  64.4789221  18.3783567
  40.6915258  63.5334191  17.9159089  40.8658856  64.1339523  18.3889633
  46.9765607  66.8700325  32.9030372  46.7404244  66.0388389  32.7842432
  47.6208836  66.8185932  33.4885216  47.0360278  66.7398013  32.9716265
  36.6264025  67.6595846  23.6173108  37.2637972  67.4207594  24.1624901
  37.0519097  67.8633005  22.8826269  36.7840191  67.6546856  23.5890265
  31.3176667  69.8984182  27.5007412  31.3580813  70.1699034  26.6727191
  31.8771191  70.4226091  27.9165200  31.4060013  70.0159938  27.4399300
  37.2666840  62.8798136  17.9547997  37.6511993  62.6605842  18.7064543
  37.0178460  63.7061081  18.0849074  37.2868913  62.9696282  18.0849074
  39.0085497  68.1368269  25.2966894  39.0824505  67.9743440  26.1508744
  39.8255003  68.3258458  25.0527376  39.1401856  68.1405011  25.3864920
  32.7691254  68.4826131  22.3261338  31.9429371  68.7287869  22.1995617
  32.8303245  68.4038212  23.1923396  32.6565421  68.5071080  22.4350282
  37.5490083  71.1003012  20.0280368  37.8388381  70.7091993  19.3039594
  38.2793563  71.2819717  20.4685643  37.6996967  71.0696825  19.9863175
  38.1384828  65.9020758  31.1133498  37.6396521  66.6136525  31.1918387
  38.9485052  66.2221424  31.0751661  38.1840935  66.0547606  31.1190067
  35.4895998  73.0770394  23.0940517  35.2696294  72.7867749  23.8867184
  35.2690520  72.4185349  22.5658430  35.4243592  72.9370102  23.1329426
  34.4012945  65.1643711  25.3596219  34.1126194  64.5381182  25.8941946
  35.2696293  65.1063998  25.4260900  34.4873197  65.0631255  25.4487174
  37.6563954  74.4499784  21.8771210  38.3088012  73.9176226  22.1062236
  36.9589563  74.0968436  22.2639084  37.6494672  74.3189307  21.9683378
  34.6045219  66.8038962  21.2838584  35.3591187  67.1852001  21.4974047
  34.0115831  67.2550105  21.7385281  34.6281932  66.9267789  21.3821463
  45.6503872  66.7704198  21.2202189  46.2161905  67.4297408  21.1360732
  45.0031776  67.1153896  21.6918591  45.6382629  66.9186139  21.2774946
  37.0651886  58.7601802  36.4095797  36.2551662  59.0659582  36.2985639
  37.5426573  59.4807384  36.5248381  37.0155365  58.9116403  36.4102868
  35.9243445  67.9747523  26.6578700  35.4024199  68.1147815  27.3430564
  36.3117466  67.2158187  26.8480817  35.9047146  67.8833047  26.7879776
  32.9134629  58.0253332  20.7273654  32.6259425  57.6554602  19.9905602
  33.6005098  58.4948187  20.4657359  32.9723527  58.0400301  20.5788730
  42.1210450  69.7142982  20.6439268  41.8797126  68.9810843  20.2366333
  42.3011783  70.2629839  19.9905602  42.1118074  69.6865373  20.4869491
  37.3509771  65.0051542  22.0560191  37.1552554  65.6126277  21.4620494
  37.5744117  64.3119486  21.5751865  37.3544412  64.9929068  21.8976271
  35.7488301  61.8906280  22.1741059  36.4710953  62.0547438  21.7144865
  35.2696294  62.6115945  22.0680399  35.7852032  62.0204510  22.0906673
  30.4862824  58.8034544  21.5758935  30.5878960  59.6060706  21.9039911
  31.2818711  58.6021880  21.2782016  30.6190730  58.8920443  21.5794291
  41.4565149  60.7548813  23.4624545  41.2099863  60.6744564  24.2961334
  41.7850272  59.9702280  23.2687073  41.4686392  60.6275078  23.5572068
  45.3513197  67.4632172  27.2511326  45.2127557  68.1613218  27.7560069
  44.5713195  67.3080828  26.8947508  45.2156424  67.5432339  27.2737601
  43.6891282  63.7628547  33.5033708  43.6839321  62.8908364  33.5076135
  44.3952276  63.9616716  33.0303164  43.7936286  63.6632421  33.4340743
  36.4889931  71.6808303  29.7408555  36.6379495  71.1211219  29.0881960
  37.2689933  71.7600305  30.1241074  36.6264024  71.6093868  29.7005504
  46.8466570  66.8210426  18.0127826  46.4673379  66.0347564  18.0057115
  46.1832816  67.3697283  17.8699470  46.6925045  66.7855250  17.9908623
  39.0143231  71.8522946  31.0193046  38.9386902  71.1831756  31.5743834
  38.9433091  72.5540734  31.5333712  38.9923838  71.8567853  31.1769894
  39.6713478  70.3723945  21.8516652  40.4363369  70.1033589  21.5299316
  39.5691568  69.8873955  22.5686715  39.7694974  70.2613509  21.9096479
  42.1932139  67.4036129  13.8316601  42.9605124  67.4636254  13.4222453
  41.7463448  66.8316570  13.3472920  42.2405566  67.3272704  13.6994312
  43.0909934  66.2090784  26.1169334  42.4154936  65.9776017  26.6182721
  43.1002310  65.6011967  25.4911439  42.9928439  66.0849710  26.0985486
  45.0926669  69.0655917  18.3479511  45.1746506  69.8722903  18.0240962
  45.5776411  69.0851876  19.0720285  45.1763827  69.1876579  18.4066410
  38.9023172  63.7440753  27.0149589  38.4785421  63.9445252  26.2788608
  38.7268027  62.8969601  27.1273889  38.8134053  63.6489534  26.9223280
  38.4034866  75.2591266  29.4771047  38.8930796  74.5602055  29.2946711
  37.8319098  74.9615136  30.0647104  38.3919396  75.1117489  29.5372087
  34.1905617  64.2392804  22.4477562  34.3470236  64.1739607  23.3033554
  34.5306210  65.0141357  22.2356242  34.2638852  64.3442002  22.5432156
  40.7284762  63.6150688  21.3170925  41.2700307  63.1121069  21.7809546
  41.0431321  63.5615882  20.5060410  40.8549159  63.5330109  21.2654737
  44.6001869  67.8253335  38.4297837  45.4136735  67.5538484  38.5902970
  44.4396836  67.5260875  37.6258033  44.6971818  67.7408261  38.3343243
  38.8971212  69.0068039  18.6010953  38.9664032  68.1482578  18.7403954
  39.6759667  69.2239920  18.2729978  39.0224062  68.9120903  18.5728110
  43.2878699  71.4305741  22.8147447  42.8958491  71.1272456  22.0970313
  43.4431771  72.2674830  22.6252400  43.2532289  71.5089577  22.6803944
  30.7639879  61.4227755  22.7638329  31.1438844  61.8412300  22.0998596
  30.1895244  62.0041210  23.0707172  30.7351204  61.5705613  22.7115070
  43.4518374  67.9955729  22.7553477  43.0933029  68.1670372  23.5317509
  42.9657085  68.4568935  22.1981476  43.3277071  68.0894700  22.7878746
  38.2406739  63.6754895  15.2953711  38.5299264  64.4519777  15.5697286
  38.3278538  63.1643626  15.9968211  38.2960996  63.7146813  15.4396209
  44.6123113  68.8859625  33.7020678  45.2502834  68.3919821  33.3683134
  43.9697205  68.8137026  33.1172905  44.6117340  68.8018634  33.5663033
  44.6677370  69.5779434  30.3426035  45.4569748  69.2268498  30.4628116
  44.8420968  70.3915822  30.0802669  44.8097651  69.6465291  30.3213903
  31.8846247  60.6107696  25.2238574  31.4902945  60.6850708  24.4488684
  31.3286364  60.9965643  25.7746936  31.7449060  60.6789471  25.1906234
  37.2753442  58.2270078  21.2096123  37.5513177  57.5088991  20.7973690
  37.8752112  58.8254998  21.0017229  37.4046707  58.2090449  21.1176884
  36.2805696  68.1319279  31.3523519  36.1726051  68.1421341  32.2185577
  36.4901478  68.9574060  31.1628473  36.2955807  68.2560354  31.4527610
  44.0569004  70.8341233  26.2477481  43.8588693  71.3232048  25.5533692
  43.4356715  71.0382475  26.8261614  43.9356569  70.9357771  26.2300704
  38.1176983  62.6026130  20.5887725  38.8619028  62.9900406  20.8270675
  38.2637679  61.7583555  20.7528213  38.2487568  62.5356603  20.6481695
  45.9742806  64.4005386  31.7822729  46.6977005  63.9477912  31.6033749
  45.7092769  64.6810051  30.9995057  46.0424080  64.3756354  31.6401445
  35.0271423  57.3390678  14.5748293  34.6784228  57.9910403  15.0379843
  34.5467869  57.3247791  13.8472165  34.9041667  57.4333731  14.5359385
  31.5555350  67.0566019  29.9579373  31.0255275  66.3658458  30.0074347
  31.8280444  67.0476204  29.1292081  31.5180073  66.9533151  29.8426789
  42.5875441  67.6391722  18.6817055  43.3109640  68.1049834  18.5381629
  42.1476032  67.7065331  17.9314652  42.6291133  67.7175558  18.5501837
  41.7561596  64.4989264  29.9317744  41.1418589  63.9547314  30.2266380
  42.2728881  63.9853500  29.4523560  41.7417258  64.3425673  29.9041973
  40.9957893  65.5693534  27.6662043  40.5685501  64.9443252  27.2327478
  40.9882837  65.2868456  28.4921050  40.9317034  65.4346314  27.7241871
  26.8351192  63.7293783  27.3147721  26.7294642  63.6840628  26.4499805
  26.0851412  64.0747564  27.5962006  26.7086795  63.7734691  27.2285051
  37.7874538  64.7393847  35.3630616  36.9370168  64.8765561  35.4988261
  37.9502665  64.0057625  35.8078318  37.6858401  64.6507948  35.4486215
  35.3995332  59.9649208  20.0874338  35.5398293  60.4621672  20.7902979
  35.8977865  59.2635502  20.2288552  35.4936413  59.9351187  20.2125917
  35.4295554  60.8316319  17.4166915  36.0640634  61.4276744  17.3516377
  35.5121165  60.5319777  18.2312785  35.5352105  60.8757227  17.5270001
  37.0074537  56.7630294  17.3912357  37.3290378  56.2833377  16.7371619
  37.2701481  57.5729940  17.2003168  37.0940563  56.8120192  17.2667849
  40.2371510  67.7849169  30.9111173  39.7296601  68.3385016  31.3551803
  39.9398156  67.8457459  30.0929947  40.1176395  67.8755480  30.8559630
  31.9348542  63.0284160  20.6856461  32.4440772  63.6248667  21.0667766
  32.4082815  62.7610133  20.0032880  32.0791918  63.0769975  20.6410984
  42.8479290  71.7012426  18.8415116  42.1308600  71.5273289  18.3762354
  43.4986028  71.4664999  18.3090602  42.8381141  71.6408219  18.6944334
  39.4813995  72.7173727  27.8168180  39.2579650  71.9592556  28.1852206
  38.9923839  72.7471748  27.0948619  39.3757444  72.6095951  27.7644921
  34.2939074  59.6640418  23.5529641  33.5751063  60.0804551  23.8202505
  34.6651436  60.2294657  23.0021279  34.2431006  59.8089700  23.5112448
  41.5384985  66.8855459  35.3680114  41.4980840  66.2405136  34.7825269
  42.3508303  66.8292077  35.6805526  41.6528138  66.7814426  35.3277063
  38.1292452  72.9374185  25.2705264  37.7152851  72.2748315  24.8809106
  38.8139827  73.0852044  24.7500959  38.1690824  72.8614843  25.1361762
  41.4957746  72.0964270  26.0228881  41.0974030  72.2066541  25.2549701
  40.8808966  72.3046337  26.6055441  41.3456636  72.1437838  25.9960180
  40.0685648  58.7038418  18.8903021  39.4750488  59.0255415  18.3387588
  40.1060926  57.8579514  18.6824127  39.9860038  58.6262746  18.7785792
  49.2299589  66.6716237  19.4071972  49.6133195  67.4207593  19.6370069
  48.4343702  66.9182057  19.1483961  49.1693371  66.8185931  19.4029545
  28.9730473  61.8636837  29.8320723  28.4257192  61.1937482  29.9501591
  29.7622851  61.4966684  29.8964190  29.0082656  61.7101823  29.8589423
  38.0414881  59.3435669  16.9832351  38.4213846  59.3615298  16.1983465
  37.3007477  59.7889658  16.8623198  37.9883718  59.4117443  16.8495919
  27.7317442  61.0757644  26.9866746  27.5539203  60.6234253  27.7121661
  27.4436464  61.8783806  27.1705223  27.6630395  61.1280202  27.1210249
  43.3941023  62.3315362  26.2244136  43.8894689  61.6138357  26.1848156
  42.5840799  62.0286159  26.1098623  43.3484917  62.1813008  26.2017862
  38.8399635  66.1813175  18.3741141  38.0310958  65.8579849  18.3274450
  39.3474544  65.4746397  18.3069389  38.7949302  66.0294491  18.3571435
  29.4689912  63.6085368  24.0988505  28.6035432  63.5971059  23.9871276
  29.5688728  63.4215591  24.9459644  29.3564079  63.5791429  24.2077449
  35.0946922  73.3783267  27.6718610  35.4093481  74.1919655  27.6796392
  35.5040335  72.9933485  28.3400770  35.2015020  73.4411969  27.7722702
  42.0471442  68.7953314  25.2422422  42.5182620  69.5093576  25.4112408
  42.3831620  68.1952064  25.7782292  42.1666557  68.8124778  25.3454798
  44.1348426  70.4054627  37.4214494  44.2445392  69.6163187  37.7771242
  44.4639323  70.3160563  36.6188833  44.2000832  70.2760480  37.3556885
  42.6845388  68.5871248  32.0050115  42.1366334  67.9629131  31.7370180
  43.1458417  68.7765520  31.2894194  42.6712597  68.5230298  31.8600546
  38.0334051  55.5697197  19.6659982  38.8549746  55.7395510  19.4241677
  37.5703702  55.7244458  18.9426280  38.0865214  55.6178930  19.5231626
  32.4359942  67.3256375  27.3197219  33.0404799  67.2852209  26.6911040
  32.2287255  68.1727527  27.3501275  32.4948839  67.4444378  27.2313335
  42.2503714  69.5922320  28.5359456  43.0702088  69.4485286  28.7975751
  41.9697792  70.2168519  29.0775894  42.3300458  69.6632672  28.6547396
  27.6711224  66.3090993  27.1896142  27.5735502  65.4987264  27.4986199
  28.4540094  66.2882786  26.8042410  27.7727361  66.1858083  27.1783005
  58.7217365  77.2487172  21.5002333  58.6911369  78.1031809  21.6720602
  59.3198713  76.9482465  22.0588476  58.8054522  77.3303669  21.6077135
  51.9217049  76.3362823  26.2555263  51.0654945  76.4971321  26.3064380
  51.9684703  75.4654887  26.2760324  51.8016161  76.2313625  26.2661329
  55.2310766  82.6049349  35.8615719  55.9377533  82.1101379  35.9902654
  55.4198701  83.0458430  35.1318377  55.3638672  82.5967699  35.7724765
  54.7668870  78.3954867  28.8986915  55.3124831  79.0739954  28.9580884
  54.7085747  78.2542328  28.0388496  54.8384785  78.4746869  28.7798975
  43.3798077  74.0749950  26.8091908  42.7603109  73.4842598  26.6401923
  43.2781941  74.6661386  26.1756232  43.2735753  74.0754033  26.6896898
  50.4765973  75.8149492  21.1424372  51.1746137  75.9937620  21.6345835
  50.7918305  75.2919831  20.5194761  50.6261310  75.7643264  21.1226382
  43.1067210  77.6202232  29.0535477  42.9825907  78.2064678  29.6885296
  43.7585495  77.1262428  29.3547752  43.1840859  77.6341036  29.1921407
  48.1325551  80.7963949  28.3322988  48.7774554  80.3036392  28.0133937
  48.3727328  80.9388736  29.1589067  48.2636136  80.7441391  28.4072522
  50.6711642  83.6418855  27.9829881  50.9534885  82.8470261  27.7616637
  51.3997803  84.1199442  28.0034942  50.8201206  83.5953452  27.9532896
  48.6492836  71.1841889  25.2245646  48.3196166  71.6353032  24.5549345
  47.9737838  71.1058052  25.7718653  48.5003273  71.2393024  25.2068869
  55.8569244  67.1727412  23.4695257  55.5422685  67.8630890  23.9015679
  55.3396186  67.1172194  22.7680757  55.7333714  67.2662300  23.4292206
  46.8548790  69.2454177  20.7068594  47.6094758  69.6132494  20.4685644
  46.6776325  69.6193732  21.4747773  46.9403269  69.3552365  20.7853482
  60.1483689  75.3948618  28.7516133  59.3112110  75.4650805  28.9863728
  60.1171920  75.3973113  27.8790436  60.0201971  75.4058845  28.6575681
  46.5448418  77.5381653  34.4664502  46.7168922  77.4287548  35.3149783
  47.0817776  78.1836059  34.2295694  46.6493422  77.6173655  34.5569599
  45.2105855  71.6524496  17.4046707  45.0281428  71.8696377  16.5787700
  46.0731468  71.7663509  17.4605321  45.3110444  71.7014394  17.2901194
  50.8905574  68.6550907  20.4395731  51.6191735  68.4766862  19.9933887
  50.9800467  69.4968987  20.6502909  51.0112236  68.7534785  20.4049248
  54.8713875  79.5904294  24.3428025  55.6271390  80.0235809  24.3816933
  54.9776199  78.9409064  24.9162661  54.9984045  79.5581778  24.4326050
  40.8510135  80.1313584  29.3017422  40.5848550  79.3152701  29.4608412
  40.8648699  80.1766740  28.4312937  40.8134857  80.0170489  29.1970904
  57.8291529  70.4591399  27.3359856  58.4717437  70.5289504  27.9221771
  58.0814550  69.7920622  26.8339397  57.9613661  70.3717748  27.3487135
  44.7567882  74.9298669  15.9169180  44.0426059  74.6436848  16.3291612
  45.2411851  75.2695295  16.5575567  44.7227245  74.9380318  16.0724815
  45.6008741  73.6691963  31.9484430  44.9080538  73.1988942  32.1945161
  46.2169069  73.4430267  32.5226137  45.5893271  73.5659094  32.0693582
  41.2603549  80.9172364  26.5829166  41.0779122  80.8919250  25.7301458
  41.9953218  81.3871302  26.6218075  41.3417613  80.9833726  26.4627085
  44.3249300  77.6357367  33.0911275  45.0489273  77.6210397  33.5776169
  44.4265437  78.3452722  32.5933243  44.4467509  77.7382070  33.0890062
  51.6994250  81.1156451  37.9560222  50.9067231  81.4299963  38.1412841
  51.8143177  81.3307920  37.1181006  51.5989660  81.1940288  37.8598556
  54.3725569  77.8390442  22.2455238  54.4672423  78.5779736  22.6994863
  53.7484412  77.4107918  22.6789802  54.2934599  77.8851763  22.3763385
  52.6278043  81.0176655  32.8945518  53.2016904  80.3803899  33.0494082
  52.5492846  81.0180737  32.0255176  52.7011277  80.9241766  32.7891929
  41.2274459  77.7965864  26.7328233  41.8047962  77.6602315  27.3720478
  40.5288521  77.3401649  26.9873817  41.2095480  77.7088131  26.8650522
  47.9841761  79.4499920  24.9466716  47.7261006  78.6171655  24.9198015
  48.0390244  79.6757533  24.1059216  47.9541539  79.3597691  24.8186853
  53.0642811  71.5528371  25.0470809  52.3599138  71.0637556  25.2054728
  53.1127786  71.5650845  24.1759253  52.9672863  71.4818019  24.9410148
  46.9576473  77.0037683  25.4331611  46.3826065  77.1629851  26.0695572
  46.5812150  76.3673092  24.9700061  46.8179286  76.9335496  25.4586169
  50.6249762  75.4761032  30.2923989  50.2364195  75.0515250  29.6376180
  49.9604460  75.7243182  30.8001016  50.4696690  75.4499753  30.2711857
  60.2673031  75.2336037  23.0671819  60.0109596  74.4215978  22.8769702
  61.1102345  75.2413604  22.8402006  60.3539057  75.1148034  23.0056636
  36.7033292  76.6477757  23.4476051  36.7893544  76.2709626  24.2289581
  37.3309090  76.2738203  22.9696009  36.8089843  76.5363240  23.4921529
  54.4476124  69.1735661  27.8047973  54.8286635  68.4913832  28.1915847
  53.6439408  68.8845263  27.6223638  54.3852585  69.0302709  27.8352029
  47.5996609  83.1781154  23.6173108  48.2370555  82.9392901  24.1624901
  48.0251680  83.3818313  22.8826269  47.7572775  83.1732164  23.5890265
  48.2399424  78.3983444  17.9547997  48.6244576  78.1791150  18.7064543
  47.9911044  79.2246389  18.0849074  48.2601496  78.4881590  18.0849074
  48.4067964  71.6789859  37.6710582  48.0921405  72.4489422  37.4080144
  48.0857897  71.1160115  37.0862809  48.3126883  71.7100128  37.5451932
  49.9818080  83.6553577  25.2966894  50.0557089  83.4928748  26.1508744
  50.7987587  83.8443766  25.0527376  50.1134439  83.6590319  25.3864920
  45.9599861  70.0680380  23.2856778  45.0922286  70.1402980  23.3514387
  46.2475065  70.8702459  23.4744753  45.8739609  70.1974527  23.3231545
  55.0832750  70.2158240  31.6168100  55.8286342  70.0268050  31.2031525
  54.6670054  70.7416478  31.0581956  55.1317724  70.2660385  31.4732673
  62.4595021  77.5867468  26.5673605  63.0102942  76.9535537  26.8070697
  62.4439136  78.1182861  27.2589109  62.5380217  77.5716416  26.7052463
  49.1117411  81.4206066  31.1133498  48.6129105  82.1321833  31.1918387
  49.9217636  81.7406732  31.0751661  49.1573518  81.5732914  31.1190067
  45.3745529  80.6829019  25.3596219  45.0858778  80.0566490  25.8941946
  46.2428877  80.6249306  25.4260900  45.4605781  80.5816563  25.4487174
  56.1623427  75.8263802  25.6778201  55.8188193  75.1054137  26.0285451
  56.2616469  75.6177653  24.8356559  56.1265470  75.6888005  25.6049881
  45.5777802  82.3224270  21.2838584  46.3323770  82.7037309  21.4974047
  44.9848415  82.7735413  21.7385281  45.6014516  82.4453097  21.3821463
  48.0384469  74.2787110  36.4095797  47.2284245  74.5844890  36.2985639
  48.5159156  74.9992692  36.5248381  47.9887948  74.4301711  36.4102868
  46.8976029  83.4932831  26.6578700  46.3756782  83.6333123  27.3430564
  47.2850049  82.7343495  26.8480817  46.8779730  83.4018355  26.7879776
  43.8867213  73.5438640  20.7273654  43.5992009  73.1739910  19.9905602
  44.5737681  74.0133495  20.4657359  43.9456110  73.5585609  20.5788730
  48.3242355  80.5236850  22.0560191  48.1285137  81.1311584  21.4620494
  48.5476700  79.8304794  21.5751865  48.3276996  80.5114375  21.8976271
  46.7220885  77.4091588  22.1741059  47.4443537  77.5732746  21.7144865
  46.2428877  78.1301253  22.0680399  46.7584615  77.5389817  22.0906673
  54.6814392  73.7455387  27.5537744  53.8425493  73.7716666  27.3176007
  54.7518759  74.3926122  28.1343091  54.5682786  73.8451512  27.6046861
  44.3728501  79.8149660  31.2795199  44.8849598  80.0933914  30.6303959
  44.0864844  80.5538954  31.6458012  44.4063364  79.9652014  31.2385077
  53.1283670  70.6440764  22.2865360  53.8310023  70.4448512  21.8085318
  52.8627859  69.8716706  22.5934203  53.1930303  70.5003730  22.2610801
  58.5571916  78.9523373  24.8398986  58.4705891  79.1078799  25.6933765
  58.1022396  79.5961449  24.4658391  58.4775173  79.0699129  24.9106092
  41.4595408  74.3219852  21.5758935  41.5611544  75.1246014  21.9039911
  42.2551294  74.1207188  21.2782016  41.5923313  74.4105751  21.5794291
  47.8912227  71.9076049  31.3396240  47.6995424  71.9231183  32.1895664
  48.7410823  72.1039723  31.3162895  47.9887949  71.9390400  31.4619535
  42.2759140  74.4367030  29.3180057  42.1344632  73.5850971  29.4424565
  42.5599703  74.4795691  28.4942263  42.2966986  74.3166780  29.2147681
  52.4297732  76.2734121  23.4624545  52.1832446  76.1929871  24.2961334
  52.7582855  75.4887588  23.2687073  52.4418976  76.1460386  23.5572068
  54.6623866  79.2813855  33.5033708  54.6571905  78.4093672  33.5076135
  55.3684860  79.4802024  33.0303164  54.7668870  79.1817729  33.4340743
  48.3894759  79.0090839  32.8747528  48.5338135  79.5892047  32.2390638
  48.7370408  79.3867136  33.5797383  48.4622221  79.1511543  32.8846523
  50.5614677  78.2081008  30.6572660  49.8137991  78.4012022  30.2520938
  50.7156202  77.3826227  30.4196781  50.4737104  78.1146119  30.5618066
  50.8016454  72.1031558  31.5468064  51.2589068  72.8355533  31.6740856
  50.8772783  71.6798023  32.3055319  50.8807424  72.1488796  31.6769140
  43.0449445  72.3497378  32.6357507  42.5091634  71.7377736  32.9518275
  43.1067210  72.9245514  33.2891174  42.9745078  72.3444306  32.7792934
  55.2743780  65.2821433  25.4161907  55.3927348  65.7397897  24.6829209
  55.1005955  64.4766695  25.1298124  55.2662951  65.2315206  25.2662840
  48.6798832  74.0933662  28.3909888  47.8894906  73.9125122  28.7127223
  49.0759454  73.3160615  28.3740182  48.6215708  73.9521123  28.4362436
  54.0642518  81.7276092  26.1169334  53.3887520  81.4961325  26.6182721
  54.0734894  81.1197275  25.4911439  53.9661022  81.6035018  26.0985486
  51.1936662  76.5693921  32.8733387  51.1295803  77.4303878  32.7453523
  51.3333850  76.2525914  32.0728938  51.2052132  76.6494088  32.7361599
  49.8755756  79.2626061  27.0149589  49.4518005  79.4630560  26.2788608
  49.7000611  78.4154909  27.1273889  49.7866636  79.1674842  26.9223280
  45.1638201  79.7578112  22.4477562  45.3202820  79.6924915  23.3033554
  45.5038794  80.5326665  22.2356242  45.2371436  79.8627310  22.5432156
  51.7017345  79.1335996  21.3170925  52.2432891  78.6306377  21.7809546
  52.0163904  79.0801190  20.5060410  51.8281742  79.0515417  21.2654737
  55.5734453  83.3438643  38.4297837  56.3869318  83.0723792  38.5902970
  55.4129419  83.0446183  37.6258033  55.6704401  83.2593569  38.3343243
  52.8506615  74.0272300  31.3693226  53.0648584  73.3883214  30.8156580
  52.2340514  74.4718124  30.9401087  52.7911944  73.9982444  31.2243657
  41.7372462  76.9413063  22.7638329  42.1171427  77.3597607  22.0998596
  41.1627827  77.5226518  23.0707172  41.7083787  77.0890921  22.7115070
  55.0145703  75.6361365  32.3076533  54.2022384  75.3287256  32.3889705
  55.4735637  75.1560365  32.8719245  54.9626088  75.5197858  32.4031127
  52.1099210  77.0421437  37.0905235  52.5798841  77.6663553  37.4773109
  52.1561090  76.3738412  37.6498450  52.1867086  77.0356117  37.2305306
  49.2670484  69.1478464  27.8154039  48.7508973  68.4558656  27.9405618
  48.7064413  69.8149241  27.7616638  49.1076997  69.1441722  27.8260105
  51.3362717  69.6871424  29.6446891  50.9494471  69.7120456  30.4260421
  50.8495655  69.1213103  29.1921408  51.2075226  69.6067175  29.6934795
  57.3112697  76.2534079  28.2686594  56.8840305  76.1660428  27.5134693
  56.6738750  76.3611855  28.8541438  57.1542304  76.2566739  28.2432035
  50.8033774  71.3609604  34.2083563  51.6307203  71.0894753  34.2642177
  50.8241620  72.1570446  34.5647381  50.9286624  71.4389359  34.2698746
  45.3803264  78.5073467  27.3953824  44.5391270  78.4077341  27.6032717
  45.5893272  79.2768948  27.7468144  45.2867956  78.6065511  27.4781138
  42.8578831  76.1293004  25.2238574  42.4635529  76.2036016  24.4488684
  42.3018948  76.5150951  25.7746936  42.7181643  76.1974779  25.1906234
  54.4943778  69.1074298  24.9042453  54.6993371  69.0396606  25.7499450
  54.1670202  69.9133119  24.8363631  54.4759025  69.2160239  25.0202108
  49.1919929  76.4354866  26.6451421  48.8883066  75.8810855  27.2461829
  48.4899349  76.6147076  26.1579455  49.0436138  76.3799649  26.6621127
  48.2486026  73.7455386  21.2096123  48.5245760  73.0274299  20.7973690
  48.8484695  74.3440306  21.0017229  48.3779290  73.7275757  21.1176884
  57.7477465  69.6606063  24.3845219  57.1351779  70.1476465  24.7698950
  57.8441640  68.9849553  24.9282870  57.6715363  69.6324371  24.5224077
  51.7496546  71.4168904  19.4842718  52.2040293  71.5879464  20.2090562
  52.2236592  70.8037014  19.0840494  51.8864866  71.3519789  19.5316479
  45.2712072  80.9017230  28.8145456  44.6800005  81.5426728  28.7848472
  46.0333095  81.3254847  28.7876756  45.2960332  81.0593068  28.8060604
  45.6672694  72.0619227  29.4813474  46.1274176  72.1358157  30.2188598
  45.7128801  72.8600481  29.1313295  45.7423250  72.1913374  29.5386231
  47.3156044  72.7285922  34.0485501  46.9241609  72.0819269  34.4841279
  47.4841907  73.3197357  34.6679757  47.2826955  72.7200190  34.2048207
  49.0909566  78.1211438  20.5887725  49.8351611  78.5085714  20.8270675
  49.2370262  77.2768863  20.7528213  49.2220151  78.0541911  20.6481695
  51.0089142  69.9161697  25.6219587  50.1625187  70.0884505  25.4960936
  51.0060274  69.1111041  25.9585415  50.8836292  69.8222726  25.6530714
  52.0787442  73.6936911  26.4881644  51.6047396  73.1678673  26.9986955
  52.4505578  73.1466384  25.9196506  52.0637331  73.5352908  26.4796792
  42.4560472  75.6908418  31.8565190  43.3186085  75.5904127  31.7702520
  42.1252255  75.1103127  31.2950762  42.5345669  75.5900045  31.7610596
  58.3424173  78.7539287  27.8988425  58.1022396  77.9145702  27.9030851
  58.8216180  78.8339454  28.6229198  58.3776356  78.6420687  28.0063227
  54.0070942  74.5873466  19.5507398  53.4793960  74.6702210  18.8613107
  54.4666650  75.3291337  19.5472043  53.9972792  74.7094128  19.4482093
  60.3429360  75.5340744  25.8517684  60.1039130  75.4936578  25.0138469
  60.5063261  76.3811896  25.9783405  60.3319663  75.6532829  25.7471166
  45.8162258  74.5150867  28.5175608  45.1915328  74.5269259  27.9101561
  45.4807853  74.9911042  29.1666849  45.6747750  74.5869384  28.5232177
  46.0004007  72.8575985  14.5748293  45.6516811  73.5095711  15.0379843
  45.5200453  72.8433099  13.8472165  45.8774251  72.9519039  14.5359385
  52.7294179  80.0174572  29.9317744  52.1151172  79.4732622  30.2266380
  53.2461464  79.5038808  29.4523560  52.7149842  79.8610981  29.9041973
  51.9690477  81.0878842  27.6662043  51.5418085  80.4628560  27.2327478
  51.9615421  80.8053764  28.4921050  51.9049618  80.9531622  27.7241871
  45.0853004  76.1244015  30.7350477  45.2446490  75.3687339  31.1402199
  44.9045897  76.6734954  31.3891215  45.0818363  76.0937829  30.8913183
  53.0273307  68.2905250  31.2901266  52.5313868  68.4868925  30.5992833
  53.7842369  68.6897919  31.1190068  53.0660131  68.3782984  31.1621403
  50.2976186  71.9647596  27.8804577  50.3218673  71.4307709  27.1917357
  50.5487660  71.4564905  28.5430168  50.3386105  71.8108500  27.8769222
  37.8083776  79.2479091  27.3147721  37.7027225  79.2025936  26.4499805
  37.0583996  79.5932872  27.5962006  37.6819379  79.2919999  27.2285051
  46.5777508  70.6918415  27.2610321  46.6175880  71.1927621  27.9745029
  45.7527173  70.7828808  26.9916244  46.4617034  70.7800231  27.3260860
  48.7607121  80.2579154  35.3630616  47.9102752  80.3950869  35.4988261
  48.9235249  79.5242933  35.8078318  48.6590985  80.1693256  35.4486215
  47.9991872  77.2078924  29.5584220  47.1683801  77.3752742  29.3519468
  47.9443389  76.8314875  30.3433106  47.8681287  77.1768656  29.6432748
  45.8075655  70.6987817  35.1940631  46.4328358  70.1549950  35.4670063
  45.3526135  70.2182735  34.6248421  45.8323916  70.5477299  35.1502225
  46.3727916  75.4834516  20.0874338  46.5130877  75.9806980  20.7902979
  46.8710448  74.7820810  20.2288552  46.4668997  75.4536495  20.2125917
  46.4028138  76.3501627  17.4166915  47.0373218  76.9462052  17.3516377
  46.4853749  76.0505085  18.2312785  46.5084689  76.3942535  17.5270001
  59.3810704  78.8817104  30.2853279  59.9728544  79.5214355  30.3171477
  59.8169698  78.1840141  30.5745346  59.5329135  78.8735455  30.3334112
  47.9807121  72.2815602  17.3912357  48.3022962  71.8018685  16.7371619
  48.2434065  73.0915248  17.2003168  48.0673146  72.3305500  17.2667849
  51.2104094  83.3034477  30.9111173  50.7029185  83.8570324  31.3551803
  50.9130740  83.3642767  30.0929947  51.0908979  83.3940788  30.8559630
  53.3766276  71.6687796  29.7535836  53.8021347  71.2160323  29.1419362
  52.7623269  71.1147867  30.0300623  53.3494921  71.5201772  29.7040861
  42.9081126  78.5469468  20.6856461  43.4173355  79.1433975  21.0667766
  43.3815398  78.2795441  20.0032880  43.0524502  78.5955283  20.6410984
  51.8160499  68.1402896  23.1626413  51.1728817  67.9900542  23.7311551
  51.4759906  67.8945241  22.3975518  51.6705576  68.0815019  23.1329428
  56.4059845  76.0962323  22.5856421  55.7351035  76.6392025  22.4569487
  57.0999595  76.5657178  22.3438116  56.4088713  76.2460594  22.5311949
  56.5687973  72.5518207  25.4946795  56.9215583  72.1247929  26.1692593
  55.7102774  72.4669050  25.6247871  56.4937417  72.4762947  25.6141805
  45.2671658  75.1825726  23.5529641  44.5483647  75.5989859  23.8202505
  45.6384020  75.7479965  23.0021279  45.2163589  75.3275008  23.5112448
  54.5671238  75.8153575  29.4431637  54.5469166  75.6336870  30.2966416
  54.6150439  76.6865594  29.4191221  54.5705879  75.9170113  29.5654932
  52.5117568  82.4040767  35.3680114  52.4713423  81.7590444  34.7825269
  53.3240887  82.3477384  35.6805526  52.6260722  82.2999734  35.3277063
  51.0418232  74.2223726  18.8903021  50.4483071  74.5440723  18.3387588
  51.0793510  73.3764822  18.6824127  50.9592621  74.1448054  18.7785792
  58.0012033  67.6736618  26.4231107  57.4942897  66.9665758  26.3552285
  58.7979466  67.3429807  26.5532184  58.0439272  67.5209770  26.4330102
  53.9176049  74.1803231  22.3204771  53.6889742  74.2035932  21.4783129
  54.1774125  73.3560698  22.4399781  53.9222237  74.0619311  22.2129969
  48.1995277  76.0337704  31.9229871  47.6874180  75.4258887  32.2814903
  48.0274773  76.7494296  32.3903847  48.0984914  76.0501003  32.0446095
  43.0460992  74.4775279  34.5732233  42.8763582  75.1376654  34.0280440
  42.6026942  74.6881840  35.2944722  42.9560325  74.6061261  34.5993862
  46.9720811  72.7179777  23.6158967  47.4478177  73.0796857  22.9809148
  46.4709411  73.3736244  23.8959109  46.9686170  72.8673966  23.5635708
  52.0764347  73.9561948  34.3632127  52.6335778  73.7275758  33.7310592
  51.7525412  74.7167614  34.0867339  52.1110758  74.0345785  34.2288624
  39.9463056  77.3822145  29.8320723  39.3989776  76.7122790  29.9501591
  40.7355434  77.0151992  29.8964190  39.9815240  77.2287131  29.8589423
  49.7947465  77.0429602  35.3284134  50.5458792  77.3581278  35.6423688
  49.9870041  76.8408773  34.5018056  49.9338879  77.0596983  35.2527530
  49.0147464  74.8620977  16.9832351  49.3946429  74.8800606  16.1983465
  48.2740060  75.3074966  16.8623198  48.9616302  74.9302751  16.8495919
  56.6432755  73.1703168  22.5707929  56.6426981  73.0151824  23.4292206
  56.4388935  74.0166155  22.5149315  56.6132533  73.2723789  22.6895869
  38.7050026  76.5942952  26.9866746  38.5271787  76.1419561  27.7121661
  38.4169048  77.3969114  27.1705223  38.6362979  76.6465510  27.1210249
  54.3673607  77.8500670  26.2244136  54.8627272  77.1323665  26.1848156
  53.5573383  77.5471467  26.1098623  54.3217500  77.6998316  26.2017862
  40.4422496  79.1270676  24.0988505  39.5768015  79.1156367  23.9871276
  40.5421312  78.9400899  24.9459644  40.3296663  79.0976737  24.2077449
  56.4325426  80.6004357  28.9121265  56.8580497  80.0778779  28.3591690
  56.0682346  81.1985195  28.3909888  56.4412028  80.6114584  28.7530275
  53.0204025  84.3138621  25.2422422  53.4915203  85.0278884  25.4112408
  53.3564204  83.7137372  25.7782292  53.1399140  84.3310086  25.3454798
  49.9373520  69.0866092  32.1980517  50.0701426  68.2897085  32.5261493
  50.3218673  69.6132495  32.7778793  50.0129849  69.0466009  32.3324020
  53.6577971  84.1056556  32.0050115  53.1098917  83.4814439  31.7370180
  54.1191000  84.2950828  31.2894194  53.6445181  84.0415606  31.8600546
  56.4671836  72.1741910  29.3901307  55.8834825  72.6751117  28.9778875
  56.7876130  71.6671466  28.7565631  56.4285011  72.1733745  29.2359815
  49.0066635  71.0882505  19.6659982  49.8282329  71.2580818  19.4241677
  48.5436286  71.2429766  18.9426280  49.0597797  71.1364238  19.5231626
  47.5961967  69.0825267  30.4458411  48.1406380  68.7416394  31.0362753
  47.6498903  69.9410729  30.5879695  47.6851086  69.1580526  30.5540284
  22.0063839  12.9871556  22.7955766  22.7130606  12.4923587  22.9242700
  22.1951775  13.4280638  22.0658424  22.1391745  12.9789906  22.7064811
  19.1456134  16.4099093  20.6869841  19.2339479  16.2225233  21.5348052
  19.5745846  15.7636522  20.2874688  19.2218236  16.2862100  20.7541593
  16.7126593  15.6930253  19.6687503  16.1497428  15.2802862  20.1927165
  17.4747617  15.6183158  20.0880647  16.7421042  15.6207653  19.8080504
  13.3201491   7.9203861  21.4004549  13.4921995   7.8109755  22.2489830
  13.8570849   8.5658266  21.1635741  13.4246495   7.9995862  21.4909645
  19.2576193  15.8408112  23.3513625  20.0416609  15.9538959  23.7169367
  19.0572787  15.0149249  23.5472311  19.3442218  15.7354831  23.4348011
  19.4146586  17.7518214  16.9980080  18.6161832  17.5117714  17.2553949
  19.8632598  17.8032607  17.7447128  19.3621197  17.7240605  17.1465005
  18.4747323  11.4978659  24.8900269  17.6820304  11.8122170  25.0752888
  18.5896250  11.7130127  24.0521053  18.3742734  11.5762495  24.7938603
  19.4031116  11.3998862  19.8285565  19.9769977  10.7626107  19.9834129
  19.3245920  11.4002945  18.9595223  19.4764351  11.3063974  19.7231976
  24.7251264  12.7707840  19.8370418  24.4889901  11.9395905  19.7182479
  25.3694493  12.7193447  20.4225263  24.7845934  12.6405528  19.9056312
  25.7487684  12.5552289  15.8998713  25.4433501  13.2880346  16.2612029
  25.0293900  12.1490218  15.6191499  25.5975027  12.6034022  15.9111850
  31.4489476   9.1945289  15.2267057  31.3813977   9.2141249  14.3569644
  31.4345139  10.0375617  15.4522728  31.4368233   9.3219024  15.1319534
  15.8870485  11.8028273  18.0473545  15.3882178  12.5144041  18.1258433
  16.6970709  12.1228940  18.0091707  15.9326591  11.9555122  18.0530114
  14.8137543   4.6609317  23.3435843  14.0037318   4.9667097  23.2325686
  15.2912229   5.3814900  23.4588427  14.7641021   4.8123918  23.3442914
  21.4376939   9.6636063  20.4373755  21.4324978   8.7915879  20.4416181
  22.1437933   9.8624232  19.9643211  21.5421943   9.5639937  20.3680790
  15.1647833   9.3913047  19.8087575  15.3091208   9.9714255  19.1730685
  15.5123481   9.7689343  20.5137430  15.2375294   9.5333751  19.8186570
  14.2375588  17.5815818  16.6748602  14.3865151  17.0218734  16.0222006
  15.0175590  17.6607820  17.0581121  14.3749681  17.5101384  16.6345551
  16.7628888  17.7530461  17.9533093  16.6872559  17.0839272  18.5083881
  16.6918747  18.4548249  18.4673759  16.7409495  17.7575369  18.1109941
  16.1520522  21.1598781  16.4111094  16.6416453  20.4609570  16.2286758
  15.5804755  20.8622651  16.9987151  16.1405052  21.0125005  16.4712134
  22.3487526  13.7260850  25.3637884  23.1622391  13.4545999  25.5243017
  22.1882492  13.4268390  24.5598080  22.4457474  13.6415776  25.2683290
  21.7898776   6.0183573  19.2416580  20.9775458   5.7109463  19.3229752
  22.2488711   5.5382573  19.8059292  21.7379161   5.9020065  19.3371174
  18.8852284   7.4243644  24.0245282  19.3551915   8.0485761  24.4113156
  18.9314164   6.7560620  24.5838497  18.9620159   7.4178324  24.1645353
  22.3608770  14.7867141  20.6360725  22.9988491  14.2927336  20.3023181
  21.7182862  14.7144541  20.0512952  22.3602997  14.7026149  20.5003080
  22.4163027  15.4786949  17.2766082  23.2055405  15.1276014  17.3968163
  22.5906624  16.2923337  17.0142715  22.5583308  15.5472806  17.2553949
  14.0291353  14.0326795  18.2863566  13.9211708  14.0428857  19.1525624
  14.2387134  14.8581575  18.0968519  14.0441464  14.1567869  18.3867657
  28.1655566  11.1145207  16.7462781  28.2238690  11.5631855  17.4922758
  27.5322034  11.5244019  16.3092861  28.0806862  11.2418941  16.7915330
  21.8054661  16.7348749  13.1817528  21.6074350  17.2239563  12.4873739
  21.1842372  16.9389990  13.7601661  21.6842226  16.8365287  13.1640751
  23.7228463  10.3012901  18.7162776  24.4462662   9.8485427  18.5373796
  23.4578425  10.5817567  17.9335104  23.7909736  10.2763869  18.5741491
  15.5360195  10.6401362  22.2970663  14.6855825  10.7773076  22.4328308
  15.6988322   9.9065140  22.7418364  15.4344058  10.5515463  22.3826262
  26.1563777   9.2639312  17.2193326  26.7481617   9.9036562  17.2511524
  26.5922772   8.5662348  17.5085393  26.3082208   9.2557662  17.2674158
  17.9857167  13.6856684  17.8451220  17.4782258  14.2392531  18.2891850
  17.6883813  13.7464974  17.0269994  17.8662052  13.7762995  17.7899676
  17.2299652  18.6181242  14.7508227  17.0065307  17.8600072  15.1192253
  16.7409495  18.6479263  14.0288666  17.1243101  18.5103467  14.6984968
  19.2870642  12.7862975  22.3020160  19.2466496  12.1412651  21.7165316
  20.0993960  12.7299592  22.6145572  19.4013795  12.6821941  22.2617109
  18.8517421   4.3384156  21.2972173  19.4088851   4.1097965  20.6650639
  18.5278486   5.0989821  21.0207386  18.8863831   4.4167992  21.1628671
  16.5700538   7.4251809  22.2624181  17.3211865   7.7403486  22.5763735
  16.7623114   7.2230980  21.4358102  16.7091952   7.4419191  22.1867576
  23.2078499  10.9826565  15.8461312  23.6333570  10.4600986  15.2931737
  22.8435419  11.5807402  15.3249935  23.2165101  10.9936792  15.6870321
  12.8432579  19.2790782  14.6058657  13.1579138  20.0927171  14.6136439
  13.2525992  18.8941001  15.2740816  12.9500677  19.3419484  14.7062749
  21.8834083  16.3062142  24.3554541  21.9931048  15.5170703  24.7111288
  22.2124980  16.2168078  23.5528879  21.9486489  16.1767995  24.2896932
  20.4331045  14.4878763  18.9390162  19.8851991  13.8636647  18.6710227
  20.8944073  14.6773035  18.2234241  20.4198254  14.4237813  18.7940593
  19.9989371  15.4929836  15.4699503  20.8187745  15.3492802  15.7315798
  19.7183449  16.1176035  16.0115941  20.0786114  15.5640188  15.5887442
  36.4703021  23.1494687   8.4342379  36.4397026  24.0039324   8.6060649
  37.0684370  22.8489980   8.9928523  36.5540179  23.2311184   8.5417182
  29.6702706  22.2370338  13.1895310  28.8140602  22.3978837  13.2404427
  29.7170360  21.3662402  13.2100371  29.5501818  22.1321140  13.2001376
  24.0543846  31.7733056   8.9532541  23.3026745  31.3948595   8.7248586
  24.5029858  31.8051490   8.2051352  24.0093513  31.7218663   8.8090044
  29.5068806  32.1958426   4.3818088  29.1720174  32.8735347   3.9462311
  30.0195676  31.8063737   3.7934960  29.5334387  32.2383004   4.2304880
  29.0473097  34.1472694  10.3229200  29.4312476  34.7159593   9.7833975
  28.9832238  33.4222205   9.8435016  29.0946524  34.1248158  10.1723063
  32.5154527  24.2962382  15.8326961  33.0610487  24.9747469  15.8920931
  32.4571404  24.1549843  14.9728543  32.5870442  24.3754384  15.7139022
  25.6328602  31.7851448  11.2195314  25.7338965  30.9751802  11.5292442
  25.0370347  31.6908395  10.5894992  25.5601141  31.6516477  11.1721552
  34.2919596  25.7246989   6.7060689  34.1759122  26.4754676   7.1352827
  35.0875483  25.4670943   6.9556776  34.3924185  25.7981836   6.8064781
  25.4729342  36.7029038  12.6210170  26.1166797  37.1442202  13.0106328
  25.7985597  35.8982464  12.5340429  25.6161170  36.6494232  12.6655647
  18.8293646  27.8071735  10.8447648  18.5943831  26.9739387  10.7379916
  18.9679287  28.0876401  10.0308848  18.8149309  27.7255238  10.7090003
  21.1283734  19.9757466  13.7431955  20.5088765  19.3850113  13.5741970
  21.0267597  20.5668901  13.1096278  21.0221409  19.9761548  13.6236945
  26.1749921  29.7141012   7.9930032  26.4965762  30.2546220   7.3891340
  26.8222018  29.1437784   8.1252321  26.3175977  29.7100188   7.9237067
  28.2251629  21.7157007   8.0764418  28.9231794  21.8945135   8.5685882
  28.5403962  21.1927347   7.4534808  28.3746967  21.6650780   8.0566428
  20.8552867  23.5209747  15.9875524  20.7311564  24.1072193  16.6225343
  21.5071151  23.0269943  16.2887799  20.9326516  23.5348552  16.1261454
  28.4139565  28.1027452   8.0644210  28.8533200  27.4944553   8.5098983
  28.2644228  27.7234826   7.2929675  28.4561031  27.9565924   8.0163377
  25.8811208  26.6971464  15.2663035  26.5260210  26.2043907  14.9473984
  26.1212985  26.8396251  16.0929114  26.0121793  26.6448906  15.3412569
  28.4197299  29.5426370  14.9169928  28.7020542  28.7477776  14.6956684
  29.1483460  30.0206958  14.9374989  28.5686863  29.4960967  14.8872943
  26.3978493  17.0849404  12.1585693  26.0681823  17.5360548  11.4889392
  25.7223495  17.0065567  12.7058699  26.2488929  17.1400539  12.1408916
  32.0148901  26.4554634   5.0174979  31.9300197  27.3115600   5.1624548
  32.5033285  26.1798958   5.6857138  32.0737799  26.5411955   5.1377061
  33.6054901  13.0734927  10.4035304  33.2908342  13.7638406  10.8355726
  33.0881843  13.0179709   9.7020804  33.4819371  13.1669816  10.3632253
  32.9467335  23.0739428   6.5172714  32.4178806  23.2899061   7.1770020
  33.4692355  23.7675566   6.4373684  32.9455788  23.2082565   6.6028313
  38.4015388  28.6485732  11.8905759  37.5713091  28.8596376  12.0539175
  38.3524640  27.8222787  11.6148042  38.2722123  28.5575339  11.8743124
  20.3910971  32.6857406  12.1203854  19.9078549  33.4107895  12.0963437
  21.2034289  32.9833536  12.2314011  20.4401719  32.8359760  12.1331133
  26.4625125  31.4789587  14.7253668  25.9452067  31.1197002  14.1214976
  27.1599516  30.9551761  14.7359734  26.4890706  31.3487274  14.6383927
  27.6859177  31.2115561  19.6687503  27.1230012  30.7988170  20.1927165
  28.4480200  31.1368466  20.0880647  27.7153625  31.1392961  19.8080504
  23.2455168  33.2013582  12.2724133  23.9475748  32.6865571  12.3296890
  23.1652651  33.5287733  13.0771009  23.3378929  33.1727808  12.3996926
  37.8969346  21.2956133  15.6856180  37.0597767  21.3658320  15.9203774
  37.8657577  21.2980628  14.8130482  37.7687628  21.3066360  15.5915728
  24.2934075  23.4389169  21.4004549  24.4654579  23.3295063  22.2489830
  24.8303432  24.0843574  21.1635741  24.3979079  23.5181170  21.4909645
  22.5705944  29.3919934  11.7809742  23.4094843  29.6242866  11.8283503
  22.6017713  28.5224245  11.7116777  22.6987661  29.2976880  11.7774386
  23.1958647  29.8120809  16.0823047  23.7356872  29.6691940  16.7526419
  22.5128593  30.2117560  16.4507073  23.1750801  29.8500480  16.2357469
  32.6199532  25.4911810  11.2768071  33.3757047  25.9243324  11.3156980
  32.7261856  24.8416579  11.8502707  32.7469702  25.4589293  11.3666097
  35.6579703  29.3185087  12.0270474  35.2214935  29.3221829  12.7829446
  35.3242618  29.9990586  11.5950052  35.5442323  29.4197543  12.0751307
  18.5995792  26.0321100  16.2357469  18.3334207  25.2160216  16.3948459
  18.6134356  26.0774255  15.3652984  18.5620514  25.9178004  16.1310951
  35.5777186  16.3598915  14.2699902  36.2203094  16.4297019  14.8561818
  35.8300206  15.6928137  13.7679444  35.7099318  16.2725263  14.2827182
  23.3494398  19.5699478  18.8824476  22.6566195  19.0996458  19.1285208
  23.9654726  19.3437782  19.4566183  23.3378928  19.4666610  19.0033629
  30.3879170  33.2703522  16.9980080  29.5894415  33.0303022  17.2553949
  30.8365181  33.3217915  17.7447128  30.3353781  33.2425913  17.1465005
  38.7924049  26.0366007  10.9190112  39.4540483  25.4756675  10.8186020
  38.1515461  25.5418037  11.2442803  38.7952916  25.8802416  10.9522452
  29.6800857  29.3336138   3.2271035  30.0952005  29.0021162   2.5355531
  28.8492786  29.1005040   3.0991172  29.6188865  29.2507394   3.1061882
  19.0089205  26.8179879  13.5169213  18.8264779  26.7926765  12.6641505
  19.7438874  27.2878817  13.5558122  19.0903269  26.8841241  13.3967131
  35.0788880  27.0531389  10.6602100  35.3144469  27.1976588   9.8328951
  35.2278443  27.8173797  11.0533614  35.1354683  27.1870443  10.5965704
  22.0734957  23.5364882  20.0251322  22.7974929  23.5217913  20.5116216
  22.1751094  24.2460237  19.5273290  22.1953166  23.6389585  20.0230108
  36.9079336  25.8933055   8.4971704  37.2387554  26.4260695   7.8911799
  37.4812425  25.9471943   9.1533655  37.0413016  25.9802624   8.5049486
  32.1211226  23.7397958   9.1795284  32.2158080  24.4787252   9.6334910
  31.4970069  23.3115433   9.6129849  32.0420256  23.7859278   9.3103432
  30.3763699  26.9184170  19.8285565  30.9502561  26.2811415  19.9834129
  30.2978503  26.9188253  18.9595223  30.4496934  26.8249282  19.7231976
  18.9760116  23.6973380  13.6668279  19.5533618  23.5609831  14.3060525
  18.2774178  23.2409164  13.9213864  18.9581137  23.6095646  13.7990569
  25.7327418  25.3507435  11.8806763  25.4746662  24.5179170  11.8538062
  25.7875901  25.5765048  11.0399263  25.7027196  25.2605207  11.7526899
  30.8128468  17.4535886  11.9810855  30.1084795  16.9645072  12.1394774
  30.8613442  17.4658361  11.1099300  30.7158520  17.3825534  11.8750195
  24.7062130  22.9045198  12.3671657  24.1311721  23.0637366  13.0035618
  24.3297806  22.2680607  11.9040108  24.5664943  22.8343011  12.3926216
  28.3735419  21.3768547  17.2264036  27.9849852  20.9522765  16.5716227
  27.7090117  21.6250697  17.7341062  28.2182347  21.3507268  17.2051904
  38.0158688  21.1343552  10.0011866  37.7595253  20.3223493   9.8109749
  38.8588002  21.1421119   9.7742053  38.1024713  21.0155549   9.9396683
  32.1961780  15.0743176  14.7388020  32.5772292  14.3921347  15.1255894
  31.3925065  14.7852778  14.5563685  32.1338242  14.9310224  14.7692076
  29.4774357  25.6067152   5.4240843  30.2914996  25.8982045   5.3123614
  29.4133498  24.9527014   4.8499136  29.5877096  25.5532347   5.3229680
  35.6983847  28.2893148  19.8370418  35.4622485  27.4581213  19.7182479
  36.3427076  28.2378755  20.4225263  35.7578518  28.1590836  19.9056312
  25.3482265  29.0788669  10.5513155  25.9856212  28.8400417  11.0964948
  25.7737337  29.2825828   9.8166315  25.5058432  29.0739679  10.5230312
  20.0394908  31.3177006  14.4347459  20.0799053  31.5891857  13.6067238
  20.5989432  31.8418914  14.8505247  20.1278254  31.4352761  14.3739347
  26.1553621  17.5797374  24.6050629  25.8407062  18.3496937  24.3420191
  25.8343553  17.0167630  24.0202855  26.0612540  17.6107643  24.4791978
  36.7220268  28.0737597  15.8998713  36.4166085  28.8065654  16.2612029
  36.0026484  27.6675526  15.6191499  36.5707610  28.1219330  15.9111850
  27.7303737  29.5561092  12.2306941  27.8042746  29.3936264  13.0848791
  28.5473244  29.7451281  11.9867423  27.8620096  29.5597834  12.3204967
  42.4222060  24.7130597  15.2267057  42.3546560  24.7326556  14.3569644
  42.4077722  25.5560925  15.4522728  42.4100816  24.8404332  15.1319534
  21.4909494  29.9018955   9.2601385  20.6647612  30.1480692   9.1335663
  21.5521485  29.8231036  10.1263443  21.3783661  29.9263904   9.3690329
  32.8318406  16.1165755  18.5508147  33.5771998  15.9275565  18.1371572
  32.4155711  16.6423993  17.9922003  32.8803381  16.1667900  18.4072720
  26.2708323  32.5195835   6.9620415  26.5606621  32.1284816   6.2379641
  27.0011804  32.7012540   7.4025690  26.4215207  32.4889649   6.9203222
  40.2080677  23.4874984  13.5013652  40.7588599  22.8543053  13.7410744
  40.1924793  24.0190376  14.1929156  40.2865874  23.4723932  13.6392510
  26.8603068  27.3213581  18.0473545  26.3614762  28.0329349  18.1258433
  27.6703292  27.6414247  18.0091707  26.9059175  27.4740429  18.0530114
  24.2114239  34.4963217  10.0280564  23.9914534  34.2060572  10.8207231
  23.9908761  33.8378172   9.4998477  24.1461833  34.3562926  10.0669473
  23.1231186  26.5836534  12.2936266  22.8344434  25.9574005  12.8281993
  23.9914534  26.5256821  12.3600946  23.2091438  26.4824078  12.3827221
  33.9109084  21.7271317  12.6118248  33.5673849  21.0061652  12.9625497
  34.0102126  21.5185168  11.7696606  33.8751126  21.5895520  12.5389928
  26.3782194  35.8692607   8.8111257  27.0306252  35.3369050   9.0402283
  25.6807803  35.5161260   9.1979131  26.3712912  35.7382130   8.9023424
  23.3263459  28.2231785   8.2178631  24.0809427  28.6044824   8.4314094
  22.7334072  28.6742929   8.6725328  23.3500173  28.3460612   8.3161509
  34.3722113  28.1897021   8.1542236  34.9380145  28.8490231   8.0700779
  33.7250016  28.5346719   8.6258638  34.3600869  28.3378963   8.2114992
  25.7870126  20.1794625  23.3435843  24.9769902  20.4852405  23.2325686
  26.2644813  20.9000208  23.4588427  25.7373605  20.3309226  23.3442914
  24.6461686  29.3940346  13.5918746  24.1242439  29.5340638  14.2770611
  25.0335706  28.6351011  13.7820864  24.6265387  29.3025870  13.7219823
  30.8428691  31.1335805   7.5779315  30.6015367  30.4003666   7.1706380
  31.0230024  31.6822662   6.9245648  30.8336315  31.1058197   7.4209538
  26.0728011  26.4244365   8.9900237  25.8770794  27.0319100   8.3960540
  26.2962357  25.7312309   8.5091911  26.0762652  26.4121891   8.8316318
  24.4706541  23.3099103   9.1081106  25.1929193  23.4740261   8.6484912
  23.9914534  24.0308768   9.0020446  24.5070272  23.4397333   9.0246720
  32.4300049  19.6462902  14.4877791  31.5911150  19.6724181  14.2516054
  32.5004416  20.2933637  15.0683137  32.3168442  19.7459028  14.5386908
  22.1214158  25.7157176  18.2135246  22.6335255  25.9941429  17.5644005
  21.8350501  26.4546470  18.5798059  22.1549021  25.8659529  18.1725124
  30.8769327  16.5448279   9.2205407  31.5795680  16.3456027   8.7425365
  30.6113516  15.7724221   9.5274250  30.9415960  16.4011245   9.1950848
  36.3057573  24.8530889  11.7739032  36.2191547  25.0086315  12.6273811
  35.8508053  25.4968964  11.3998438  36.2260829  24.9706644  11.8446139
  25.6397883  17.8083564  18.2736287  25.4481080  17.8238699  19.1235711
  26.4896479  18.0047238  18.2502942  25.7373605  17.8397915  18.3959582
  20.0244796  20.3374546  16.2520104  19.8830288  19.4858486  16.3764612
  20.3085360  20.3803206  15.4282310  20.0452643  20.2174296  16.1487728
  30.1783389  22.1741636  10.3964592  29.9318103  22.0937387  11.2301381
  30.5068512  21.3895104  10.2027119  30.1904632  22.0467901  10.4912115
  34.0731438  28.8824995  14.1851373  33.9345797  29.5806041  14.6900116
  33.2931436  28.7273652  13.8287555  33.9374665  28.9625162  14.2077647
  26.1380416  24.9098354  19.8087575  26.2823792  25.4899563  19.1730685
  26.4856065  25.2874651  20.5137430  26.2107877  25.0519058  19.8186570
  28.3100333  24.1088523  17.5912707  27.5623648  24.3019537  17.1860985
  28.4641859  23.2833742  17.3536828  28.2222761  24.0153634  17.4958113
  25.2108171  33.1001126  16.6748602  25.3597735  32.5404042  16.0222006
  25.9908173  33.1793128  17.0581121  25.3482265  33.0286692  16.6345551
  35.5684811  28.2403249   4.9467872  35.1891619  27.4540387   4.9397162
  34.9051056  28.7890106   4.8039517  35.4143285  28.2048073   4.9248669
  27.7361472  33.2715769  17.9533093  27.6605143  32.6024580  18.5083881
  27.6651331  33.9733557  18.4673759  27.7142079  33.2760676  18.1109941
  28.5502111  18.0039074  18.4808110  29.0074725  18.7363048  18.6080903
  28.6258439  17.5805539  19.2395366  28.6293080  18.0496312  18.6109187
  20.7935102  18.2504893  19.5697554  20.2577291  17.6385251  19.8858321
  20.8552866  18.8253029  20.2231221  20.7230734  18.2451821  19.7132981
  33.0229436  11.1828949  12.3501953  33.1413005  11.6405412  11.6169256
  32.8491612  10.3774210  12.0638171  33.0148607  11.1322721  12.2002887
  28.3931719  31.7916768   8.7856699  29.1581610  31.5226412   8.4639363
  28.2909809  31.3066778   9.5026761  28.4913214  31.6806333   8.8436526
  26.4284488  19.9941177  15.3249934  25.6380563  19.8132638  15.6467270
  26.8245111  19.2168130  15.3080229  26.3701365  19.8528638  15.3702483
  31.8128175  27.6283608  13.0509380  31.1373177  27.3968840  13.5522767
  31.8220551  27.0204791  12.4251485  31.7146679  27.5042533  13.0325533
  28.9422319  22.4701437  19.8073433  28.8781460  23.3311393  19.6793570
  29.0819506  22.1533430  19.0068985  28.9537789  22.5501603  19.6701646
  33.8144909  30.4848740   5.2819558  33.8964747  31.2915726   4.9581009
  34.2994652  30.5044699   6.0060332  33.8982067  30.6069402   5.3406457
  27.6241413  25.1633576  13.9489636  27.2003662  25.3638075  13.2128655
  27.4486268  24.3162424  14.0613936  27.5352293  25.0682357  13.8563326
  27.1253106  36.6784089  16.4111094  27.6149036  35.9794878  16.2286758
  26.5537338  36.3807959  16.9987151  27.1137636  36.5310313  16.4712134
  22.9123858  25.6585627   9.3817609  23.0688477  25.5932430  10.2373601
  23.2524451  26.4334180   9.1696288  22.9857092  25.7634825   9.4772203
  29.4503002  25.0343511   8.2510972  29.9918548  24.5313892   8.7149593
  29.7649561  24.9808706   7.4400457  29.5767399  24.9522932   8.1994784
  27.6189452  30.4260862   5.5351000  27.6882272  29.5675401   5.6744000
  28.3977907  30.6432743   5.2070025  27.7442302  30.3313726   5.5068157
  30.5992272  19.9279815  18.3033272  30.8134241  19.2890730  17.7496626
  29.9826171  20.3725639  17.8741134  30.5397601  19.8989959  18.1583704
  32.0096939  32.8498564   9.7487493  31.6176731  32.5465279   9.0310359
  32.1650012  33.6867654   9.5592447  31.9750529  32.9282400   9.6143990
  19.4858119  22.8420578   9.6978376  19.8657084  23.2605123   9.0338643
  18.9113484  23.4234034  10.0047219  19.4569444  22.9898437   9.6455117
  32.7631360  21.5368881  19.2416580  31.9508041  21.2294771  19.3229752
  33.2221294  21.0567881  19.8059292  32.7111744  21.4205373  19.3371174
  32.1736614  29.4148553   9.6893524  31.8151269  29.5863195  10.4657556
  31.6875325  29.8761758   9.1321522  32.0495311  29.5087524   9.7218793
  29.9907000  13.0379751  13.2920615  29.1200558  13.0118472  13.2453925
  30.2447341  12.8656943  12.4746461  29.9000560  13.0089895  13.1640752
  29.8584867  22.9428952  24.0245282  30.3284498  23.5671068  24.4113156
  29.9046747  22.2745928  24.5838497  29.9352743  22.9363632  24.1645353
  27.0156141  15.0485980  14.7494086  26.4994629  14.3566171  14.8745665
  26.4550070  15.7156757  14.6956684  26.8562654  15.0449237  14.7600152
  29.0848374  15.5878940  16.5786938  28.6980127  15.6127971  17.3600468
  28.5981311  15.0220618  16.1261455  28.9560883  15.5074690  16.6274842
  35.0598354  22.1541595  15.2026640  34.6325962  22.0667943  14.4474740
  34.4224407  22.2619370  15.7881484  34.9027961  22.1574254  15.1772082
  28.7505516  12.4745925  18.8697198  29.3798634  13.0106225  18.5918268
  28.9191379  12.3823284  19.7210764  28.8683310  12.5407287  18.9545726
  28.5519431  17.2617120  21.1423610  29.3792860  16.9902269  21.1982224
  28.5727277  18.0577961  21.4987428  28.6772281  17.3396874  21.2038793
  33.3895610  30.9972257  17.2766082  34.1787988  30.6461322  17.3968163
  33.5639208  31.8108645  17.0142715  33.5315892  31.0658114  17.2553949
  23.1288921  24.4080983  14.3293870  22.2876927  24.3084857  14.5372764
  23.3378929  25.1776463  14.6808191  23.0353613  24.5073026  14.4121185
  20.6064488  22.0300520  12.1578621  20.2121185  22.1043531  11.3828731
  20.0504604  22.4158466  12.7086983  20.4667300  22.0982294  12.1246281
  32.2429434  15.0081814  11.8382500  32.4479028  14.9404121  12.6839497
  31.9155858  15.8140635  11.7703677  32.2244682  15.1167754  11.9542155
  26.9405585  22.3362382  13.5791468  26.6368723  21.7818370  14.1801876
  26.2385006  22.5154592  13.0919502  26.7921795  22.2807164  13.5961174
  25.0023936  29.5512102  18.2863566  24.8944291  29.5614165  19.1525624
  25.2119718  30.3766883  18.0968519  25.0174048  29.6753177  18.3867657
  35.4963122  15.5613578  11.3185265  34.8837436  16.0483980  11.7038997
  35.5927297  14.8857069  11.8622917  35.4201020  15.5331887  11.4564124
  23.0197728  26.8024745  15.7485503  22.4285662  27.4434243  15.7188518
  23.7818752  27.2262362  15.7216803  23.0445989  26.9600583  15.7400650
  23.4158351  17.9626743  16.4153521  23.8759833  18.0365672  17.1528645
  23.4614458  18.7607997  16.0653342  23.4908907  18.0920890  16.4726277
  25.0641701  18.6293438  20.9825548  24.6727266  17.9826785  21.4181326
  25.2327564  19.2204873  21.6019803  25.0312611  18.6207705  21.1388254
  39.1388150  26.6330515  16.7462781  39.1971274  27.0817163  17.4922758
  38.5054618  27.0429327  16.3092861  39.0539445  26.7604249  16.7915330
  32.7787245  32.2534056  13.1817528  32.5806933  32.7424871  12.4873739
  32.1574956  32.4575298  13.7601661  32.6574809  32.3550595  13.1640751
  26.8395223  24.0218953   7.5227772  27.5837268  24.4093230   7.7610722
  26.9855919  23.1776379   7.6868260  26.9705808  23.9549426   7.5821742
  28.7574799  15.8169212  12.5559633  27.9110844  15.9892020  12.4300983
  28.7545931  15.0118556  12.8925462  28.6321948  15.7230241  12.5870760
  29.8273099  19.5944427  13.4221691  29.3533053  19.0686189  13.9327002
  30.1991235  19.0473899  12.8536553  29.8122988  19.4360423  13.4136838
  20.2046129  21.5915933  18.7905237  21.0671742  21.4911643  18.7042567
  19.8737912  21.0110643  18.2290809  20.2831325  21.4907560  18.6950643
  36.0909830  24.6546802  14.8328472  35.8508052  23.8153217  14.8370898
  36.5701837  24.7346969  15.5569245  36.1262013  24.5428202  14.9403274
  38.0915017  21.4348259  12.7857731  37.8524787  21.3944094  11.9478516
  38.2548918  22.2819412  12.9123452  38.0805320  21.5540344  12.6811213
  34.6961047  25.8198209  18.7162776  35.4195246  25.3670735  18.5373796
  34.4311009  26.1002874  17.9335104  34.7642320  25.7949177  18.5741491
  23.5647915  20.4158382  15.4515655  22.9400985  20.4276774  14.8441608
  23.2293510  20.8918557  16.1006895  23.4233407  20.4876899  15.4572224
  20.2773591  28.4758842  16.8919420  19.7473515  27.7851281  16.9414394
  20.5498684  28.4669028  16.0632128  20.2398313  28.3725974  16.7766835
  31.3093681  29.0584545   5.6157102  32.0327880  29.5242658   5.4721675
  30.8694272  29.1258154   4.8654699  31.3509373  29.1368381   5.4841884
  30.4779836  25.9182087  16.8657791  29.8636829  25.3740137  17.1606426
  30.9947121  25.4046323  16.3863607  30.4635499  25.7618496  16.8382020
  29.7176133  26.9886357  14.6002090  29.2903741  26.3636076  14.1667525
  29.7101078  26.7061279  15.4261097  29.6535275  26.8539138  14.6581917
  22.8338660  22.0251530  17.6690524  22.9932147  21.2694854  18.0742246
  22.6531554  22.5742470  18.3231261  22.8304019  21.9945344  17.8253230
  30.7758963  14.1912766  18.2241313  30.2799525  14.3876440  17.5332880
  31.5328025  14.5905434  18.0530115  30.8145788  14.2790499  18.0961450
  28.0461843  17.8655112  14.8144624  28.0704330  17.3315224  14.1257404
  28.2973317  17.3572420  15.4770214  28.0871762  17.7116016  14.8109268
  15.5569433  25.1486607  14.2487768  15.4512882  25.1033451  13.3839852
  14.8069653  25.4940387  14.5302053  15.4305036  25.1927515  14.1625098
  24.3263165  16.5925930  14.1950368  24.3661537  17.0935136  14.9085075
  23.5012830  16.6836324  13.9256291  24.2102691  16.6807746  14.2600906
  26.5092778  26.1586670  22.2970663  25.6588409  26.2958384  22.4328308
  26.6720906  25.4250448  22.7418364  26.4076642  26.0700771  22.3826262
  25.7477529  23.1086440  16.4924267  24.9169458  23.2760258  16.2859515
  25.6929046  22.7322390  17.2773152  25.6166944  23.0776171  16.5772795
  23.5561312  16.5995333  22.1280678  24.1814015  16.0557465  22.4010110
  23.1011792  16.1190250  21.5588468  23.5809573  16.4484814  22.0842272
  37.1296361  24.7824620  17.2193326  37.7214201  25.4221870  17.2511524
  37.5655355  24.0847656  17.5085393  37.2814792  24.7742970  17.2674158
  28.9589750  29.2041992  17.8451220  28.4514842  29.7577839  18.2891850
  28.6616397  29.2650282  17.0269994  28.8394635  29.2948303  17.7899676
  31.1251933  17.5695312  16.6875883  31.5507004  17.1167838  16.0759409
  30.5108926  17.0155382  16.9640670  31.0980578  17.4209288  16.6380908
  31.5697531  33.1205250   5.7755163  30.8526840  32.9466112   5.3102401
  32.2204268  32.8857822   5.2430649  31.5599381  33.0601042   5.6284381
  34.1545502  21.9969838   9.5196468  33.4836692  22.5399540   9.3909534
  34.8485252  22.4664694   9.2778163  34.1574370  22.1468109   9.4651996
  28.2032236  34.1366550  14.7508227  27.9797890  33.3785379  15.1192253
  27.7142079  34.1664571  14.0288666  28.0975685  34.0288775  14.6984968
  34.3173629  18.4525722  12.4286842  34.6701240  18.0255445  13.1032640
  33.4588431  18.3676565  12.5587918  34.2423074  18.3770463  12.5481852
  23.0157314  21.0833242  10.4869688  22.2969304  21.4997374  10.7542552
  23.3869677  21.6487480   9.9361326  22.9649246  21.2282523  10.4452495
  32.3156895  21.7161090  16.3771684  32.2954823  21.5344386  17.2306463
  32.3636096  22.5873109  16.3531267  32.3191536  21.8177629  16.4994978
  30.2603225  28.3048282  22.3020160  30.2199080  27.6597959  21.7165316
  31.0726543  28.2484900  22.6145572  30.3746379  28.2007249  22.2617109
  26.8510693  34.3567008  12.2045311  26.4371091  33.6941139  11.8149153
  27.5358067  34.5044867  11.6841005  26.8909064  34.2807667  12.0701808
  30.2175987  33.5157094  12.9568928  29.8192270  33.6259364  12.1889748
  29.6027206  33.7239160  13.5395488  30.0674876  33.5630662  12.9300227
  35.7497690  13.5744134  13.3571154  35.2428554  12.8673273  13.2892332
  36.5465123  13.2437323  13.4872231  35.7924929  13.4217285  13.3670149
  31.6661705  20.0810746   9.2544818  31.4375398  20.1043447   8.4123176
  31.9259782  19.2568213   9.3739828  31.6707893  19.9626826   9.1470015
  25.9480934  21.9345219  18.8569918  25.4359837  21.3266402  19.2154949
  25.7760430  22.6501812  19.3243894  25.8470571  21.9508518  18.9786142
  20.7946649  20.3782794  21.5072280  20.6249239  21.0384169  20.9620486
  20.3512598  20.5889356  22.2284769  20.7045982  20.5068776  21.5333909
  24.7206468  18.6187292  10.5499013  25.1963834  18.9804372   9.9149195
  24.2195068  19.2743760  10.8299156  24.7171827  18.7681481  10.4975754
  37.9517829  28.0909060   6.3412018  38.3351435  28.8400416   6.5710115
  37.1561943  28.3374880   6.0824008  37.8911612  28.2378754   6.3369592
  29.8250004  19.8569464  21.2972173  30.3821434  19.6283273  20.6650639
  29.5011069  20.6175129  21.0207386  29.8596414  19.9353300  21.1628671
  17.6948713  23.2829660  16.7660770  17.1475432  22.6130305  16.8841638
  18.4841091  22.9159508  16.8304237  17.7300897  23.1294646  16.7929470
  27.5433121  22.9437117  22.2624181  28.2944448  23.2588794  22.5763735
  27.7355698  22.7416288  21.4358102  27.6824536  22.9604499  22.1867576
  34.3918412  19.0710683   9.5047976  34.3912638  18.9159340  10.3632252
  34.1874592  19.9173670   9.4489362  34.3618189  19.1731304   9.6235915
  16.4535683  22.4950468  13.9206793  16.2757444  22.0427077  14.6461708
  16.1654705  23.2976629  14.1045270  16.3848636  22.5473025  14.0550296
  32.1159264  23.7508185  13.1584183  32.6112929  23.0331180  13.1188203
  31.3059039  23.4478983  13.0438670  32.0703157  23.6005831  13.1357909
  27.5617875  27.6005998   5.3081187  26.7529198  27.2772672   5.2614497
  28.0692784  26.8939220   5.2409436  27.5167542  27.4487315   5.2911482
  18.1908152  25.0278191  11.0328552  17.3253672  25.0163882  10.9211323
  18.2906968  24.8408414  11.8799691  18.0782319  24.9984253  11.1417496
  34.1811083  26.5011873  15.8461312  34.6066154  25.9786294  15.2931737
  33.8168002  27.0992710  15.3249935  34.1897685  26.5122100  15.6870321
  23.8165162  34.7976090  14.6058657  24.1311721  35.6112478  14.6136439
  24.2258576  34.4126309  15.2740816  23.9233260  34.8604792  14.7062749
  30.7689682  30.2146137  12.1762469  31.2400860  30.9286399  12.3452454
  31.1049860  29.6144887  12.7122339  30.8884797  30.2317601  12.2794845
  27.6859177  14.9873607  19.1320564  27.8187083  14.1904601  19.4601540
  28.0704330  15.5140010  19.7118840  27.7615506  14.9473524  19.2664067
  31.4063628  30.0064071  18.9390162  30.8584574  29.3821955  18.6710227
  31.8676657  30.1958343  18.2234241  31.3930838  29.9423121  18.7940593
  30.7591532  11.9103934  15.7301657  29.9537496  11.8001663  16.0469496
  30.6298268  12.0116389  14.8731523  30.6211665  11.9087604  15.6509698
  34.2157493  18.0749425  16.3241354  33.6320481  18.5758632  15.9118921
  34.5361787  17.5678982  15.6905677  34.1770668  18.0741260  16.1699861
  25.3447624  14.9832782  17.3798458  25.8892037  14.6423909  17.9702799
  25.3984559  15.8418244  17.5219742  25.4336743  15.0588042  17.4880331
  21.1578182  28.7449198  14.2537266  21.7623040  28.7045033  13.6251086
  20.9505495  29.5920350  14.2841321  21.2167080  28.8637201  14.1653382
  16.3929465  27.7283816  14.1236189  16.2953743  26.9180087  14.4326245
  17.1758334  27.7075609  13.7382457  16.4945601  27.6050906  14.1123052
  47.4435605  38.6679995   8.4342379  47.4129609  39.5224632   8.6060649
  48.0416954  38.3675288   8.9928523  47.5272763  38.7496492   8.5417182
  40.6435290  37.7555646  13.1895310  39.7873185  37.9164145  13.2404427
  40.6902944  36.8847710  13.2100371  40.5234401  37.6506448  13.2001376
  35.0276430  47.2918364   8.9532541  34.2759329  46.9133903   8.7248586
  35.4762441  47.3236798   8.2051352  34.9826096  47.2403971   8.8090044
  40.4801389  47.7143734   4.3818088  40.1452758  48.3920655   3.9462311
  40.9928260  47.3249045   3.7934960  40.5066971  47.7568312   4.2304880
  40.0205681  49.6658002  10.3229200  40.4045060  50.2344901   9.7833975
  39.9564822  48.9407513   9.8435016  40.0679108  49.6433466  10.1723063
  43.4887111  39.8147690  15.8326961  44.0343071  40.4932777  15.8920931
  43.4303987  39.6735151  14.9728543  43.5603025  39.8939692  15.7139022
  36.6061186  47.3036756  11.2195314  36.7071549  46.4937110  11.5292442
  36.0102931  47.2093703  10.5894992  36.5333724  47.1701784  11.1721552
  45.2652179  41.2432297   6.7060689  45.1491705  41.9939983   7.1352827
  46.0608066  40.9856251   6.9556776  45.3656769  41.3167144   6.8064781
  36.4461925  52.2214346  12.6210170  37.0899381  52.6627510  13.0106328
  36.7718181  51.4167772  12.5340429  36.5893754  52.1679540  12.6655647
  29.8026230  43.3257043  10.8447648  29.5676414  42.4924695  10.7379916
  29.9411871  43.6061709  10.0308848  29.7881892  43.2440546  10.7090003
  32.1016317  35.4942774  13.7431955  31.4821349  34.9035421  13.5741970
  32.0000181  36.0854209  13.1096278  31.9953993  35.4946856  13.6236945
  37.1482505  45.2326320   7.9930032  37.4698346  45.7731528   7.3891340
  37.7954602  44.6623092   8.1252321  37.2908560  45.2285496   7.9237067
  39.1984213  37.2342315   8.0764418  39.8964378  37.4130443   8.5685882
  39.5136546  36.7112655   7.4534808  39.3479550  37.1836087   8.0566428
  31.8285450  39.0395055  15.9875524  31.7044147  39.6257501  16.6225343
  32.4803735  38.5455251  16.2887799  31.9059100  39.0533860  16.1261454
  39.3872148  43.6212760   8.0644210  39.8265784  43.0129861   8.5098983
  39.2376811  43.2420134   7.2929675  39.4293614  43.4751231   8.0163377
  36.8543791  42.2156772  15.2663035  37.4992794  41.7229215  14.9473984
  37.0945568  42.3581559  16.0929114  36.9854377  42.1634214  15.3412569
  39.3929883  45.0611678  14.9169928  39.6753126  44.2663084  14.6956684
  40.1216043  45.5392266  14.9374989  39.5419447  45.0146275  14.8872943
  37.3711077  32.6034712  12.1585693  37.0414407  33.0545856  11.4889392
  36.6956078  32.5250875  12.7058699  37.2221513  32.6585847  12.1408916
  42.9881485  41.9739942   5.0174979  42.9032780  42.8300908   5.1624548
  43.4765868  41.6984266   5.6857138  43.0470382  42.0597263   5.1377061
  44.5787484  28.5920235  10.4035304  44.2640925  29.2823713  10.8355726
  44.0614426  28.5365017   9.7020804  44.4551955  28.6855123  10.3632253
  43.9199918  38.5924736   6.5172714  43.3911390  38.8084369   7.1770020
  44.4424938  39.2860874   6.4373684  43.9188371  38.7267873   6.6028313
  49.3747971  44.1671040  11.8905759  48.5445674  44.3781684  12.0539175
  49.3257223  43.3408095  11.6148042  49.2454707  44.0760647  11.8743124
  35.8099526  42.4887953   5.3180182  35.2256741  42.9937984   5.7246046
  35.4069621  42.2630340   4.5776774  35.6638830  42.5296201   5.2685207
  31.3643555  48.2042714  12.1203854  30.8811133  48.9293203  12.0963437
  32.1766873  48.5018844  12.2314011  31.4134302  48.3545067  12.1331133
  37.4357709  46.9974894  14.7253668  36.9184650  46.6382309  14.1214976
  38.1332100  46.4737069  14.7359734  37.4623290  46.8672582  14.6383927
  41.0921301  47.4469709  20.6869841  41.1804647  47.2595849  21.5348052
  41.5211013  46.8007138  20.2874688  41.1683403  47.3232716  20.7541593
  38.6591760  46.7300868  19.6687503  38.0962595  46.3173478  20.1927165
  39.4212784  46.6553774  20.0880647  38.6886209  46.6578269  19.8080504
  40.2676740  38.7353605   3.7949103  40.5072744  38.9431588   2.9824446
  40.5892581  37.9311113   3.9038047  40.3513898  38.6467706   3.6909656
  35.5767031  30.6647000   7.6408641  36.3312999  31.0325317   7.4025691
  35.3994565  31.0386555   8.4087820  35.6621509  30.7745188   7.7193529
  34.2187752  48.7198890  12.2724133  34.9208331  48.2050879  12.3296890
  34.1385235  49.0473041  13.0771009  34.3111512  48.6913116  12.3996926
  48.8701929  36.8141441  15.6856180  48.0330351  36.8843628  15.9203774
  48.8390160  36.8165936  14.8130482  48.7420212  36.8251668  15.5915728
  35.2666658  38.9574477  21.4004549  35.4387162  38.8480371  22.2489830
  35.8036016  39.6028882  21.1635741  35.3711662  39.0366478  21.4909645
  33.9324095  33.0717319   4.3386754  33.7499669  33.2889200   3.5127746
  34.7949708  33.1856332   4.3945368  34.0328685  33.1207217   4.2241241
  33.5438527  44.9105242  11.7809742  34.3827427  45.1428174  11.8283503
  33.5750296  44.0409553  11.7116777  33.6720245  44.8162188  11.7774386
  34.1691230  45.3306117  16.0823047  34.7089455  45.1877248  16.7526419
  33.4861177  45.7302868  16.4507073  34.1483384  45.3685788  16.2357469
  39.6123815  30.0743730   7.3735777  40.3409975  29.8959685   6.9273934
  39.7018707  30.9161810   7.5842956  39.7330477  30.1727608   7.3389295
  43.5932115  41.0097117  11.2768071  44.3489630  41.4428632  11.3156980
  43.6994440  40.3601887  11.8502707  43.7202286  40.9774601  11.3666097
  46.6312286  44.8370395  12.0270474  46.1947518  44.8407137  12.7829446
  46.2975202  45.5175894  11.5950052  46.5174906  44.9382850  12.0751307
  29.5728375  41.5506408  16.2357469  29.3066791  40.7345524  16.3948459
  29.5866940  41.5959563  15.3652984  29.5353098  41.4363312  16.1310951
  46.5509769  31.8784223  14.2699902  47.1935678  31.9482327  14.8561818
  46.8032790  31.2113445  13.7679444  46.6831901  31.7910571  14.2827182
  33.4786122  36.3491492   2.8509227  32.7644300  36.0629672   3.2631659
  33.9630091  36.6888118   3.4915614  33.4445486  36.3573142   3.0064862
  34.3226982  35.0884786  18.8824476  33.6298779  34.6181766  19.1285208
  34.9387309  34.8623090  19.4566183  34.3111512  34.9851918  19.0033629
  41.3611753  48.7888830  16.9980080  40.5626999  48.5488330  17.2553949
  41.8097765  48.8403222  17.7447128  41.3086365  48.7611221  17.1465005
  49.7656633  41.5551315  10.9190112  50.4273067  40.9941983  10.8186020
  49.1248045  41.0603345  11.2442803  49.7685500  41.3987724  10.9522452
  40.6533440  44.8521446   3.2271035  41.0684589  44.5206470   2.5355531
  39.8225370  44.6190348   3.0991172  40.5921449  44.7692702   3.1061882
  29.9821789  42.3365187  13.5169213  29.7997362  42.3112073  12.6641505
  30.7171458  42.8064125  13.5558122  30.0635853  42.4026549  13.3967131
  46.0521463  42.5716697  10.6602100  46.2877052  42.7161896   9.8328951
  46.2011027  43.3359105  11.0533614  46.1087267  42.7055751  10.5965704
  33.0467541  39.0550190  20.0251322  33.7707513  39.0403221  20.5116216
  33.1483677  39.7645545  19.5273290  33.1685750  39.1574893  20.0230108
  47.8811920  41.4118363   8.4971704  48.2120137  41.9446003   7.8911799
  48.4545008  41.4657251   9.1533655  48.0145599  41.4987932   8.5049486
  43.0943809  39.2583266   9.1795284  43.1890664  39.9972560   9.6334910
  42.4702653  38.8300741   9.6129849  43.0152839  39.3044586   9.3103432
  41.3496283  42.4369478  19.8285565  41.9235145  41.7996722  19.9834129
  41.2711087  42.4373561  18.9595223  41.4229518  42.3434590  19.7231976
  29.9492699  39.2158688  13.6668279  30.5266202  39.0795138  14.3060525
  29.2506761  38.7594472  13.9213864  29.9313721  39.1280954  13.7990569
  43.3466830  41.1032005   2.4132236  43.2646993  41.1734193   3.2787223
  43.9846551  41.6661749   2.2215977  43.4286668  41.1970977   2.5122186
  36.7060002  40.8692743  11.8806763  36.4479246  40.0364478  11.8538062
  36.7608484  41.0950356  11.0399263  36.6759779  40.7790515  11.7526899
  41.7861052  32.9721194  11.9810855  41.0817378  32.4830380  12.1394774
  41.8346026  32.9843668  11.1099300  41.6891103  32.9010842  11.8750195
  35.6794714  38.4230506  12.3671657  35.1044305  38.5822674  13.0035618
  35.3030390  37.7865915  11.9040108  35.5397526  38.3528319  12.3926216
  39.3468002  36.8953855  17.2264036  38.9582435  36.4708073  16.5716227
  38.6822701  37.1436005  17.7341062  39.1914930  36.8692576  17.2051904
  48.9891272  36.6528860  10.0011866  48.7327836  35.8408801   9.8109749
  49.8320585  36.6606427   9.7742053  49.0757297  36.5340857   9.9396683
  25.4251533  38.0670581  10.3816098  25.5111784  37.6902449  11.1629628
  26.0527330  37.6931026   9.9036056  25.5308084  37.9556063  10.4261575
  43.1694364  30.5928484  14.7388020  43.5504876  29.9106655  15.1255894
  42.3657648  30.3038086  14.5563685  43.1070826  30.4495532  14.7692076
  40.4506941  41.1252460   5.4240843  41.2647579  41.4167353   5.3123614
  40.3866082  40.4712322   4.8499136  40.5609680  41.0717654   5.3229680
  46.6716431  43.8078456  19.8370418  46.4355068  42.9766521  19.7182479
  47.3159660  43.7564063  20.4225263  46.7311102  43.6776144  19.9056312
  36.3214849  44.5973977  10.5513155  36.9588796  44.3585725  11.0964948
  36.7469920  44.8011136   9.8166315  36.4791015  44.5924987  10.5230312
  31.0127491  46.8362314  14.4347459  31.0531637  47.1077165  13.6067238
  31.5722015  47.3604222  14.8505247  31.1010837  46.9538069  14.3739347
  36.9617664  39.8176267   4.8888044  37.3462817  39.5983974   5.6404589
  36.7129284  40.6439212   5.0189121  36.9819737  39.9074413   5.0189121
  47.6952851  43.5922905  15.8998713  47.3898668  44.3250961  16.2612029
  46.9759067  43.1860834  15.6191499  47.5440194  43.6404638  15.9111850
  38.7036321  45.0746400  12.2306941  38.7775329  44.9121572  13.0848791
  39.5205827  45.2636589  11.9867423  38.8352679  45.0783142  12.3204967
  53.3954644  40.2315905  15.2267057  53.3279144  40.2511864  14.3569644
  53.3810306  41.0746233  15.4522728  53.3833400  40.3589640  15.1319534
  32.4642078  45.4204263   9.2601385  31.6380195  45.6666000   9.1335663
  32.5254069  45.3416343  10.1263443  32.3516245  45.4449212   9.3690329
  34.6818101  31.4873204  10.2196825  33.8140527  31.5595803  10.2854434
  34.9693306  32.2895283  10.4084800  34.5957849  31.6167351  10.2571591
  43.8050990  31.6351063  18.5508147  44.5504582  31.4460873  18.1371572
  43.3888295  32.1609301  17.9922003  43.8535964  31.6853208  18.4072720
  37.2440907  48.0381143   6.9620415  37.5339205  47.6470124   6.2379641
  37.9744387  48.2197848   7.4025690  37.3947791  48.0074957   6.9203222
  51.1813261  39.0060292  13.5013652  51.7321182  38.3728361  13.7410744
  51.1657376  39.5375684  14.1929156  51.2598457  38.9909240  13.6392510
  37.8335652  42.8398889  18.0473545  37.3347345  43.5514656  18.1258433
  38.6435876  43.1599555  18.0091707  37.8791758  42.9925737  18.0530114
  35.1846822  50.0148525  10.0280564  34.9647118  49.7245880  10.8207231
  34.9641344  49.3563480   9.4998477  35.1194416  49.8748234  10.0669473
  34.0963769  42.1021842  12.2936266  33.8077018  41.4759313  12.8281993
  34.9647117  42.0442129  12.3600946  34.1824021  42.0009386  12.3827221
  44.8841667  37.2456625  12.6118248  44.5406433  36.5246960  12.9625497
  44.9834710  37.0370476  11.7696606  44.8483710  37.1080828  12.5389928
  37.3514778  51.3877915   8.8111257  38.0038836  50.8554358   9.0402283
  36.6540387  51.0346568   9.1979131  37.3445496  51.2567438   8.9023424
  34.2996043  43.7417093   8.2178631  35.0542011  44.1230132   8.4314094
  33.7066655  44.1928236   8.6725328  34.3232756  43.8645920   8.3161509
  45.3454696  43.7082329   8.1542236  45.9112729  44.3675539   8.0700779
  44.6982600  44.0532027   8.6258638  45.3333453  43.8564271   8.2114992
  36.7602710  35.6979933  23.3435843  35.9502485  36.0037713  23.2325686
  37.2377396  36.4185516  23.4588427  36.7106189  35.8494534  23.3442914
  35.6194269  44.9125654  13.5918746  35.0975023  45.0525946  14.2770611
  36.0068290  44.1536318  13.7820864  35.5997970  44.8211178  13.7219823
  32.6085453  34.9631463   7.6613701  32.3210249  34.5932733   6.9245648
  33.2955922  35.4326318   7.3997406  32.6674351  34.9778432   7.5128777
  41.8161274  46.6521113   7.5779315  41.5747950  45.9188974   7.1706380
  41.9962607  47.2007970   6.9245648  41.8068898  46.6243505   7.4209538
  37.0460595  41.9429673   8.9900237  36.8503378  42.5504408   8.3960540
  37.2694941  41.2497617   8.5091911  37.0495236  41.9307199   8.8316318
  35.4439125  38.8284411   9.1081106  36.1661777  38.9925569   8.6484912
  34.9647118  39.5494076   9.0020446  35.4802856  38.9582641   9.0246720
  43.4032633  35.1648210  14.4877791  42.5643733  35.1909489  14.2516054
  43.4737000  35.8118945  15.0683137  43.2901026  35.2644336  14.5386908
  33.0946742  41.2342484  18.2135246  33.6067839  41.5126737  17.5644005
  32.8083084  41.9731778  18.5798059  33.1281605  41.3844837  18.1725124
  41.8501911  32.0633587   9.2205407  42.5528264  31.8641335   8.7425365
  41.5846100  31.2909529   9.5274250  41.9148543  31.9196553   9.1950848
  47.2790156  40.3716197  11.7739032  47.1924131  40.5271623  12.6273811
  46.8240636  41.0154272  11.3998438  47.1993413  40.4891952  11.8446139
  30.1813648  35.7412675   8.5098982  30.2829784  36.5438837   8.8379958
  30.9769535  35.5400011   8.2122063  30.3141554  35.8298574   8.5134338
  36.6130467  33.3268872  18.2736287  36.4213664  33.3424007  19.1235711
  37.4629063  33.5232546  18.2502942  36.7106189  33.3583223  18.3959582
  30.9977380  35.8559854  16.2520104  30.8562872  35.0043794  16.3764612
  31.2817943  35.8988514  15.4282310  31.0185226  35.7359604  16.1487728
  41.1515972  37.6926944  10.3964592  40.9050687  37.6122695  11.2301381
  41.4801095  36.9080412  10.2027119  41.1637216  37.5653209  10.4912115
  45.0464021  44.4010303  14.1851373  44.9078381  45.0991349  14.6900116
  44.2664019  44.2458960  13.8287555  44.9107248  44.4810470  14.2077647
  43.3842106  40.7006679  20.4373755  43.3790145  39.8286495  20.4416181
  44.0903100  40.8994848  19.9643211  43.4887110  40.6010553  20.3680790
  37.1113000  40.4283662  19.8087575  37.2556375  41.0084871  19.1730685
  37.4588648  40.8059959  20.5137430  37.1840461  40.5704366  19.8186570
  39.2832917  39.6273831  17.5912707  38.5356231  39.8204845  17.1860985
  39.4374442  38.8019050  17.3536828  39.1955345  39.5338942  17.4958113
  36.1840755  48.6186434  16.6748602  36.3330318  48.0589350  16.0222006
  36.9640757  48.6978436  17.0581121  36.3214848  48.5472000  16.6345551
  46.5417394  43.7588557   4.9467872  46.1624203  42.9725695   4.9397162
  45.8783640  44.3075414   4.8039517  46.3875869  43.7233381   4.9248669
  38.7094055  48.7901077  17.9533093  38.6337726  48.1209888  18.5083881
  38.6383914  49.4918865  18.4673759  38.6874662  48.7945984  18.1109941
  39.5234694  33.5224381  18.4808110  39.9807308  34.2548356  18.6080903
  39.5991023  33.0990847  19.2395366  39.6025664  33.5681620  18.6109187
  31.7667685  33.7690201  19.5697554  31.2309875  33.1570559  19.8858321
  31.8285450  34.3438337  20.2231221  31.6963318  33.7637129  19.7132981
  43.9962020  26.7014257  12.3501953  44.1145588  27.1590720  11.6169256
  43.8224196  25.8959518  12.0638171  43.9881191  26.6508029  12.2002887
  39.3664302  47.3102076   8.7856699  40.1314193  47.0411720   8.4639363
  39.2642392  46.8252086   9.5026761  39.4645798  47.1991641   8.8436526
  37.4017072  35.5126485  15.3249934  36.6113147  35.3317946  15.6467270
  37.7977695  34.7353438  15.3080229  37.3433948  35.3713946  15.3702483
  41.8882963  44.3414260   0.7656648  42.6555948  44.4014385   0.3562500
  41.4414272  43.7694701   0.2812967  41.9356390  44.2650835   0.6334358
  42.7860758  43.1468916  13.0509380  42.1105760  42.9154148  13.5522767
  42.7953134  42.5390098  12.4251485  42.6879263  43.0227841  13.0325533
  39.9154902  37.9886745  19.8073433  39.8514044  38.8496701  19.6793570
  40.0552090  37.6718738  19.0068985  39.9270372  38.0686911  19.6701646
  44.7877493  46.0034048   5.2819558  44.8697330  46.8101034   4.9581009
  45.2727235  46.0230007   6.0060332  44.8714651  46.1254710   5.3406457
  38.5973996  40.6818884  13.9489636  38.1736245  40.8823383  13.2128655
  38.4218851  39.8347732  14.0613936  38.5084877  40.5867665  13.8563326
  33.8856441  41.1770935   9.3817609  34.0421060  41.1117738  10.2373601
  34.2257034  41.9519488   9.1696288  33.9589676  41.2820133   9.4772203
  40.4235586  40.5528819   8.2510972  40.9651131  40.0499200   8.7149593
  40.7382145  40.4994014   7.4400457  40.5499983  40.4708240   8.1994784
  38.5922035  45.9446170   5.5351000  38.6614856  45.0860709   5.6744000
  39.3710491  46.1618051   5.2070025  38.7174886  45.8499034   5.5068157
  41.5724855  35.4465123  18.3033272  41.7866825  34.8076038  17.7496626
  40.9558754  35.8910947  17.8741134  41.5130184  35.4175267  18.1583704
  42.9829523  48.3683872   9.7487493  42.5909315  48.0650587   9.0310359
  43.1382595  49.2052962   9.5592447  42.9483113  48.4467708   9.6143990
  30.4590703  38.3605886   9.6978376  30.8389667  38.7790431   9.0338643
  29.8846067  38.9419341  10.0047219  30.4302028  38.5083745   9.6455117
  43.7363943  37.0554189  19.2416580  42.9240625  36.7480079  19.3229752
  44.1953878  36.5753189  19.8059292  43.6844328  36.9390681  19.3371174
  43.1469198  44.9333861   9.6893524  42.7883853  45.1048503  10.4657556
  42.6607909  45.3947066   9.1321522  43.0227895  45.0272832   9.7218793
  40.9639584  28.5565059  13.2920615  40.0933142  28.5303780  13.2453925
  41.2179925  28.3842251  12.4746461  40.8733144  28.5275203  13.1640752
  37.9357563  40.6133026   2.2293758  38.2250088  41.3897908   2.5037333
  38.0229362  40.1021757   2.9308258  37.9911819  40.6524944   2.3736256
  37.9888724  30.5671287  14.7494086  37.4727213  29.8751479  14.8745665
  37.4282653  31.2342065  14.6956684  37.8295238  30.5634545  14.7600152
  40.0580958  31.1064248  16.5786938  39.6712711  31.1313279  17.3600468
  39.5713895  30.5405926  16.1261455  39.9293467  31.0259998  16.6274842
  39.7238099  27.9931233  18.8697198  40.3531217  28.5291533  18.5918268
  39.8923962  27.9008592  19.7210764  39.8415894  28.0592595  18.9545726
  39.5252014  32.7802428  21.1423610  40.3525444  32.5087577  21.1982224
  39.5459860  33.5763269  21.4987428  39.6504864  32.8582182  21.2038793
  44.3628194  46.5157565  17.2766082  45.1520572  46.1646629  17.3968163
  44.5371792  47.3293953  17.0142715  44.5048475  46.5843422  17.2553949
  34.1021504  39.9266291  14.3293870  33.2609511  39.8270165  14.5372764
  34.3111512  40.6961771  14.6808191  34.0086197  40.0258334  14.4121185
  31.5797071  37.5485827  12.1578621  31.1853769  37.6228839  11.3828731
  31.0237188  37.9343774  12.7086983  31.4399884  37.6167602  12.1246281
  43.2162018  30.5267121  11.8382500  43.4211611  30.4589429  12.6839497
  42.8888442  31.3325943  11.7703677  43.1977266  30.6353062  11.9542155
  37.9138169  37.8547690  13.5791468  37.6101307  37.3003678  14.1801876
  37.2117590  38.0339900  13.0919502  37.7654379  37.7992472  13.5961174
  36.9704266  35.1648209   8.1436170  37.2464000  34.4467122   7.7313737
  37.5702935  35.7633129   7.9357276  37.0997531  35.1468580   8.0516931
  35.9756520  45.0697410  18.2863566  35.8676875  45.0799473  19.1525624
  36.1852302  45.8952191  18.0968519  35.9906631  45.1938485  18.3867657
  46.4695706  31.0798886  11.3185265  45.8570019  31.5669288  11.7038997
  46.5659881  30.4042377  11.8622917  46.3933603  31.0517194  11.4564124
  40.4714787  32.8361727   6.4182765  40.9258533  33.0072287   7.1430609
  40.9454832  32.2229838   6.0180540  40.6083107  32.7712612   6.4656526
  33.9930312  42.3210053  15.7485503  33.4018245  42.9619551  15.7188518
  34.7551336  42.7447670  15.7216803  34.0178573  42.4785891  15.7400650
  34.3890935  33.4812051  16.4153521  34.8492416  33.5550980  17.1528645
  34.4347042  34.2793305  16.0653342  34.4641490  33.6106198  16.4726277
  36.0374285  34.1478745  20.9825548  35.6459850  33.5012093  21.4181326
  36.2060147  34.7390181  21.6019803  36.0045195  34.1393013  21.1388254
  50.1120734  42.1515822  16.7462781  50.1703857  42.6002471  17.4922758
  49.4787201  42.5614635  16.3092861  50.0272029  42.2789557  16.7915330
  43.7519828  47.7719364  13.1817528  43.5539517  48.2610179  12.4873739
  43.1307539  47.9760606  13.7601661  43.6307393  47.8735903  13.1640751
  37.8127807  39.5404261   7.5227772  38.5569852  39.9278538   7.7610722
  37.9588503  38.6961687   7.6868260  37.9438392  39.4734734   7.5821742
  39.7307382  31.3354520  12.5559633  38.8843427  31.5077328  12.4300983
  39.7278515  30.5303864  12.8925462  39.6054532  31.2415549  12.5870760
  40.8005683  35.1129735  13.4221691  40.3265637  34.5871497  13.9327002
  41.1723818  34.5659207  12.8536553  40.7855571  34.9545731  13.4136838
  31.1778713  37.1101241  18.7905237  32.0404326  37.0096950  18.7042567
  30.8470496  36.5295951  18.2290809  31.2563909  37.0092868  18.6950643
  47.0642413  40.1732110  14.8328472  46.8240636  39.3338525  14.8370898
  47.5434420  40.2532277  15.5569245  47.0994597  40.0613510  14.9403274
  42.7289182  36.0066289   6.4847445  42.2012201  36.0895033   5.7953154
  43.1884890  36.7484161   6.4812090  42.7191033  36.1286952   6.3822140
  49.0647600  36.9533567  12.7857731  48.8257370  36.9129402  11.9478516
  49.2281501  37.8004719  12.9123452  49.0537904  37.0725652  12.6811213
  45.6693630  41.3383517  18.7162776  46.3927829  40.8856043  18.5373796
  45.4043593  41.6188182  17.9335104  45.7374904  41.3134485  18.5741491
  34.5380499  35.9343690  15.4515655  33.9133569  35.9462082  14.8441608
  34.2026094  36.4103865  16.1006895  34.3965990  36.0062207  15.4572224
  34.7222247  34.2768809   1.5088340  34.3735052  34.9288534   1.9719890
  34.2418693  34.2625922   0.7812211  34.5992491  34.3711862   1.4699432
  31.2506174  43.9944150  16.8919420  30.7206099  43.3036589  16.9414394
  31.5231268  43.9854336  16.0632128  31.2130897  43.8911282  16.7766835
  42.2826265  44.5769853   5.6157102  43.0060464  45.0427966   5.4721675
  41.8426856  44.6443462   4.8654699  42.3241957  44.6553689   5.4841884
  41.4512420  41.4367395  16.8657791  40.8369413  40.8925445  17.1606426
  41.9679705  40.9231631  16.3863607  41.4368082  41.2803804  16.8382020
  40.6908717  42.5071665  14.6002090  40.2636325  41.8821384  14.1667525
  40.6833661  42.2246587  15.4261097  40.6267858  42.3724446  14.6581917
  33.8071244  37.5436838  17.6690524  33.9664731  36.7880162  18.0742246
  33.6264138  38.0927778  18.3231261  33.8036603  37.5130652  17.8253230
  41.7491547  29.7098074  18.2241313  41.2532108  29.9061748  17.5332880
  42.5060609  30.1090742  18.0530115  41.7878372  29.7975807  18.0961450
  39.0194427  33.3840420  14.8144624  39.0436914  32.8500532  14.1257404
  39.2705900  32.8757728  15.4770214  39.0604345  33.2301323  14.8109268
  26.5302016  40.6671914  14.2487768  26.4245465  40.6218759  13.3839852
  25.7802236  41.0125695  14.5302053  26.4037619  40.7112823  14.1625098
  35.2995749  32.1111238  14.1950368  35.3394120  32.6120444  14.9085075
  34.4745413  32.2021631  13.9256291  35.1835275  32.1993054  14.2600906
  37.4825362  41.6771978  22.2970663  36.6320992  41.8143692  22.4328308
  37.6453489  40.9435756  22.7418364  37.3809225  41.5886079  22.3826262
  36.7210112  38.6271748  16.4924267  35.8902042  38.7945566  16.2859515
  36.6661629  38.2507698  17.2773152  36.5899527  38.5961479  16.5772795
  35.0946156  36.9027339   7.0214385  35.2349117  37.3999803   7.7243026
  35.5928689  36.2013634   7.1628598  35.1887237  36.8729318   7.1465964
  35.1246378  37.7694450   4.3506962  35.7591458  38.3654875   4.2856423
  35.2071989  37.4697908   5.1652832  35.2302929  37.8135358   4.4610048
  48.1028944  40.3009928  17.2193326  48.6946784  40.9407178  17.2511524
  48.5387939  39.6032964  17.5085393  48.2547375  40.2928278  17.2674158
  36.7025361  33.7008426   4.3252404  37.0241202  33.2211508   3.6711666
  36.9652305  34.5108072   4.1343215  36.7891387  33.7498323   4.2007896
  39.9322334  44.7227300  17.8451220  39.4247425  45.2763147  18.2891850
  39.6348980  44.7835590  17.0269994  39.8127219  44.8133611  17.7899676
  42.0984516  33.0880620  16.6875883  42.5239588  32.6353146  16.0759409
  41.4841509  32.5340690  16.9640670  42.0713162  32.9394596  16.6380908
  31.6299366  39.9662291   7.6196508  32.1391596  40.5626798   8.0007813
  32.1033639  39.6988265   6.9372927  31.7742742  40.0148106   7.5751030
  42.5430114  48.6390558   5.7755163  41.8259424  48.4651420   5.3102401
  43.1936852  48.4043130   5.2430649  42.5331965  48.5786350   5.6284381
  40.5378739  29.5595719  10.0966460  39.8947057  29.4093366  10.6651598
  40.1978146  29.3138065   9.3315564  40.3923816  29.5007842  10.0669475
  45.1278086  37.5155146   9.5196468  44.4569275  38.0584848   9.3909534
  45.8217836  37.9850001   9.2778163  45.1306953  37.6653417   9.4651996
  39.1764819  49.6551858  14.7508227  38.9530474  48.8970687  15.1192253
  38.6874663  49.6849879  14.0288666  39.0708268  49.5474083  14.6984968
  45.2906213  33.9711030  12.4286842  45.6433823  33.5440753  13.1032640
  44.4321015  33.8861873  12.5587918  45.2155658  33.8955770  12.5481852
  33.9889898  36.6018549  10.4869688  33.2701887  37.0182682  10.7542552
  34.3602260  37.1672788   9.9361326  33.9381830  36.7467831  10.4452495
  43.2889479  37.2346398  16.3771684  43.2687406  37.0529694  17.2306463
  43.3368680  38.1058417  16.3531267  43.2924120  37.3362937  16.4994978
  41.2335809  43.8233590  22.3020160  41.1931664  43.1783267  21.7165316
  42.0459127  43.7670208  22.6145572  41.3478962  43.7192557  22.2617109
  37.8243276  49.8752316  12.2045311  37.4103675  49.2126446  11.8149153
  38.5090651  50.0230175  11.6841005  37.8641648  49.7992974  12.0701808
  41.1908570  49.0342402  12.9568928  40.7924854  49.1444672  12.1889748
  40.5759790  49.2424468  13.5395488  41.0407460  49.0815970  12.9300227
  39.7636472  35.6416549   5.8243068  39.1701312  35.9633546   5.2727635
  39.8011750  34.7957645   5.6164174  39.6810862  35.5640878   5.7125839
  46.7230273  29.0929442  13.3571154  46.2161138  28.3858581  13.2892332
  47.5197707  28.7622630  13.4872231  46.7657512  28.9402593  13.3670149
  42.6394289  35.5996054   9.2544818  42.4107982  35.6228755   8.4123176
  42.8992365  34.7753521   9.3739828  42.6440477  35.4812134   9.1470015
  36.9213517  37.4530527  18.8569918  36.4092420  36.8451710  19.2154949
  36.7493014  38.1687119  19.3243894  36.8203154  37.4693826  18.9786142
  35.6939051  34.1372600  10.5499013  36.1696418  34.4989680   9.9149195
  35.1927651  34.7929068  10.8299156  35.6904410  34.2866789  10.4975754
  48.9250413  43.6094368   6.3412018  49.3084019  44.3585724   6.5710115
  48.1294526  43.8560188   6.0824008  48.8644195  43.7564062   6.3369592
  40.7982588  35.3754772  21.2972173  41.3554018  35.1468581  20.6650639
  40.4743653  36.1360437  21.0207386  40.8328998  35.4538608  21.1628671
  28.6681297  38.8014968  16.7660770  28.1208016  38.1315613  16.8841638
  29.4573675  38.4344816  16.8304237  28.7033480  38.6479954  16.7929470
  38.5165705  38.4622425  22.2624181  39.2677032  38.7774102  22.5763735
  38.7088282  38.2601596  21.4358102  38.6557119  38.4789807  22.1867576
  37.7365705  36.2813800   3.9172397  38.1164669  36.2993429   3.1323512
  36.9958301  36.7267789   3.7963245  37.6834542  36.3495575   3.7835966
  45.3650995  34.5895991   9.5047976  45.3645222  34.4344648  10.3632252
  45.1607175  35.4358978   9.4489362  45.3350773  34.6916612   9.6235915
  27.4268266  38.0135776  13.9206793  27.2490027  37.5612385  14.6461708
  27.1387288  38.8161937  14.1045270  27.3581219  38.0658333  14.0550296
  43.0891847  39.2693493  13.1584183  43.5845513  38.5516488  13.1188203
  42.2791623  38.9664291  13.0438670  43.0435741  39.1191139  13.1357909
  38.5350459  43.1191306   5.3081187  37.7261781  42.7957980   5.2614497
  39.0425368  42.4124528   5.2409436  38.4900126  42.9672623   5.2911482
  29.1640736  40.5463499  11.0328552  28.2986255  40.5349190  10.9211323
  29.2639552  40.3593722  11.8799691  29.0514903  40.5169561  11.1417496
  45.1543666  42.0197180  15.8461312  45.5798738  41.4971602  15.2931737
  44.7900586  42.6178018  15.3249935  45.1630269  42.0307407  15.6870321
  34.7897746  50.3161398  14.6058657  35.1044305  51.1297786  14.6136439
  35.1991159  49.9311617  15.2740816  34.8965844  50.3790100  14.7062749
  41.7422266  45.7331445  12.1762469  42.2133444  46.4471707  12.3452454
  42.0782444  45.1330195  12.7122339  41.8617381  45.7502909  12.2794845
  38.6591760  30.5058915  19.1320564  38.7919666  29.7089909  19.4601540
  39.0436913  31.0325318  19.7118840  38.7348089  30.4658832  19.2664067
  42.3796212  45.5249379  18.9390162  41.8317158  44.9007263  18.6710227
  42.8409241  45.7143651  18.2234241  42.3663421  45.4608429  18.7940593
  41.7324116  27.4289241  15.7301657  40.9270079  27.3186971  16.0469496
  41.6030851  27.5301697  14.8731523  41.5944249  27.4272912  15.6509698
  45.1890076  33.5934733  16.3241354  44.6053065  34.0943940  15.9118921
  45.5094370  33.0864290  15.6905677  45.1503252  33.5926568  16.1699861
  37.7284875  32.5075328   6.6000029  38.5500570  32.6773641   6.3581724
  37.2654526  32.6622589   5.8766327  37.7816038  32.5557061   6.4571673
  36.3180207  30.5018090  17.3798458  36.8624620  30.1609217  17.9702799
  36.3717143  31.3603552  17.5219742  36.4069327  30.5773350  17.4880331
  32.1310766  44.2634506  14.2537266  32.7355623  44.2230341  13.6251086
  31.9238079  45.1105658  14.2841321  32.1899663  44.3822509  14.1653382
  41.9454538  46.5300452  15.4699503  42.7652912  46.3863418  15.7315798
  41.6648616  47.1546650  16.0115941  42.0251282  46.6010804  15.5887442
  27.3662048  43.2469124  14.1236189  27.2686326  42.4365395  14.4326245
  28.1490918  43.2260917  13.7382457  27.4678185  43.1236214  14.1123052
  58.4168189  54.1865303   8.4342379  58.3862193  55.0409940   8.6060649
  59.0149537  53.8860596   8.9928523  58.5005346  54.2681800   8.5417182
  51.6167873  53.2740954  13.1895310  50.7605769  53.4349453  13.2404427
  51.6635527  52.4033018  13.2100371  51.4966985  53.1691756  13.2001376
  46.0009013  62.8103672   8.9532541  45.2491913  62.4319210   8.7248586
  46.4495025  62.8422106   8.2051352  45.9558680  62.7589279   8.8090044
  54.9261590  59.5427480  22.7955766  55.6328357  59.0479511  22.9242700
  55.1149525  59.9836561  22.0658424  55.0589496  59.5345830  22.7064811
  54.4619694  55.3332998  15.8326961  55.0075654  56.0118085  15.8920931
  54.4036571  55.1920459  14.9728543  54.5335609  55.4125000  15.7139022
  47.5793769  62.8222064  11.2195314  47.6804132  62.0122418  11.5292442
  46.9835515  62.7279011  10.5894992  47.5066308  62.6887092  11.1721552
  47.4194509  67.7399653  12.6210170  48.0631964  68.1812818  13.0106328
  47.7450764  66.9353080  12.5340429  47.5626338  67.6864848  12.6655647
  40.7758814  58.8442351  10.8447648  40.5408998  58.0110003  10.7379916
  40.9144454  59.1247017  10.0308848  40.7614476  58.7625854  10.7090003
  43.0748901  51.0128081  13.7431955  42.4553933  50.4220729  13.5741970
  42.9732765  51.6039517  13.1096278  42.9686577  51.0132164  13.6236945
  50.1716797  52.7527623   8.0764418  50.8696961  52.9315751   8.5685882
  50.4869129  52.2297963   7.4534808  50.3212134  52.7021395   8.0566428
  42.8018034  54.5580363  15.9875524  42.6776731  55.1442809  16.6225343
  43.4536319  54.0640559  16.2887799  42.8791683  54.5719168  16.1261454
  50.3604732  59.1398068   8.0644210  50.7998368  58.5315169   8.5098983
  50.2109395  58.7605442   7.2929675  50.4026198  58.9936539   8.0163377
  47.8276375  57.7342080  15.2663035  48.4725378  57.2414523  14.9473984
  48.0678152  57.8766867  16.0929114  47.9586960  57.6819522  15.3412569
  50.3662466  60.5796986  14.9169928  50.6485709  59.7848392  14.6956684
  51.0948627  61.0577573  14.9374989  50.5152030  60.5331583  14.8872943
  48.3443660  48.1220020  12.1585693  48.0146990  48.5731164  11.4889392
  47.6688662  48.0436183  12.7058699  48.1954097  48.1771155  12.1408916
  55.5520068  44.1105543  10.4035304  55.2373509  44.8009021  10.8355726
  55.0347010  44.0550325   9.7020804  55.4284538  44.2040431  10.3632253
  60.3480555  59.6856348  11.8905759  59.5178258  59.8966992  12.0539175
  60.2989807  58.8593403  11.6148042  60.2187290  59.5945955  11.8743124
  42.3376138  63.7228022  12.1203854  41.8543716  64.4478511  12.0963437
  43.1499457  64.0204152  12.2314011  42.3866886  63.8730375  12.1331133
  48.4090292  62.5160202  14.7253668  47.8917234  62.1567617  14.1214976
  49.1064684  61.9922377  14.7359734  48.4355873  62.3857890  14.6383927
  52.0653884  62.9655016  20.6869841  52.1537230  62.7781157  21.5348052
  52.4943597  62.3192446  20.2874688  52.1415987  62.8418024  20.7541593
  49.6324344  62.2486176  19.6687503  49.0695179  61.8358786  20.1927165
  50.3945368  62.1739082  20.0880647  49.6618793  62.1763577  19.8080504
  46.5499614  46.1832308   7.6408641  47.3045582  46.5510625   7.4025691
  46.3727149  46.5571863   8.4087820  46.6354093  46.2930496   7.7193529
  45.1920336  64.2384198  12.2724133  45.8940915  63.7236187  12.3296890
  45.1117819  64.5658349  13.0771009  45.2844096  64.2098424  12.3996926
  59.8434513  52.3326749  15.6856180  59.0062934  52.4028936  15.9203774
  59.8122744  52.3351244  14.8130482  59.7152795  52.3436976  15.5915728
  44.9056679  48.5902627   4.3386754  44.7232252  48.8074508   3.5127746
  45.7682292  48.7041640   4.3945368  45.0061268  48.6392525   4.2241241
  44.5171111  60.4290550  11.7809742  45.3560010  60.6613482  11.8283503
  44.5482880  59.5594861  11.7116777  44.6452829  60.3347496  11.7774386
  45.1423814  60.8491425  16.0823047  45.6822039  60.7062556  16.7526419
  44.4593760  61.2488176  16.4507073  45.1215968  60.8871096  16.2357469
  50.5856398  45.5929038   7.3735777  51.3142559  45.4144993   6.9273934
  50.6751291  46.4347118   7.5842956  50.7063060  45.6912916   7.3389295
  54.5664699  56.5282425  11.2768071  55.3222214  56.9613940  11.3156980
  54.6727023  55.8787195  11.8502707  54.6934869  56.4959909  11.3666097
  57.6044870  60.3555703  12.0270474  57.1680102  60.3592445  12.7829446
  57.2707785  61.0361202  11.5950052  57.4907490  60.4568158  12.0751307
  40.5460959  57.0691716  16.2357469  40.2799374  56.2530832  16.3948459
  40.5599523  57.1144871  15.3652984  40.5085681  56.9548620  16.1310951
  57.5242353  47.3969530  14.2699902  58.1668261  47.4667635  14.8561818
  57.7765374  46.7298753  13.7679444  57.6564485  47.3095879  14.2827182
  44.4518706  51.8676800   2.8509227  43.7376883  51.5814979   3.2631659
  44.9362675  52.2073426   3.4915614  44.4178069  51.8758450   3.0064862
  52.3344337  64.3074138  16.9980080  51.5359583  64.0673638  17.2553949
  52.7830348  64.3588530  17.7447128  52.2818948  64.2796529  17.1465005
  60.7389216  57.0736623  10.9190112  61.4005650  56.5127291  10.8186020
  60.0980628  56.5788653  11.2442803  60.7418084  56.9173032  10.9522452
  40.9554373  57.8550495  13.5169213  40.7729946  57.8297381  12.6641505
  41.6904042  58.3249433  13.5558122  41.0368437  57.9211857  13.3967131
  57.0254047  58.0902005  10.6602100  57.2609636  58.2347204   9.8328951
  57.1743611  58.8544413  11.0533614  57.0819850  58.2241059  10.5965704
  54.0676393  54.7768574   9.1795284  54.1623247  55.5157868   9.6334910
  53.4435236  54.3486049   9.6129849  53.9885423  54.8229894   9.3103432
  52.3228867  57.9554786  19.8285565  52.8967728  57.3182030  19.9834129
  52.2443670  57.9558869  18.9595223  52.3962101  57.8619898  19.7231976
  40.9225283  54.7343996  13.6668279  41.4998786  54.5980446  14.3060525
  40.2239345  54.2779780  13.9213864  40.9046304  54.6466262  13.7990569
  47.6792585  56.3878051  11.8806763  47.4211829  55.5549786  11.8538062
  47.7341068  56.6135664  11.0399263  47.6492363  56.2975823  11.7526899
  52.7593635  48.4906502  11.9810855  52.0549962  48.0015687  12.1394774
  52.8078610  48.5028976  11.1099300  52.6623687  48.4196150  11.8750195
  50.3200586  52.4139163  17.2264036  49.9315019  51.9893381  16.5716227
  49.6555284  52.6621313  17.7341062  50.1647514  52.3877884  17.2051904
  59.9623855  52.1714168  10.0011866  59.7060420  51.3594109   9.8109749
  60.8053169  52.1791735   9.7742053  60.0489881  52.0526165   9.9396683
  36.3984116  53.5855889  10.3816098  36.4844368  53.2087757  11.1629628
  37.0259914  53.2116334   9.9036056  36.5040667  53.4741371  10.4261575
  54.1426948  46.1113792  14.7388020  54.5237459  45.4291963  15.1255894
  53.3390232  45.8223394  14.5563685  54.0803409  45.9680840  14.7692076
  57.6449014  59.3263764  19.8370418  57.4087652  58.4951829  19.7182479
  58.2892243  59.2749371  20.4225263  57.7043685  59.1961452  19.9056312
  47.2947432  60.1159285  10.5513155  47.9321379  59.8771033  11.0964948
  47.7202504  60.3196444   9.8166315  47.4523599  60.1110295  10.5230312
  41.9860075  62.3547622  14.4347459  42.0264220  62.6262473  13.6067238
  42.5454599  62.8789530  14.8505247  42.0743421  62.4723377  14.3739347
  47.9350248  55.3361575   4.8888044  48.3195400  55.1169282   5.6404589
  47.6861868  56.1624520   5.0189121  47.9552320  55.4259721   5.0189121
  58.6685435  59.1108213  15.8998713  58.3631252  59.8436269  16.2612029
  57.9491651  58.7046142  15.6191499  58.5172777  59.1589946  15.9111850
  49.6768904  60.5931708  12.2306941  49.7507913  60.4306880  13.0848791
  50.4938411  60.7821897  11.9867423  49.8085263  60.5968450  12.3204967
  64.3687227  55.7501213  15.2267057  64.3011727  55.7697172  14.3569644
  64.3542890  56.5931540  15.4522728  64.3565984  55.8774948  15.1319534
  43.4374661  60.9389571   9.2601385  42.6112779  61.1851308   9.1335663
  43.4986652  60.8601651  10.1263443  43.3248828  60.9634520   9.3690329
  45.6550685  47.0058512  10.2196825  44.7873110  47.0781111  10.2854434
  45.9425889  47.8080590  10.4084800  45.5690433  47.1352659  10.2571591
  54.7783574  47.1536371  18.5508147  55.5237166  46.9646181  18.1371572
  54.3620878  47.6794609  17.9922003  54.8268548  47.2038516  18.4072720
  62.1545844  54.5245599  13.5013652  62.7053766  53.8913668  13.7410744
  62.1389960  55.0560992  14.1929156  62.2331041  54.5094548  13.6392510
  48.8068235  58.3584197  18.0473545  48.3079929  59.0699964  18.1258433
  49.6168460  58.6784863  18.0091707  48.8524342  58.5111045  18.0530114
  46.1579406  65.5333833  10.0280564  45.9379701  65.2431188  10.8207231
  45.9373928  64.8748788   9.4998477  46.0927000  65.3933542  10.0669473
  45.0696353  57.6207150  12.2936266  44.7809602  56.9944621  12.8281993
  45.9379701  57.5627437  12.3600946  45.1556605  57.5194694  12.3827221
  55.8574251  52.7641933  12.6118248  55.5139017  52.0432268  12.9625497
  55.9567293  52.5555784  11.7696606  55.8216294  52.6266136  12.5389928
  45.2728626  59.2602401   8.2178631  46.0274594  59.6415440   8.4314094
  44.6799239  59.7113544   8.6725328  45.2965340  59.3831228   8.3161509
  46.5926853  60.4310962  13.5918746  46.0707606  60.5711254  14.2770611
  46.9800873  59.6721626  13.7820864  46.5730554  60.3396486  13.7219823
  43.5818037  50.4816771   7.6613701  43.2942833  50.1118041   6.9245648
  44.2688505  50.9511626   7.3997406  43.6406934  50.4963740   7.5128777
  48.0193179  57.4614981   8.9900237  47.8235961  58.0689716   8.3960540
  48.2427524  56.7682925   8.5091911  48.0227820  57.4492507   8.8316318
  46.4171709  54.3469719   9.1081106  47.1394360  54.5110877   8.6484912
  45.9379701  55.0679384   9.0020446  46.4535439  54.4767949   9.0246720
  54.3765216  50.6833518  14.4877791  53.5376317  50.7094797  14.2516054
  54.4469583  51.3304253  15.0683137  54.2633610  50.7829644  14.5386908
  52.8234494  47.5818895   9.2205407  53.5260847  47.3826643   8.7425365
  52.5578683  46.8094837   9.5274250  52.8881127  47.4381861   9.1950848
  58.2522740  55.8901505  11.7739032  58.1656714  56.0456931  12.6273811
  57.7973220  56.5339580  11.3998438  58.1725997  56.0077260  11.8446139
  41.1546232  51.2597983   8.5098982  41.2562368  52.0624145   8.8379958
  41.9502118  51.0585319   8.2122063  41.2874137  51.3483882   8.5134338
  41.9709964  51.3745162  16.2520104  41.8295455  50.5229102  16.3764612
  42.2550527  51.4173822  15.4282310  41.9917810  51.2544912  16.1487728
  52.1248556  53.2112252  10.3964592  51.8783270  53.1308003  11.2301381
  52.4533679  52.4265720  10.2027119  52.1369800  53.0838517  10.4912115
  56.0196605  59.9195611  14.1851373  55.8810964  60.6176657  14.6900116
  55.2396603  59.7644268  13.8287555  55.8839832  59.9995778  14.2077647
  54.3574690  56.2191986  20.4373755  54.3522728  55.3471803  20.4416181
  55.0635684  56.4180156  19.9643211  54.4619694  56.1195861  20.3680790
  50.2565501  55.1459139  17.5912707  49.5088815  55.3390153  17.1860985
  50.4107026  54.3204358  17.3536828  50.1687928  55.0524250  17.4958113
  47.1573338  64.1371742  16.6748602  47.3062902  63.5774658  16.0222006
  47.9373340  64.2163744  17.0581121  47.2947432  64.0657308  16.6345551
  49.6826639  64.3086385  17.9533093  49.6070310  63.6395196  18.5083881
  49.6116498  65.0104173  18.4673759  49.6607246  64.3131292  18.1109941
  50.4967278  49.0409689  18.4808110  50.9539892  49.7733664  18.6080903
  50.5723606  48.6176155  19.2395366  50.5758248  49.0866927  18.6109187
  54.9694604  42.2199565  12.3501953  55.0878172  42.6776028  11.6169256
  54.7956779  41.4144826  12.0638171  54.9613775  42.1693337  12.2002887
  48.3749656  51.0311793  15.3249934  47.5845730  50.8503253  15.6467270
  48.7710278  50.2538746  15.3080229  48.3166532  50.8899254  15.3702483
  53.7593342  58.6654223  13.0509380  53.0838344  58.4339456  13.5522767
  53.7685718  58.0575406  12.4251485  53.6611846  58.5413149  13.0325533
  50.8887486  53.5072052  19.8073433  50.8246627  54.3682009  19.6793570
  51.0284674  53.1904046  19.0068985  50.9002956  53.5872219  19.6701646
  49.5706580  56.2004192  13.9489636  49.1468829  56.4008691  13.2128655
  49.3951435  55.3533040  14.0613936  49.4817460  56.1052973  13.8563326
  49.0718273  67.7154705  16.4111094  49.5614204  67.0165494  16.2286758
  48.5002505  67.4178575  16.9987151  49.0602803  67.5680928  16.4712134
  44.8589025  56.6956243   9.3817609  45.0153644  56.6303046  10.2373601
  45.1989618  57.4704796   9.1696288  44.9322260  56.8005441   9.4772203
  51.3968169  56.0714127   8.2510972  51.9383715  55.5684508   8.7149593
  51.7114728  56.0179321   7.4400457  51.5232566  55.9893548   8.1994784
  55.2685277  60.2816774  25.3637884  56.0820142  60.0101923  25.5243017
  55.1080243  59.9824314  24.5598080  55.3655225  60.1971700  25.2683290
  52.5457439  50.9650431  18.3033272  52.7599408  50.3261346  17.7496626
  51.9291338  51.4096255  17.8741134  52.4862768  50.9360575  18.1583704
  41.4323286  53.8791194   9.6978376  41.8122251  54.2975739   9.0338643
  40.8578651  54.4604649  10.0047219  41.4034611  54.0269053   9.6455117
  54.7096527  52.5739496  19.2416580  53.8973208  52.2665387  19.3229752
  55.1686461  52.0938497  19.8059292  54.6576911  52.4575989  19.3371174
  51.9372167  44.0750367  13.2920615  51.0665725  44.0489088  13.2453925
  52.1912509  43.9027559  12.4746461  51.8465727  44.0460511  13.1640752
  48.9621308  46.0856595  14.7494086  48.4459796  45.3936787  14.8745665
  48.4015237  46.7527372  14.6956684  48.8027821  46.0819853  14.7600152
  51.0313541  46.6249555  16.5786938  50.6445294  46.6498587  17.3600468
  50.5446479  46.0591234  16.1261455  50.9026050  46.5445306  16.6274842
  55.2806521  61.3423064  20.6360725  55.9186241  60.8483260  20.3023181
  54.6380612  61.2700465  20.0512952  55.2800747  61.2582073  20.5003080
  57.0063521  53.1912210  15.2026640  56.5791129  53.1038559  14.4474740
  56.3689574  53.2989986  15.7881484  56.8493128  53.1944870  15.1772082
  50.6970683  43.5116541  18.8697198  51.3263801  44.0476841  18.5918268
  50.8656546  43.4193900  19.7210764  50.8148478  43.5777903  18.9545726
  55.3360777  62.0342873  17.2766082  56.1253156  61.6831937  17.3968163
  55.5104375  62.8479261  17.0142715  55.4781059  62.1028730  17.2553949
  45.0754088  55.4451598  14.3293870  44.2342094  55.3455473  14.5372764
  45.2844096  56.2147079  14.6808191  44.9818780  55.5443642  14.4121185
  42.5529655  53.0671135  12.1578621  42.1586352  53.1414147  11.3828731
  41.9969772  53.4529082  12.7086983  42.4132467  53.1352910  12.1246281
  54.1894602  46.0452429  11.8382500  54.3944195  45.9774737  12.6839497
  53.8621025  46.8511251  11.7703677  54.1709849  46.1538370  11.9542155
  48.8870753  53.3732998  13.5791468  48.5833890  52.8188986  14.1801876
  48.1850173  53.5525208  13.0919502  48.7386962  53.3177780  13.5961174
  47.9436850  50.6833517   8.1436170  48.2196584  49.9652430   7.7313737
  48.5435519  51.2818437   7.9357276  48.0730114  50.6653888   8.0516931
  46.9489104  60.5882718  18.2863566  46.8409459  60.5984780  19.1525624
  47.1584885  61.4137499  18.0968519  46.9639215  60.7123793  18.3867657
  57.4428289  46.5984194  11.3185265  56.8302603  47.0854596  11.7038997
  57.5392464  45.9227685  11.8622917  57.3666187  46.5702502  11.4564124
  51.4447370  48.3547035   6.4182765  51.8991117  48.5257595   7.1430609
  51.9187416  47.7415145   6.0180540  51.5815690  48.2897920   6.4656526
  44.9662896  57.8395361  15.7485503  44.3750829  58.4804859  15.7188518
  45.7283919  58.2632978  15.7216803  44.9911156  57.9971199  15.7400650
  45.3623518  48.9997358  16.4153521  45.8225000  49.0736288  17.1528645
  45.4079625  49.7978613  16.0653342  45.4374074  49.1291506  16.4726277
  61.0853317  57.6701130  16.7462781  61.1436441  58.1187779  17.4922758
  60.4519785  58.0799943  16.3092861  61.0004612  57.7974865  16.7915330
  54.7252412  63.2904672  13.1817528  54.5272101  63.7795487  12.4873739
  54.1040123  63.4945914  13.7601661  54.6039976  63.3921211  13.1640751
  48.7860390  55.0589569   7.5227772  49.5302435  55.4463845   7.7610722
  48.9321086  54.2146995   7.6868260  48.9170975  54.9920042   7.5821742
  50.7039966  46.8539828  12.5559633  49.8576011  47.0262636  12.4300983
  50.7011098  46.0489172  12.8925462  50.5787116  46.7600857  12.5870760
  51.7738266  50.6315042  13.4221691  51.2998220  50.1056804  13.9327002
  52.1456402  50.0844515  12.8536553  51.7588155  50.4731039  13.4136838
  58.0374997  55.6917418  14.8328472  57.7973220  54.8523833  14.8370898
  58.5167004  55.7717585  15.5569245  58.0727180  55.5798818  14.9403274
  53.7021766  51.5251597   6.4847445  53.1744784  51.6080341   5.7953154
  54.1617474  52.2669468   6.4812090  53.6923616  51.6472259   6.3822140
  60.0380184  52.4718875  12.7857731  59.7989954  52.4314709  11.9478516
  60.2014085  53.3190027  12.9123452  60.0270487  52.5910960  12.6811213
  56.6426214  56.8568825  18.7162776  57.3660413  56.4041351  18.5373796
  56.3776176  57.1373490  17.9335104  56.7107487  56.8319793  18.5741491
  45.5113082  51.4528998  15.4515655  44.8866152  51.4647390  14.8441608
  45.1758677  51.9289173  16.1006895  45.3698574  51.5247515  15.4572224
  45.6954831  49.7954117   1.5088340  45.3467635  50.4473842   1.9719890
  45.2151277  49.7811230   0.7812211  45.5725075  49.8897170   1.4699432
  42.2238758  59.5129458  16.8919420  41.6938682  58.8221897  16.9414394
  42.4963851  59.5039644  16.0632128  42.1863480  59.4096590  16.7766835
  52.4245003  56.9552703  16.8657791  51.8101996  56.4110753  17.1606426
  52.9412288  56.4416939  16.3863607  52.4100666  56.7989112  16.8382020
  51.6641300  58.0256973  14.6002090  51.2368909  57.4006692  14.1667525
  51.6566245  57.7431895  15.4261097  51.6000442  57.8909754  14.6581917
  44.7803828  53.0622146  17.6690524  44.9397314  52.3065470  18.0742246
  44.5996721  53.6113085  18.3231261  44.7769187  53.0315960  17.8253230
  52.7224131  45.2283382  18.2241313  52.2264692  45.4247056  17.5332880
  53.4793193  45.6276050  18.0530115  52.7610955  45.3161115  18.0961450
  49.9927010  48.9025727  14.8144624  50.0169497  48.3685840  14.1257404
  50.2438484  48.3943036  15.4770214  50.0336929  48.7486631  14.8109268
  37.5034600  56.1857222  14.2487768  37.3978049  56.1404067  13.3839852
  36.7534820  56.5311003  14.5302053  37.3770203  56.2298131  14.1625098
  46.2728332  47.6296546  14.1950368  46.3126704  48.1305752  14.9085075
  45.4477997  47.7206939  13.9256291  46.1567858  47.7178362  14.2600906
  47.6942696  54.1457055  16.4924267  46.8634625  54.3130873  16.2859515
  47.6394213  53.7693006  17.2773152  47.5632111  54.1146787  16.5772795
  46.0678740  52.4212647   7.0214385  46.2081701  52.9185111   7.7243026
  46.5661272  51.7198941   7.1628598  46.1619821  52.3914626   7.1465964
  46.0978962  53.2879758   4.3506962  46.7324041  53.8840183   4.2856423
  46.1804573  52.9883216   5.1652832  46.2035513  53.3320666   4.4610048
  59.0761528  55.8195235  17.2193326  59.6679368  56.4592486  17.2511524
  59.5120522  55.1218272  17.5085393  59.2279959  55.8113586  17.2674158
  47.6757945  49.2193733   4.3252404  47.9973786  48.7396816   3.6711666
  47.9384889  50.0293380   4.1343215  47.7623970  49.2683631   4.2007896
  50.9054918  60.2412608  17.8451220  50.3980009  60.7948455  18.2891850
  50.6081564  60.3020898  17.0269994  50.7859803  60.3318919  17.7899676
  53.0717100  48.6065927  16.6875883  53.4972171  48.1538454  16.0759409
  52.4574093  48.0525998  16.9640670  53.0445745  48.4579904  16.6380908
  42.6031950  55.4847599   7.6196508  43.1124179  56.0812106   8.0007813
  43.0766222  55.2173572   6.9372927  42.7475326  55.5333414   7.5751030
  51.5111323  45.0781027  10.0966460  50.8679641  44.9278674  10.6651598
  51.1710730  44.8323373   9.3315564  51.3656400  45.0193150  10.0669475
  56.1010669  53.0340454   9.5196468  55.4301859  53.5770156   9.3909534
  56.7950419  53.5035309   9.2778163  56.1039537  53.1838725   9.4651996
  50.1497403  65.1737166  14.7508227  49.9263057  64.4155995  15.1192253
  49.6607246  65.2035187  14.0288666  50.0440852  65.0659391  14.6984968
  56.2638797  49.4896338  12.4286842  56.6166407  49.0626061  13.1032640
  55.4053598  49.4047181  12.5587918  56.1888241  49.4141078  12.5481852
  44.9622482  52.1203857  10.4869688  44.2434471  52.5367990  10.7542552
  45.3334844  52.6858096   9.9361326  44.9114413  52.2653139  10.4452495
  54.2622062  52.7531706  16.3771684  54.2419990  52.5715001  17.2306463
  54.3101263  53.6243725  16.3531267  54.2656703  52.8548245  16.4994978
  52.2068392  59.3418898  22.3020160  52.1664247  58.6968575  21.7165316
  53.0191711  59.2855516  22.6145572  52.3211546  59.2377865  22.2617109
  48.7975860  65.3937624  12.2045311  48.3836258  64.7311754  11.8149153
  49.4823234  65.5415483  11.6841005  48.8374232  65.3178282  12.0701808
  52.1641154  64.5527709  12.9568928  51.7657437  64.6629980  12.1889748
  51.5492374  64.7609776  13.5395488  52.0140043  64.6001277  12.9300227
  50.7369056  51.1601857   5.8243068  50.1433895  51.4818854   5.2727635
  50.7744334  50.3142953   5.6164174  50.6543445  51.0826186   5.7125839
  57.6962857  44.6114750  13.3571154  57.1893721  43.9043889  13.2892332
  58.4930290  44.2807938  13.4872231  57.7390096  44.4587901  13.3670149
  53.6126873  51.1181362   9.2544818  53.3840566  51.1414063   8.4123176
  53.8724949  50.2938829   9.3739828  53.6173061  50.9997442   9.1470015
  46.6671635  49.6557908  10.5499013  47.1429001  50.0174988   9.9149195
  46.1660235  50.3114376  10.8299156  46.6636994  49.8052097  10.4975754
  51.7715171  50.8940079  21.2972173  52.3286601  50.6653889  20.6650639
  51.4476236  51.6545745  21.0207386  51.8061582  50.9723916  21.1628671
  48.7098288  51.7999108   3.9172397  49.0897253  51.8178737   3.1323512
  47.9690884  52.2453097   3.7963245  48.6567126  51.8680883   3.7835966
  56.3383579  50.1081299   9.5047976  56.3377805  49.9529956  10.3632252
  56.1339759  50.9544286   9.4489362  56.3083357  50.2101920   9.6235915
  38.4000850  53.5321084  13.9206793  38.2222611  53.0797693  14.6461708
  38.1119872  54.3347245  14.1045270  38.3313803  53.5843641  14.0550296
  54.0624431  54.7878801  13.1584183  54.5578096  54.0701796  13.1188203
  53.2524207  54.4849599  13.0438670  54.0168324  54.6376447  13.1357909
  40.1373320  56.0648807  11.0328552  39.2718839  56.0534498  10.9211323
  40.2372135  55.8779030  11.8799691  40.0247487  56.0354869  11.1417496
  56.1276250  57.5382488  15.8461312  56.5531321  57.0156910  15.2931737
  55.7633170  58.1363326  15.3249935  56.1362852  57.5492715  15.6870321
  45.7630329  65.8346706  14.6058657  46.0776888  66.6483094  14.6136439
  46.1723743  65.4496925  15.2740816  45.8698427  65.8975408  14.7062749
  52.7154849  61.2516753  12.1762469  53.1866027  61.9657015  12.3452454
  53.0515028  60.6515503  12.7122339  52.8349964  61.2688217  12.2794845
  54.8031834  62.8618066  24.3554541  54.9128799  62.0726627  24.7111288
  55.1322730  62.7724002  23.5528879  54.8684239  62.7323919  24.2896932
  53.3528795  61.0434687  18.9390162  52.8049741  60.4192570  18.6710227
  53.8141824  61.2328959  18.2234241  53.3396005  60.9793737  18.7940593
  52.7056699  42.9474549  15.7301657  51.9002663  42.8372279  16.0469496
  52.5763435  43.0487005  14.8731523  52.5676832  42.9458219  15.6509698
  56.1622660  49.1120041  16.3241354  55.5785649  49.6129248  15.9118921
  56.4826954  48.6049597  15.6905677  56.1235835  49.1111876  16.1699861
  48.7017459  48.0260636   6.6000029  49.5233153  48.1958949   6.3581724
  48.2387110  48.1807897   5.8766327  48.7548621  48.0742369   6.4571673
  47.2912791  46.0203398  17.3798458  47.8357204  45.6794525  17.9702799
  47.3449727  46.8788860  17.5219742  47.3801910  46.0958658  17.4880331
  43.1043350  59.7819814  14.2537266  43.7088207  59.7415648  13.6251086
  42.8970662  60.6290966  14.2841321  43.1632247  59.9007817  14.1653382
  52.9187122  62.0485759  15.4699503  53.7385496  61.9048726  15.7315798
  52.6381199  62.6731958  16.0115941  52.9983865  62.1196112  15.5887442
  38.3394632  58.7654432  14.1236189  38.2418910  57.9550703  14.4326245
  39.1223502  58.7446225  13.7382457  38.4410768  58.6421522  14.1123052
  53.7750618  70.0765671  15.9875524  53.6509314  70.6628117  16.6225343
  54.4268902  69.5825867  16.2887799  53.8524267  70.0904476  16.1261454
  57.2131826  69.9945092  21.4004549  57.3852329  69.8850987  22.2489830
  57.7501183  70.6399498  21.1635741  57.3176830  70.0737094  21.4909645
  56.2692149  66.1255402  18.8824476  55.5763946  65.6552381  19.1285208
  56.8852476  65.8993706  19.4566183  56.2576679  66.0222534  19.0033629
  54.9932708  70.0920806  20.0251322  55.7172680  70.0773836  20.5116216
  55.0948844  70.8016161  19.5273290  55.1150917  70.1945509  20.0230108
  62.3677657  73.5719890  24.8900269  61.5750638  73.8863402  25.0752888
  62.4826584  73.7871359  24.0521053  62.2673068  73.6503727  24.7938603
  61.2933170  67.9324471  17.2264036  60.9047602  67.5078689  16.5716227
  60.6287868  68.1806621  17.7341062  61.1380097  67.9063192  17.2051904
  59.0751371  64.1353298  24.6050629  58.7604813  64.9052861  24.3420191
  58.7541304  63.5723554  24.0202855  58.9810291  64.1663567  24.4791978
  65.7516157  62.6721679  18.5508147  66.4969749  62.4831489  18.1371572
  65.3353462  63.1979917  17.9922003  65.8001131  62.7223824  18.4072720
  58.7067877  66.7350549  23.3435843  57.8967653  67.0408329  23.2325686
  59.1842564  67.4556131  23.4588427  58.6571356  66.8865150  23.3442914
  55.0411909  72.2713099  18.2135246  55.5533006  72.5497353  17.5644005
  54.7548251  73.0102393  18.5798059  55.0746772  72.4215453  18.1725124
  58.5595634  64.3639488  18.2736287  58.3678831  64.3794622  19.1235711
  59.4094230  64.5603162  18.2502942  58.6571356  64.3953839  18.3959582
  52.9442547  66.8930469  16.2520104  52.8028039  66.0414410  16.3764612
  53.2283111  66.9359130  15.4282310  52.9650393  66.7730219  16.1487728
  59.0578167  71.4654278  19.8087575  59.2021543  72.0455486  19.1730685
  59.4053815  71.8430575  20.5137430  59.1305628  71.6074982  19.8186570
  61.4699861  64.5594997  18.4808110  61.9272475  65.2918972  18.6080903
  61.5456190  64.1361463  19.2395366  61.5490831  64.6052235  18.6109187
  53.7132852  64.8060817  19.5697554  53.1775042  64.1941175  19.8858321
  53.7750617  65.3808953  20.2231221  53.6428485  64.8007745  19.7132981
  59.3482239  66.5497101  15.3249934  58.5578314  66.3688561  15.6467270
  59.7442862  65.7724054  15.3080229  59.2899115  66.4084562  15.3702483
  61.8620069  69.0257360  19.8073433  61.7979211  69.8867317  19.6793570
  62.0017257  68.7089354  19.0068985  61.8735540  69.1057527  19.6701646
  66.2417860  75.8002082  25.3637884  67.0552726  75.5287231  25.5243017
  66.0812827  75.5009622  24.5598080  66.3387809  75.7157008  25.2683290
  63.5190022  66.4835739  18.3033272  63.7331992  65.8446653  17.7496626
  62.9023921  66.9281563  17.8741134  63.4595352  66.4545883  18.1583704
  65.6829110  68.0924804  19.2416580  64.8705792  67.7850695  19.3229752
  66.1419045  67.6123805  19.8059292  65.6309495  67.9761297  19.3371174
  62.7782618  69.4984876  24.0245282  63.2482249  70.1226992  24.4113156
  62.8244498  68.8301851  24.5838497  62.8550494  69.4919556  24.1645353
  59.9353891  61.6041903  14.7494086  59.4192380  60.9122095  14.8745665
  59.3747820  62.2712680  14.6956684  59.7760405  61.6005161  14.7600152
  62.0046125  62.1434863  16.5786938  61.6177878  62.1683895  17.3600468
  61.5179062  61.5776542  16.1261455  61.8758634  62.0630614  16.6274842
  61.6703267  59.0301849  18.8697198  62.2996385  59.5662149  18.5918268
  61.8389129  58.9379208  19.7210764  61.7881061  59.0963211  18.9545726
  61.4717181  63.8173044  21.1423610  62.2990611  63.5458192  21.1982224
  61.4925028  64.6133885  21.4987428  61.5970032  63.8952798  21.2038793
  56.3356102  64.5182666  16.4153521  56.7957584  64.5921596  17.1528645
  56.3812209  65.3163920  16.0653342  56.4106657  64.6476813  16.4726277
  57.9839452  65.1849361  20.9825548  57.5925017  64.5382708  21.4181326
  58.1525314  65.7760797  21.6019803  57.9510362  65.1763629  21.1388254
  53.1243880  68.1471857  18.7905237  53.9869493  68.0467566  18.7042567
  52.7935663  67.5666566  18.2290809  53.2029076  68.0463484  18.6950643
  56.4845666  66.9714306  15.4515655  55.8598736  66.9832698  14.8441608
  56.1491261  67.4474481  16.1006895  56.3431158  67.0432823  15.4572224
  55.7536411  68.5807454  17.6690524  55.9129898  67.8250778  18.0742246
  55.5729305  69.1298393  18.3231261  55.7501770  68.5501268  17.8253230
  63.6956714  60.7468689  18.2241313  63.1997275  60.9432364  17.5332880
  64.4525776  61.1461358  18.0530115  63.7343539  60.8346423  18.0961450
  57.2460916  63.1481854  14.1950368  57.2859288  63.6491060  14.9085075
  56.4210581  63.2392247  13.9256291  57.1300442  63.2363670  14.2600906
  59.4290529  72.7142594  22.2970663  58.5786159  72.8514308  22.4328308
  59.5918657  71.9806372  22.7418364  59.3274392  72.6256695  22.3826262
  56.4759063  63.1551256  22.1280678  57.1011766  62.6113389  22.4010110
  56.0209543  62.6746174  21.5588468  56.5007323  63.0040738  22.0842272
  64.0449683  64.1251235  16.6875883  64.4704755  63.6723762  16.0759409
  63.4306677  63.5711306  16.9640670  64.0178329  63.9765212  16.6380908
  63.1800976  74.8604206  22.3020160  63.1396831  74.2153883  21.7165316
  63.9924294  74.8040824  22.6145572  63.2944129  74.7563173  22.2617109
  58.8678685  68.4901143  18.8569918  58.3557588  67.8822326  19.2154949
  58.6958181  69.2057735  19.3243894  58.7668322  68.5064442  18.9786142
  53.7144399  66.9338718  21.5072280  53.5446990  67.5940093  20.9620486
  53.2710349  67.1445279  22.2284769  53.6243733  67.0624700  21.5333909
  62.7447755  66.4125387  21.2972173  63.3019185  66.1839197  20.6650639
  62.4208820  67.1731053  21.0207386  62.7794165  66.4909224  21.1628671
  50.6146464  69.8385584  16.7660770  50.0673183  69.1686229  16.8841638
  51.4038842  69.4715432  16.8304237  50.6498647  69.6850570  16.7929470
  60.4630872  69.4993041  22.2624181  61.2142199  69.8144718  22.5763735
  60.6553449  69.2972212  21.4358102  60.6022286  69.5160423  22.1867576
  49.3733433  69.0506391  13.9206793  49.1955194  68.5983000  14.6461708
  49.0852455  69.8532553  14.1045270  49.3046386  69.1028949  14.0550296
  60.6056928  61.5429531  19.1320564  60.7384833  60.7460525  19.4601540
  60.9902080  62.0695934  19.7118840  60.6813256  61.5029448  19.2664067
  63.6789283  58.4659857  15.7301657  62.8735247  58.3557587  16.0469496
  63.5496018  58.5672313  14.8731523  63.5409416  58.4643527  15.6509698
  58.2645374  61.5388706  17.3798458  58.8089787  61.1979833  17.9702799
  58.3182310  62.3974168  17.5219742  58.3534494  61.6143966  17.4880331
  43.6479830  20.9620303   9.7295813  44.3546598  20.4672334   9.8582747
  43.8367766  21.4029385   8.9998471  43.7807736  20.9538653   9.6404858
  36.1412749  29.1592477  -0.4449783  36.7850205  29.6005641  -0.0553625
  36.4669005  28.3545903  -0.5319525  36.2844578  29.1057671  -0.4004306
  40.7872125  24.3847840   7.6209888  40.8755470  24.1973980   8.4688098
  41.2161837  23.7385269   7.2214735  40.8634227  24.2610847   7.6881639
  38.3542584  23.6679000   6.6027550  37.7913419  23.2551609   7.1267211
  39.1163608  23.5931905   7.0220693  38.3837033  23.5956400   6.7420551
  34.9617482  15.8952608   8.3344595  35.1337986  15.7858502   9.1829877
  35.4986840  16.5407013   8.0975788  35.0662486  15.9744609   8.4249692
  40.8992184  23.8156859  10.2853672  41.6832601  23.9287706  10.6509414
  40.6988778  22.9897996  10.4812357  40.9858209  23.7103578  10.3688058
  41.0562577  25.7266961   3.9320127  40.2577823  25.4866461   4.1893996
  41.5048589  25.7781354   4.6787175  41.0037188  25.6989352   4.0805051
  40.1163314  19.4727406  11.8240315  39.3236295  19.7870918  12.0092935
  40.2312241  19.6878874  10.9861100  40.0158725  19.5511242  11.7278650
  41.0447107  19.3747609   6.7625612  41.6185969  18.7374854   6.9174176
  40.9661911  19.3751692   5.8935270  41.1180342  19.2812721   6.6572023
  46.3667255  20.7456587   6.7710465  46.1305892  19.9144652   6.6522526
  47.0110484  20.6942194   7.3565309  46.4261925  20.6154275   6.8396359
  36.8237028  10.0360813  11.5390675  36.5090469  10.8060376  11.2760238
  36.5026961   9.4731069  10.9542902  36.7295947  10.0671082  11.4132025
  47.3903675  20.5301036   2.8338760  47.0849492  21.2629093   3.1952075
  46.6709891  20.1238965   2.5531546  47.2391018  20.5782769   2.8451897
  53.0905468  17.1694036   2.1607104  53.0229968  17.1889996   1.2909691
  53.0761130  18.0124364   2.3862775  53.0784224  17.2967771   2.0659581
  37.5286476  19.7777020   4.9813592  37.0298169  20.4892788   5.0598480
  38.3386700  20.0977687   4.9431754  37.5742582  19.9303869   4.9870160
  36.4553534  12.6358064  10.2775890  35.6453309  12.9415844  10.1665732
  36.9328220  13.3563647  10.3928474  36.4057012  12.7872666  10.2782961
  44.7414845  21.3388434   1.1191420  44.6029204  22.0369480   1.6240162
  43.9614843  21.1837091   0.7627602  44.6058072  21.4188601   1.1417694
  43.0792930  17.6384810   7.3713802  43.0740969  16.7664626   7.3756228
  43.7853924  17.8372979   6.8983257  43.1837934  17.5388684   7.3020837
  36.8063824  17.3661794   6.7427622  36.9507199  17.9463002   6.1070732
  37.1539472  17.7438090   7.4477476  36.8791285  17.5082498   6.7526617
  35.8791579  25.5564565   3.6088649  36.0281142  24.9967481   2.9562053
  36.6591581  25.6356567   3.9921168  36.0165672  25.4850131   3.5685598
  38.4044879  25.7279208   4.8873140  38.3288550  25.0588019   5.4423928
  38.3334738  26.4296996   5.4013806  38.3825486  25.7324116   5.0449988
  39.6105726  14.9264876   6.7413480  39.5464867  15.7874832   6.6133617
  39.7502914  14.6096869   5.9409031  39.6221196  15.0065042   6.6041693
  37.7936514  29.1347528   3.3451140  38.2832444  28.4358317   3.1626805
  37.2220746  28.8371398   3.9327198  37.7821044  28.9873752   3.4052181
  43.9903517  21.7009597  12.2977931  44.8038382  21.4294746  12.4583063
  43.8298483  21.4017137  11.4938127  44.0873466  21.6164523  12.2023337
  43.4314767  13.9932320   6.1756626  42.6191449  13.6858210   6.2569799
  43.8904702  13.5131320   6.7399339  43.3795152  13.8768812   6.2711221
  40.5268275  15.3992391  10.9585329  40.9967906  16.0234508  11.3453203
  40.5730155  14.7309367  11.5178543  40.6036150  15.3927071  11.0985400
  44.0024761  22.7615888   7.5700772  44.6404482  22.2676083   7.2363228
  43.3598853  22.6893288   6.9852998  44.0018988  22.6774896   7.4343127
  44.0579018  23.4535696   4.2106128  44.8471396  23.1024761   4.3308210
  44.2322616  24.2672084   3.9482762  44.1999299  23.5221553   4.1893996
  35.6707344  22.0075542   5.2203612  35.5627699  22.0177604   6.0865671
  35.8803126  22.8330322   5.0308566  35.6857455  22.1316616   5.3207704
  49.8071558  19.0893954   3.6802828  49.8654681  19.5380602   4.4262805
  49.1738025  19.4992766   3.2432908  49.7222853  19.2167688   3.7255377
  43.4470652  24.7097496   0.1157574  43.2490341  25.1988310  -0.5786214
  42.8258363  24.9138737   0.6941708  43.3258217  24.8114034   0.0980798
  45.3644454  18.2761648   5.6502823  46.0878653  17.8234174   5.4713843
  45.0994417  18.5566314   4.8675151  45.4325727  18.2512616   5.5081538
  41.1463244  18.3745526   3.7997838  40.5320237  17.8303576   4.0946473
  41.6630529  17.8609763   3.3203654  41.1318906  18.2181935   3.7722066
  37.1776186  18.6150109   9.2310709  36.3271816  18.7521823   9.3668354
  37.3404313  17.8813887   9.6758411  37.0760049  18.5264210   9.3166309
  47.7979768  17.2388059   4.1533373  48.3897608  17.8785309   4.1851571
  48.2338763  16.5411095   4.4425439  47.9498199  17.2306409   4.2014205
  39.6273158  21.6605431   4.7791267  39.1198249  22.2141278   5.2231897
  39.3299804  21.7213721   3.9610041  39.5078043  21.7511742   4.7239723
  38.8715643  26.5929989   1.6848273  38.6481298  25.8348819   2.0532300
  38.3825487  26.6228011   0.9628713  38.7659092  26.4852214   1.6325014
  40.9286633  20.7611722   9.2360207  40.8882488  20.1161399   8.6505363
  41.7409951  20.7048339   9.5485619  41.0429786  20.6570688   9.1957156
  40.8859394  25.9720533  -0.1091025  40.4875678  26.0822803  -0.8770205
  40.2710614  26.1802599   0.4735534  40.7358284  26.0194101  -0.1359726
  40.4933412  12.3132903   8.2312220  41.0504842  12.0846712   7.5990686
  40.1694477  13.0738568   7.9547433  40.5279822  12.3916739   8.0968717
  38.2116529  15.4000556   9.1964227  38.9627856  15.7152233   9.5103782
  38.4039105  15.1979727   8.3698149  38.3507943  15.4167938   9.1207623
  44.8494490  18.9575312   2.7801359  45.2749562  18.4349733   2.2271784
  44.4851410  19.5556149   2.2589981  44.8581093  18.9685539   2.6210368
  34.4848570  27.2539529   1.5398704  34.7995129  28.0675918   1.5476486
  34.8941983  26.8689748   2.2080863  34.5916668  27.3168232   1.6402796
  43.5250074  24.2810889  11.2894588  43.6347040  23.4919450  11.6451335
  43.8540971  24.1916825  10.4868926  43.5902480  24.1516742  11.2236979
  42.0747036  22.4627510   5.8730209  41.5267982  21.8385394   5.6050274
  42.5360065  22.6521782   5.1574288  42.0614245  22.3986560   5.7280640
  41.6405362  23.4678583   2.4039550  42.4603736  23.3241549   2.6655845
  41.3599440  24.0924782   2.9455988  41.7202105  23.5388935   2.5227489
  51.3118697  30.2119085   0.1235357  50.4556593  30.3727584   0.1744473
  51.3586351  29.3411149   0.1440418  51.1917809  30.1069887   0.1341423
  45.6959837  39.7481803  -4.1127412  44.9442737  39.3697342  -4.3411367
  46.1445849  39.7800237  -4.8608602  45.6509504  39.6967410  -4.2569910
  54.6212414  36.4805611   9.7295813  55.3279181  35.9857642   9.8582747
  54.8100349  36.9214693   8.9998471  54.7540319  36.4723961   9.6404858
  54.1570518  32.2711129   2.7667008  54.7026478  32.9496216   2.8260978
  54.0987395  32.1298590   1.9068590  54.2286433  32.3503131   2.6479069
  47.2744593  39.7600195  -1.8464639  47.3754956  38.9500549  -1.5367512
  46.6786338  39.6657142  -2.4764961  47.2017132  39.6265224  -1.8938401
  47.1145333  44.6777785  -0.4449783  47.7582788  45.1190949  -0.0553625
  47.4401588  43.8731211  -0.5319525  47.2577161  44.6242979  -0.4004306
  40.4709638  35.7820482  -2.2212306  40.2359822  34.9488134  -2.3280037
  40.6095278  36.0625148  -3.0351105  40.4565300  35.7003985  -2.3569951
  42.7699725  27.9506213   0.6772002  42.1504757  27.3598860   0.5082017
  42.6683589  28.5417648   0.0436325  42.6637400  27.9510295   0.5576992
  47.8165913  37.6889759  -5.0729922  48.1381754  38.2294967  -5.6768613
  48.4638009  37.1186531  -4.9407632  47.9591968  37.6848935  -5.1422886
  49.8667621  29.6905754  -4.9895535  50.5647785  29.8693882  -4.4974072
  50.1819953  29.1676094  -5.6125146  50.0162958  29.6399527  -5.0093525
  42.4968858  31.4958494   2.9215571  42.3727555  32.0820940   3.5565390
  43.1487142  31.0018690   3.2227846  42.5742507  31.5097299   3.0601500
  50.0555556  36.0776199  -5.0015743  50.4949191  35.4693300  -4.5560971
  49.9060219  35.6983573  -5.7730278  50.0977022  35.9314671  -5.0496576
  47.5227199  34.6720211   2.2003082  48.1676202  34.1792654   1.8814031
  47.7628976  34.8144998   3.0269160  47.6537784  34.6197654   2.2752615
  50.0613290  37.5175117   1.8509975  50.3436533  36.7226523   1.6296731
  50.7899451  37.9955705   1.8715036  50.2102854  37.4709714   1.8212990
  48.0394484  25.0598151  -0.9074260  47.7097814  25.5109295  -1.5770562
  47.3639486  24.9814314  -0.3601254  47.8904920  25.1149286  -0.9251037
  60.0431379  36.6234479  -1.1754195  59.2129082  36.8345123  -1.0120778
  59.9940631  35.7971534  -1.4511911  59.9138114  36.5324086  -1.1916829
  42.0326962  40.6606153  -0.9456100  41.5494540  41.3856642  -0.9696516
  42.8450280  40.9582283  -0.8345942  42.0817710  40.8108507  -0.9328820
  48.1041116  39.4538334   1.6593715  47.5868058  39.0945749   1.0555023
  48.8015507  38.9300508   1.6699781  48.1306697  39.3236021   1.5723974
  51.7604708  39.9033148   7.6209888  51.8488054  39.7159288   8.4688098
  52.1894421  39.2570577   7.2214735  51.8366811  39.7796155   7.6881639
  49.3275168  39.1864308   6.6027550  48.7646003  38.7736917   7.1267211
  50.0896191  39.1117213   7.0220693  49.3569617  39.1141708   6.7420551
  44.8871159  41.1762329  -0.7935820  45.5891739  40.6614318  -0.7363063
  44.8068643  41.5036480   0.0111055  44.9794920  41.1476555  -0.6663027
  59.5385337  29.2704880   2.6196227  58.7013758  29.3407067   2.8543821
  59.5073568  29.2729375   1.7470529  59.4103619  29.2815107   2.5255775
  45.9350066  31.4137916   8.3344595  46.1070570  31.3043810   9.1829877
  46.4719424  32.0592321   8.0975788  46.0395070  31.4929917   8.4249692
  44.2121935  37.3668681  -1.2850212  45.0510834  37.5991614  -1.2376450
  44.2433704  36.4972992  -1.3543176  44.3403652  37.2725627  -1.2885567
  44.8374638  37.7869556   3.0163094  45.3772863  37.6440687   3.6866466
  44.1544584  38.1866307   3.3847120  44.8166792  37.8249227   3.1697516
  54.2615523  33.4660557  -1.7891882  55.0173038  33.8992071  -1.7502973
  54.3677847  32.8165326  -1.2157246  54.3885693  33.4338040  -1.6993856
  57.2995694  37.2933834  -1.0389479  56.8630926  37.2970576  -0.2830507
  56.9658609  37.9739333  -1.4709901  57.1858314  37.3946290  -0.9908646
  51.8724767  39.3342167  10.2853672  52.6565184  39.4473014  10.6509414
  51.6721362  38.5083304  10.4812357  51.9590793  39.2288886  10.3688058
  40.2411783  34.0069847   3.1697515  39.9750198  33.1908963   3.3288506
  40.2550347  34.0523002   2.2993031  40.2036505  33.8926752   3.0650997
  57.2193177  24.3347662   1.2039949  57.8619085  24.4045766   1.7901864
  57.4716197  23.6676885   0.7019491  57.3515309  24.2474010   1.2167228
  44.9910389  27.5448225   5.8164523  44.2982186  27.0745205   6.0625255
  45.6070717  27.3186530   6.3906230  44.9794919  27.4415357   5.9373676
  52.0295161  41.2452269   3.9320127  51.2310407  41.0051769   4.1893996
  52.4781172  41.2966662   4.6787175  51.9769772  41.2174660   4.0805051
  60.4340040  34.0114754  -2.1469842  61.0956474  33.4505422  -2.2473933
  59.7931452  33.5166784  -1.8217150  60.4368908  33.8551163  -2.1137501
  40.6505197  34.7928626   0.4509260  40.4680770  34.7675512  -0.4018448
  41.3854866  35.2627564   0.4898168  40.7319260  34.8589988   0.3307178
  56.7204871  35.0280136  -2.4057853  56.9560460  35.1725335  -3.2331002
  56.8694434  35.7922544  -2.0126339  56.7770674  35.1619190  -2.4694249
  43.7150948  31.5113629   6.9591368  44.4390921  31.4966660   7.4456263
  43.8167085  32.2208984   6.4613337  43.8369157  31.6138332   6.9570155
  51.0895898  34.9912714  11.8240315  50.2968878  35.3056225  12.0092935
  51.2044825  35.2064182  10.9861100  50.9891308  35.0696550  11.7278650
  53.7627217  31.7146705  -3.8864669  53.8574071  32.4535999  -3.4325043
  53.1386060  31.2864180  -3.4530104  53.6836247  31.7608025  -3.7556521
  52.0179690  34.8932917   6.7625612  52.5918552  34.2560162   6.9174176
  51.9394494  34.8937000   5.8935270  52.0912925  34.7998029   6.6572023
  40.6176107  31.6722127   0.6008326  41.1949610  31.5358578   1.2400572
  39.9190169  31.2157911   0.8553911  40.5997128  31.5844393   0.7330616
  47.3743409  33.3256182  -1.1853190  47.1162653  32.4927917  -1.2121891
  47.4291892  33.5513795  -2.0260690  47.3443187  33.2353954  -1.3133054
  52.4544459  25.4284633  -1.0849098  51.7500786  24.9393819  -0.9265179
  52.5029434  25.4407108  -1.9560653  52.3574511  25.3574281  -1.1909758
  46.3478121  30.8793945  -0.6988296  45.7727713  31.0386113  -0.0624335
  45.9713798  30.2429354  -1.1619845  46.2080934  30.8091758  -0.6733737
  50.0151410  29.3517294   4.1604083  49.6265843  28.9271512   3.5056274
  49.3506108  29.5999444   4.6681109  49.8598338  29.3256015   4.1391951
  53.8377771  23.0491923   1.6728067  54.2188283  22.3670094   2.0595941
  53.0341056  22.7601525   1.4903731  53.7754233  22.9058971   1.7032123
  57.3399838  36.2641895   6.7710465  57.1038476  35.4329960   6.6522526
  57.9843067  36.2127502   7.3565309  57.3994509  36.1339583   6.8396359
  46.9898256  37.0537416  -2.5146798  47.6272203  36.8149164  -1.9695005
  47.4153328  37.2574575  -3.2493638  47.1474423  37.0488426  -2.5429641
  41.6810899  39.2925753   1.3687506  41.7215044  39.5640604   0.5407285
  42.2405423  39.8167661   1.7845293  41.7694245  39.4101508   1.3079394
  47.7969612  25.5546121  11.5390675  47.4823053  26.3245684  11.2760238
  47.4759544  24.9916377  10.9542902  47.7028531  25.5856390  11.4132025
  58.3636259  36.0486344   2.8338760  58.0582076  36.7814401   3.1952075
  57.6442475  35.6424273   2.5531546  58.2123601  36.0968077   2.8451897
  49.3719728  37.5309839  -0.8353012  49.4458737  37.3685011   0.0188838
  50.1889235  37.7200028  -1.0792530  49.5036087  37.5346581  -0.7454986
  64.0638051  32.6879344   2.1607104  63.9962551  32.7075304   1.2909691
  64.0493714  33.5309672   2.3862775  64.0516808  32.8153079   2.0659581
  43.1325485  37.8767702  -3.8058569  42.3063603  38.1229439  -3.9324290
  43.1937476  37.7979783  -2.9396510  43.0199652  37.9012651  -3.6969624
  54.4734398  24.0914502   5.4848193  55.2187990  23.9024312   5.0711619
  54.0571702  24.6172740   4.9262050  54.5219372  24.1416647   5.3412767
  61.8496668  31.4623731   0.4353698  62.4004590  30.8291800   0.6750791
  61.8340784  31.9939123   1.1269203  61.9281865  31.4472679   0.5732557
  48.5019059  35.2962328   4.9813592  48.0030753  36.0078096   5.0598480
  49.3119284  35.6162994   4.9431754  48.5475166  35.4489176   4.9870160
  45.8530230  42.4711964  -3.0379389  45.6330525  42.1809319  -2.2452722
  45.6324752  41.8126919  -3.5661477  45.7877824  42.3311673  -2.9990480
  44.7647177  34.5585281  -0.7723687  44.4760425  33.9322752  -0.2377960
  45.6330525  34.5005568  -0.7059007  44.8507429  34.4572825  -0.6832733
  55.5525075  29.7020064  -0.4541705  55.2089841  28.9810399  -0.1034456
  55.6518117  29.4933915  -1.2963347  55.5167117  29.5644268  -0.5270025
  44.9679450  36.1980532  -4.8481322  45.7225418  36.5793571  -4.6345860
  44.3750063  36.6491676  -4.3934626  44.9916164  36.3209359  -4.7498444
  47.4286117  28.1543372  10.2775890  46.6185893  28.4601152  10.1665732
  47.9060804  28.8748955  10.3928474  47.3789596  28.3057973  10.2782961
  46.2877677  37.3689093   0.5258793  45.7658430  37.5089385   1.2110658
  46.6751697  36.6099758   0.7160911  46.2681378  37.2774617   0.6559870
  47.7144002  34.3993112  -4.0759716  47.5186785  35.0067847  -4.6699413
  47.9378348  33.7061056  -4.5568042  47.7178643  34.3870638  -4.2343635
  46.1122532  31.2847850  -3.9578847  46.8345184  31.4489008  -4.4175041
  45.6330525  32.0057515  -4.0639508  46.1486263  31.4146080  -4.0413233
  54.0716040  27.6211649   1.4217838  53.2327141  27.6472928   1.1856101
  54.1420407  28.2682384   2.0023184  53.9584434  27.7207775   1.4726954
  43.7630149  33.6905923   5.1475292  44.2751246  33.9690176   4.4984052
  43.4766492  34.4295217   5.5138106  43.7965012  33.8408276   5.1065171
  52.5185318  24.5197026  -3.8454547  53.2211671  24.3204774  -4.3234588
  52.2529507  23.7472968  -3.5385703  52.5831951  24.3759992  -3.8709105
  57.9473564  32.8279636  -1.2920921  57.8607538  32.9835062  -0.4386142
  57.4924044  33.4717711  -1.6661516  57.8676821  32.9455391  -1.2213814
  47.2813875  25.7832311   5.2076334  47.0897072  25.7987446   6.0575758
  48.1312471  25.9795986   5.1842989  47.3789596  25.8146662   5.3299629
  41.6660788  28.3123293   3.1860151  41.5246279  27.4607233   3.3104658
  41.9501351  28.3551953   2.3622357  41.6868634  28.1923043   3.0827775
  51.8199380  30.1490383  -2.6695361  51.5734094  30.0686134  -1.8358572
  52.1484503  29.3643851  -2.8632834  51.8320624  30.0216648  -2.5747838
  55.7147429  36.8573742   1.1191420  55.5761788  37.5554788   1.6240162
  54.9347427  36.7022399   0.7627602  55.5790656  36.9373909   1.1417694
  54.0525514  33.1570118   7.3713802  54.0473552  32.2849934   7.3756228
  54.7586508  33.3558287   6.8983257  54.1570518  33.0573992   7.3020837
  47.7796407  32.8847101   6.7427622  47.9239783  33.4648310   6.1070732
  48.1272056  33.2623398   7.4477476  47.8523869  33.0267806   6.7526617
  49.9516325  32.0837270   4.5252753  49.2039639  32.2768284   4.1201032
  50.1057850  31.2582489   4.2876875  49.8638752  31.9902381   4.4298159
  46.8524162  41.0749873   3.6088649  47.0013726  40.5152789   2.9562053
  47.6324164  41.1541875   3.9921168  46.9898256  41.0035439   3.5685598
  49.3777463  41.2464516   4.8873140  49.3021134  40.5773327   5.4423928
  49.3067322  41.9482304   5.4013806  49.3558070  41.2509424   5.0449988
  50.1918102  25.9787821   5.4148157  50.6490716  26.7111795   5.5420949
  50.2674430  25.5554286   6.1735413  50.2709071  26.0245059   5.5449234
  42.4351093  26.2253640   6.5037601  41.8993282  25.6133998   6.8198368
  42.4968858  26.8001776   7.1571268  42.3646725  26.2200568   6.6473028
  48.0700480  27.9689925   2.2589981  47.2796554  27.7881385   2.5807317
  48.4661102  27.1916877   2.2420276  48.0117356  27.8277385   2.3042530
  53.4544166  35.6032355  -0.0150573  52.7789168  35.3717587   0.4862814
  53.4636542  34.9953538  -0.6408468  53.3562670  35.4791280  -0.0334421
  50.5838310  30.4450184   6.7413480  50.5197451  31.3060140   6.6133617
  50.7235498  30.1282177   5.9409031  50.5953780  30.5250350   6.6041693
  49.2657404  33.1382323   0.8829683  48.8419653  33.3386822   0.1468701
  49.0902259  32.2911171   0.9953983  49.1768284  33.0431104   0.7903373
  48.7669097  44.6532836   3.3451140  49.2565027  43.9543625   3.1626805
  48.1953329  44.3556706   3.9327198  48.7553627  44.5059060   3.4052181
  44.5539849  33.6334374  -3.6842344  44.7104468  33.5681177  -2.8286352
  44.8940442  34.4082927  -3.8963665  44.6273084  33.7383573  -3.5887750
  51.0918993  33.0092258  -4.8148981  51.6334539  32.5062639  -4.3510361
  51.4065552  32.9557453  -5.6259496  51.2183390  32.9271679  -4.8665169
  54.9636101  37.2194905  12.2977931  55.7770966  36.9480054  12.4583063
  54.8031067  36.9202445  11.4938127  55.0606049  37.1349831  12.2023337
  52.2408263  27.9028562   5.2373319  52.4550232  27.2639477   4.6836673
  51.6242162  28.3474386   4.8081181  52.1813592  27.8738706   5.0923750
  41.1274110  30.8169325  -3.3681577  41.5073075  31.2353870  -4.0321310
  40.5529475  31.3982781  -3.0612734  41.0985435  30.9647184  -3.4204836
  54.4047351  29.5117628   6.1756626  53.5924032  29.2043518   6.2569799
  54.8637285  29.0316628   6.7399339  54.3527735  29.3954120   6.2711221
  51.6322991  21.0128498   0.2260662  50.7616549  20.9867219   0.1793972
  51.8863333  20.8405690  -0.5913492  51.5416551  20.9838642   0.0980799
  51.5000858  30.9177699  10.9585329  51.9700489  31.5419816  11.3453203
  51.5462738  30.2494675  11.5178543  51.5768734  30.9112379  11.0985400
  48.6572132  23.0234727   1.6834132  48.1410620  22.3314918   1.8085711
  48.0966061  23.6905504   1.6296731  48.4978645  23.0197984   1.6940198
  50.7264365  23.5627687   3.5126985  50.3396118  23.5876718   4.2940515
  50.2397303  22.9969365   3.0601502  50.5976874  23.4823437   3.5614889
  54.9757345  38.2801196   7.5700772  55.6137065  37.7861391   7.2363228
  54.3331436  38.2078596   6.9852998  54.9751571  38.1960204   7.4343127
  56.7014345  30.1290342   2.1366687  56.2741953  30.0416690   1.3814787
  56.0640398  30.2368117   2.7221531  56.5443952  30.1323001   2.1112129
  50.3921507  20.4494672   5.8037245  51.0214625  20.9854972   5.5258315
  50.5607370  20.3572031   6.6550811  50.5099302  20.5156034   5.8885773
  50.1935422  25.2365867   8.0763657  51.0208851  24.9651016   8.1322271
  50.2143268  26.0326709   8.4327475  50.3188272  25.3145621   8.1378839
  55.0311601  38.9721004   4.2106128  55.8203979  38.6210069   4.3308210
  55.2055199  39.7857392   3.9482762  55.1731883  39.0406861   4.1893996
  44.7704912  32.3829730   1.2633917  43.9292918  32.2833604   1.4712811
  44.9794920  33.1525210   1.6148238  44.6769604  32.4821773   1.3461232
  42.2480479  30.0049267  -0.9081332  41.8537176  30.0792278  -1.6831223
  41.6920596  30.3907213  -0.3572970  42.1083291  30.0731041  -0.9413672
  53.8845425  22.9830561  -1.2277453  54.0895019  22.9152868  -0.3820456
  53.5571849  23.7889382  -1.2956276  53.8660673  23.0916501  -1.1117798
  48.5821577  30.3111129   0.5131515  48.2784714  29.7567117   1.1141922
  47.8800997  30.4903339   0.0259549  48.4337786  30.2555911   0.5301220
  46.6439928  37.5260850   5.2203612  46.5360282  37.5362912   6.0865671
  46.8535709  38.3515630   5.0308566  46.6590039  37.6501924   5.3207704
  44.6613720  34.7773492   2.6825550  44.0701653  35.4182990   2.6528565
  45.4234743  35.2011109   2.6556850  44.6861980  34.9349330   2.6740697
  45.0574342  25.9375490   3.3493568  45.5175824  26.0114419   4.0868691
  45.1030449  26.7356744   2.9993389  45.1324898  26.0669637   3.4066324
  46.7057692  26.6042185   7.9165595  46.3143257  25.9575532   8.3521373
  46.8743555  27.1953620   8.5359850  46.6728602  26.5956452   8.0728301
  60.7804141  34.6079262   3.6802828  60.8387265  35.0565910   4.4262805
  60.1470609  35.0178074   3.2432908  60.6955436  34.7352996   3.7255377
  54.4203236  40.2282804   0.1157574  54.2222924  40.7173618  -0.5786214
  53.7990947  40.4324045   0.6941708  54.2990800  40.3299342   0.0980798
  48.4811214  31.9967700  -5.5432181  49.2253259  32.3841977  -5.3049231
  48.6271910  31.1525126  -5.3791693  48.6121799  31.9298173  -5.4838212
  50.3990790  23.7917959  -0.5100320  49.5526835  23.9640767  -0.6358970
  50.3961922  22.9867303  -0.1734491  50.2737940  23.6978988  -0.4789193
  51.4689090  27.5693174   0.3561738  50.9949044  27.0434936   0.8667049
  51.8407226  27.0222646  -0.2123400  51.4538979  27.4109170   0.3476885
  41.8462120  29.5664680   5.7245284  42.7087733  29.4660390   5.6382614
  41.5153903  28.9859390   5.1630856  41.9247317  29.4656307   5.6290690
  57.7325821  32.6295549   1.7668519  57.4924043  31.7901964   1.7710945
  58.2117828  32.7095716   2.4909292  57.7678004  32.5176949   1.8743321
  59.7331008  29.4097007  -0.2802222  59.4940778  29.3692841  -1.1181438
  59.8964909  30.2568159  -0.1536501  59.7221311  29.5289092  -0.3848740
  56.3377038  33.7946956   5.6502823  57.0611237  33.3419482   5.4713843
  56.0727000  34.0751621   4.8675151  56.4058311  33.7697924   5.5081538
  45.2063906  28.3907129   2.3855702  44.5816976  28.4025521   1.7781655
  44.8709501  28.8667304   3.0346942  45.0649398  28.4625646   2.3912271
  41.9189582  36.4507589   3.8259466  41.3889506  35.7600028   3.8754441
  42.1914675  36.4417775   2.9972175  41.8814304  36.3474721   3.7106882
  52.1195827  33.8930834   3.7997838  51.5052820  33.3488884   4.0946473
  52.6363112  33.3795071   3.3203654  52.1051490  33.7367243   3.7722066
  51.3592124  34.9635104   1.5342137  50.9319732  34.3384823   1.1007572
  51.3517069  34.6810026   2.3601144  51.2951266  34.8287885   1.5921964
  44.4754652  30.0000277   4.6030571  44.6348138  29.2443601   5.0082292
  44.2947545  30.5491217   5.2571308  44.4720010  29.9694091   4.7593277
  52.4174955  22.1661513   5.1581360  51.9215516  22.3625187   4.4672927
  53.1744017  22.5654181   4.9870162  52.4561779  22.2539247   5.0301497
  49.6877834  25.8403859   1.7484671  49.7120321  25.3063971   1.0597451
  49.9389308  25.3321167   2.4110261  49.7287753  25.6864763   1.7449315
  37.1985424  33.1235354   1.1827815  37.0928873  33.0782198   0.3179899
  36.4485644  33.4689134   1.4642100  37.0721027  33.1676262   1.0965144
  45.9679156  24.5674677   1.1290415  46.0077528  25.0683883   1.8425122
  45.1428821  24.6585071   0.8596338  45.8518682  24.6556493   1.1940953
  48.1508769  34.1335417   9.2310709  47.3004400  34.2707131   9.3668354
  48.3136897  33.3999195   9.6758411  48.0492633  34.0449518   9.3166309
  47.3893520  31.0835187   3.4264314  46.5585449  31.2509005   3.2199562
  47.3345037  30.7071137   4.2113199  47.2582935  31.0524918   3.5112842
  45.1977303  24.5744080   9.0620725  45.8230006  24.0306212   9.3350157
  44.7427783  24.0938997   8.4928515  45.2225564  24.4233561   9.0182318
  58.7712352  32.7573367   4.1533373  59.3630192  33.3970617   4.1851571
  59.2071346  32.0596403   4.4425439  58.9230783  32.7491717   4.2014205
  50.6005742  37.1790739   4.7791267  50.0930833  37.7326586   5.2231897
  50.3032388  37.2399029   3.9610041  50.4810627  37.2697050   4.7239723
  52.7667924  25.5444059   3.6215930  53.1922995  25.0916585   3.0099456
  52.1524917  24.9904129   3.8980717  52.7396569  25.3958035   3.5720955
  55.7961493  29.9718585  -3.5463485  55.1252683  30.5148288  -3.6750419
  56.4901243  30.4413441  -3.7881790  55.7990361  30.1216856  -3.6007957
  49.8448227  42.1115297   1.6848273  49.6213881  41.3534127   2.0532300
  49.3558070  42.1413318   0.9628713  49.7391676  42.0037522   1.6325014
  55.9589621  26.4274469  -0.6373112  56.3117231  26.0004192   0.0372687
  55.1004422  26.3425312  -0.5072035  55.8839065  26.3519210  -0.5178101
  44.6573306  29.0581989  -2.5790265  43.9385295  29.4746121  -2.3117402
  45.0285668  29.6236227  -3.1298627  44.6065237  29.2031270  -2.6207458
  53.9572886  29.6909837   3.3111731  53.9370814  29.5093133   4.1646509
  54.0052087  30.5621856   3.2871314  53.9607527  29.7926376   3.4335025
  51.9019216  36.2797029   9.2360207  51.8615071  35.6346706   8.6505363
  52.7142534  36.2233647   9.5485619  52.0162370  36.1755996   9.1957156
  51.8591978  41.4905841  -0.1091025  51.4608261  41.6008111  -0.8770205
  51.2443197  41.6987907   0.4735534  51.7090867  41.5379409  -0.1359726
  53.3077697  28.0559493  -3.8115135  53.0791390  28.0792194  -4.6536777
  53.5675773  27.2316960  -3.6920125  53.3123885  27.9375573  -3.9189938
  47.5896925  29.9093966   5.7909965  47.0775828  29.3015149   6.1494996
  47.4176421  30.6250559   6.2583941  47.4886562  29.9257265   5.9126188
  42.4362640  28.3531541   8.4412327  42.2665230  29.0132916   7.8960533
  41.9928590  28.5638103   9.1624816  42.3461973  28.4817523   8.4673956
  46.3622459  26.5936039  -2.5160940  46.8379825  26.9553119  -3.1510759
  45.8611059  27.2492507  -2.2360797  46.3587818  26.7430228  -2.5684199
  51.4665995  27.8318211   8.2312220  52.0237425  27.6032020   7.5990686
  51.1427060  28.5923876   7.9547433  51.5012405  27.9102047   8.0968717
  39.3364704  31.2578407   3.7000816  38.7891424  30.5879052   3.8181685
  40.1257082  30.8908255   3.7644284  39.3716888  31.1043393   3.7269517
  49.1849113  30.9185864   9.1964227  49.9360440  31.2337541   9.5103782
  49.3771689  30.7165035   8.3698149  49.3240527  30.9353246   9.1207623
  56.0334403  27.0459430  -3.5611977  56.0328629  26.8908087  -2.7027701
  55.8290583  27.8922417  -3.6170592  56.0034181  27.1480051  -3.4424038
  38.0951674  30.4699215   0.8546839  37.9173435  30.0175824   1.5801755
  37.8070696  31.2725376   1.0385317  38.0264627  30.5221773   0.9890342
  53.7575255  31.7256932   0.0924230  54.2528920  31.0079927   0.0528250
  52.9475030  31.4227730  -0.0221283  53.7119148  31.5754578   0.0697956
  39.8324144  33.0026938  -2.0331401  38.9669663  32.9912629  -2.1448630
  39.9322959  32.8157161  -1.1860262  39.7198310  32.9733000  -1.9242457
  55.8227074  34.4760620   2.7801359  56.2482145  33.9535041   2.2271784
  55.4583993  35.0741457   2.2589981  55.8313676  34.4870847   2.6210368
  45.4581153  42.7724837   1.5398704  45.7727712  43.5861225   1.5476486
  45.8674567  42.3875056   2.2080863  45.5649251  42.8353539   1.6402796
  52.4105673  38.1894884  -0.8897484  52.8816851  38.9035146  -0.7207499
  52.7465852  37.5893634  -0.3537615  52.5300788  38.2066348  -0.7865108
  54.4982658  39.7996197  11.2894588  54.6079623  39.0104758  11.6451335
  54.8273554  39.7102133  10.4868926  54.5635063  39.6702050  11.2236979
  49.3275168  22.9622354   6.0660611  49.4603074  22.1653348   6.3941586
  49.7120321  23.4888757   6.6458886  49.4031497  22.9222271   6.2004114
  53.0479619  37.9812818   5.8730209  52.5000565  37.3570702   5.6050274
  53.5092648  38.1707090   5.1574288  53.0346829  37.9171868   5.7280640
  52.4007523  19.8852681   2.6641704  51.5953487  19.7750410   2.9809542
  52.2714259  19.9865136   1.8071570  52.2627656  19.8836351   2.5849744
  55.8573484  26.0498172   3.2581401  55.2736473  26.5507379   2.8458968
  56.1777778  25.5427729   2.6245724  55.8186659  26.0490007   3.1039908
  46.9863615  22.9581529   4.3138505  47.5308028  22.6172656   4.9042846
  47.0400551  23.8166991   4.4559789  47.0752734  23.0336789   4.4220378
  42.7994174  36.7197946   1.1877312  43.4039031  36.6793780   0.5591133
  42.5921486  37.5669098   1.2181368  42.8583071  36.8385948   1.0993429
  52.6137946  38.9863891   2.4039550  53.4336319  38.8426857   2.6655845
  52.3332023  39.6110090   2.9455988  52.6934689  39.0574243   2.5227489
  38.0345456  35.7032563   1.0576236  37.9369734  34.8928835   1.3666292
  38.8174326  35.6824356   0.6722504  38.1361592  35.5799653   1.0463098
  53.7432309  43.4691521   0.6772002  53.1237340  42.8784168   0.5082017
  53.6416172  44.0602956   0.0436325  53.6369984  43.4695603   0.5576992
  53.4701442  47.0143802   2.9215571  53.3460138  47.6006248   3.5565390
  54.1219726  46.5203998   3.2227846  53.5475091  47.0282607   3.0601500
  56.9082650  46.9323224   8.3344595  57.0803153  46.8229118   9.1829877
  57.4452007  47.5777629   8.0975788  57.0127654  47.0115225   8.4249692
  62.8457351  54.8527475  10.2853672  63.6297768  54.9658322  10.6509414
  62.6453946  54.0268612  10.4812357  62.9323376  54.7474194  10.3688058
  51.2144366  49.5255155   3.1697515  50.9482782  48.7094271   3.3288506
  51.2282931  49.5708310   2.2993031  51.1769089  49.4112059   3.0650997
  55.9642973  43.0633533   5.8164523  55.2714770  42.5930513   6.0625255
  56.5803300  42.8371837   6.3906230  55.9527503  42.9600665   5.9373676
  54.6883532  47.0298937   6.9591368  55.4123504  47.0151968   7.4456263
  54.7899668  47.7394292   6.4613337  54.8101741  47.1323640   6.9570155
  62.0628481  50.5098022  11.8240315  61.2701462  50.8241533  12.0092935
  62.1777408  50.7249490  10.9861100  61.9623892  50.5881858  11.7278650
  60.9883993  44.8702602   4.1604083  60.5998426  44.4456820   3.5056274
  60.3238692  45.1184752   4.6681109  60.8330921  44.8441323   4.1391951
  64.8110355  38.5677231   1.6728067  65.1920867  37.8855402   2.0595941
  64.0073639  38.2786833   1.4903731  64.7486817  38.4244279   1.7032123
  58.7702195  41.0731429  11.5390675  58.4555636  41.8430992  11.2760238
  58.4492128  40.5101685  10.9542902  58.6761115  41.1041698  11.4132025
  65.4466981  39.6099810   5.4848193  66.1920573  39.4209620   5.0711619
  65.0304286  40.1358048   4.9262050  65.4951955  39.6601955   5.3412767
  58.4018701  43.6728680  10.2775890  57.5918477  43.9786460  10.1665732
  58.8793388  44.3934263  10.3928474  58.3522180  43.8243281  10.2782961
  54.7362733  49.2091231   5.1475292  55.2483830  49.4875484   4.4984052
  54.4499075  49.9480525   5.5138106  54.7697596  49.3593584   5.1065171
  52.6393371  43.8308601   3.1860151  52.4978863  42.9792541   3.3104658
  52.9233935  43.8737261   2.3622357  52.6601217  43.7108351   3.0827775
  58.7528991  48.4032409   6.7427622  58.8972367  48.9833618   6.1070732
  59.1004639  48.7808706   7.4477476  58.8256452  48.5453113   6.7526617
  61.1650685  41.4973128   5.4148157  61.6223299  42.2297103   5.5420949
  61.2407014  41.0739594   6.1735413  61.2441655  41.5430367   5.5449234
  53.4083676  41.7438948   6.5037601  52.8725866  41.1319306   6.8198368
  53.4701441  42.3187084   7.1571268  53.3379309  41.7385876   6.6473028
  59.0433063  43.4875232   2.2589981  58.2529138  43.3066693   2.5807317
  59.4393686  42.7102185   2.2420276  58.9849939  43.3462693   2.3042530
  61.5570893  45.9635492   6.7413480  61.4930035  46.8245448   6.6133617
  61.6968081  45.6467485   5.9409031  61.5686363  46.0435658   6.6041693
  65.9368684  52.7380213  12.2977931  66.7503550  52.4665362  12.4583063
  65.7763651  52.4387753  11.4938127  66.0338633  52.6535139  12.2023337
  63.2140846  43.4213870   5.2373319  63.4282816  42.7824785   4.6836673
  62.5974745  43.8659694   4.8081181  63.1546175  43.3924014   5.0923750
  65.3779934  45.0302936   6.1756626  64.5656616  44.7228826   6.2569799
  65.8369869  44.5501936   6.7399339  65.3260319  44.9139428   6.2711221
  62.6055575  36.5313806   0.2260662  61.7349133  36.5052527   0.1793972
  62.8595916  36.3590998  -0.5913492  62.5149135  36.5023950   0.0980799
  62.4733442  46.4363007  10.9585329  62.9433073  47.0605123  11.3453203
  62.5195322  45.7679983  11.5178543  62.5501318  46.4297687  11.0985400
  59.6304715  38.5420034   1.6834132  59.1143204  37.8500226   1.8085711
  59.0698644  39.2090812   1.6296731  59.4711229  38.5383292   1.6940198
  61.6996949  39.0812995   3.5126985  61.3128702  39.1062026   4.2940515
  61.2129886  38.5154673   3.0601502  61.5709458  39.0008745   3.5614889
  61.3654091  35.9679980   5.8037245  61.9947209  36.5040280   5.5258315
  61.5339953  35.8757339   6.6550811  61.4831885  36.0341342   5.8885773
  61.1668005  40.7551175   8.0763657  61.9941435  40.4836324   8.1322271
  61.1875852  41.5512016   8.4327475  61.2920856  40.8330929   8.1378839
  56.0306926  41.4560798   3.3493568  56.4908408  41.5299727   4.0868691
  56.0763033  42.2542052   2.9993389  56.1057481  41.5854945   3.4066324
  57.6790276  42.1227492   7.9165595  57.2875841  41.4760840   8.3521373
  57.8476138  42.7138928   8.5359850  57.6461186  42.1141760   8.0728301
  52.8194704  45.0849988   5.7245284  53.6820317  44.9845697   5.6382614
  52.4886487  44.5044698   5.1630856  52.8979900  44.9841615   5.6290690
  56.1796490  43.9092437   2.3855702  55.5549560  43.9210829   1.7781655
  55.8442085  44.3852612   3.0346942  56.0381982  43.9810954   2.3912271
  55.4487235  45.5185585   4.6030571  55.6080722  44.7628909   5.0082292
  55.2680129  46.0676525   5.2571308  55.4452594  45.4879399   4.7593277
  63.3907538  37.6846821   5.1581360  62.8948099  37.8810495   4.4672927
  64.1476600  38.0839489   4.9870162  63.4294363  37.7724554   5.0301497
  60.6610418  41.3589167   1.7484671  60.6852905  40.8249279   1.0597451
  60.9121891  40.8506475   2.4110261  60.7020336  41.2050070   1.7449315
  48.1718008  48.6420662   1.1827815  48.0661457  48.5967506   0.3179899
  47.4218227  48.9874442   1.4642100  48.0453610  48.6861570   1.0965144
  56.9411740  40.0859985   1.1290415  56.9810112  40.5869191   1.8425122
  56.1161405  40.1770378   0.8596338  56.8251266  40.1741801   1.1940953
  59.1241353  49.6520725   9.2310709  58.2736983  49.7892439   9.3668354
  59.2869481  48.9184503   9.6758411  59.0225216  49.5634826   9.3166309
  58.3626103  46.6020495   3.4264314  57.5318033  46.7694313   3.2199562
  58.3077620  46.2256445   4.2113199  58.2315518  46.5710226   3.5112842
  56.1709887  40.0929388   9.0620725  56.7962590  39.5491520   9.3350157
  55.7160366  39.6124305   8.4928515  56.1958147  39.9418869   9.0182318
  63.7400507  41.0629367   3.6215930  64.1655579  40.6101893   3.0099456
  63.1257500  40.5089437   3.8980717  63.7129153  40.9143343   3.5720955
  62.8751800  51.7982337   9.2360207  62.8347655  51.1532014   8.6505363
  63.6875118  51.7418955   9.5485619  62.9894953  51.6941304   9.1957156
  58.5629509  45.4279274   5.7909965  58.0508412  44.8200457   6.1494996
  58.3909005  46.1435866   6.2583941  58.4619146  45.4442573   5.9126188
  53.4095223  43.8716849   8.4412327  53.2397813  44.5318224   7.8960533
  52.9661173  44.0823410   9.1624816  53.3194557  44.0002831   8.4673956
  62.4398579  43.3503519   8.2312220  62.9970009  43.1217328   7.5990686
  62.1159644  44.1109184   7.9547433  62.4744989  43.4287355   8.0968717
  50.3097288  46.7763715   3.7000816  49.7624007  46.1064360   3.8181685
  51.0989666  46.4093563   3.7644284  50.3449471  46.6228701   3.7269517
  60.1581696  46.4371172   9.1964227  60.9093023  46.7522849   9.5103782
  60.3504273  46.2350343   8.3698149  60.2973110  46.4538554   9.1207623
  49.0684257  45.9884523   0.8546839  48.8906018  45.5361132   1.5801755
  48.7803279  46.7910684   1.0385317  48.9997210  46.0407080   0.9890342
  60.3007752  38.4807662   6.0660611  60.4335657  37.6838656   6.3941586
  60.6852904  39.0074065   6.6458886  60.3764080  38.4407579   6.2004114
  63.3740107  35.4037988   2.6641704  62.5686070  35.2935718   2.9809542
  63.2446842  35.5050444   1.8071570  63.2360240  35.4021659   2.5849744
  57.9596198  38.4766837   4.3138505  58.5040611  38.1357964   4.9042846
  58.0133134  39.3352299   4.4559789  58.0485318  38.5522097   4.4220378
   1.6821036  58.9245320  36.2620570   1.3674477  59.6148798  36.6940993
   1.1647977  58.8690102  35.5606071   1.5585506  59.0180208  36.2217520
   5.9735481  67.1466526  41.5441447   5.1363902  67.2168713  41.7789041
   5.9423711  67.1491021  40.6715749   5.8453763  67.1576753  41.4500995
   3.6543320  62.2109307  40.1285169   4.2969229  62.2807412  40.7147084
   3.9066341  61.5438530  39.6264711   3.7865452  62.1235656  40.1412448
   6.0924823  66.9853945  35.8597133   5.8361387  66.1733886  35.6695016
   6.9354137  66.9931512  35.6327320   6.1790848  66.8665942  35.7981950
   0.9084541  61.9676148  44.4093413   1.6538133  61.7785958  43.9956839
   0.4921846  62.4934386  43.8507270   0.9569515  62.0178293  44.2657987
   8.2846812  69.3385376  39.3598918   8.8354734  68.7053445  39.5996011
   8.2690927  69.8700769  40.0514423   8.3632008  69.3234325  39.4977777
   1.9875218  67.5781710  38.4703515   1.6439984  66.8572045  38.8210764
   2.0868261  67.3695561  37.6281873   1.9517261  67.4405913  38.3975195
   1.0995571  57.0339342  38.2087220   1.2179139  57.4915805  37.4754523
   0.9257747  56.2284603  37.9223438   1.0914742  56.9833114  38.0588154
   3.1364488  68.0051987  41.0611907   2.7092096  67.9178336  40.3060007
   2.4990541  68.1129763  41.6466751   2.9794096  68.0084647  41.0357349
   3.5729257  61.4123971  37.1770532   2.9603570  61.8994373  37.5624264
   3.6693432  60.7367462  37.7208183   3.4967154  61.3842279  37.3149390
   6.1681151  67.2858652  38.6442998   5.9290921  67.2454486  37.8063782
   6.3315052  68.1329804  38.7708719   6.1571455  67.4050737  38.5396480
   2.3939764  64.3036115  38.2872108   2.7467374  63.8765838  38.9617907
   1.5354566  64.2186958  38.4173185   2.3189209  64.2280855  38.4067119
   3.8263824  59.4254527  39.2156421   3.3194689  58.7183666  39.1477598
   4.6231258  59.0947715  39.3457497   3.8691063  59.2727678  39.2255416
   2.4684546  64.9221076  35.3633243   2.4678773  64.7669733  36.2217519
   2.2640726  65.7684063  35.3074628   2.4384324  65.0241697  35.4821182
   2.2923627  63.9259818  42.1826621   1.7086616  64.4269025  41.7704188
   2.6127921  63.4189374  41.5490944   2.2536803  63.9251653  42.0285128
   4.2419980  45.9383211  21.2267693   4.2113984  46.7927848  21.3985962
   4.8401329  45.6378504  21.7853837   4.3257138  46.0199708  21.3342495
   0.7513381  51.2945388  35.5881080   1.4580149  50.7997419  35.7168014
   0.9401317  51.7354470  34.8583738   0.8841287  51.2863738  35.4990125
   2.0636555  48.5135513  19.4986003   1.9476080  49.2643200  19.9278141
   2.8592441  48.2559467  19.7482090   2.1641144  48.5870360  19.5990095
   1.3771859  35.8623451  23.1960617   1.0625300  36.5526930  23.6281040
   0.8598801  35.8068233  22.4946118   1.2536330  35.9558340  23.1557566
   6.1732346  51.4374256  24.6831072   5.3430049  51.6484900  24.8464489
   6.1241598  50.6111311  24.4073356   6.0439082  51.3463863  24.6668438
   5.6686304  44.0844657  28.4781494   4.8314726  44.1546844  28.7129088
   5.6374535  44.0869152  27.6055796   5.5404587  44.0954884  28.3841042
   0.3916490  48.2800334  24.0693385   1.1474005  48.7131848  24.1082294
   0.4978815  47.6305103  24.6428021   0.5186661  48.2477817  24.1591411
   3.4296661  52.1073611  24.8195788   2.9931893  52.1110353  25.5754759
   3.0959577  52.7879110  24.3875366   3.3159281  52.2086067  24.8676621
   3.3494144  39.1487439  27.0625216   3.9920053  39.2185543  27.6487131
   3.6017165  38.4816662  26.5604758   3.4816276  39.0613787  27.0752495
   6.5641008  48.8254531  23.7115425   7.2257442  48.2645199  23.6111334
   5.9232420  48.3306561  24.0368116   6.5669875  48.6690940  23.7447765
   2.8505838  49.8419913  23.4527414   3.0861427  49.9865112  22.6254265
   2.9995402  50.6062321  23.8458928   2.9071642  49.9758967  23.3891018
   4.6796295  48.6821579  21.2897018   5.0104512  49.2149219  20.6837113
   5.2529383  48.7360467  21.9458969   4.8129974  48.7691148  21.2974800
   5.7875647  43.9232076  22.7937180   5.5312211  43.1112017  22.6035062
   6.6304961  43.9309643  22.5667367   5.8741672  43.8044073  22.7321997
   3.4700806  51.0781672  32.6295732   3.2339443  50.2469737  32.5107793
   4.1144035  51.0267279  33.2150576   3.5295477  50.9479360  32.6981626
   4.4937226  50.8626121  28.6924027   4.1883044  51.5954178  29.0537342
   3.7743442  50.4564050  28.4116813   4.3424569  50.9107854  28.7037164
  10.1939019  47.5019121  28.0192371  10.1263519  47.5215081  27.1494957
  10.1794681  48.3449449  28.2448041  10.1817775  47.6292856  27.9244848
   7.9797636  46.2763508  26.2938965   8.5305557  45.6431577  26.5336057
   7.9641751  46.8078900  26.9854470   8.0582832  46.2612456  26.4317823
   1.6826042  44.5159841  25.4043561   1.3390808  43.7950176  25.7550811
   1.7819085  44.3073692  24.5621920   1.6468085  44.3784045  25.3315241
   2.1439071  50.9785545  20.9467550   2.7097104  51.6378755  20.8626093
   1.4966975  51.3235243  21.4183952   2.1317828  51.1267487  21.0040306
   4.0774531  47.6419413  24.5664346   3.9908506  47.7974839  25.4199125
   3.6225011  48.2857488  24.1923751   3.9977788  47.7595168  24.6371453
   1.8448396  51.6713519  26.9776687   1.7062756  52.3694565  27.4825429
   1.0648394  51.5162176  26.6212869   1.7091623  51.7513686  27.0002961
   3.3401769  51.0291773  17.7393186   2.9608578  50.2428911  17.7322475
   2.6768015  51.5778630  17.5964830   3.1860244  50.9936597  17.7173983
   0.7946395  33.9717473  25.1427267   0.9129963  34.4293936  24.4094570
   0.6208571  33.1662734  24.8563485   0.7865566  33.9211245  24.9928201
   1.5861868  53.2737264  18.0744872   1.6681705  54.0804250  17.7506323
   2.0711610  53.2933223  18.7985645   1.6699026  53.3957926  18.1331771
   1.0937068  52.0334682  38.1563198   1.9071934  51.7619831  38.3168330
   0.9332035  51.7342222  37.3523394   1.1907017  51.9489608  38.0608604
   1.1058312  53.0940973  33.4286038   1.7438033  52.6001168  33.0948494
   0.4632404  53.0218373  32.8438265   1.1052539  53.0099981  33.2928393
   2.8315312  44.9430119  27.9951954   2.4042920  44.8556467  27.2400054
   2.1941365  45.0507894  28.5806798   2.6744920  44.9462778  27.9697396
   1.1612569  53.7860781  30.0691395   1.9504947  53.4349846  30.1893477
   1.3356167  54.5997169  29.8068029   1.3032850  53.8546638  30.0479263
   3.2680081  38.3502102  24.1110579   2.6554394  38.8372504  24.4964311
   3.3644256  37.6745593  24.6548230   3.1917978  38.3220411  24.2489437
   6.9105109  49.4219039  29.5388095   6.9688232  49.8705687  30.2848072
   6.2771576  49.8317851  29.1018175   6.8256404  49.5492773  29.5840643
   3.8626788  47.4435326  27.6253785   3.6225011  46.6041741  27.6296212
   4.3418795  47.5235493  28.3494559   3.8978972  47.3316726  27.7328588
   5.8631975  44.2236784  25.5783045   5.6241745  44.1832618  24.7403829
   6.0265876  45.0707936  25.7048766   5.8522279  44.3428869  25.4736527
   2.4678005  48.6086733  31.5088090   3.1912204  48.1559259  31.3299110
   2.2027968  48.8891398  30.7260418   2.5359279  48.5837701  31.3666805
   4.9013319  47.5713144  30.0118639   5.4931160  48.2110394  30.0436837
   5.3372314  46.8736180  30.3010706   5.0531750  47.5631494  30.0599472
   1.9262461  44.7858362  22.3121782   1.2553650  45.3288065  22.1834847
   2.6202211  45.2553218  22.0703477   1.9291328  44.9356633  22.2577310
   2.0890588  41.2414246  25.2212155   2.4418198  40.8143969  25.8957954
   1.2305390  41.1565089  25.3513232   2.0140033  41.1658987  25.3407166
   3.5214648  36.3632658  26.1496468   3.0145513  35.6561797  26.0817645
   4.3182082  36.0325847  26.2797544   3.5641887  36.2105809  26.1595463
   5.7234788  50.8797584  19.1337332   6.1068394  51.6288940  19.3635429
   4.9278901  51.1263404  18.8749321   5.6628570  51.0267278  19.1294906
   2.1635370  41.8599207  22.2973290   2.1629597  41.7047864  23.1557566
   1.9591550  42.7062194  22.2414675   2.1335148  41.9619828  22.4161229
   1.9528041  49.2900397  28.6386625   2.3783113  48.7674818  28.0857050
   1.5884961  49.8881234  28.1175248   1.9614644  49.3010624  28.4795635
   0.6283625  54.6135974  37.1479855   0.7380591  53.8244535  37.5036602
   0.9574522  54.5241910  36.3454193   0.6936031  54.4841827  37.0822246
   1.9874451  40.8637949  29.1166668   1.4037440  41.3647156  28.7044235
   2.3078745  40.3567506  28.4830991   1.9487627  40.8629784  28.9625175
  15.2152564  61.4568519  21.2267693  15.1846568  62.3113156  21.3985962
  15.8133912  61.1563812  21.7853837  15.2989721  61.5385016  21.3342495
   8.4152248  60.5444170  25.9820623   7.5590144  60.7052669  26.0329740
   8.4619902  59.6736234  26.0025684   8.2951360  60.4394972  25.9926689
  11.7245965  66.8130696  35.5881080  12.4312732  66.3182727  35.7168014
  11.9133900  67.2539778  34.8583738  11.8573871  66.8049046  35.4990125
  11.2604069  62.6036214  28.6252275  11.8060029  63.2821301  28.6846245
  11.2020946  62.4623675  27.7653857  11.3319984  62.6828216  28.5064336
  13.0369138  64.0320821  19.4986003  12.9208664  64.7828507  19.9278141
  13.8325025  63.7744775  19.7482090  13.1373728  64.1055668  19.5990095
   6.9701172  60.0230839  20.8689732   7.6681336  60.2018967  21.3611195
   7.2853504  59.5001179  20.2460121   7.1196509  59.9724611  20.8491742
   7.1589107  66.4101284  20.8569523   7.5982743  65.8018385  21.3024296
   7.0093770  66.0308658  20.0854988   7.2010573  66.2639756  20.8088691
   4.6260750  65.0045296  28.0588349   5.2709753  64.5117739  27.7399297
   4.8662527  65.1470083  28.8854427   4.7571335  64.9522738  28.1337882
   7.1646841  67.8500202  27.7095241   7.4470084  67.0551608  27.4881997
   7.8933002  68.3280790  27.7300302   7.3136405  67.8034799  27.6798257
   5.1428035  55.3923236  24.9511007   4.8131365  55.8434380  24.2814705
   4.4673037  55.3139399  25.4984013   4.9938472  55.4474371  24.9334230
  10.7598444  64.7628466  17.8100293  10.6749739  65.6189432  17.9549862
  11.2482827  64.4872790  18.4782452  10.8187341  64.8485787  17.9302374
  12.3504443  51.3808759  23.1960617  12.0357884  52.0712238  23.6281040
  11.8331385  51.3253541  22.4946118  12.2268913  51.4743647  23.1557566
  11.6916877  61.3813260  19.3098028  11.1628348  61.5972893  19.9695334
  12.2141897  62.0749398  19.2298997  11.6905330  61.5156397  19.3953627
  17.1464930  66.9559564  24.6831072  16.3162633  67.1670208  24.8464489
  17.0974182  66.1296619  24.4073356  17.0171665  66.8649171  24.6668438
   8.8638259  70.2358233  33.4795155   8.9521605  70.0484373  34.3273365
   9.2927972  69.5895662  33.0800002   8.9400362  70.1121240  33.5466906
   6.4308719  69.5189392  32.4612817   5.8679554  69.1062002  32.9852478
   7.1929743  69.4442298  32.8805960   6.4603168  69.4466793  32.6005817
   8.0393699  61.5242129  16.5874416   8.2789703  61.7320112  15.7749759
   8.3609540  60.7199637  16.6963361   8.1230857  61.4356230  16.4834969
   3.3483989  53.4535524  20.4333954   4.1029957  53.8213842  20.1951005
   3.1711524  53.8275079  21.2013134   3.4338468  53.5633712  20.5118843
  16.6418888  59.6029965  28.4781494  15.8047309  59.6732152  28.7129088
  16.6107119  59.6054460  27.6055796  16.5137170  59.6140192  28.3841042
   3.0383617  61.7463001  34.1929862   3.2104121  61.6368895  35.0415144
   3.5752975  62.3917406  33.9561055   3.1428621  61.8255002  34.2834959
   1.7041054  55.8605843  17.1312067   1.5216627  56.0777724  16.3053060
   2.5666667  55.9744856  17.1870682   1.8045643  55.9095741  17.0166554
   1.3155486  67.6993766  24.5735055   2.1544385  67.9316698  24.6208817
   1.3467255  66.8298077  24.5042091   1.4437204  67.6050712  24.5699700
   7.3840773  52.8632254  20.1661091   8.1126934  52.6848209  19.7199247
   7.4735666  53.7050334  20.3768269   7.5047435  52.9616133  20.1314609
  11.3649074  63.7985641  24.0693385  12.1206589  64.2317156  24.1082294
  11.4711398  63.1490411  24.6428021  11.4919244  63.7663125  24.1591411
  14.4029245  67.6258919  24.8195788  13.9664477  67.6295661  25.5754759
  14.0692160  68.3064418  24.3875366  14.2891865  67.7271375  24.8676621
   8.9758319  69.6667252  36.1438938   9.7598735  69.7798099  36.5094681
   8.7754913  68.8408389  36.3397624   9.0624344  69.5613971  36.2273324
  14.3226728  54.6672747  27.0625216  14.9652636  54.7370851  27.6487131
  14.5749749  54.0001969  26.5604758  14.4548860  54.5799095  27.0752495
   2.0943940  57.8773310  31.6749790   1.4015737  57.4070290  31.9210522
   2.7104268  57.6511614  32.2491497   2.0828470  57.7740442  31.7958943
  17.5373591  64.3439839  23.7115425  18.1990025  63.7830507  23.6111334
  16.8965003  63.8491869  24.0368116  17.5402459  64.1876248  23.7447765
  13.8238422  65.3605221  23.4527414  14.0594011  65.5050420  22.6254265
  13.9727986  66.1247629  23.8458928  13.8804225  65.4944275  23.3891018
   0.8184499  61.8438714  32.8176635   1.5424472  61.8291745  33.3041530
   0.9200636  62.5534069  32.3198603   0.9402708  61.9463417  32.8155422
  15.6528879  64.2006887  21.2897018  15.9837096  64.7334527  20.6837113
  16.2261967  64.2545775  21.9458969  15.7862558  64.2876456  21.2974800
   8.1929449  65.3237799  37.6825582   7.4002430  65.6381310  37.8678202
   8.3078376  65.5389267  36.8446367   8.0924859  65.4021635  37.5863917
  10.8660768  62.0471790  21.9720598  10.9607622  62.7861084  22.4260223
  10.2419611  61.6189265  22.4055163  10.7869798  62.0933110  22.1028746
   9.1213242  65.2258002  32.6210879   9.6952103  64.5885246  32.7759443
   9.0428045  65.2262085  31.7520537   9.1946476  65.1323114  32.5157290
  11.1183789  63.8920529  15.2057550  11.0363952  63.9622717  16.0712537
  11.7563510  64.4550273  15.0141291  11.2003626  63.9859501  15.3047500
   4.4776960  63.6581267  24.6732076   4.2196204  62.8253002  24.6463376
   4.5325443  63.8838880  23.8324577   4.4476738  63.5679039  24.5452213
   9.5578010  55.7609718  24.7736169   8.8534337  55.2718904  24.9320088
   9.6062985  55.7732193  23.9024613   9.4608062  55.6899366  24.6675509
   3.4511672  61.2119030  25.1596971   2.8761264  61.3711198  25.7960932
   3.0747349  60.5754439  24.6965422   3.3114485  61.1416843  25.1851529
   7.1184961  59.6842379  30.0189350   6.7299394  59.2596597  29.3641541
   6.4539659  59.9324529  30.5266376   6.9631889  59.6581100  29.9977217
  16.7608230  59.4417384  22.7937180  16.5044795  58.6297325  22.6035062
  17.6037544  59.4494951  22.5667367  16.8474256  59.3229381  22.7321997
  10.9411323  53.3817008  27.5313334  11.3221834  52.6995179  27.9181208
  10.1374607  53.0926610  27.3488998  10.8787784  53.2384056  27.5617390
   8.2223899  63.9140984  18.2166156   9.0364538  64.2055877  18.1048928
   8.1583041  63.2600846  17.6424449   8.3326638  63.8606178  18.1154994
  14.4433389  66.5966980  32.6295732  14.2072027  65.7655045  32.5107793
  15.0876618  66.5452587  33.2150576  14.5028060  66.4664668  32.6981626
   4.0931808  67.3862501  23.3438469   4.7305754  67.1474249  23.8890262
   4.5186879  67.5899660  22.6091629   4.2507974  67.3813511  23.3155626
   4.9003163  55.8871206  37.3975942   4.5856604  56.6570769  37.1345505
   4.5793096  55.3241462  36.8128169   4.8062082  55.9181475  37.2717292
  15.4669810  66.3811429  28.6924027  15.1615627  67.1139485  29.0537342
  14.7476026  65.9749358  28.4116813  15.3157152  66.4293162  28.7037164
  21.1671602  63.0204429  28.0192371  21.0996102  63.0400388  27.1494957
  21.1527265  63.8634757  28.2448041  21.1550359  63.1478164  27.9244848
  11.5767949  54.4239587  31.3433460  12.3221541  54.2349397  30.9296886
  11.1605253  54.9497825  30.7847317  11.6252923  54.4741732  31.1998034
  18.9530220  61.7948816  26.2938965  19.5038141  61.1616885  26.5336057
  18.9374335  62.3264208  26.9854470  19.0315416  61.7797764  26.4317823
   5.6052610  65.6287413  30.8398859   5.1064304  66.3403180  30.9183747
   6.4152835  65.9488079  30.8017021   5.6508717  65.7814261  30.8455427
   1.8680728  64.8910366  25.0861580   1.5793977  64.2647837  25.6207307
   2.7364076  64.8330653  25.1526260   1.9540980  64.7897910  25.1752534
  12.6558626  60.0345149  25.4043561  12.3123392  59.3135484  25.7550811
  12.7551668  59.8259000  24.5621920  12.6200669  59.8969352  25.3315241
  13.1171655  66.4970853  20.9467550  13.6829687  67.1564063  20.8626093
  12.4699558  66.8420551  21.4183952  13.1050411  66.6452795  21.0040306
   4.5319668  58.4868457  36.1361157   3.7219444  58.7926237  36.0250999
   5.0094355  59.2074040  36.2513741   4.4823147  58.6383058  36.1368228
   3.3911228  67.7014178  26.3844060   2.8691981  67.8414470  27.0695925
   3.7785248  66.9424842  26.5746177   3.3714929  67.6099702  26.5145137
   9.5878233  69.4409637  20.3704629   9.3464909  68.7077498  19.9631694
   9.7679566  69.9896494  19.7170962   9.5785857  69.4132029  20.2134852
   4.8177554  64.7318197  21.7825551   4.6220336  65.3392932  21.1885854
   5.0411899  64.0386141  21.3017225   4.8212195  64.7195723  21.6241632
   3.2156084  61.6172935  21.9006419   3.9378735  61.7814093  21.4410225
   2.7364076  62.3382600  21.7945759   3.2519814  61.7471165  21.8172033
  11.1749591  57.9536734  27.2803104  10.3360692  57.9798013  27.0441368
  11.2453958  58.6007469  27.8608451  11.0617985  58.0532860  27.3312221
   0.8663700  64.0231008  31.0060559   1.3784797  64.3015261  30.3569319
   0.5800043  64.7620302  31.3723372   0.8998563  64.1733361  30.9650437
   9.6218869  54.8522111  22.0130720  10.3245222  54.6529859  21.5350679
   9.3563058  54.0798053  22.3199564   9.6865502  54.7085077  21.9876162
  15.0507115  63.1604721  24.5664346  14.9641090  63.3160147  25.4199125
  14.5957595  63.8042796  24.1923751  14.9710372  63.2780476  24.6371453
   4.3847426  56.1157396  31.0661601   4.1930623  56.1312531  31.9161024
   5.2346022  56.3121070  31.0428256   4.4823148  56.1471747  31.1884896
   8.9232931  60.4815468  23.1889906   8.6767645  60.4011219  24.0226695
   9.2518054  59.6968936  22.9952433   8.9354175  60.3541733  23.2837429
  12.8180980  67.1898827  26.9776687  12.6795339  67.8879873  27.4825429
  12.0380978  67.0347484  26.6212869  12.6824207  67.2698994  27.0002961
  11.1559065  63.4895203  33.2299069  11.1507103  62.6175019  33.2341495
  11.8620059  63.6883372  32.7568524  11.2604069  63.3899077  33.1606104
   4.8829958  63.2172186  32.6012889   5.0273334  63.7973395  31.9655999
   5.2305607  63.5948483  33.3062743   4.9557420  63.3592890  32.6111884
   7.0549876  62.4162355  30.3838020   6.3073190  62.6093369  29.9786298
   7.2091401  61.5907574  30.1462142   6.9672303  62.3227466  30.2883426
  14.3134353  66.5477081  17.7393186  13.9341161  65.7614219  17.7322475
  13.6500598  67.0963938  17.5964830  14.1592827  66.5121905  17.7173983
   7.2951653  56.3112905  31.2733424   7.7524267  57.0436880  31.4006216
   7.3707981  55.8879371  32.0320680   7.3742623  56.3570144  31.4034501
  11.7678979  49.4902781  25.1427267  11.8862547  49.9479244  24.4094570
  11.5941154  48.6848042  24.8563485  11.7598150  49.4396553  24.9928201
   5.1734031  58.3015009  28.1175248   4.3830105  58.1206470  28.4392584
   5.5694653  57.5241962  28.1005543   5.1150907  58.1602470  28.1627796
  10.5577717  65.9357440  25.8434694   9.8822719  65.7042672  26.3448081
  10.5670093  65.3278623  25.2176799  10.4596221  65.8116365  25.8250846
   7.6871861  60.7775269  32.5998747   7.6231002  61.6385225  32.4718884
   7.8269049  60.4607262  31.7994298   7.6987331  60.8575435  32.4626960
  12.5594451  68.7922572  18.0744872  12.6414289  69.5989558  17.7506323
  13.0444194  68.8118531  18.7985645  12.6431609  68.9143234  18.1331771
   6.3690955  63.4707408  26.7414950   5.9453204  63.6711907  26.0053968
   6.1935810  62.6236256  26.8539250   6.2801835  63.3756189  26.6488640
   1.6573400  63.9659459  22.1742922   1.8138019  63.9006262  23.0298914
   1.9973993  64.7408012  21.9621602   1.7306635  64.0708657  22.2697517
   8.1952544  63.3417343  21.0436286   8.7368090  62.8387724  21.5074906
   8.5099103  63.2882538  20.2325771   8.3216941  63.2596764  20.9920098
  12.0669652  67.5519990  38.1563198  12.8804517  67.2805139  38.3168330
  11.9064618  67.2527530  37.3523394  12.1639600  67.4674916  38.0608604
   9.3441814  58.2353647  31.0958586   9.5583783  57.5964562  30.5421940
   8.7275713  58.6799471  30.6666448   9.2847143  58.2063791  30.9509017
  11.5080902  59.8442713  32.0341893  10.6957583  59.5368603  32.1155066
  11.9670836  59.3641713  32.5984605  11.4561287  59.7279205  32.1296487
  10.9186156  67.7222385  22.4818838  10.5600811  67.8937027  23.2582870
  10.4324867  68.1835590  21.9246836  10.7944853  67.8161356  22.5144107
   8.7356542  51.3453583  26.0845929   7.8650100  51.3192304  26.0379238
   8.9896884  51.1730775  25.2671775   8.6450102  51.3163727  25.9566066
   8.6034409  61.2502784  36.8170595   9.0734040  61.8744900  37.2038470
   8.6496289  60.5819760  37.3763810   8.6802285  61.2437464  36.9570667
   5.7605683  53.3559811  27.5419399   5.2444171  52.6640003  27.6670978
   5.1999612  54.0230589  27.4881998   5.6012196  53.3523069  27.5525465
   7.8297916  53.8952772  29.3712252   7.4429669  53.9201803  30.1525782
   7.3430854  53.3294450  28.9186768   7.7010425  53.8148522  29.4200156
  12.0790896  68.6126281  33.4286038  12.7170616  68.1186476  33.0948494
  11.4364987  68.5403681  32.8438265  12.0785122  68.5285289  33.2928393
  13.8047896  60.4615426  27.9951954  13.3775504  60.3741775  27.2400054
  13.1673949  60.5693202  28.5806798  13.6477503  60.4648086  27.9697396
   7.4955058  50.7819757  31.6622512   8.1248176  51.3180057  31.3843582
   7.6640921  50.6897116  32.5136077   7.6132853  50.8481119  31.7471040
   7.2968973  55.5690952  33.9348923   8.1242402  55.2976101  33.9907538
   7.3176819  56.3651793  34.2912741   7.4221823  55.6470706  33.9964106
  12.1345152  69.3046089  30.0691395  12.9237531  68.9535154  30.1893477
  12.3088750  70.1182477  29.8068029  12.2765434  69.3731946  30.0479263
   1.8738463  62.7154815  27.1219184   1.0326469  62.6158689  27.3298078
   2.0828471  63.4850295  27.4733505   1.7803155  62.8146858  27.2046499
  10.9878977  53.3155645  24.6307814  11.1928570  53.2477953  25.4764811
  10.6605401  54.1214467  24.5628991  10.9694224  53.4241586  24.7467469
   5.6855128  60.6436214  26.3716782   5.3818265  60.0892202  26.9727189
   4.9834548  60.8228424  25.8844816   5.5371337  60.5880996  26.3886487
   4.7421225  57.9536734  20.9361483   5.0180959  57.2355646  20.5239051
   5.3419894  58.5521653  20.7282589   4.8714489  57.9357104  20.8442245
  14.2412664  53.8687410  24.1110579  13.6286978  54.3557812  24.4964311
  14.3376839  53.1930901  24.6548230  14.1650562  53.8405718  24.2489437
   8.2431745  55.6250251  19.2108078   8.6975492  55.7960811  19.9355923
   8.7171791  55.0118362  18.8105854   8.3800065  55.5601136  19.2581840
   1.7647271  65.1098577  28.5410817   1.1735204  65.7508075  28.5113832
   2.5268294  65.5336194  28.5142116   1.7895531  65.2674415  28.5325964
   2.1607893  56.2700575  29.2078834   2.6209375  56.3439504  29.9453958
   2.2064000  57.0681829  28.8578656   2.2358449  56.3994722  29.2651591
   3.8091243  56.9367269  33.7750862   3.4176808  56.2900617  34.2106639
   3.9777106  57.5278705  34.3945117   3.7762154  56.9281537  33.9313568
  17.8837692  64.9404347  29.5388095  17.9420816  65.3890995  30.2848072
  17.2504160  65.3503159  29.1018175  17.7988987  65.0678081  29.5840643
  11.5236787  70.5607888  25.9742841  11.3256476  71.0498703  25.2799053
  10.9024498  70.7649130  26.5526975  11.4024351  70.6624427  25.9566065
   5.5844765  62.3292785  20.3153086   6.3286810  62.7167062  20.5536035
   5.7305461  61.4850211  20.4793573   5.7155350  62.2623258  20.3747055
   7.5024341  54.1243044  25.3484947   6.6560386  54.2965852  25.2226297
   7.4995473  53.3192388  25.6850775   7.3771491  54.0304073  25.3796074
   8.5722641  57.9018259  26.2147005   8.0982595  57.3760021  26.7252316
   8.9440777  57.3547731  25.6461866   8.5572530  57.7434255  26.2062152
  14.8359372  62.9620634  27.6253785  14.5957595  62.1227049  27.6296212
  15.3151379  63.0420801  28.3494559  14.8711555  62.8502034  27.7328588
  10.5006141  58.7954813  19.2772759   9.9729159  58.8783557  18.5878468
  10.9601849  59.5372685  19.2737403  10.4907991  58.9175476  19.1747454
  16.8364559  59.7422091  25.5783045  16.5974329  59.7017926  24.7403829
  16.9998460  60.5893243  25.7048766  16.8254862  59.8614176  25.4736527
  13.4410589  64.1272041  31.5088090  14.1644788  63.6744567  31.3299110
  13.1760551  64.4076706  30.7260418  13.5091862  64.1023009  31.3666805
   2.3097457  58.7232214  28.2440969   1.6850527  58.7350606  27.6366922
   1.9743052  59.1992389  28.8932209   2.1682949  58.7950731  28.2497537
  10.0543223  67.3658377  18.4082416  10.7777422  67.8316490  18.2646989
   9.6143814  67.4331986  17.6580013  10.0958915  67.4442213  18.2767197
   9.2229378  64.2255919  29.6583105   8.6086371  63.6813969  29.9531740
   9.7396663  63.7120155  29.1788921   9.2085041  64.0692328  29.6307333
   8.4625676  65.2960189  27.3927403   8.0353284  64.6709908  26.9592839
   8.4550620  65.0135111  28.2186411   8.3984817  65.1612970  27.4507231
   1.5788203  60.3325362  30.4615837   1.7381689  59.5768686  30.8667559
   1.3981096  60.8816302  31.1156575   1.5753562  60.3019176  30.6178543
   9.5208506  52.4986598  31.0166627   9.0249067  52.6950272  30.3258194
  10.2777568  52.8979266  30.8455429   9.5595330  52.5864331  30.8886764
   6.7911385  56.1728944  27.6069937   6.8153872  55.6389056  26.9182717
   7.0422859  55.6646252  28.2695528   6.8321304  56.0189847  27.6034582
   3.0712707  54.8999762  26.9875682   3.1111079  55.4008968  27.7010389
   2.2462372  54.9910155  26.7181605   2.9552233  54.9881578  27.0526220
   5.2542320  64.4660502  35.0895976   4.4037951  64.6032216  35.2253621
   5.4170448  63.7324280  35.5343678   5.1526184  64.3774603  35.1751575
   4.4927071  61.4160272  29.2849581   3.6619000  61.5834090  29.0784829
   4.4378588  61.0396222  30.0698466   4.3616486  61.3850003  29.3698109
   2.3010854  54.9069165  34.9205991   2.9263557  54.3631297  35.1935424
   1.8461334  54.4264082  34.3513782   2.3259115  54.7558646  34.8767585
   2.8663115  59.6915863  19.8139698   3.0066076  60.1888327  20.5168340
   3.3645647  58.9902158  19.9553912   2.9604196  59.6617842  19.9391277
  15.8745903  63.0898452  30.0118639  16.4663743  63.7295702  30.0436837
  16.3104897  62.3921488  30.3010706  16.0264334  63.0816802  30.0599472
   4.4742320  56.4896950  17.1177717   4.7958161  56.0100032  16.4636980
   4.7369264  57.2996596  16.9268529   4.5608345  56.5386848  16.9933209
   7.7039293  67.5115824  30.6376533   7.1964384  68.0651671  31.0817164
   7.4065939  67.5724114  29.8195308   7.5844178  67.6022135  30.5824990
   9.8701475  55.8769144  29.4801196  10.2956546  55.4241670  28.8684723
   9.2558468  55.3229214  29.7565984   9.8430120  55.7283120  29.4306222
   8.3095698  52.3484243  22.8891773   7.6664016  52.1981890  23.4576912
   7.9695105  52.1026589  22.1240878   8.1640775  52.2896366  22.8594789
  12.8995044  60.3043670  22.3121782  12.2286234  60.8473372  22.1834847
  13.5934794  60.7738525  22.0703477  12.9023912  60.4541941  22.2577310
  13.0623172  56.7599554  25.2212155  13.4150782  56.3329277  25.8957954
  12.2037973  56.6750397  25.3513232  12.9872616  56.6844294  25.3407166
   1.7606857  59.3907073  23.2795002   1.0418846  59.8071206  23.5467865
   2.1319219  59.9561312  22.7286640   1.7098788  59.5356355  23.2377809
  11.0606437  60.0234922  29.1696997  11.0404365  59.8418218  30.0231776
  11.1085638  60.8946941  29.1456581  11.0641078  60.1251461  29.2920292
   9.0052767  66.6122114  35.0945474   8.9648622  65.9671791  34.5090630
   9.8176086  66.5558732  35.4070886   9.1195921  66.5081081  35.0542423
   7.5353431  58.4305073  18.6168381   6.9418270  58.7522070  18.0652948
   7.5728709  57.5846169  18.4089487   7.4527820  58.3529402  18.5051152
  14.4947232  51.8817966  26.1496468  13.9878096  51.1747105  26.0817645
  15.2914665  51.5511154  26.2797544  14.5374471  51.7291117  26.1595463
  10.4111248  58.3884578  22.0470131  10.1824941  58.4117279  21.2048490
  10.6709324  57.5642045  22.1665142  10.4157436  58.2700658  21.9395329
   4.6930476  60.2419051  31.6495232   4.1809379  59.6340234  32.0080263
   4.5209972  60.9575643  32.1169207   4.5920113  60.2582350  31.7711455
   3.4656010  56.9261124  23.3424327   3.9413376  57.2878204  22.7074508
   2.9644610  57.5817592  23.6224470   3.4621369  57.0755313  23.2901068
  16.6967372  66.3982892  19.1337332  17.0800977  67.1474248  19.3635429
  15.9011485  66.6448712  18.8749321  16.6361154  66.5452586  19.1294906
   8.5699546  58.1643296  34.0897487   9.1270977  57.9357105  33.4575953
   8.2460611  58.9248961  33.8132700   8.6045957  58.2427132  33.9553984
   6.2882664  61.2510949  35.0549494   7.0393991  61.5662626  35.3689048
   6.4805240  61.0490120  34.2283416   6.4274078  61.2678331  34.9792890
   5.5082663  59.0702324  16.7097711   5.8881628  59.0881953  15.9248826
   4.7675259  59.5156313  16.5888558   5.4551501  59.1384099  16.5761279
  13.1367954  57.3784515  22.2973290  13.1362180  57.2233172  23.1557566
  12.9324134  58.2247502  22.2414675  13.1067732  57.4805136  22.4161229
  10.8608806  62.0582017  25.9509497  11.3562471  61.3405012  25.9113517
  10.0508582  61.7552815  25.8363984  10.8152699  61.9079663  25.9283222
  12.9260625  64.8085704  28.6386625  13.3515696  64.2860126  28.0857050
  12.5617545  65.4066542  28.1175248  12.9347227  64.8195932  28.4795635
   9.5139224  68.5219969  24.9687783   9.9850402  69.2360231  25.1377768
   9.8499403  67.9218719  25.5047652   9.6334339  68.5391433  25.0720159
  11.6016209  70.1321282  37.1479855  11.7113174  69.3429843  37.5036602
  11.9307105  70.0427218  36.3454193  11.6668615  70.0027135  37.0822246
  10.1513170  68.3137903  31.7315475   9.6034116  67.6895787  31.4635541
  10.6126199  68.5032175  31.0159555  10.1380380  68.2496953  31.5865907
   9.5041074  50.2177765  28.5226971   8.6987038  50.1075495  28.8394809
   9.3747810  50.3190221  27.6656837   9.3661207  50.2161436  28.4435011
  12.9607035  56.3823257  29.1166668  12.3770024  56.8832464  28.7044235
  13.2811329  55.8752814  28.4830991  12.9220210  56.3815092  28.9625175
   5.5001834  55.2963852  19.3925343   6.3217528  55.4662165  19.1507037
   5.0371485  55.4511113  18.6691640   5.5532996  55.3445585  19.2496987
   4.0897166  53.2906614  30.1723771   4.6341579  52.9497741  30.7628113
   4.1434102  54.1492076  30.3145056   4.1786285  53.3661874  30.2805645
   9.7171497  69.3188976  28.2624817  10.5369871  69.1751942  28.5241112
   9.4365574  69.9435174  28.8041255   9.7968240  69.3899328  28.3812756
  16.1160619  70.9108544  24.9511007  15.7863949  71.3619688  24.2814705
  15.4405621  70.8324707  25.4984013  15.9671055  70.9659679  24.9334230
  23.3237027  66.8994067  23.1960617  23.0090468  67.5897545  23.6281040
  22.8063968  66.8438849  22.4946118  23.2001497  66.9928955  23.1557566
  14.3216573  68.9720832  20.4333954  15.0762541  69.3399149  20.1951005
  14.1444108  69.3460387  21.2013134  14.4071051  69.0819020  20.5118843
  27.6151472  75.1215273  28.4781494  26.7779893  75.1917460  28.7129088
  27.5839703  75.1239768  27.6055796  27.4869754  75.1325500  28.3841042
  12.6773638  71.3791151  17.1312067  12.4949211  71.5963032  16.3053060
  13.5399251  71.4930164  17.1870682  12.7778227  71.4281049  17.0166554
  18.3573357  68.3817562  20.1661091  19.0859517  68.2033517  19.7199247
  18.4468250  69.2235642  20.3768269  18.4780019  68.4801440  20.1314609
  25.2959311  70.1858054  27.0625216  25.9385220  70.2556159  27.6487131
  25.5482332  69.5187277  26.5604758  25.4281444  70.0984403  27.0752495
  20.5310594  71.2795026  24.7736169  19.8266921  70.7904212  24.9320088
  20.5795568  71.2917500  23.9024613  20.4340646  71.2084674  24.6675509
  27.7340814  74.9602692  22.7937180  27.4777379  74.1482633  22.6035062
  28.5770128  74.9680259  22.5667367  27.8206839  74.8414689  22.7321997
  21.9143906  68.9002316  27.5313334  22.2954418  68.2180487  27.9181208
  21.1107190  68.6111918  27.3488998  21.8520368  68.7569364  27.5617390
  15.8735747  71.4056514  37.3975942  15.5589188  72.1756077  37.1345505
  15.5525679  70.8426770  36.8128169  15.7794666  71.4366783  37.2717292
  13.4267643  69.7947036  23.0122138  12.5590069  69.8669635  23.0779748
  13.7142848  70.5969114  23.2010114  13.3407392  69.9241183  23.0496905
  22.5500532  69.9424895  31.3433460  23.2954124  69.7534705  30.9296886
  22.1337837  70.4683133  30.7847317  22.5985506  69.9927040  31.1998034
  23.6291209  75.5530457  25.4043561  23.2855975  74.8320792  25.7550811
  23.7284252  75.3444308  24.5621920  23.5933252  75.4154660  25.3315241
  22.1482175  73.4722042  27.2803104  21.3093275  73.4983321  27.0441368
  22.2186542  74.1192777  27.8608451  22.0350568  73.5718168  27.3312221
  20.5951453  70.3707419  22.0130720  21.2977806  70.1715167  21.5350679
  20.3295642  69.5983361  22.3199564  20.6598085  70.2270385  21.9876162
  15.3580009  71.6342704  31.0661601  15.1663206  71.6497838  31.9161024
  16.2078605  71.8306378  31.0428256  15.4555731  71.6657055  31.1884896
  18.2684236  71.8298213  31.2733424  18.7256850  72.5622188  31.4006216
  18.3440565  71.4064679  32.0320680  18.3475206  71.8755452  31.4034501
  22.7411562  65.0088089  25.1427267  22.8595130  65.4664552  24.4094570
  22.5673738  64.2033350  24.8563485  22.7330733  64.9581861  24.9928201
  20.3174397  73.7538955  31.0958586  20.5316367  73.1149870  30.5421940
  19.7008297  74.1984779  30.6666448  20.2579727  73.7249099  30.9509017
  19.7089126  66.8638891  26.0845929  18.8382684  66.8377612  26.0379238
  19.9629467  66.6916083  25.2671775  19.6182686  66.8349035  25.9566066
  16.7338266  68.8745119  27.5419399  16.2176755  68.1825311  27.6670978
  16.1732195  69.5415896  27.4881998  16.5744780  68.8708377  27.5525465
  18.8030500  69.4138079  29.3712252  18.4162253  69.4387111  30.1525782
  18.3163437  68.8479758  28.9186768  18.6743009  69.3333830  29.4200156
  18.4687642  66.3005065  31.6622512  19.0980760  66.8365365  31.3843582
  18.6373504  66.2082424  32.5136077  18.5865436  66.3666427  31.7471040
  18.2701557  71.0876260  33.9348923  19.0974986  70.8161409  33.9907538
  18.2909403  71.8837101  34.2912741  18.3954407  71.1656014  33.9964106
  21.9611560  68.8340953  24.6307814  22.1661154  68.7663261  25.4764811
  21.6337984  69.6399775  24.5628991  21.9426808  68.9426894  24.7467469
  25.2145248  69.3872718  24.1110579  24.6019561  69.8743120  24.4964311
  25.3109423  68.7116209  24.6548230  25.1383145  69.3591026  24.2489437
  19.2164329  71.1435559  19.2108078  19.6708075  71.3146119  19.9355923
  19.6904375  70.5303669  18.8105854  19.3532649  71.0786444  19.2581840
  18.4756924  69.6428352  25.3484947  17.6292969  69.8151160  25.2226297
  18.4728057  68.8377696  25.6850775  18.3504074  69.5489381  25.3796074
  19.5455225  73.4203566  26.2147005  19.0715179  72.8945329  26.7252316
  19.9173360  72.8733039  25.6461866  19.5305114  73.2619563  26.2062152
  27.8097142  75.2607399  25.5783045  27.5706912  75.2203233  24.7403829
  27.9731044  76.1078551  25.7048766  27.7987446  75.3799484  25.4736527
  20.4941089  68.0171906  31.0166627  19.9981650  68.2135580  30.3258194
  21.2510151  68.4164574  30.8455429  20.5327914  68.1049639  30.8886764
  17.7643969  71.6914251  27.6069937  17.7886456  71.1574364  26.9182717
  18.0155442  71.1831560  28.2695528  17.8053887  71.5375155  27.6034582
  14.0445291  70.4185070  26.9875682  14.0843663  70.9194276  27.7010389
  13.2194956  70.5095463  26.7181605  13.9284817  70.5066886  27.0526220
  13.2743438  70.4254472  34.9205991  13.8996141  69.8816605  35.1935424
  12.8193918  69.9449390  34.3513782  13.2991698  70.2743954  34.8767585
  20.8434058  71.3954451  29.4801196  21.2689130  70.9426978  28.8684723
  20.2291052  70.8414522  29.7565984  20.8162704  71.2468428  29.4306222
  19.2828281  67.8669551  22.8891773  18.6396599  67.7167198  23.4576912
  18.9427688  67.6211897  22.1240878  19.1373359  67.8081674  22.8594789
  24.0355755  72.2784862  25.2212155  24.3883365  71.8514585  25.8957954
  23.1770557  72.1935705  25.3513232  23.9605200  72.2029602  25.3407166
  25.4679815  67.4003274  26.1496468  24.9610680  66.6932413  26.0817645
  26.2647249  67.0696462  26.2797544  25.5107055  67.2476425  26.1595463
  21.3843831  73.9069886  22.0470131  21.1557524  73.9302587  21.2048490
  21.6441907  73.0827353  22.1665142  21.3890019  73.7885966  21.9395329
  24.1100537  72.8969823  22.2973290  24.1094764  72.7418480  23.1557566
  23.9056717  73.7432810  22.2414675  24.0800315  72.9990444  22.4161229
  17.4041303  68.8132747  31.9245878  17.5369208  68.0163741  32.2526853
  17.7886455  69.3399150  32.5044153  17.4797632  68.7732664  32.0589381
  20.4773658  65.7363073  28.5226971  19.6719622  65.6260803  28.8394809
  20.3480393  65.8375529  27.6656837  20.3393791  65.7346743  28.4435011
  23.9339618  71.9008565  29.1166668  23.3502607  72.4017772  28.7044235
  24.2543912  71.3938121  28.4830991  23.8952794  71.9000400  28.9625175
  16.4734418  70.8149160  19.3925343  17.2950112  70.9847473  19.1507037
  16.0104068  70.9696421  18.6691640  16.5265580  70.8630893  19.2496987
  15.0629749  68.8091922  30.1723771  15.6074162  68.4683049  30.7628113
  15.1166685  69.6677384  30.3145056  15.1518869  68.8847182  30.2805645
   0.4464205  28.2323519  22.5221126   1.1530973  27.7375550  22.6508061
   0.6352141  28.6732601  21.7923784   0.5792111  28.2241870  22.4330172
   3.1651630  28.0159803  19.5635779   2.9290267  27.1847868  19.4447840
   3.8094859  27.9645410  20.1490623   3.2246301  27.8857491  19.6321673
   4.1888050  27.8004252  15.6264073   3.8833867  28.5332309  15.9877389
   3.4694266  27.3942181  15.3456859   4.0375393  27.8485985  15.6377211
   9.8889843  24.4397253  14.9532418   9.8214343  24.4593212  14.0835004
   9.8745505  25.2827580  15.1788088   9.8768599  24.5670987  14.8584895
   0.7887892  28.9712813  25.0903245   1.6022757  28.6997962  25.2508377
   0.6282858  28.6720353  24.2863441   0.8857841  28.8867740  24.9948651
   0.8563393  30.7238912  17.0031442   1.6455771  30.3727977  17.1233524
   1.0306991  31.5375300  16.7408076   0.9983674  30.7924769  16.9819310
   6.6055933  26.3597170  16.4728142   6.6639056  26.8083819  17.2188118
   5.9722400  26.7695983  16.0358222   6.5207228  26.4870904  16.5180690
   2.1628829  25.5464864  18.4428137   2.8863028  25.0937390  18.2639156
   1.8978792  25.8269530  17.6600464   2.2310103  25.5215832  18.3006852
   4.5964143  24.5091275  16.9458686   5.1881983  25.1488526  16.9776884
   5.0323138  23.8114312  17.2350753   4.7482574  24.5009625  16.9939519
   1.6478865  26.2278528  15.5726672   2.0733937  25.7052950  15.0197097
   1.2835785  26.8259365  15.0515295   1.6565468  26.2388755  15.4135682
   0.3234449  31.5514105  24.0819902   0.4331415  30.7622666  24.4376649
   0.6525346  31.4620042  23.2794240   0.3886855  31.4219958  24.0162292
  14.9103388  38.3946651   8.1607740  14.8797392  39.2491287   8.3326009
  15.5084736  38.0941943   8.7193883  14.9940545  38.4763147   8.2682542
   8.1103072  37.4822302  12.9160670   7.2540968  37.6430800  12.9669787
   8.1570726  36.6114366  12.9365731   7.9902184  37.3773103  12.9266736
  11.4196789  43.7508827  22.5221126  12.1263556  43.2560858  22.6508061
  11.6084724  44.1917909  21.7923784  11.5524695  43.7427178  22.4330172
   7.4873463  49.3924658  10.0494560   7.8712843  49.9611556   9.5099336
   7.4232604  48.6674168   9.5700377   7.5346890  49.3700121   9.8988423
  10.9554893  39.5414345  15.5592322  11.5010853  40.2199432  15.6186292
  10.8971770  39.4001806  14.6993903  11.0270808  39.6206347  15.4404382
   4.0728968  47.0303412  10.9460674   4.1739331  46.2203766  11.2557802
   3.4770714  46.9360358  10.3160353   4.0001507  46.8968440  10.8986913
  12.7319962  40.9698953   6.4326050  12.6159488  41.7206639   6.8618188
  13.5275849  40.7122906   6.6822137  12.8324551  41.0433799   6.5330141
   3.9129708  51.9481001  12.3475530   4.5567163  52.3894165  12.7371689
   4.2385963  51.1434427  12.2605789   4.0561537  51.8946195  12.3921008
   6.6651996  36.9608971   7.8029779   7.3632160  37.1397098   8.2951242
   6.9804328  36.4379310   7.1800168   6.8147333  36.9102743   7.7831789
   6.8539931  43.3479416   7.7909570   7.2933567  42.7396516   8.2364343
   6.7044594  42.9686789   7.0195035   6.8961397  43.2017887   7.7428738
   4.3211574  41.9423427  14.9928396   4.9660577  41.4495871  14.6739344
   4.5613351  42.0848214  15.8194474   4.4522159  41.8900870  15.0677929
   6.8597665  44.7878333  14.6435288   7.1420908  43.9929739  14.4222044
   7.5883826  45.2658921  14.6640349   7.0087229  44.7412930  14.6138303
   4.8378859  32.3301367  11.8851053   4.5082189  32.7812511  11.2154752
   4.1623861  32.2517531  12.4324060   4.6889296  32.3852502  11.8674277
  10.4549268  41.7006597   4.7440339  10.3700563  42.5567564   4.8889908
  10.9433651  41.4250921   5.4122499  10.5138165  41.7863918   4.8642421
  11.3867701  38.3191391   6.2438075  10.8579172  38.5351025   6.9035381
  11.9092721  39.0127530   6.1639044  11.3856154  38.4534528   6.3293674
  16.8415754  43.8937695  11.6171119  16.0113457  44.1048339  11.7804536
  16.7925006  43.0674750  11.3413403  16.7122489  43.8027302  11.6008485
   4.9025491  46.7241550  14.4519029   4.3852433  46.3648965  13.8480337
   5.5999883  46.2003724  14.4625095   4.9291072  46.5939238  14.3649287
   8.5589083  47.1736364  20.4135202   8.6472429  46.9862504  21.2613412
   8.9878796  46.5273793  20.0140048   8.6351186  47.0499371  20.4806953
   6.1259543  46.4567524  19.3952864   5.5630378  46.0440133  19.9192525
   6.8880567  46.3820429  19.8146007   6.1553992  46.3844924  19.5345864
   1.6855534  48.4465545  11.9989494   2.3876114  47.9317534  12.0562251
   1.6053018  48.7739696  12.8036369   1.7779295  48.4179771  12.1262286
  16.3369712  36.5408096  15.4121540  15.4998133  36.6110283  15.6469135
  16.3057943  36.5432591  14.5395843  16.2087994  36.5518323  15.3181088
   2.7334441  38.6841132  21.1269909   2.9054945  38.5747026  21.9755190
   3.2703799  39.3295537  20.8901101   2.8379445  38.7633133  21.2175006
   1.0106310  44.6371897  11.5075102   1.8495209  44.8694830  11.5548864
   1.0418079  43.7676208  11.4382137   1.1388027  44.5428843  11.5039747
   1.6359013  45.0572772  15.8088408   2.1757238  44.9143903  16.4791780
   0.9528959  45.4569523  16.1772434   1.6151167  45.0952443  15.9622829
  11.0599898  40.7363773  11.0033432  11.8157413  41.1695287  11.0422341
  11.1662222  40.0868542  11.5768068  11.1870068  40.7041257  11.0931458
  14.0980069  44.5637050  11.7535835  13.6615301  44.5673792  12.5094806
  13.7642984  45.2442549  11.3215412  13.9842689  44.6649506  11.8016667
   8.6709143  46.6045383  23.0778985   9.4549559  46.7176231  23.4434727
   8.4705737  45.7786520  23.2737671   8.7575168  46.4992102  23.1613371
  14.0177552  31.6050878  13.9965263  14.6603460  31.6748982  14.5827178
  14.2700573  30.9380101  13.4944805  14.1499684  31.5177226  14.0092542
   1.7894764  34.8151441  18.6089837   1.0966561  34.3448421  18.8550568
   2.4055092  34.5889746  19.1831544   1.7779294  34.7118573  18.7298989
   8.8279536  48.5155485  16.7245441   8.0294782  48.2754985  16.9819309
   9.2765547  48.5669878  17.4712488   8.7754147  48.4877876  16.8730365
  17.2324415  41.2817970  10.6455472  17.8940849  40.7208638  10.5451381
  16.5915827  40.7870001  10.9708163  17.2353283  41.1254379  10.6787812
  13.5189246  42.2983352  10.3867461  13.7544835  42.4428551   9.5594312
  13.6678809  43.0625760  10.7798975  13.5755049  42.4322407  10.3231065
   0.5135323  38.7816845  19.7516682   1.2375296  38.7669876  20.2381577
   0.6151460  39.4912200  19.2538650   0.6353532  38.8841548  19.7495469
  15.3479703  41.1385018   8.2237065  15.6787920  41.6712658   7.6177160
  15.9212791  41.1923906   8.8799016  15.4813382  41.2254587   8.2314846
   7.8880273  42.2615930  24.6165629   7.0953254  42.5759442  24.8018249
   8.0029200  42.4767398  23.7786414   7.7875683  42.3399766  24.5203964
  10.5611592  38.9849921   8.9060645  10.6558446  39.7239215   9.3600270
   9.9370435  38.5567396   9.3395209  10.4820622  39.0311241   9.0368792
   8.8164066  42.1636133  19.5550926   9.3902927  41.5263378  19.7099490
   8.7378869  42.1640216  18.6860583   8.8897300  42.0701245  19.4497337
   4.1727784  40.5959399  11.6072123   3.9147028  39.7631133  11.5803423
   4.2276267  40.8217012  10.7664624   4.1427562  40.5057170  11.4792260
   9.2528834  32.6987849  11.7076216   8.5485161  32.2097035  11.8660135
   9.3013809  32.7110324  10.8364660   9.1558886  32.6277497  11.6015556
   3.1462496  38.1497161  12.0937018   2.5712088  38.3089329  12.7300979
   2.7698173  37.5132570  11.6305468   3.0065309  38.0794974  12.1191576
   6.8135785  36.6220510  16.9529396   6.4250218  36.1974728  16.2981588
   6.1490483  36.8702660  17.4606423   6.6582713  36.5959231  16.9317264
  16.4559054  36.3795515   9.7277226  16.1995619  35.5675456   9.5375109
  17.2988368  36.3873082   9.5007414  16.5425079  36.2607512   9.6662043
  10.6362146  30.3195139  14.4653381  11.0172658  29.6373310  14.8521255
   9.8325431  30.0304741  14.2829045  10.5738608  30.1762188  14.4957436
   7.9174723  40.8519115   5.1506203   8.7315362  41.1434008   5.0388975
   7.8533864  40.1978977   4.5764496   8.0277462  40.7984310   5.0495041
  14.1384213  43.5345111  19.5635779  13.9022851  42.7033176  19.4447840
  14.7827442  43.4830718  20.1490623  14.1978884  43.4042799  19.6321673
   3.7882631  44.3240632  10.2778515   4.4256578  44.0852380  10.8230309
   4.2137703  44.5277791   9.5431676   3.9458798  44.3191643  10.2495673
   4.5953987  32.8249337  24.3315989   4.2807428  33.5948900  24.0685552
   4.2743919  32.2619593  23.7468216   4.5012906  32.8559606  24.2057339
  15.1620634  43.3189560  15.6264073  14.8566451  44.0517617  15.9877389
  14.4426850  42.9127489  15.3456859  15.0107976  43.3671293  15.6377211
   6.1704103  44.8013055  11.9572302   6.2443112  44.6388227  12.8114152
   6.9873610  44.9903245  11.7132783   6.3020462  44.8049797  12.0470327
  20.8622426  39.9582560  14.9532418  20.7946926  39.9778520  14.0835004
  20.8478089  40.8012888  15.1788088  20.8501183  40.0856295  14.8584895
  11.2718773  31.3617718  18.2773507  12.0172365  31.1727529  17.8636933
  10.8556077  31.8875956  17.7187363  11.3203747  31.4119864  18.1338080
  18.6481043  38.7326947  13.2279012  19.1988965  38.0995016  13.4676104
  18.6325159  39.2642339  13.9194516  18.7266240  38.7175895  13.3657870
   5.3003434  42.5665544  17.7738906   4.8015128  43.2781312  17.8523794
   6.1103659  42.8866211  17.7357068   5.3459541  42.7192393  17.7795474
   1.5631552  41.8288497  12.0201626   1.2744801  41.2025968  12.5547354
   2.4314900  41.7708784  12.0866307   1.6491804  41.7276041  12.1092581
  12.3509450  36.9723280  12.3383608  12.0074216  36.2513616  12.6890858
  12.4502492  36.7637132  11.4961967  12.3151493  36.8347484  12.2655288
  12.8122479  43.4348984   7.8807596  13.3780511  44.0942194   7.7966139
  12.1650382  43.7798683   8.3523999  12.8001235  43.5830926   7.9380353
   4.2270492  35.4246588  23.0701204   3.4170268  35.7304368  22.9591046
   4.7045179  36.1452171  23.1853788   4.1773971  35.5761190  23.0708275
   3.0862052  44.6392309  13.3184107   2.5642805  44.7792601  14.0035972
   3.4736072  43.8802974  13.5086224   3.0665753  44.5477833  13.4485183
   9.2829057  46.3787769   7.3044676   9.0415733  45.6455629   6.8971741
   9.4630390  46.9274626   6.6511009   9.2736681  46.3510160   7.1474899
   4.5128377  41.6696328   8.7165598   4.3171160  42.2771063   8.1225901
   4.7362723  40.9764272   8.2357272   4.5163019  41.6573854   8.5581679
   2.9106908  38.5551066   8.8346466   3.6329559  38.7192224   8.3750272
   2.4314900  39.2760731   8.7285806   2.9470638  38.6849296   8.7512080
  10.8700415  34.8914865  14.2143151  10.0311516  34.9176144  13.9781414
  10.9404782  35.5385601  14.7948498  10.7568809  34.9910991  14.2652268
   0.5614524  40.9609139  17.9400606   1.0735621  41.2393392  17.2909366
   0.2750867  41.6998433  18.3063419   0.5949387  41.1111492  17.8990484
   9.3169693  31.7900242   8.9470767  10.0196046  31.5907990   8.4690725
   9.0513882  31.0176185   9.2539611   9.3816326  31.6463208   8.9216209
  14.7457939  40.0982852  11.5004393  14.6591913  40.2538278  12.3539172
  14.2908419  40.7420927  11.1263798  14.6661196  40.2158607  11.5711500
   4.0798250  33.0535527  18.0001648   3.8881447  33.0690662  18.8501071
   4.9296846  33.2499202  17.9768303   4.1773972  33.0849879  18.1224942
   8.6183755  37.4193599  10.1229952   8.3718469  37.3389350  10.9566741
   8.9468878  36.6347067   9.9292480   8.6304999  37.2919864  10.2177476
  12.5131804  44.1276958  13.9116734  12.3746163  44.8258004  14.4165476
  11.7331802  43.9725615  13.5552915  12.3775031  44.2077125  13.9343008
  10.8509889  40.4273334  20.1639115  10.8457927  39.5553150  20.1681542
  11.5570883  40.6261503  19.6908571  10.9554893  40.3277208  20.0946151
   4.5780782  40.1550318  19.5352936   4.7224158  40.7351526  18.8996046
   4.9256431  40.5326614  20.2402790   4.6508244  40.2971022  19.5451930
   6.7500700  39.3540486  17.3178067   6.0024014  39.5471500  16.9126345
   6.9042225  38.5285706  17.0802188   6.6623127  39.2605597  17.2223473
   3.6508537  48.3453089  16.4013962   3.7998101  47.7856005  15.7487367
   4.4308539  48.4245091  16.7846481   3.7882631  48.2738655  16.3610911
  14.0085177  43.4855212   4.6733233  13.6291985  42.6992350   4.6662522
  13.3451422  44.0342069   4.5304877  13.8543651  43.4500036   4.6514030
   6.1761838  48.5167732  17.6798453   6.1005509  47.8476543  18.2349241
   6.1051697  49.2185520  18.1939119   6.1542445  48.5212640  17.8375301
   6.9902477  33.2491037  18.2073471   7.4475091  33.9815011  18.3346263
   7.0658805  32.8257502  18.9660727   7.0693446  33.2948275  18.3374547
  11.4629803  26.4280912  12.0767314  11.5813371  26.8857375  11.3434616
  11.2891978  25.6226173  11.7903531  11.4548974  26.3774684  11.9268247
   6.8332085  47.0368731   8.5122059   7.5981976  46.7678375   8.1904723
   6.7310175  46.5518742   9.2292122   6.9313580  46.9258296   8.5701887
   4.8684855  35.2393141  15.0515295   4.0780929  35.0584601  15.3732631
   5.2645477  34.4620093  15.0345589   4.8101731  35.0980602  15.0967843
  10.2528541  42.8735571  12.7774741   9.5773543  42.6420803  13.2788128
  10.2620917  42.2656754  12.1516846  10.1547045  42.7494496  12.7590893
   7.3822685  37.7153400  19.5338794   7.3181826  38.5763356  19.4058930
   7.5219873  37.3985393  18.7334345   7.3938155  37.7953566  19.3967007
  12.2545275  45.7300703   5.0084919  12.3365113  46.5367689   4.6846370
  12.7395018  45.7496662   5.7325692  12.3382433  45.8521366   5.0671817
   6.0641779  40.4085539  13.6754997   5.6404028  40.6090038  12.9394015
   5.8886634  39.5614387  13.7879297   5.9752659  40.3134321  13.5828687
   5.5653472  51.9236052  16.1376454   6.0549402  51.2246841  15.9552119
   4.9937704  51.6259922  16.7252511   5.5538002  51.7762276  16.1977495
   1.3524224  40.9037591   9.1082969   1.5088843  40.8384393   9.9638961
   1.6924817  41.6786143   8.8961649   1.4257459  41.0086789   9.2037563
   7.8903368  40.2795474   7.9776332   8.4318914  39.7765855   8.4414953
   8.2049927  40.2260669   7.1665818   8.0167765  40.1974895   7.9260145
  11.7620476  44.4898121  25.0903245  12.5755341  44.2183270  25.2508377
  11.6015442  44.1905661  24.2863441  11.8590424  44.4053047  24.9948651
   9.0392638  35.1731779  18.0298633   9.2534607  34.5342693  17.4761987
   8.4226537  35.6177602  17.6006495   8.9797967  35.1441922  17.8849064
  10.4497306  48.0950527   9.4752854  10.0577097  47.7917242   8.7575720
  10.6050378  48.9319617   9.2857808  10.4150895  48.1734364   9.3409351
  11.2031726  36.7820844  18.9681940  10.3908407  36.4746734  19.0495113
  11.6621660  36.3019844  19.5324652  11.1512110  36.6657336  19.0636534
  10.6136980  44.6600516   9.4158884  10.2551635  44.8315159  10.1922917
  10.1275691  45.1213721   8.8586883  10.4895677  44.7539487   9.4484153
   8.4307366  28.2831714  13.0185976   7.5600924  28.2570435  12.9719285
   8.6847708  28.1108906  12.2011821   8.3400926  28.2541858  12.8906112
   8.2985233  38.1880915  23.7510642   8.7684864  38.8123032  24.1378516
   8.3447113  37.5197891  24.3103857   8.3753109  38.1815595  23.8910714
   5.4556507  30.2937943  14.4759446   4.9394995  29.6018134  14.6011025
   4.8950436  30.9608720  14.4222045   5.2963020  30.2901200  14.4865512
   7.5248740  30.8330903  16.3052299   7.1380493  30.8579934  17.0865829
   7.0381678  30.2672581  15.8526815   7.3961249  30.7526654  16.3540202
  11.7741720  45.5504412  20.3626085  12.4121440  45.0564607  20.0288541
  11.1315811  45.4781812  19.7778312  11.7735946  45.4663420  20.2268440
  13.4998720  37.3993558  14.9292001  13.0726328  37.3119906  14.1740100
  12.8624773  37.5071333  15.5146845  13.3428327  37.4026218  14.9037442
   7.1905882  27.7197888  18.5962559   7.8199000  28.2558188  18.3183629
   7.3591745  27.6275247  19.4476124   7.3083677  27.7859250  18.6811087
   6.9919797  32.5069083  20.8688970   7.8193226  32.2354232  20.9247585
   7.0127643  33.3029925  21.2252788   7.1172647  32.5848837  20.9304153
  11.8295976  46.2424220  17.0031442  12.6188354  45.8913285  17.1233524
  12.0039574  47.0560608  16.7408076  11.9716258  46.3110077  16.9819310
   1.5689287  39.6532946  14.0559231   0.7277293  39.5536820  14.2638125
   1.7779295  40.4228426  14.4073551   1.4753979  39.7524989  14.1386546
  10.6829800  30.2533777  11.5647860  10.8879394  30.1856085  12.4104858
  10.3556224  31.0592598  11.4969038  10.6645048  30.3619717  11.6807515
   5.3805952  37.5814345  13.3056828   5.0769089  37.0270333  13.9067236
   4.6785372  37.7606555  12.8184863   5.2322161  37.5259127  13.3226534
   3.4424303  44.7964066  18.0128926   3.3344658  44.8066128  18.8790984
   3.6520084  45.6218846  17.8233880   3.4574414  44.9205140  18.1133018
  13.9363488  30.8065541  11.0450626  13.3237802  31.2935943  11.4304358
  14.0327663  30.1309032  11.5888277  13.8601386  30.7783850  11.1829484
   1.4598095  42.0476708  15.4750864   0.8686028  42.6886206  15.4453879
   2.2219118  42.4714325  15.4482163   1.4846355  42.2052546  15.4666011
   1.8558717  33.2078706  16.1418881   2.3160199  33.2817635  16.8794005
   1.9014824  34.0059960  15.7918703   1.9309273  33.3372853  16.1991638
   3.5042067  33.8745401  20.7090908   3.1127632  33.2278748  21.1446686
   3.6727930  34.4656836  21.3285164   3.4712977  33.8659669  20.8653614
  17.5788516  41.8782478  16.4728142  17.6371640  42.3269126  17.2188118
  16.9454984  42.2881291  16.0358222  17.4939811  42.0056212  16.5180690
  11.2187611  47.4986020  12.9082888  11.0207300  47.9876834  12.2139099
  10.5975322  47.7027261  13.4867022  11.0975175  47.6002558  12.8906111
   5.2795589  39.2670916   7.2493132   6.0237634  39.6545193   7.4876082
   5.4256285  38.4228342   7.4133620   5.4106174  39.2001389   7.3087102
   7.1975165  31.0621175  12.2824994   6.3511210  31.2343983  12.1566344
   7.1946297  30.2570519  12.6190822   7.0722315  30.9682204  12.3136121
   8.2673465  34.8396390  13.1487052   7.7933419  34.3138152  13.6592363
   8.6391601  34.2925863  12.5801913   8.2523354  34.6812386  13.1402199
  14.5310196  39.8998765  14.5593832  14.2908419  39.0605181  14.5636259
  15.0102203  39.9798932  15.2834606  14.5662379  39.7880165  14.6668635
  16.5315383  36.6800223  12.5123091  16.2925153  36.6396057  11.6743876
  16.6949284  37.5271375  12.6388812  16.5205686  36.7992308  12.4076573
  13.1361413  41.0650172  18.4428137  13.8595612  40.6122698  18.2639156
  12.8711375  41.3454838  17.6600464  13.2042686  41.0401140  18.3006852
   2.0048281  35.6610345  15.1781016   1.3801351  35.6728737  14.5706968
   1.6693876  36.1370521  15.8272256   1.8633773  35.7328862  15.1837584
   9.7494047  44.3036508   5.3422463  10.4728246  44.7694621   5.1987036
   9.3094638  44.3710118   4.5920060   9.7909739  44.3820345   5.2107244
   8.9180202  41.1634050  16.5923152   8.3037195  40.6192100  16.8871787
   9.4347487  40.6498287  16.1128968   8.9035865  41.0070459  16.5647380
   8.1576499  42.2338320  14.3267450   7.7304108  41.6088039  13.8932886
   8.1501444  41.9513242  15.1526457   8.0935641  42.0991101  14.3847278
   1.2739027  37.2703493  17.3955884   1.4332513  36.5146817  17.8007606
   1.0931920  37.8194433  18.0496622   1.2704386  37.2397307  17.5518590
   9.2159330  29.4364729  17.9506674   8.7199891  29.6328403  17.2598240
   9.9728392  29.8357397  17.7795475   9.2546154  29.5242463  17.8226810
   6.4862209  33.1107075  14.5409984   6.5104696  32.5767187  13.8522764
   6.7373683  32.6024384  15.2035575   6.5272128  32.9567979  14.5374629
   2.7663531  31.8377893  13.9215729   2.8061903  32.3387100  14.6350436
   1.9413196  31.9288287  13.6521652   2.6503057  31.9259709  13.9866267
   4.9493144  41.4038633  22.0236023   4.0988775  41.5410347  22.1593668
   5.1121272  40.6702411  22.4683725   4.8477008  41.3152734  22.1091622
   4.1877895  38.3538403  16.2189628   3.3569824  38.5212221  16.0124876
   4.1329412  37.9774354  17.0038513   4.0567310  38.3228134  16.3038156
   1.9961678  31.8447296  21.8546038   2.6214381  31.3009429  22.1275471
   1.5412158  31.3642213  21.2853829   2.0209939  31.6936777  21.8107632
  15.5696727  40.0276583  16.9458686  16.1614567  40.6673833  16.9776884
  16.0055721  39.3299619  17.2350753  15.7215158  40.0194933  16.9939519
   7.3990117  44.4493955  17.5716580   6.8915208  45.0029802  18.0157211
   7.1016763  44.5102245  16.7535355   7.2795002  44.5400266  17.5165037
   9.5652299  32.8147275  16.4141243   9.9907370  32.3619801  15.8024770
   8.9509292  32.2607345  16.6906031   9.5380944  32.6661251  16.3646268
  12.5945868  37.2421801   9.2461829  11.9237058  37.7851504   9.1174894
  13.2885618  37.7116657   9.0043524  12.5974736  37.3920073   9.1917357
   6.6432602  49.3818513  14.4773587   6.4198256  48.6237343  14.8457613
   6.1542445  49.4116535  13.7554027   6.5376051  49.2740738  14.4250328
  12.7573996  33.6977685  12.1552202  13.1101606  33.2707408  12.8298001
  11.8988797  33.6128529  12.2853278  12.6823440  33.6222426  12.2747212
   1.4557681  36.3285205  10.2135049   0.7369670  36.7449337  10.4807912
   1.8270043  36.8939443   9.6626687   1.4049612  36.4734486  10.1717856
  10.7557261  36.9613054  16.1037044  10.7355189  36.7796349  16.9571823
  10.8036462  37.8325072  16.0796628  10.7591902  37.0629592  16.2260339
   8.7003591  43.5500246  22.0285521   8.6599446  42.9049923  21.4430677
   9.5126910  43.4936863  22.3410933   8.8146745  43.4459212  21.9882470
   5.2911059  49.6018971  11.9310672   4.8771457  48.9393102  11.5414513
   5.9758433  49.7496830  11.4106366   5.3309431  49.5259630  11.7967169
   8.6576353  48.7609057  12.6834288   8.2592636  48.8711327  11.9155109
   8.0427573  48.9691123  13.2660848   8.5075242  48.8082625  12.6565588
  14.1898056  28.8196097  13.0836514  13.6828920  28.1125236  13.0157692
  14.9865489  28.4889286  13.2137591  14.2325295  28.6669248  13.0935509
  10.1062072  35.3262709   8.9810178   9.8775765  35.3495411   8.1388536
  10.3660148  34.5020176   9.1005189  10.1108260  35.2078789   8.8735376
   4.3881300  37.1797182  18.5835278   3.8760203  36.5718365  18.9420310
   4.2160796  37.8953775  19.0509254   4.2870937  37.1960481  18.7051502
   3.1606834  33.8639255  10.2764374   3.6364200  34.2256335   9.6414555
   2.6595434  34.5195723  10.5564517   3.1572193  34.0133444  10.2241115
  16.3918196  43.3361023   6.0677379  16.7751801  44.0852380   6.2975476
  15.5962309  43.5826843   5.8089368  16.3311978  43.4830717   6.0634952
   8.2650370  35.1021427  21.0237534   8.8221800  34.8735236  20.3915999
   7.9411435  35.8627092  20.7472746   8.2996780  35.1805263  20.8894031
   5.9833488  38.1889080  21.9889541   6.7344815  38.5040757  22.3029095
   6.1756064  37.9868251  21.1623463   6.1224902  38.2056462  21.9132937
  10.5559630  38.9960148  12.8849543  11.0513295  38.2783143  12.8453564
   9.7459406  38.6930946  12.7704030  10.5103523  38.8457794  12.8623269
  12.6211449  41.7463836  15.5726672  13.0466520  41.2238258  15.0197097
  12.2568368  42.3444673  15.0515295  12.6298051  41.7574063  15.4135682
   2.2565528  50.0428053  14.3324018   2.5712087  50.8564442  14.3401799
   2.6658942  49.6578272  15.0006177   2.3633626  50.1056756  14.4328109
   9.2090048  45.4598100  11.9027830   9.6801226  46.1738363  12.0717815
   9.5450227  44.8596850  12.4387699   9.3285163  45.4769564  12.0060206
  11.2967033  47.0699413  24.0819902  11.4063998  46.2807974  24.4376649
  11.6257929  46.9805349  23.2794240  11.3619438  46.9405266  24.0162292
   6.1259543  30.2325571  18.8585924   6.2587449  29.4356564  19.1866900
   6.5104696  30.7591974  19.4384200   6.2015872  30.1925487  18.9929427
   9.8463994  45.2516034  18.6655522   9.2984940  44.6273918  18.3975588
  10.3077023  45.4410306  17.9499602   9.8331204  45.1875084  18.5205953
   9.1991898  27.1555897  15.4567018   8.3937862  27.0453626  15.7734856
   9.0698634  27.2568352  14.5996883   9.0612031  27.1539567  15.3775058
  12.6557859  33.3201389  16.0506715  12.0720848  33.8210595  15.6384282
  12.9762153  32.8130945  15.4171038  12.6171034  33.3193224  15.8965222
   3.7847990  30.2284746  17.1063818   4.3292403  29.8875872  17.6968160
   3.8384926  31.0870207  17.2485103   3.8737109  30.3040005  17.2145692
   9.4122321  46.2567107  15.1964863  10.2320695  46.1130073  15.4581159
   9.1316398  46.8813306  15.7381301   9.4919064  46.3277459  15.3152803
  25.8835971  53.9131958   8.1607740  25.8529975  54.7676595   8.3326009
  26.4817320  53.6127251   8.7193883  25.9673129  53.9948455   8.2682542
  19.0835656  53.0007609  12.9160670  18.2273551  53.1616108  12.9669787
  19.1303310  52.1299673  12.9365731  18.9634767  52.8958411  12.9266736
  22.3929372  59.2694135  22.5221126  23.0996140  58.7746166  22.6508061
  22.5817308  59.7103217  21.7923784  22.5257278  59.2612485  22.4330172
  18.4606047  64.9109966  10.0494560  18.8445426  65.4796864   9.5099336
  18.3965188  64.1859476   9.5700377  18.5079474  64.8885429   9.8988423
  21.9287477  55.0599653  15.5592322  22.4743437  55.7384740  15.6186292
  21.8704353  54.9187114  14.6993903  22.0003391  55.1391655  15.4404382
  15.0461552  62.5488720  10.9460674  15.1471915  61.7389073  11.2557802
  14.4503297  62.4545666  10.3160353  14.9734090  62.4153748  10.8986913
  23.7052546  56.4884260   6.4326050  23.5892072  57.2391947   6.8618188
  24.5008432  56.2308214   6.6822137  23.8057135  56.5619107   6.5330141
  14.8862291  67.4666309  12.3475530  15.5299747  67.9079473  12.7371689
  15.2118547  66.6619735  12.2605789  15.0294120  67.4131503  12.3921008
  10.5416684  50.7394737  13.4697316   9.9221715  50.1487384  13.3007330
  10.4400547  51.3306172  12.8361639  10.4354359  50.7398819  13.3502305
  17.6384579  52.4794278   7.8029779  18.3364744  52.6582406   8.2951242
  17.9536912  51.9564618   7.1800168  17.7879916  52.4288051   7.7831789
  10.2685817  54.2847018  15.7140885  10.1444513  54.8709464  16.3490704
  10.9204101  53.7907214  16.0153160  10.3459466  54.2985823  15.8526814
  17.8272515  58.8664724   7.7909570  18.2666150  58.2581824   8.2364343
  17.6777177  58.4872097   7.0195035  17.8693980  58.7203195   7.7428738
  15.2944158  57.4608735  14.9928396  15.9393160  56.9681178  14.6739344
  15.5345935  57.6033522  15.8194474  15.4254743  57.4086178  15.0677929
  17.8330249  60.3063641  14.6435288  18.1153492  59.5115047  14.4222044
  18.5616409  60.7844229  14.6640349  17.9819813  60.2598238  14.6138303
  15.8111443  47.8486675  11.8851053  15.4814773  48.2997819  11.2154752
  15.1356445  47.7702838  12.4324060  15.6621879  47.9037810  11.8674277
  21.4281851  57.2191905   4.7440339  21.3433146  58.0752871   4.8889908
  21.9166234  56.9436229   5.4122499  21.4870748  57.3049226   4.8642421
  23.0187851  43.8372198  10.1300664  22.7041292  44.5275677  10.5621086
  22.5014792  43.7816980   9.4286165  22.8952321  43.9307087  10.0897613
  22.3600284  53.8376699   6.2438075  21.8311756  54.0536332   6.9035381
  22.8825304  54.5312837   6.1639044  22.3588737  53.9719836   6.3293674
  27.8148337  59.4123003  11.6171119  26.9846040  59.6233647  11.7804536
  27.7657590  58.5860058  11.3413403  27.6855073  59.3212610  11.6008485
  15.8758075  62.2426858  14.4519029  15.3585016  61.8834273  13.8480337
  16.5732466  61.7189032  14.4625095  15.9023656  62.1124546  14.3649287
  19.5321667  62.6921672  20.4135202  19.6205013  62.5047812  21.2613412
  19.9611379  62.0459101  20.0140048  19.6083769  62.5684679  20.4806953
  17.0992127  61.9752832  19.3952864  16.5362961  61.5625441  19.9192525
  17.8613150  61.9005737  19.8146007  17.1286575  61.9030232  19.5345864
  18.7077107  53.9805568   3.5214463  18.9473110  54.1883552   2.7089806
  19.0292948  53.1763076   3.6303408  18.7914264  53.8919669   3.4175016
  14.0167397  45.9098964   7.3674001  14.7713365  46.2777281   7.1291051
  13.8394931  46.2838518   8.1353181  14.1021875  46.0197151   7.4458890
  12.6588118  63.9650853  11.9989494  13.3608697  63.4502842  12.0562251
  12.5785601  64.2925004  12.8036369  12.7511878  63.9365079  12.1262286
  27.3102296  52.0593404  15.4121540  26.4730717  52.1295591  15.6469135
  27.2790527  52.0617899  14.5395843  27.1820578  52.0703631  15.3181088
  13.7067025  54.2026440  21.1269909  13.8787528  54.0932334  21.9755190
  14.2436382  54.8480845  20.8901101  13.8112029  54.2818441  21.2175006
  12.3724461  48.3169283   4.0652114  12.1900035  48.5341163   3.2393107
  13.2350075  48.4308295   4.1210729  12.4729051  48.3659180   3.9506601
  11.9838893  60.1557205  11.5075102  12.8227793  60.3880138  11.5548864
  12.0150663  59.2861516  11.4382137  12.1120611  60.0614151  11.5039747
  12.6091596  60.5758080  15.8088408  13.1489821  60.4329211  16.4791780
  11.9261543  60.9754831  16.1772434  12.5883750  60.6137751  15.9622829
  18.0524181  45.3195693   7.1001138  18.7810341  45.1411648   6.6539294
  18.1419074  46.1613773   7.3108316  18.1730843  45.4179572   7.0654656
  22.0332481  56.2549081  11.0033432  22.7889996  56.6880595  11.0422341
  22.1394806  55.6053850  11.5768068  22.1602652  56.2226564  11.0931458
  25.0712652  60.0822358  11.7535835  24.6347884  60.0859100  12.5094806
  24.7375568  60.7627857  11.3215412  24.9575272  60.1834814  11.8016667
  19.6441726  62.1230691  23.0778985  20.4282143  62.2361538  23.4434727
  19.4438321  61.2971828  23.2737671  19.7307751  62.0177410  23.1613371
   8.0128742  56.7958371  15.9622829   7.7467157  55.9797487  16.1213819
   8.0267306  56.8411526  15.0918345   7.9753464  56.6815276  15.8576311
  24.9910135  47.1236186  13.9965263  25.6336044  47.1934290  14.5827178
  25.2433156  46.4565409  13.4944805  25.1232267  47.0362534  14.0092542
  12.7627348  50.3336749  18.6089837  12.0699145  49.8633729  18.8550568
  13.3787675  50.1075054  19.1831544  12.7511878  50.2303881  18.7298989
  19.8012119  64.0340793  16.7245441  19.0027365  63.7940293  16.9819309
  20.2498131  64.0855186  17.4712488  19.7486731  64.0063184  16.8730365
  28.2056999  56.8003278  10.6455472  28.8673433  56.2393946  10.5451381
  27.5648411  56.3055308  10.9708163  28.2085866  56.6439687  10.6787812
   8.4222155  57.5817150  13.2434573   8.2397728  57.5564036  12.3906866
   9.1571824  58.0516088  13.2823482   8.5036219  57.6478512  13.1232492
  11.4867907  54.3002153  19.7516682  12.2107879  54.2855184  20.2381577
  11.5884043  55.0097508  19.2538650  11.6086116  54.4026856  19.7495469
  26.3212286  56.6570326   8.2237065  26.6520503  57.1897966   7.6177160
  26.8945374  56.7109214   8.8799016  26.4545965  56.7439895   8.2314846
  18.8612856  57.7801238  24.6165629  18.0685837  58.0944749  24.8018249
  18.9761783  57.9952706  23.7786414  18.7608267  57.8585074  24.5203964
  21.5344175  54.5035229   8.9060645  21.6291030  55.2424523   9.3600270
  20.9103019  54.0752704   9.3395209  21.4553205  54.5496549   9.0368792
  19.7896649  57.6821441  19.5550926  20.3635511  57.0448686  19.7099490
  19.7111453  57.6825524  18.6860583  19.8629884  57.5886553  19.4497337
   8.3893066  54.4610651  13.3933640   8.9666568  54.3247102  14.0325885
   7.6907127  54.0046435  13.6479224   8.3714087  54.3732917  13.5255930
  21.7867197  56.3483969   2.1397597  21.7047359  56.4186156   3.0052584
  22.4246917  56.9113712   1.9481337  21.8687034  56.4422940   2.2387546
  15.1460368  56.1144706  11.6072123  14.8879612  55.2816441  11.5803423
  15.2008851  56.3402319  10.7664624  15.1160146  56.0242478  11.4792260
  20.2261418  48.2173157  11.7076216  19.5217745  47.7282343  11.8660135
  20.2746392  48.2295632  10.8364660  20.1291469  48.1462805  11.6015556
  14.1195080  53.6682469  12.0937018  13.5444671  53.8274637  12.7300979
  13.7430756  53.0317878  11.6305468  13.9797892  53.5980282  12.1191576
  17.7868369  52.1405818  16.9529396  17.3982801  51.7160036  16.2981588
  17.1223067  52.3887968  17.4606423  17.6315296  52.1144539  16.9317264
  27.4291638  51.8980823   9.7277226  27.1728202  51.0860764   9.5375109
  28.2720952  51.9058390   9.5007414  27.5157663  51.7792820   9.6662043
  21.6094730  45.8380447  14.4653381  21.9905242  45.1558618  14.8521255
  20.8058014  45.5490049  14.2829045  21.5471192  45.6947496  14.4957436
  18.8907307  56.3704423   5.1506203  19.7047946  56.6619316   5.0388975
  18.8266448  55.7164285   4.5764496  19.0010046  56.3169618   5.0495041
  25.1116797  59.0530419  19.5635779  24.8755434  58.2218484  19.4447840
  25.7560026  59.0016026  20.1490623  25.1711468  58.9228107  19.6321673
  14.7615215  59.8425940  10.2778515  15.3989162  59.6037688  10.8230309
  15.1870287  60.0463099   9.5431676  14.9191381  59.8376950  10.2495673
   9.4527857  62.0814277  14.1612819   9.4932003  62.3529128  13.3332599
  10.0122381  62.6056185  14.5770607   9.5411203  62.1990032  14.1004707
  15.5686570  48.3434645  24.3315989  15.2540012  49.1134208  24.0685552
  15.2476503  47.7804901  23.7468216  15.4745490  48.3744914  24.2057339
  26.1353218  58.8374868  15.6264073  25.8299035  59.5702925  15.9877389
  25.4159433  58.4312797  15.3456859  25.9840560  58.8856601  15.6377211
  17.1436687  60.3198363  11.9572302  17.2175695  60.1573535  12.8114152
  17.9606193  60.5088552  11.7132783  17.2753046  60.3235105  12.0470327
  31.8355010  55.4767868  14.9532418  31.7679510  55.4963828  14.0835004
  31.8210672  56.3198196  15.1788088  31.8233766  55.6041603  14.8584895
  13.1218467  46.7325167   9.9462185  12.2540893  46.8047766  10.0119795
  13.4093672  47.5347246  10.1350160  13.0358216  46.8619314   9.9836952
  22.2451356  46.8803026  18.2773507  22.9904948  46.6912837  17.8636933
  21.8288661  47.4061264  17.7187363  22.2936330  46.9305172  18.1338080
  29.6213627  54.2512255  13.2279012  30.1721549  53.6180324  13.4676104
  29.6057742  54.7827647  13.9194516  29.6998823  54.2361203  13.3657870
  16.2736018  58.0850852  17.7738906  15.7747712  58.7966620  17.8523794
  17.0836242  58.4051518  17.7357068  16.3192125  58.2377700  17.7795474
  12.5364136  57.3473805  12.0201626  12.2477384  56.7211276  12.5547354
  13.4047484  57.2894092  12.0866307  12.6224387  57.2461349  12.1092581
  23.3242033  52.4908588  12.3383608  22.9806799  51.7698924  12.6890858
  23.4235076  52.2822439  11.4961967  23.2884076  52.3532792  12.2655288
  23.7855062  58.9534292   7.8807596  24.3513095  59.6127502   7.7966139
  23.1382966  59.2983990   8.3523999  23.7733819  59.1016234   7.9380353
  15.2003076  50.9431896  23.0701204  14.3902852  51.2489676  22.9591046
  15.6777763  51.6637479  23.1853788  15.1506555  51.0946497  23.0708275
  14.0594635  60.1577617  13.3184107  13.5375389  60.2977909  14.0035972
  14.4468656  59.3988282  13.5086224  14.0398336  60.0663141  13.4485183
  11.0485820  50.2083426   7.3879062  10.7610615  49.8384696   6.6511009
  11.7356288  50.6778281   7.1262766  11.1074717  50.2230395   7.2394137
  20.2561640  61.8973077   7.3044676  20.0148316  61.1640937   6.8971741
  20.4362973  62.4459934   6.6511009  20.2469264  61.8695468   7.1474899
  15.4860961  57.1881636   8.7165598  15.2903744  57.7956371   8.1225901
  15.7095307  56.4949580   8.2357272  15.4895602  57.1759162   8.5581679
  13.8839491  54.0736374   8.8346466  14.6062143  54.2377532   8.3750272
  13.4047484  54.7946039   8.7285806  13.9203222  54.2034604   8.7512080
  21.8432999  50.4100173  14.2143151  21.0044099  50.4361452  13.9781414
  21.9137366  51.0570908  14.7948498  21.7301392  50.5096299  14.2652268
  11.5347108  56.4794447  17.9400606  12.0468205  56.7578700  17.2909366
  11.2483450  57.2183741  18.3063419  11.5681971  56.6296800  17.8990484
  20.2902277  47.3085550   8.9470767  20.9928630  47.1093298   8.4690725
  20.0246466  46.5361492   9.2539611  20.3548909  47.1648516   8.9216209
  25.7190523  55.6168160  11.5004393  25.6324497  55.7723586  12.3539172
  25.2641002  56.2606235  11.1263798  25.6393779  55.7343915  11.5711500
   8.6214014  50.9864639   8.2364343   8.7230151  51.7890800   8.5645318
   9.4169901  50.7851974   7.9387423   8.7541920  51.0750537   8.2399698
  15.0530833  48.5720835  18.0001648  14.8614030  48.5875970  18.8501071
  15.9029429  48.7684510  17.9768303  15.1506555  48.6035186  18.1224942
   9.4377746  51.1011817  15.9785464   9.2963238  50.2495757  16.1029972
   9.7218310  51.1440477  15.1547670   9.4585592  50.9811567  15.8753088
  19.5916339  52.9378907  10.1229952  19.3451053  52.8574658  10.9566741
  19.9201462  52.1532375   9.9292480  19.6037582  52.8105172  10.2177476
  23.4864387  59.6462266  13.9116734  23.3478747  60.3443312  14.4165476
  22.7064385  59.4910923  13.5552915  23.3507614  59.7262433  13.9343008
  21.8242473  55.9458642  20.1639115  21.8190511  55.0738458  20.1681542
  22.5303466  56.1446811  19.6908571  21.9287477  55.8462516  20.0946151
  15.5513366  55.6735625  19.5352936  15.6956742  56.2536834  18.8996046
  15.8989014  56.0511922  20.2402790  15.6240827  55.8156330  19.5451930
  17.7233283  54.8725794  17.3178067  16.9756597  55.0656808  16.9126345
  17.8774808  54.0471013  17.0802188  17.6355711  54.7790905  17.2223473
  14.6241121  63.8638397  16.4013962  14.7730685  63.3041313  15.7487367
  15.4041123  63.9430399  16.7846481  14.7615214  63.7923963  16.3610911
  24.9817760  59.0040520   4.6733233  24.6024569  58.2177658   4.6662522
  24.3184006  59.5527377   4.5304877  24.8276235  58.9685344   4.6514030
  17.1494421  64.0353040  17.6798453  17.0738093  63.3661851  18.2349241
  17.0784281  64.7370828  18.1939119  17.1275028  64.0397948  17.8375301
  17.9635060  48.7676345  18.2073471  18.4207674  49.5000319  18.3346263
  18.0391389  48.3442810  18.9660727  18.0426030  48.8133583  18.3374547
  10.2068051  49.0142164  19.2962915   9.6710241  48.4022522  19.6123682
  10.2685816  49.5890300  19.9496581  10.1363684  49.0089092  19.4398341
  22.4362386  41.9466220  12.0767314  22.5545954  42.4042683  11.3434616
  22.2624562  41.1411481  11.7903531  22.4281557  41.8959992  11.9268247
  17.8064668  62.5554039   8.5122059  18.5714560  62.2863683   8.1904723
  17.7042758  62.0704049   9.2292122  17.9046164  62.4443604   8.5701887
  15.8417438  50.7578449  15.0515295  15.0513513  50.5769909  15.3732631
  16.2378061  49.9805401  15.0345589  15.7834314  50.6165909  15.0967843
  21.2261124  58.3920879  12.7774741  20.5506126  58.1606111  13.2788128
  21.2353501  57.7842062  12.1516846  21.1279629  58.2679804  12.7590893
  18.3555268  53.2338708  19.5338794  18.2914410  54.0948664  19.4058930
  18.4952456  52.9170701  18.7334345  18.3670738  53.3138874  19.3967007
  23.2277859  61.2486011   5.0084919  23.3097696  62.0552997   4.6846370
  23.7127601  61.2681970   5.7325692  23.3115017  61.3706673   5.0671817
  17.0374362  55.9270847  13.6754997  16.6136611  56.1275346  12.9394015
  16.8619218  55.0799695  13.7879297  16.9485243  55.8319628  13.5828687
  16.5386056  67.4421360  16.1376454  17.0281986  66.7432149  15.9552119
  15.9670288  67.1445230  16.7252511  16.5270586  67.2947584  16.1977495
  12.3256807  56.4222898   9.1082969  12.4821426  56.3569701   9.9638961
  12.6657400  57.1971451   8.8961649  12.3990042  56.5272097   9.2037563
  18.8635952  55.7980782   7.9776332  19.4051497  55.2951163   8.4414953
  19.1782511  55.7445977   7.1665818  18.9900349  55.7160203   7.9260145
  22.7353059  60.0083429  25.0903245  23.5487925  59.7368578  25.2508377
  22.5748026  59.7090969  24.2863441  22.8323008  59.9238355  24.9948651
  20.0125221  50.6917087  18.0298633  20.2267191  50.0528001  17.4761987
  19.3959120  51.1362910  17.6006495  19.9530551  50.6627230  17.8849064
  21.4229889  63.6135835   9.4752854  21.0309681  63.3102550   8.7575720
  21.5782961  64.4504925   9.2857808  21.3883479  63.6919672   9.3409351
   8.8991069  53.6057849   9.4243736   9.2790034  54.0242394   8.7604004
   8.3246434  54.1871305   9.7312580   8.8702394  53.7535708   9.3720477
  22.1764309  52.3006152  18.9681940  21.3640991  51.9932042  19.0495113
  22.6354244  51.8205152  19.5324652  22.1244694  52.1842644  19.0636534
  21.5869564  60.1785824   9.4158884  21.2284219  60.3500467  10.1922917
  21.1008275  60.6399029   8.8586883  21.4628261  60.2724795   9.4484153
  19.4039950  43.8017022  13.0185976  18.5333508  43.7755743  12.9719285
  19.6580291  43.6294214  12.2011821  19.3133510  43.7727166  12.8906112
  19.2717817  53.7066223  23.7510642  19.7417448  54.3308340  24.1378516
  19.3179697  53.0383199  24.3103857  19.3485693  53.7000903  23.8910714
  16.4289090  45.8123251  14.4759446  15.9127579  45.1203442  14.6011025
  15.8683019  46.4794028  14.4222045  16.2695604  45.8086508  14.4865512
  18.4981324  46.3516211  16.3052299  18.1113077  46.3765242  17.0865829
  18.0114261  45.7857889  15.8526815  18.3693833  46.2711962  16.3540202
  22.7474303  61.0689720  20.3626085  23.3854024  60.5749915  20.0288541
  22.1048395  60.9967120  19.7778312  22.7468530  60.9848728  20.2268440
  24.4731303  52.9178866  14.9292001  24.0458911  52.8305214  14.1740100
  23.8357356  53.0256641  15.5146845  24.3160911  52.9211525  14.9037442
  18.1638466  43.2383196  18.5962559  18.7931584  43.7743496  18.3183629
  18.3324328  43.1460555  19.4476124  18.2816260  43.3044558  18.6811087
  17.9652380  48.0254391  20.8688970  18.7925810  47.7539540  20.9247585
  17.9860227  48.8215233  21.2252788  18.0905231  48.1034145  20.9304153
  22.8028560  61.7609528  17.0031442  23.5920938  61.4098593  17.1233524
  22.9772158  62.5745916  16.7408076  22.9448842  61.8295385  16.9819310
  12.5421870  55.1718254  14.0559231  11.7009877  55.0722128  14.2638125
  12.7511878  55.9413734  14.4073551  12.4486563  55.2710297  14.1386546
  10.0197437  52.7937791  11.8843981   9.6254135  52.8680802  11.1094091
   9.4637554  53.1795737  12.4352343   9.8800250  52.8619565  11.8511641
  21.6562384  45.7719085  11.5647860  21.8611977  45.7041392  12.4104858
  21.3288808  46.5777906  11.4969038  21.6377632  45.8805025  11.6807515
  16.3538535  53.0999653  13.3056828  16.0501673  52.5455641  13.9067236
  15.6517956  53.2791863  12.8184863  16.2054745  53.0444435  13.3226534
  15.4104632  50.4100173   7.8701530  15.6864367  49.6919085   7.4579098
  16.0103302  51.0085093   7.6622636  15.5397897  50.3920543   7.7782291
  14.4156886  60.3149374  18.0128926  14.3077241  60.3251436  18.8790984
  14.6252668  61.1404154  17.8233880  14.4306997  60.4390448  18.1133018
  24.9096072  46.3250849  11.0450626  24.2970385  46.8121251  11.4304358
  25.0060247  45.6494340  11.5888277  24.8333969  46.2969158  11.1829484
  18.9115153  48.0813690   6.1448125  19.3658899  48.2524250   6.8695970
  19.3855199  47.4681801   5.7445901  19.0483473  48.0164575   6.1921887
  12.4330678  57.5662016  15.4750864  11.8418611  58.2071514  15.4453879
  13.1951702  57.9899633  15.4482163  12.4578939  57.7237854  15.4666011
  12.8291301  48.7264014  16.1418881  13.2892783  48.8002943  16.8794005
  12.8747408  49.5245268  15.7918703  12.9041856  48.8558161  16.1991638
  14.4774651  49.3930709  20.7090908  14.0860216  48.7464056  21.1446686
  14.6460513  49.9842144  21.3285164  14.4445561  49.3844976  20.8653614
  28.5521100  57.3967786  16.4728142  28.6104223  57.8454434  17.2188118
  27.9187567  57.8066598  16.0358222  28.4672395  57.5241520  16.5180690
  22.1920194  63.0171328  12.9082888  21.9939883  63.5062142  12.2139099
  21.5707905  63.2212569  13.4867022  22.0707759  63.1187866  12.8906111
  16.2528173  54.7856224   7.2493132  16.9970218  55.1730501   7.4876082
  16.3988869  53.9413650   7.4133620  16.3838758  54.7186697   7.3087102
  18.1707748  46.5806483  12.2824994  17.3243793  46.7529291  12.1566344
  18.1678881  45.7755827  12.6190822  18.0454898  46.4867512  12.3136121
  19.2406049  50.3581698  13.1487052  18.7666003  49.8323460  13.6592363
  19.6124184  49.8111171  12.5801913  19.2255938  50.1997694  13.1402199
   9.6179079  52.3553204  18.5170598  10.4804692  52.2548914  18.4307927
   9.2870862  51.7747914  17.9556170   9.6964275  52.2544831  18.4216003
  25.5042779  55.4184073  14.5593832  25.2641002  54.5790488  14.5636259
  25.9834786  55.4984240  15.2834606  25.5394963  55.3065473  14.6668635
  21.1689548  51.2518252   6.2112806  20.6412567  51.3346996   5.5218514
  21.6285256  51.9936124   6.2077450  21.1591399  51.3738915   6.1087501
  27.5047966  52.1985531  12.5123091  27.2657736  52.1581365  11.6743876
  27.6681867  53.0456683  12.6388812  27.4938270  52.3177616  12.4076573
  24.1093996  56.5835480  18.4428137  24.8328195  56.1308006  18.2639156
  23.8443959  56.8640146  17.6600464  24.1775270  56.5586448  18.3006852
  12.9780865  51.1795653  15.1781016  12.3533935  51.1914045  14.5706968
  12.6426460  51.6555828  15.8272256  12.8366357  51.2514170  15.1837584
   9.6906540  59.2396113  16.6184780   9.1606465  58.5488552  16.6679755
   9.9631634  59.2306299  15.7897489   9.6531263  59.1363245  16.5032196
  20.7226631  59.8221816   5.3422463  21.4460830  60.2879929   5.1987036
  20.2827222  59.8895425   4.5920060  20.7642323  59.9005653   5.2107244
  19.8912786  56.6819358  16.5923152  19.2769779  56.1377408  16.8871787
  20.4080071  56.1683595  16.1128968  19.8768448  56.5255767  16.5647380
  19.1309083  57.7523628  14.3267450  18.7036691  57.1273347  13.8932886
  19.1234027  57.4698550  15.1526457  19.0668224  57.6176409  14.3847278
  12.2471610  52.7888801  17.3955884  12.4065097  52.0332125  17.8007606
  12.0664504  53.3379741  18.0496622  12.2436969  52.7582615  17.5518590
  20.1891913  44.9550037  17.9506674  19.6932474  45.1513711  17.2598240
  20.9460975  45.3542705  17.7795475  20.2278738  45.0427771  17.8226810
  17.4594793  48.6292383  14.5409984  17.4837280  48.0952495  13.8522764
  17.7106266  48.1209691  15.2035575  17.5004711  48.4753287  14.5374629
  13.7396115  47.3563201  13.9215729  13.7794487  47.8572407  14.6350436
  12.9145780  47.4473595  13.6521652  13.6235641  47.4445017  13.9866267
  15.9225728  56.9223941  22.0236023  15.0721358  57.0595655  22.1593668
  16.0853856  56.1887719  22.4683725  15.8209591  56.8338042  22.1091622
  15.1610478  53.8723711  16.2189628  14.3302408  54.0397529  16.0124876
  15.1061996  53.4959662  17.0038513  15.0299893  53.8413442  16.3038156
  12.9694262  47.3632604  21.8546038  13.5946965  46.8194736  22.1275471
  12.5144742  46.8827521  21.2853829  12.9942522  47.2122085  21.8107632
  13.5346522  52.1479302   6.7479745  13.6749483  52.6451766   7.4508387
  14.0329055  51.4465597   6.8893959  13.6287603  52.1181281   6.8731324
  26.5429310  55.5461891  16.9458686  27.1347151  56.1859141  16.9776884
  26.9788305  54.8484927  17.2350753  26.6947742  55.5380241  16.9939519
  15.1425727  48.9460389   4.0517764  15.4641568  48.4663471   3.3977026
  15.4052671  49.7560035   3.8608576  15.2291753  48.9950287   3.9273256
  18.3722700  59.9679263  17.5716580  17.8647791  60.5215110  18.0157211
  18.0749346  60.0287553  16.7535355  18.2527585  60.0585574  17.5165037
  20.5384882  48.3332583  16.4141243  20.9639954  47.8805109  15.8024770
  19.9241876  47.7792653  16.6906031  20.5113528  48.1846559  16.3646268
  18.9779105  44.8047682   9.8231820  18.3347423  44.6545329  10.3916959
  18.6378512  44.5590028   9.0580925  18.8324183  44.7459805   9.7934835
  23.5678452  52.7607109   9.2461829  22.8969642  53.3036812   9.1174894
  24.2618202  53.2301965   9.0043524  23.5707319  52.9105381   9.1917357
  17.6165185  64.9003821  14.4773587  17.3930840  64.1422651  14.8457613
  17.1275029  64.9301842  13.7554027  17.5108634  64.7926046  14.4250328
  23.7306579  49.2162993  12.1552202  24.0834189  48.7892716  12.8298001
  22.8721381  49.1313836  12.2853278  23.6556024  49.1407734  12.2747212
  12.4290264  51.8470513  10.2135049  11.7102253  52.2634645  10.4807912
  12.8002626  52.4124751   9.6626687  12.3782196  51.9919794  10.1717856
  21.7289845  52.4798362  16.1037044  21.7087772  52.2981657  16.9571823
  21.7769046  53.3510380  16.0796628  21.7324486  52.5814900  16.2260339
  19.6736175  59.0685553  22.0285521  19.6332030  58.4235230  21.4430677
  20.4859493  59.0122171  22.3410933  19.7879328  58.9644520  21.9882470
  16.2643642  65.1204279  11.9310672  15.8504041  64.4578410  11.5414513
  16.9491017  65.2682138  11.4106366  16.3042014  65.0444938  11.7967169
  19.6308937  64.2794365  12.6834288  19.2325220  64.3896635  11.9155109
  19.0160156  64.4876431  13.2660848  19.4807826  64.3267933  12.6565588
  18.2036839  50.8868512   5.5508428  17.6101678  51.2085509   4.9992995
  18.2412116  50.0409608   5.3429534  18.1211228  50.8092841   5.4391199
  25.1630639  44.3381405  13.0836514  24.6561504  43.6310544  13.0157692
  25.9598073  44.0074594  13.2137591  25.2057878  44.1854556  13.0935509
  21.0794655  50.8448017   8.9810178  20.8508348  50.8680718   8.1388536
  21.3392731  50.0205484   9.1005189  21.0840843  50.7264097   8.8735376
  15.3613884  52.6982490  18.5835278  14.8492787  52.0903673  18.9420310
  15.1893380  53.4139083  19.0509254  15.2603521  52.7145789  18.7051502
  10.2079598  51.1420065  21.2337640  10.0382189  51.8021440  20.6885847
   9.7645548  51.3526627  21.9550129  10.1178932  51.2706047  21.2599270
  14.1339418  49.3824563  10.2764374  14.6096784  49.7441643   9.6414555
  13.6328017  50.0381031  10.5564517  14.1304777  49.5318752  10.2241115
  27.3650779  58.8546331   6.0677379  27.7484385  59.6037688   6.2975476
  26.5694893  59.1012151   5.8089368  27.3044561  59.0016025   6.0634952
  19.2382954  50.6206735  21.0237534  19.7954384  50.3920544  20.3915999
  18.9144019  51.3812400  20.7472746  19.2729364  50.6990571  20.8894031
   7.1081663  54.0466931  16.4926130   6.5608382  53.3767576  16.6106998
   7.8974041  53.6796779  16.5569597   7.1433846  53.8931917  16.5194831
  16.9566071  53.7074388  21.9889541  17.7077398  54.0226065  22.3029095
  17.1488648  53.5053559  21.1623463  17.0957485  53.7241770  21.9132937
  16.1766071  51.5265763   3.6437758  16.5565036  51.5445392   2.8588873
  15.4358667  51.9719752   3.5228605  16.1234909  51.5947538   3.5101326
  23.8051361  49.8347954   9.2313337  23.8045588  49.6796611  10.0897613
  23.6007541  50.6810941   9.1754722  23.7751139  49.9368575   9.3501276
   5.8668632  53.2587739  13.6472153   5.6890393  52.8064348  14.3727069
   5.5787654  54.0613900  13.8310631   5.7981585  53.3110297  13.7815656
  21.5292213  54.5145456  12.8849543  22.0245879  53.7968451  12.8453564
  20.7191989  54.2116254  12.7704030  21.4836107  54.3643102  12.8623269
  23.5944032  57.2649144  15.5726672  24.0199104  56.7423565  15.0197097
  23.2300952  57.8629981  15.0515295  23.6030635  57.2759371  15.4135682
  13.2298112  65.5613361  14.3324018  13.5444671  66.3749750  14.3401799
  13.6391525  65.1763580  15.0006177  13.3366210  65.6242063  14.4328109
  20.1822632  60.9783408  11.9027830  20.6533810  61.6923670  12.0717815
  20.5182810  60.3782158  12.4387699  20.3017747  60.9954872  12.0060206
  22.2699616  62.5884721  24.0819902  22.3796582  61.7993282  24.4376649
  22.5990513  62.4990657  23.2794240  22.3352022  62.4590574  24.0162292
  17.0992127  45.7510878  18.8585924  17.2320032  44.9541872  19.1866900
  17.4837279  46.2777281  19.4384200  17.1748455  45.7110795  18.9929427
  20.8196578  60.7701342  18.6655522  20.2717524  60.1459226  18.3975588
  21.2809607  60.9595614  17.9499602  20.8063787  60.7060392  18.5205953
  20.1724482  42.6741205  15.4567018  19.3670445  42.5638934  15.7734856
  20.0431217  42.7753660  14.5996883  20.0344615  42.6724875  15.3775058
  23.6290442  48.8386696  16.0506715  23.0453431  49.3395903  15.6384282
  23.9494736  48.3316253  15.4171038  23.5903618  48.8378531  15.8965222
  16.1685241  47.7527291   6.3265389  16.9900936  47.9225604   6.0847084
  15.7054892  47.9074552   5.6031687  16.2216404  47.8009024   6.1837034
  14.7580573  45.7470054  17.1063818  15.3024986  45.4061180  17.6968160
  14.8117509  46.6055515  17.2485103  14.8469693  45.8225313  17.2145692
  10.5711132  59.5086470  13.9802626  11.1755990  59.4682304  13.3516447
  10.3638445  60.3557622  14.0106682  10.6300029  59.6274472  13.8918743
  20.3854904  61.7752415  15.1964863  21.2053278  61.6315381  15.4581159
  20.1048982  62.3998614  15.7381301  20.4651648  61.8462767  15.3152803
  36.8568555  69.4317266   8.1607740  36.8262559  70.2861903   8.3326009
  37.4549903  69.1312559   8.7193883  36.9405713  69.5133763   8.2682542
  30.0568240  68.5192917  12.9160670  29.2006135  68.6801416  12.9669787
  30.1035893  67.6484981  12.9365731  29.9367351  68.4143719  12.9266736
  33.3661956  74.7879443  22.5221126  34.0728723  74.2931474  22.6508061
  33.5549891  75.2288525  21.7923784  33.4989862  74.7797793  22.4330172
  32.9020061  70.5784961  15.5592322  33.4476021  71.2570048  15.6186292
  32.8436937  70.4372422  14.6993903  32.9735975  70.6576963  15.4404382
  21.5149267  66.2580045  13.4697316  20.8954299  65.6672692  13.3007330
  21.4133131  66.8491480  12.8361639  21.4086943  66.2584127  13.3502305
  28.6117163  67.9979586   7.8029779  29.3097327  68.1767714   8.2951242
  28.9269495  67.4749926   7.1800168  28.7612500  67.9473359   7.7831789
  21.2418400  69.8032326  15.7140885  21.1177097  70.3894772  16.3490704
  21.8936685  69.3092522  16.0153160  21.3192050  69.8171131  15.8526814
  28.8005098  74.3850031   7.7909570  29.2398734  73.7767132   8.2364343
  28.6509761  74.0057405   7.0195035  28.8426564  74.2388503   7.7428738
  26.2676741  72.9794043  14.9928396  26.9125744  72.4866486  14.6739344
  26.5078518  73.1218830  15.8194474  26.3987326  72.9271485  15.0677929
  28.8062833  75.8248949  14.6435288  29.0886075  75.0300355  14.4222044
  29.5348993  76.3029537  14.6640349  28.9552396  75.7783546  14.6138303
  26.7844026  63.3671983  11.8851053  26.4547356  63.8183127  11.2154752
  26.1089028  63.2888146  12.4324060  26.6354463  63.4223118  11.8674277
  33.9920434  59.3557506  10.1300664  33.6773875  60.0460985  10.5621086
  33.4747376  59.3002288   9.4286165  33.8684905  59.4492395  10.0897613
  24.9899980  61.4284271   7.3674001  25.7445948  61.7962589   7.1291051
  24.8127515  61.8023826   8.1353181  25.0754459  61.5382459   7.4458890
  38.2834879  67.5778712  15.4121540  37.4463300  67.6480899  15.6469135
  38.2523110  67.5803207  14.5395843  38.1553162  67.5888939  15.3181088
  24.6799608  69.7211748  21.1269909  24.8520112  69.6117642  21.9755190
  25.2168966  70.3666153  20.8901101  24.7844612  69.8003749  21.2175006
  23.3457045  63.8354590   4.0652114  23.1632618  64.0526471   3.2393107
  24.2082658  63.9493603   4.1210729  23.4461635  63.8844488   3.9506601
  29.0256764  60.8381001   7.1001138  29.7542925  60.6596956   6.6539294
  29.1151657  61.6799081   7.3108316  29.1463426  60.9364880   7.0654656
  33.0065065  71.7734389  11.0033432  33.7622580  72.2065903  11.0422341
  33.1127389  71.1239158  11.5768068  33.1335236  71.7411872  11.0931458
  36.0445236  75.6007666  11.7535835  35.6080468  75.6044408  12.5094806
  35.7108152  76.2813165  11.3215412  35.9307856  75.7020122  11.8016667
  30.6174310  77.6415999  23.0778985  31.4014726  77.7546846  23.4434727
  30.4170904  76.8157136  23.2737671  30.7040335  77.5362718  23.1613371
  18.9861325  72.3143679  15.9622829  18.7199740  71.4982795  16.1213819
  18.9999889  72.3596834  15.0918345  18.9486047  72.2000583  15.8576311
  35.9642719  62.6421494  13.9965263  36.6068627  62.7119598  14.5827178
  36.2165740  61.9750716  13.4944805  36.0964851  62.5547842  14.0092542
  23.7359932  65.8522057  18.6089837  23.0431728  65.3819037  18.8550568
  24.3520259  65.6260361  19.1831544  23.7244461  65.7489189  18.7298989
  39.1789582  72.3188586  10.6455472  39.8406016  71.7579254  10.5451381
  38.5380994  71.8240616  10.9708163  39.1818450  72.1624995  10.6787812
  19.3954739  73.1002458  13.2434573  19.2130312  73.0749344  12.3906866
  20.1304408  73.5701396  13.2823482  19.4768803  73.1663820  13.1232492
  22.4600490  69.8187461  19.7516682  23.1840463  69.8040492  20.2381577
  22.5616627  70.5282816  19.2538650  22.5818700  69.9212164  19.7495469
  29.8345440  73.2986546  24.6165629  29.0418421  73.6130057  24.8018249
  29.9494367  73.5138014  23.7786414  29.7340850  73.3770382  24.5203964
  32.5076759  70.0220537   8.9060645  32.6023613  70.7609831   9.3600270
  31.8835602  69.5938012   9.3395209  32.4285789  70.0681857   9.0368792
  30.7629233  73.2006749  19.5550926  31.3368094  72.5633994  19.7099490
  30.6844036  73.2010832  18.6860583  30.8362468  73.1071861  19.4497337
  19.3625649  69.9795959  13.3933640  19.9399152  69.8432410  14.0325885
  18.6639711  69.5231743  13.6479224  19.3446671  69.8918225  13.5255930
  26.1192951  71.6330014  11.6072123  25.8612196  70.8001749  11.5803423
  26.1741434  71.8587627  10.7664624  26.0892729  71.5427786  11.4792260
  31.1994001  63.7358465  11.7076216  30.4950328  63.2467651  11.8660135
  31.2478976  63.7480940  10.8364660  31.1024053  63.6648113  11.6015556
  25.0927663  69.1867777  12.0937018  24.5177255  69.3459945  12.7300979
  24.7163340  68.5503186  11.6305468  24.9530476  69.1165590  12.1191576
  28.7600952  67.6591126  16.9529396  28.3715385  67.2345344  16.2981588
  28.0955650  67.9073276  17.4606423  28.6047880  67.6329847  16.9317264
  38.4024221  67.4166131   9.7277226  38.1460786  66.6046072   9.5375109
  39.2453535  67.4243698   9.5007414  38.4890247  67.2978128   9.6662043
  32.5827314  61.3565755  14.4653381  32.9637825  60.6743926  14.8521255
  31.7790598  61.0675357  14.2829045  32.5203775  61.2132803  14.4957436
  36.0849380  74.5715727  19.5635779  35.8488018  73.7403792  19.4447840
  36.7292609  74.5201334  20.1490623  36.1444051  74.4413415  19.6321673
  25.7347799  75.3611248  10.2778515  26.3721746  75.1222996  10.8230309
  26.1602870  75.5648407   9.5431676  25.8923965  75.3562258  10.2495673
  26.5419154  63.8619953  24.3315989  26.2272595  64.6319516  24.0685552
  26.2209087  63.2990209  23.7468216  26.4478073  63.8930222  24.2057339
  37.1085801  74.3560176  15.6264073  36.8031618  75.0888233  15.9877389
  36.3892017  73.9498105  15.3456859  36.9573143  74.4041909  15.6377211
  28.1169271  75.8383671  11.9572302  28.1908279  75.6758843  12.8114152
  28.9338777  76.0273860  11.7132783  28.2485629  75.8420413  12.0470327
  42.8087593  70.9953176  14.9532418  42.7412094  71.0149135  14.0835004
  42.7943256  71.8383504  15.1788088  42.7966350  71.1226911  14.8584895
  24.0951051  62.2510475   9.9462185  23.2273476  62.3233074  10.0119795
  24.3826255  63.0532554  10.1350160  24.0090799  62.3804622   9.9836952
  33.2183940  62.3988334  18.2773507  33.9637532  62.2098144  17.8636933
  32.8021244  62.9246572  17.7187363  33.2668914  62.4490479  18.1338080
  40.5946211  69.7697563  13.2279012  41.1454132  69.1365632  13.4676104
  40.5790326  70.3012955  13.9194516  40.6731407  69.7546511  13.3657870
  27.2468601  73.6036160  17.7738906  26.7480295  74.3151928  17.8523794
  28.0568826  73.9236826  17.7357068  27.2924708  73.7563008  17.7795474
  23.5096719  72.8659113  12.0201626  23.2209968  72.2396584  12.5547354
  24.3780067  72.8079400  12.0866307  23.5956971  72.7646657  12.1092581
  34.2974617  68.0093896  12.3383608  33.9539383  67.2884231  12.6890858
  34.3967659  67.8007747  11.4961967  34.2616660  67.8718099  12.2655288
  26.1735659  66.4617204  23.0701204  25.3635435  66.7674984  22.9591046
  26.6510346  67.1822787  23.1853788  26.1239138  66.6131805  23.0708275
  25.0327219  75.6762925  13.3184107  24.5107973  75.8163217  14.0035972
  25.4201239  74.9173590  13.5086224  25.0130920  75.5848449  13.4485183
  22.0218403  65.7268734   7.3879062  21.7343199  65.3570004   6.6511009
  22.7088871  66.1963589   7.1262766  22.0807300  65.7415703   7.2394137
  26.4593545  72.7066944   8.7165598  26.2636327  73.3141679   8.1225901
  26.6827890  72.0134888   8.2357272  26.4628186  72.6944470   8.5581679
  24.8572075  69.5921682   8.8346466  25.5794727  69.7562840   8.3750272
  24.3780067  70.3131347   8.7285806  24.8935805  69.7219912   8.7512080
  32.8165582  65.9285481  14.2143151  31.9776683  65.9546760  13.9781414
  32.8869950  66.5756216  14.7948498  32.7033976  66.0281607  14.2652268
  22.5079691  71.9979755  17.9400606  23.0200788  72.2764008  17.2909366
  22.2216034  72.7369049  18.3063419  22.5414555  72.1482108  17.8990484
  31.2634861  62.8270858   8.9470767  31.9661213  62.6278606   8.4690725
  30.9979049  62.0546800   9.2539611  31.3281493  62.6833824   8.9216209
  36.6923106  71.1353468  11.5004393  36.6057081  71.2908894  12.3539172
  36.2373586  71.7791543  11.1263798  36.6126363  71.2529223  11.5711500
  19.5946598  66.5049946   8.2364343  19.6962734  67.3076108   8.5645318
  20.3902484  66.3037282   7.9387423  19.7274503  66.5935845   8.2399698
  26.0263417  64.0906143  18.0001648  25.8346614  64.1061278  18.8501071
  26.8762013  64.2869817  17.9768303  26.1239139  64.1220494  18.1224942
  20.4110330  66.6197125  15.9785464  20.2695822  65.7681065  16.1029972
  20.6950893  66.6625785  15.1547670  20.4318176  66.4996875  15.8753088
  30.5648922  68.4564215  10.1229952  30.3183636  68.3759966  10.9566741
  30.8934045  67.6717683   9.9292480  30.5770166  68.3290480  10.2177476
  34.4596971  75.1647574  13.9116734  34.3211330  75.8628620  14.4165476
  33.6796969  75.0096231  13.5552915  34.3240198  75.2447741  13.9343008
  32.7975056  71.4643950  20.1639115  32.7923095  70.5923766  20.1681542
  33.5036050  71.6632119  19.6908571  32.9020060  71.3647824  20.0946151
  26.5245949  71.1920933  19.5352936  26.6689325  71.7722142  18.8996046
  26.8721598  71.5697230  20.2402790  26.5973411  71.3341637  19.5451930
  28.6965867  70.3911102  17.3178067  27.9489181  70.5842116  16.9126345
  28.8507392  69.5656321  17.0802188  28.6088294  70.2976213  17.2223473
  28.9367644  64.2861653  18.2073471  29.3940258  65.0185627  18.3346263
  29.0123973  63.8628118  18.9660727  29.0158614  64.3318891  18.3374547
  21.1800635  64.5327472  19.2962915  20.6442824  63.9207830  19.6123682
  21.2418400  65.1075608  19.9496581  21.1096268  64.5274400  19.4398341
  33.4094970  57.4651528  12.0767314  33.5278538  57.9227991  11.3434616
  33.2357145  56.6596789  11.7903531  33.4014141  57.4145300  11.9268247
  26.8150022  66.2763756  15.0515295  26.0246096  66.0955217  15.3732631
  27.2110645  65.4990709  15.0345589  26.7566898  66.1351217  15.0967843
  32.1993708  73.9106187  12.7774741  31.5238710  73.6791419  13.2788128
  32.2086084  73.3027370  12.1516846  32.1012213  73.7865112  12.7590893
  29.3287852  68.7524016  19.5338794  29.2646993  69.6133972  19.4058930
  29.4685040  68.4356009  18.7334345  29.3403322  68.8324182  19.3967007
  28.0106946  71.4456155  13.6754997  27.5869195  71.6460654  12.9394015
  27.8351801  70.5985003  13.7879297  27.9217827  71.3504936  13.5828687
  23.2989391  71.9408206   9.1082969  23.4554010  71.8755009   9.9638961
  23.6389984  72.7156759   8.8961649  23.3722626  72.0457404   9.2037563
  29.8368535  71.3166090   7.9776332  30.3784081  70.8136471   8.4414953
  30.1515095  71.2631285   7.1665818  29.9632933  71.2345511   7.9260145
  33.7085643  75.5268737  25.0903245  34.5220508  75.2553886  25.2508377
  33.5480609  75.2276277  24.2863441  33.8055591  75.4423663  24.9948651
  30.9857805  66.2102394  18.0298633  31.1999774  65.5713309  17.4761987
  30.3691704  66.6548218  17.6006495  30.9263134  66.1812538  17.8849064
  19.8723652  69.1243157   9.4243736  20.2522617  69.5427702   8.7604004
  19.2979017  69.7056613   9.7312580  19.8434977  69.2721016   9.3720477
  33.1496893  67.8191460  18.9681940  32.3373575  67.5117350  19.0495113
  33.6086827  67.3390460  19.5324652  33.0977278  67.7027952  19.0636534
  30.3772534  59.3202330  13.0185976  29.5066091  59.2941051  12.9719285
  30.6312875  59.1479522  12.2011821  30.2866094  59.2912474  12.8906112
  30.2450400  69.2251531  23.7510642  30.7150032  69.8493647  24.1378516
  30.2912281  68.5568507  24.3103857  30.3218276  69.2186211  23.8910714
  27.4021674  61.3308559  14.4759446  26.8860163  60.6388750  14.6011025
  26.8415603  61.9979336  14.4222045  27.2428187  61.3271816  14.4865512
  29.4713907  61.8701519  16.3052299  29.0845661  61.8950550  17.0865829
  28.9846845  61.3043197  15.8526815  29.3426416  61.7897269  16.3540202
  33.7206887  76.5875028  20.3626085  34.3586607  76.0935223  20.0288541
  33.0780978  76.5152428  19.7778312  33.7201113  76.5034036  20.2268440
  35.4463887  68.4364174  14.9292001  35.0191495  68.3490522  14.1740100
  34.8089940  68.5441949  15.5146845  35.2893494  68.4396833  14.9037442
  29.1371049  58.7568504  18.5962559  29.7664167  59.2928804  18.3183629
  29.3056912  58.6645863  19.4476124  29.2548844  58.8229866  18.6811087
  28.9384964  63.5439699  20.8688970  29.7658393  63.2724848  20.9247585
  28.9592810  64.3400540  21.2252788  29.0637814  63.6219453  20.9304153
  33.7761143  77.2794836  17.0031442  34.5653522  76.9283901  17.1233524
  33.9504741  78.0931224  16.7408076  33.9181425  77.3480693  16.9819310
  23.5154454  70.6903562  14.0559231  22.6742460  70.5907436  14.2638125
  23.7244462  71.4599042  14.4073551  23.4219146  70.7895605  14.1386546
  20.9930021  68.3123098  11.8843981  20.5986719  68.3866110  11.1094091
  20.4370138  68.6981045  12.4352343  20.8532833  68.3804873  11.8511641
  32.6294968  61.2904393  11.5647860  32.8344561  61.2226700  12.4104858
  32.3021392  62.0963214  11.4969038  32.6110216  61.3990333  11.6807515
  27.3271119  68.6184961  13.3056828  27.0234256  68.0640949  13.9067236
  26.6250540  68.7977171  12.8184863  27.1787329  68.5629743  13.3226534
  26.3837216  65.9285481   7.8701530  26.6596950  65.2104393   7.4579098
  26.9835885  66.5270400   7.6622636  26.5130480  65.9105851   7.7782291
  35.8828655  61.8436157  11.0450626  35.2702969  62.3306559  11.4304358
  35.9792830  61.1679648  11.5888277  35.8066553  61.8154466  11.1829484
  29.8847736  63.5998998   6.1448125  30.3391483  63.7709558   6.8695970
  30.3587782  62.9867109   5.7445901  30.0216056  63.5349883   6.1921887
  23.4063262  73.0847324  15.4750864  22.8151195  73.7256822  15.4453879
  24.1684285  73.5084941  15.4482163  23.4311522  73.2423162  15.4666011
  23.8023885  64.2449322  16.1418881  24.2625366  64.3188251  16.8794005
  23.8479991  65.0430576  15.7918703  23.8774440  64.3743469  16.1991638
  25.4507234  64.9116016  20.7090908  25.0592799  64.2649364  21.1446686
  25.6193097  65.5027452  21.3285164  25.4178145  64.9030284  20.8653614
  39.5253683  72.9153094  16.4728142  39.5836807  73.3639742  17.2188118
  38.8920151  73.3251906  16.0358222  39.4404978  73.0426828  16.5180690
  27.2260756  70.3041532   7.2493132  27.9702801  70.6915809   7.4876082
  27.3721453  69.4598958   7.4133620  27.3571341  70.2372005   7.3087102
  29.1440332  62.0991791  12.2824994  28.2976377  62.2714599  12.1566344
  29.1411464  61.2941135  12.6190822  29.0187482  62.0052820  12.3136121
  30.2138632  65.8767006  13.1487052  29.7398586  65.3508768  13.6592363
  30.5856768  65.3296478  12.5801913  30.1988521  65.7183002  13.1402199
  20.5911662  67.8738512  18.5170598  21.4537275  67.7734222  18.4307927
  20.2603445  67.2933222  17.9556170  20.6696859  67.7730139  18.4216003
  36.4775363  70.9369381  14.5593832  36.2373586  70.0975796  14.5636259
  36.9567370  71.0169548  15.2834606  36.5127546  70.8250781  14.6668635
  32.1422132  66.7703560   6.2112806  31.6145150  66.8532304   5.5218514
  32.6017840  67.5121432   6.2077450  32.1323982  66.8924223   6.1087501
  38.4780550  67.7170838  12.5123091  38.2390320  67.6766673  11.6743876
  38.6414451  68.5641991  12.6388812  38.4670853  67.8362923  12.4076573
  35.0826580  72.1020788  18.4428137  35.8060779  71.6493314  18.2639156
  34.8176542  72.3825453  17.6600464  35.1507853  72.0771756  18.3006852
  23.9513448  66.6980961  15.1781016  23.3266518  66.7099353  14.5706968
  23.6159043  67.1741136  15.8272256  23.8098940  66.7699478  15.1837584
  30.8645369  72.2004666  16.5923152  30.2502363  71.6562716  16.8871787
  31.3812654  71.6868902  16.1128968  30.8501032  72.0441075  16.5647380
  30.1041667  73.2708936  14.3267450  29.6769275  72.6458655  13.8932886
  30.0966611  72.9883858  15.1526457  30.0400808  73.1361717  14.3847278
  23.2204194  68.3074109  17.3955884  23.3797680  67.5517433  17.8007606
  23.0397087  68.8565049  18.0496622  23.2169553  68.2767923  17.5518590
  31.1624497  60.4735345  17.9506674  30.6665058  60.6699019  17.2598240
  31.9193559  60.8728013  17.7795475  31.2011321  60.5613078  17.8226810
  28.4327376  64.1477691  14.5409984  28.4569863  63.6137803  13.8522764
  28.6838850  63.6394999  15.2035575  28.4737295  63.9938595  14.5374629
  24.7128699  62.8748509  13.9215729  24.7527070  63.3757715  14.6350436
  23.8878363  62.9658902  13.6521652  24.5968224  62.9630325  13.9866267
  26.8958311  72.4409249  22.0236023  26.0453942  72.5780963  22.1593668
  27.0586439  71.7073027  22.4683725  26.7942175  72.3523350  22.1091622
  26.1343062  69.3909019  16.2189628  25.3034992  69.5582837  16.0124876
  26.0794579  69.0144969  17.0038513  26.0032477  69.3598750  16.3038156
  23.9426845  62.8817912  21.8546038  24.5679549  62.3380044  22.1275471
  23.4877325  62.4012829  21.2853829  23.9675106  62.7307393  21.8107632
  24.5079106  67.6664610   6.7479745  24.6482067  68.1637074   7.4508387
  25.0061639  66.9650905   6.8893959  24.6020187  67.6366589   6.8731324
  37.5161894  71.0647199  16.9458686  38.1079734  71.7044449  16.9776884
  37.9520888  70.3670235  17.2350753  37.6680325  71.0565549  16.9939519
  26.1158311  64.4645697   4.0517764  26.4374152  63.9848779   3.3977026
  26.3785255  65.2745343   3.8608576  26.2024336  64.5135595   3.9273256
  29.3455284  75.4864571  17.5716580  28.8380375  76.0400418  18.0157211
  29.0481930  75.5472861  16.7535355  29.2260169  75.5770882  17.5165037
  31.5117466  63.8517891  16.4141243  31.9372538  63.3990417  15.8024770
  30.8974459  63.2977961  16.6906031  31.4846111  63.7031867  16.3646268
  29.9511689  60.3232990   9.8231820  29.3080007  60.1730637  10.3916959
  29.6111096  60.0775336   9.0580925  29.8056766  60.2645113   9.7934835
  34.5411035  68.2792417   9.2461829  33.8702225  68.8222119   9.1174894
  35.2350786  68.7487273   9.0043524  34.5439903  68.4290688   9.1917357
  34.7039163  64.7348301  12.1552202  35.0566773  64.3078024  12.8298001
  33.8453964  64.6499144  12.2853278  34.6288607  64.6593041  12.2747212
  23.4022848  67.3655821  10.2135049  22.6834837  67.7819953  10.4807912
  23.7735210  67.9310059   9.6626687  23.3514780  67.5105102  10.1717856
  32.7022429  67.9983669  16.1037044  32.6820356  67.8166965  16.9571823
  32.7501629  68.8695688  16.0796628  32.7057070  68.1000208  16.2260339
  30.6468758  74.5870861  22.0285521  30.6064613  73.9420538  21.4430677
  31.4592077  74.5307479  22.3410933  30.7611912  74.4829828  21.9882470
  29.1769422  66.4053820   5.5508428  28.5834261  66.7270817   4.9992995
  29.2144700  65.5594916   5.3429534  29.0943811  66.3278149   5.4391199
  36.1363223  59.8566713  13.0836514  35.6294087  59.1495852  13.0157692
  36.9330657  59.5259902  13.2137591  36.1790462  59.7039864  13.0935509
  32.0527239  66.3633325   8.9810178  31.8240932  66.3866026   8.1388536
  32.3125315  65.5390792   9.1005189  32.0573427  66.2449405   8.8735376
  26.3346467  68.2167798  18.5835278  25.8225370  67.6088981  18.9420310
  26.1625963  68.9324391  19.0509254  26.2336104  68.2331097  18.7051502
  21.1812182  66.6605373  21.2337640  21.0114772  67.3206748  20.6885847
  20.7378132  66.8711935  21.9550129  21.0911515  66.7891355  21.2599270
  25.1072001  64.9009871  10.2764374  25.5829367  65.2626951   9.6414555
  24.6060601  65.5566339  10.5564517  25.1037360  65.0504060  10.2241115
  30.2115537  66.1392043  21.0237534  30.7686968  65.9105852  20.3915999
  29.8876602  66.8997708  20.7472746  30.2461948  66.2175879  20.8894031
  18.0814246  69.5652239  16.4926130  17.5340966  68.8952884  16.6106998
  18.8706625  69.1982087  16.5569597  18.1166430  69.4117225  16.5194831
  27.9298655  69.2259696  21.9889541  28.6809982  69.5411373  22.3029095
  28.1221231  69.0238867  21.1623463  28.0690069  69.2427078  21.9132937
  27.1498654  67.0451071   3.6437758  27.5297619  67.0630700   2.8588873
  26.4091250  67.4905060   3.5228605  27.0967492  67.1132846   3.5101326
  34.7783945  65.3533262   9.2313337  34.7778171  65.1981919  10.0897613
  34.5740125  66.1996249   9.1754722  34.7483723  65.4553883   9.3501276
  16.8401216  68.7773047  13.6472153  16.6622977  68.3249656  14.3727069
  16.5520238  69.5799208  13.8310631  16.7714169  68.8295604  13.7815656
  32.5024797  70.0330764  12.8849543  32.9978462  69.3153759  12.8453564
  31.6924573  69.7301562  12.7704030  32.4568690  69.8828410  12.8623269
  34.5676616  72.7834452  15.5726672  34.9931687  72.2608873  15.0197097
  34.2033536  73.3815289  15.0515295  34.5763218  72.7944679  15.4135682
  31.1555215  76.4968716  11.9027830  31.6266393  77.2108978  12.0717815
  31.4915394  75.8967466  12.4387699  31.2750330  76.5140180  12.0060206
  33.2432200  78.1070029  24.0819902  33.3529165  77.3178590  24.4376649
  33.5723096  78.0175965  23.2794240  33.3084606  77.9775882  24.0162292
  28.0724710  61.2696186  18.8585924  28.2052616  60.4727180  19.1866900
  28.4569863  61.7962589  19.4384200  28.1481039  61.2296103  18.9929427
  31.7929162  76.2886650  18.6655522  31.2450108  75.6644534  18.3975588
  32.2542190  76.4780922  17.9499602  31.7796371  76.2245700  18.5205953
  31.1457065  58.1926512  15.4567018  30.3403029  58.0824242  15.7734856
  31.0163801  58.2938968  14.5996883  31.0077198  58.1910183  15.3775058
  34.6023026  64.3572004  16.0506715  34.0186015  64.8581211  15.6384282
  34.9227320  63.8501561  15.4171038  34.5636201  64.3563839  15.8965222
  27.1417825  63.2712599   6.3265389  27.9633519  63.4410912   6.0847084
  26.6787476  63.4259860   5.6031687  27.1948987  63.3194332   6.1837034
  25.7313157  61.2655361  17.1063818  26.2757570  60.9246488  17.6968160
  25.7850093  62.1240823  17.2485103  25.8202276  61.3410621  17.2145692
  31.3587488  77.2937723  15.1964863  32.1785862  77.1500689  15.4581159
  31.0781566  77.9183922  15.7381301  31.4384231  77.3648075  15.3152803
  37.5151738  79.3805261  24.3315989  37.2005179  80.1504824  24.0685552
  37.1941670  78.8175517  23.7468216  37.4210657  79.4115530  24.2057339
  44.1916523  77.9173642  18.2773507  44.9370115  77.7283452  17.8636933
  43.7753828  78.4431880  17.7187363  44.2401498  77.9675787  18.1338080
  36.9996000  79.6091451  18.0001648  36.8079197  79.6246586  18.8501071
  37.8494596  79.8055125  17.9768303  37.0971722  79.6405802  18.1224942
  39.9100227  79.8046960  18.2073471  40.3672841  80.5370935  18.3346263
  39.9856556  79.3813426  18.9660727  39.9891197  79.8504199  18.3374547
  38.3754258  76.8493866  14.4759446  37.8592746  76.1574058  14.6011025
  37.8148186  77.5164644  14.4222045  38.2160771  76.8457124  14.4865512
  40.4446491  77.3886826  16.3052299  40.0578244  77.4135858  17.0865829
  39.9579428  76.8228505  15.8526815  40.3159000  77.3082577  16.3540202
  40.1103633  74.2753812  18.5962559  40.7396751  74.8114112  18.3183629
  40.2789495  74.1831171  19.4476124  40.2281427  74.3415174  18.6811087
  39.9117548  79.0625007  20.8688970  40.7390977  78.7910156  20.9247585
  39.9325394  79.8585848  21.2252788  40.0370398  79.1404761  20.9304153
  42.1357080  75.9920653  17.9506674  41.6397642  76.1884327  17.2598240
  42.8926142  76.3913321  17.7795475  42.1743905  76.0798386  17.8226810
  35.6861282  78.3933817  13.9215729  35.7259654  78.8943023  14.6350436
  34.8610947  78.4844210  13.6521652  35.5700808  78.4815633  13.9866267
  34.9159429  78.4003219  21.8546038  35.5412132  77.8565352  22.1275471
  34.4609909  77.9198137  21.2853829  34.9407689  78.2492701  21.8107632
  42.4850050  79.3703199  16.4141243  42.9105121  78.9175725  15.8024770
  41.8707043  78.8163269  16.6906031  42.4578695  79.2217175  16.3646268
  39.0457294  76.7881494  18.8585924  39.1785199  75.9912488  19.1866900
  39.4302447  77.3147897  19.4384200  39.1213623  76.7481411  18.9929427
  42.1189649  73.7111820  15.4567018  41.3135613  73.6009550  15.7734856
  41.9896384  73.8124276  14.5996883  41.9809782  73.7095490  15.3775058
  36.7045741  76.7840669  17.1063818  37.2490154  76.4431796  17.6968160
  36.7582676  77.6426131  17.2485103  36.7934860  76.8595929  17.2145692
  22.0880196  36.2072266   9.4561173  22.7946964  35.7124297   9.5848108
  22.2768132  36.6481348   8.7263831  22.2208102  36.1990617   9.3670219
  19.2272491  39.6299803   7.3475248  19.3155837  39.4425943   8.1953459
  19.6562203  38.9837232   6.9480095  19.3034593  39.5062811   7.4147000
  16.7942951  38.9130963   6.3292911  16.2313785  38.5003573   6.8532572
  17.5563974  38.8383868   6.7486054  16.8237399  38.8408363   6.4685911
  13.4017849  31.1404571   8.0609956  13.5738352  31.0310466   8.9095237
  13.9387206  31.7858976   7.8241148  13.5062853  31.2196573   8.1515053
  19.3392550  39.0608822  10.0119032  20.1232967  39.1739670  10.3774774
  19.1389145  38.2349959  10.2077718  19.4258575  38.9555541  10.0953418
  19.4962943  40.9718924   3.6585488  18.6978189  40.7318424   3.9159356
  19.9448955  41.0233317   4.4052535  19.4437555  40.9441315   3.8070412
  18.5563680  34.7179369  11.5505676  17.7636661  35.0322881  11.7358295
  18.6712607  34.9330837  10.7126460  18.4559091  34.7963206  11.4544011
  19.4847473  34.6199573   6.4890972  20.0586335  33.9826817   6.6439536
  19.4062277  34.6203655   5.6200630  19.5580708  34.5264684   6.3837383
  24.8067621  35.9908550   6.4975826  24.5706258  35.1596615   6.3787886
  25.4510850  35.9394157   7.0830670  24.8662292  35.8606238   6.5661719
  15.2637394  25.2812776  11.2656036  14.9490835  26.0512339  11.0025598
  14.9427327  24.7183032  10.6808263  15.1696313  25.3123045  11.1397386
  25.8304042  35.7752999   2.5604120  25.5249859  36.5081056   2.9217436
  25.1110257  35.3690928   2.2796906  25.6791384  35.8234732   2.5717257
  31.5305834  32.4146000   1.8872464  31.4630334  32.4341959   1.0175051
  31.5161496  33.2576327   2.1128135  31.5184590  32.5419734   1.7924941
  15.9686842  35.0228983   4.7078952  15.4698535  35.7344751   4.7863841
  16.7787066  35.3429650   4.6697115  16.0142949  35.1755832   4.7135521
  14.8953900  27.8810027  10.0041251  14.0853676  28.1867807   9.8931093
  15.3728587  28.6015610  10.1193835  14.8457379  28.0324629  10.0048322
  23.1815211  36.5840397   0.8456781  23.0429571  37.2821443   1.3505523
  22.4015209  36.4289054   0.4892962  23.0458438  36.6640564   0.8683055
  21.5193296  32.8836773   7.0979162  21.5141335  32.0116589   7.1021589
  22.2254290  33.0824942   6.6248618  21.6238300  32.7840647   7.0286198
  15.2464190  32.6113757   6.4692982  15.3907566  33.1914965   5.8336092
  15.5939838  32.9890053   7.1742837  15.3191651  32.7534461   6.4791977
  14.3191945  40.8016528   3.3354009  14.4681509  40.2419444   2.6827414
  15.0991947  40.8808530   3.7186528  14.4566038  40.7302094   3.2950958
  16.8445245  40.9731171   4.6138500  16.7688917  40.3039982   5.1689288
  16.7735105  41.6748960   5.1279166  16.8225852  40.9776079   4.7715348
  16.2336880  44.3799491   3.0716501  16.7232810  43.6810280   2.8892165
  15.6621112  44.0823361   3.6592558  16.2221410  44.2325715   3.1317542
  22.4303883  36.9461561  12.0243291  23.2438749  36.6746709  12.1848424
  22.2698850  36.6469101  11.2203487  22.5273832  36.8616487  11.9288697
  21.8715133  29.2384283   5.9021987  21.0591815  28.9310173   5.9835160
  22.3305068  28.7583283   6.4664699  21.8195518  29.1220775   5.9976581
  18.9668641  30.6444354  10.6850689  19.4368272  31.2686471  11.0718563
  19.0130521  29.9761330  11.2443904  19.0436517  30.6379035  10.8250761
  22.4425127  38.0067851   7.2966132  23.0804848  37.5128046   6.9628588
  21.7999219  37.9345251   6.7118359  22.4419354  37.9226859   7.1608487
  22.4979384  38.6987659   3.9371489  23.2871762  38.3476724   4.0573570
  22.6722982  39.5124048   3.6748123  22.6399666  38.7673516   3.9159357
  14.1107710  37.2527505   4.9468973  14.0028065  37.2629567   5.8131031
  14.3203492  38.0782285   4.7573927  14.1257821  37.3768580   5.0473065
  28.2471924  34.3345917   3.4068189  28.3055047  34.7832566   4.1528165
  27.6138391  34.7444730   2.9698269  28.1623219  34.4619651   3.4520737
  21.8871018  39.9549459  -0.1577065  21.6890707  40.4440273  -0.8520854
  21.2658729  40.1590700   0.4207068  21.7658583  40.0565997  -0.1753842
  23.8044820  33.5213611   5.3768183  24.5279019  33.0686137   5.1979203
  23.5394783  33.8018277   4.5940511  23.8726094  33.4964580   5.2346899
  15.6176552  33.8602072   8.9576070  14.7672182  33.9973786   9.0933715
  15.7804679  33.1265850   9.4023772  15.5160415  33.7716173   9.0431669
  26.2380134  32.4840022   3.8798733  26.8297975  33.1237273   3.9116931
  26.6739129  31.7863059   4.1690800  26.3898565  32.4758372   3.9279566
  18.0673524  36.9057394   4.5056627  17.5598615  37.4593241   4.9497258
  17.7700170  36.9665684   3.6875402  17.9478409  36.9963705   4.4505084
  17.3116009  41.8381952   1.4113634  17.0881664  41.0800782   1.7797660
  16.8225853  41.8679974   0.6894074  17.2059458  41.7304177   1.3590375
  19.3686999  36.0063685   8.9625568  19.3282854  35.3613362   8.3770723
  20.1810317  35.9500302   9.2750980  19.4830152  35.9022652   8.9222517
  18.9333778  27.5584866   7.9577581  19.4905208  27.3298675   7.3256046
  18.6094843  28.3190531   7.6812793  18.9680188  27.6368703   7.8234078
  16.6516895  30.6452519   8.9229588  17.4028222  30.9604196   9.2369142
  16.8439472  30.4431690   8.0963510  16.7908309  30.6619901   8.8472984
  23.2894856  34.2027275   2.5066719  23.7149928  33.6801697   1.9537144
  22.9251776  34.8008112   1.9855342  23.2981459  34.2137502   2.3475729
  12.9248936  42.4991492   1.2664064  13.2395495  43.3127881   1.2741846
  13.3342349  42.1141711   1.9346224  13.0317034  42.5620195   1.3668156
  21.9650440  39.5262852  11.0159949  22.0747406  38.7371413  11.3716696
  22.2941337  39.4368789  10.2134287  22.0302846  39.3968705  10.9502339
  20.5147402  37.7079473   5.5995569  19.9668348  37.0837357   5.3315634
  20.9760431  37.8973745   4.8839648  20.5014611  37.6438523   5.4546000
  20.0805728  38.7130546   2.1304910  20.9004102  38.5693512   2.3921205
  19.7999806  39.3376745   2.6721348  20.1602472  38.7840898   2.2492850
  36.5519379  46.3695398  -4.9052213  36.5213383  47.2240034  -4.7333944
  37.1500727  46.0690690  -4.3466070  36.6356536  46.4511894  -4.7977411
  29.7519063  45.4571049  -0.1499283  28.8956959  45.6179547  -0.0990166
  29.7986717  44.5863113  -0.1294222  29.6318175  45.3521850  -0.1393217
  33.0612780  51.7257574   9.4561173  33.7679547  51.2309605   9.5848108
  33.2500715  52.1666656   8.7263831  33.1940686  51.7175925   9.3670219
  32.5970884  47.5163093   2.4932369  33.1426845  48.1948179   2.5526338
  32.5387761  47.3750553   1.6333950  32.6686799  47.5955094   2.3744429
  25.7144959  55.0052159  -2.1199279  25.8155322  54.1952513  -1.8102151
  25.1186705  54.9109105  -2.7499600  25.6417498  54.8717187  -2.1673040
  25.5545699  59.9229748  -0.7184423  26.1983154  60.3642912  -0.3288264
  25.8801954  59.1183174  -0.8054164  25.6977528  59.8694943  -0.6738946
  21.2100091  43.1958176   0.4037362  20.5905123  42.6050823   0.2347377
  21.1083955  43.7869611  -0.2298314  21.1037767  43.1962258   0.2842352
  28.3067987  44.9357718  -5.2630174  29.0048151  45.1145845  -4.7708711
  28.6220319  44.4128057  -5.8859785  28.4563324  44.8851490  -5.2828164
  20.9369224  46.7410458   2.6480931  20.8127921  47.3272903   3.2830750
  21.5887509  46.2470653   2.9493206  21.0142873  46.7549262   2.7866861
  28.4955922  51.3228163  -5.2750383  28.9349558  50.7145263  -4.8295610
  28.3460585  50.9435536  -6.0464918  28.5377388  51.1766634  -5.3231216
  25.9627565  49.9172174   1.9268443  26.6076568  49.4244618   1.6079391
  26.2029342  50.0596961   2.7534521  26.0938150  49.8649617   2.0017976
  28.5013656  52.7627080   1.5775335  28.7836899  51.9678486   1.3562091
  29.2299817  53.2407668   1.5980396  28.6503220  52.7161677   1.5478350
  26.4794850  40.3050114  -1.1808900  26.1498180  40.7561258  -1.8505201
  25.8039852  40.2266278  -0.6335893  26.3305287  40.3601249  -1.1985676
  33.6871258  36.2935637  -2.9359289  33.3724699  36.9839116  -2.5038867
  33.1698200  36.2380419  -3.6373788  33.5635728  36.3870526  -2.9762340
  38.4831745  51.8686443  -1.4488834  37.6529448  52.0797086  -1.2855418
  38.4340997  51.0423497  -1.7246551  38.3538480  51.7776049  -1.4651469
  26.5441482  54.6990297   1.3859075  26.0268424  54.3397712   0.7820383
  27.2415874  54.1752471   1.3965142  26.5707063  54.5687985   1.2989334
  30.2005074  55.1485111   7.3475248  30.2888420  54.9611251   8.1953459
  30.6294787  54.5022540   6.9480095  30.2767177  55.0248118   7.4147000
  27.7675534  54.4316271   6.3292911  27.2046369  54.0188881   6.8532572
  28.5296558  54.3569176   6.7486054  27.7969983  54.3593671   6.4685911
  23.3271526  56.4214292  -1.0670459  24.0292105  55.9066281  -1.0097703
  23.2469009  56.7488443  -0.2623584  23.4195286  56.3928518  -0.9397667
  37.9785703  44.5156843   2.3461587  37.1414124  44.5859030   2.5809182
  37.9473934  44.5181338   1.4735890  37.8503985  44.5267070   2.2521135
  24.3750432  46.6589879   8.0609956  24.5470936  46.5495773   8.9095237
  24.9119790  47.3044284   7.8241148  24.4795436  46.7381880   8.1515053
  22.6522301  52.6120644  -1.5584851  23.4911200  52.8443577  -1.5111090
  22.6834070  51.7424955  -1.6277816  22.7804019  52.5177590  -1.5620206
  23.2775004  53.0321519   2.7428454  23.8173229  52.8892650   3.4131827
  22.5944950  53.4318270   3.1112481  23.2567158  53.0701190   2.8962876
  32.7015889  48.7112520  -2.0626521  33.4573404  49.1444034  -2.0237613
  32.8078213  48.0617289  -1.4891885  32.8286059  48.6790004  -1.9728496
  35.7396060  52.5385797  -1.3124118  35.3031292  52.5422539  -0.5565147
  35.4058975  53.2191296  -1.7444541  35.6258680  52.6398253  -1.2643286
  30.3125134  54.5794130  10.0119032  31.0965550  54.6924978  10.3774774
  30.1121728  53.7535267  10.2077718  30.3991159  54.4740849  10.0953418
  18.6812149  49.2521810   2.8962876  18.4150564  48.4360927   3.0553866
  18.6950713  49.2974965   2.0258391  18.6436871  49.1378715   2.7916358
  35.6593543  39.5799625   0.9305310  36.3019451  39.6497729   1.5167225
  35.9116564  38.9128848   0.4284852  35.7915675  39.4925973   0.9432589
  23.4310755  42.7900188   5.5429884  22.7382552  42.3197168   5.7890615
  24.0471083  42.5638493   6.1171591  23.4195285  42.6867320   5.6639036
  30.4695527  56.4904232   3.6585488  29.6710773  56.2503732   3.9159356
  30.9181538  56.5418625   4.4052535  30.4170138  56.4626623   3.8070412
  38.8740406  49.2566717  -2.4204481  39.5356840  48.6957385  -2.5208573
  38.2331818  48.7618748  -2.0951790  38.8769274  49.1003126  -2.3872141
  19.0905563  50.0380589   0.1774620  18.9081136  50.0127475  -0.6753088
  19.8255232  50.5079527   0.2163529  19.1719627  50.1041951   0.0572539
  35.1605237  50.2732099  -2.6792492  35.3960826  50.4177298  -3.5065642
  35.3094801  51.0374507  -2.2860979  35.2171040  50.4071154  -2.7428888
  22.1551314  46.7565592   6.6856729  22.8791287  46.7418623   7.1721624
  22.2567451  47.4660947   6.1878697  22.2769523  46.8590295   6.6835516
  29.5296264  50.2364677  11.5505676  28.7369245  50.5508189  11.7358295
  29.6445191  50.4516145  10.7126460  29.4291674  50.3148513  11.4544011
  32.2027583  46.9598668  -4.1599308  32.2974437  47.6987962  -3.7059683
  31.5786426  46.5316143  -3.7264744  32.1236613  47.0059988  -4.0291161
  30.4580057  50.1384880   6.4890972  31.0318918  49.5012125   6.6439536
  30.3794860  50.1388963   5.6200630  30.5313291  50.0449992   6.3837383
  19.0576473  46.9174090   0.3273687  19.6349976  46.7810541   0.9665932
  18.3590535  46.4609874   0.5819271  19.0397494  46.8296356   0.4595976
  25.8143775  48.5708146  -1.4587830  25.5563020  47.7379880  -1.4856531
  25.8692258  48.7965759  -2.2995330  25.7843553  48.4805917  -1.5867693
  30.8944825  40.6736596  -1.3583737  30.1901152  40.1845782  -1.1999818
  30.9429800  40.6859071  -2.2295293  30.7974877  40.6026244  -1.4644398
  24.7878487  46.1245908  -0.9722935  24.2128079  46.2838076  -0.3358974
  24.4114164  45.4881317  -1.4354485  24.6481300  46.0543721  -0.9468377
  28.4551776  44.5969257   3.8869443  28.0666209  44.1723475   3.2321634
  27.7906474  44.8451407   4.3946470  28.2998704  44.5707978   3.8657311
  38.0975045  44.3544262  -3.3382727  37.8411610  43.5424204  -3.5284844
  38.9404359  44.3621829  -3.5652540  38.1841071  44.2356260  -3.3997910
  32.2778138  38.2943886   1.3993427  32.6588649  37.6122057   1.7861302
  31.4741422  38.0053488   1.2169092  32.2154599  38.1510935   1.4297483
  35.7800204  51.5093858   6.4975826  35.5438842  50.6781923   6.3787886
  36.4243433  51.4579465   7.0830670  35.8394875  51.3791546   6.5661719
  25.4298623  52.2989379  -2.7881438  26.0672569  52.0601127  -2.2429644
  25.8553694  52.5026538  -3.5228277  25.5874789  52.2940390  -2.8164281
  20.1211265  54.5377716   1.0952866  20.1615410  54.8092567   0.2672646
  20.6805789  55.0619624   1.5110654  20.2094611  54.6553471   1.0344754
  26.2369978  40.7998084  11.2656036  25.9223419  41.5697647  11.0025598
  25.9159911  40.2368340  10.6808263  26.1428897  40.8308353  11.1397386
  36.8036625  51.2938307   2.5604120  36.4982442  52.0266364   2.9217436
  36.0842841  50.8876236   2.2796906  36.6523967  51.3420040   2.5717257
  27.8120095  52.7761802  -1.1087652  27.8859103  52.6136974  -0.2545802
  28.6289601  52.9651992  -1.3527170  27.9436453  52.7798544  -1.0189626
  42.5038417  47.9331308   1.8872464  42.4362917  47.9527267   1.0175051
  42.4894080  48.7761635   2.1128135  42.4917174  48.0605042   1.7924941
  32.9134764  39.3366465   5.2113554  33.6588356  39.1476276   4.7976979
  32.4972068  39.8624703   4.6527410  32.9619738  39.3868611   5.0678127
  40.2897035  46.7075694   0.1619059  40.8404956  46.0743763   0.4016151
  40.2741150  47.2391087   0.8534563  40.3682231  46.6924642   0.2997917
  26.9419425  50.5414291   4.7078952  26.4431119  51.2530059   4.7863841
  27.7519650  50.8614958   4.6697115  26.9875532  50.6941140   4.7135521
  23.2047543  49.8037244  -1.0458327  22.9160792  49.1774715  -0.5112599
  24.0730891  49.7457531  -0.9793646  23.2907795  49.7024788  -0.9567372
  33.9925441  44.9472027  -0.7276345  33.6490207  44.2262363  -0.3769095
  34.0918483  44.7385879  -1.5697987  33.9567484  44.8096231  -0.8004665
  25.8686483  43.3995335  10.0041251  25.0586259  43.7053115   9.8931093
  26.3461170  44.1200918  10.1193835  25.8189962  43.5509937  10.0048322
  24.7278043  52.6141056   0.2524154  24.2058796  52.7541348   0.9376018
  25.1152063  51.8551721   0.4426271  24.7081744  52.5226580   0.3825230
  26.1544369  49.6445075  -4.3494355  25.9587151  50.2519810  -4.9434052
  26.3778714  48.9513019  -4.8302681  26.1579010  49.6322601  -4.5078274
  24.5522899  46.5299813  -4.2313487  25.2745551  46.6940971  -4.6909681
  24.0730891  47.2509478  -4.3374147  24.5886629  46.6598043  -4.3147873
  32.5116406  42.8663612   1.1483198  31.6727507  42.8924891   0.9121461
  32.5820773  43.5134348   1.7288545  32.3984800  42.9659738   1.1992315
  22.2030515  48.9357886   4.8740653  22.7151612  49.2142139   4.2249413
  21.9166858  49.6747180   5.2403466  22.2365378  49.0860239   4.8330531
  30.9585684  39.7648989  -4.1189186  31.6612037  39.5656737  -4.5969228
  30.6929873  38.9924932  -3.8120343  31.0232317  39.6211955  -4.1443744
  36.3873930  48.0731599  -1.5655560  36.3007905  48.2287025  -0.7120781
  35.9324410  48.7169674  -1.9396155  36.3077187  48.1907354  -1.4948453
  25.7214241  41.0284274   4.9341695  25.5297438  41.0439409   5.7841118
  26.5712837  41.2247949   4.9108349  25.8189963  41.0598626   5.0564989
  20.1061154  43.5575256   2.9125511  19.9646646  42.7059196   3.0370019
  20.3901717  43.6003916   2.0887717  20.1269000  43.4375006   2.8093135
  30.2599746  45.3942346  -2.9430001  30.0134460  45.3138097  -2.1093212
  30.5884869  44.6095814  -3.1367473  30.2720990  45.2668611  -2.8482478
  34.1547795  52.1025705   0.8456781  34.0162154  52.8006751   1.3505523
  33.3747793  51.9474362   0.4892962  34.0191022  52.1825872   0.8683055
  32.4925880  48.4022081   7.0979162  32.4873919  47.5301897   7.1021589
  33.1986874  48.6010250   6.6248618  32.5970884  48.3025955   7.0286198
  26.2196773  48.1299065   6.4692982  26.3640149  48.7100273   5.8336092
  26.5672422  48.5075361   7.1742837  26.2924235  48.2719769   6.4791977
  28.3916691  47.3289233   4.2518114  27.6440005  47.5220247   3.8466392
  28.5458216  46.5034453   4.0142235  28.3039118  47.2354344   4.1563520
  25.2924528  56.3201836   3.3354009  25.4414092  55.7604752   2.6827414
  26.0724530  56.3993838   3.7186528  25.4298622  56.2487402   3.2950958
  27.8177829  56.4916479   4.6138500  27.7421500  55.8225290   5.1689288
  27.7467688  57.1934267   5.1279166  27.7958436  56.4961387   4.7715348
  28.6318468  41.2239784   5.1413518  29.0891082  41.9563758   5.2686310
  28.7074797  40.8006249   5.9000773  28.7109438  41.2697022   5.2714594
  20.8751459  41.4705603   6.2302961  20.3393648  40.8585962   6.5463729
  20.9369224  42.0453739   6.8836628  20.8047092  41.4652531   6.3738388
  33.1045794  34.4029659  -0.9892639  33.2229362  34.8606122  -1.7225337
  32.9307969  33.5974920  -1.2756422  33.0964965  34.3523431  -1.1391706
  26.5100846  43.2141888   1.9855342  25.7196920  43.0333348   2.3072677
  26.9061468  42.4368840   1.9685636  26.4517722  43.0729349   2.0307890
  31.8944532  50.8484318  -0.2885212  31.2189534  50.6169550   0.2128175
  31.9036908  50.2405501  -0.9143107  31.7963037  50.7243243  -0.3069060
  29.0238676  45.6902147   6.4678841  28.9597817  46.5512103   6.3398977
  29.1635864  45.3734140   5.6674392  29.0354146  45.7702313   6.3307053
  27.7057770  48.3834286   0.6095044  27.2820019  48.5838785  -0.1265938
  27.5302625  47.5363134   0.7219343  27.6168650  48.2883068   0.5168734
  27.2069463  59.8984799   3.0716501  27.6965394  59.1995588   2.8892165
  26.6353696  59.6008669   3.6592558  27.1953993  59.7511023   3.1317542
  22.9940215  48.8786338  -3.9576984  23.1504834  48.8133140  -3.1020992
  23.3340808  49.6534890  -4.1698304  23.0673450  48.9835536  -3.8622390
  29.5319359  48.2544221  -5.0883621  30.0734905  47.7514602  -4.6245000
  29.8465918  48.2009416  -5.8994135  29.6583756  48.1723642  -5.1399809
  33.4036467  52.4646868  12.0243291  34.2171332  52.1932017  12.1848424
  33.2431433  52.1654408  11.2203487  33.5006415  52.3801794  11.9288697
  30.6808629  43.1480526   4.9638680  30.8950598  42.5091440   4.4102034
  30.0642528  43.5926349   4.5346541  30.6213958  43.1190669   4.8189111
  19.5674476  46.0621288  -3.6416217  19.9473441  46.4805833  -4.3055949
  18.9929841  46.6434744  -3.3347373  19.5385801  46.2099147  -3.6939476
  32.8447717  44.7569591   5.9021987  32.0324399  44.4495481   5.9835160
  33.3037651  44.2768591   6.4664699  32.7928102  44.6406083   5.9976581
  30.0723357  36.2580461  -0.0473977  29.2016915  36.2319182  -0.0940668
  30.3263699  36.0857653  -0.8648132  29.9816918  36.2290605  -0.1753841
  29.9401224  46.1629662  10.6850689  30.4100855  46.7871779  11.0718563
  29.9863104  45.4946638  11.2443904  30.0169100  46.1564343  10.8250761
  27.0972498  38.2686690   1.4099493  26.5810987  37.5766881   1.5351072
  26.5366427  38.9357467   1.3562092  26.9379011  38.2649947   1.4205559
  29.1664731  38.8079650   3.2392345  28.7796485  38.8328681   4.0205875
  28.6797669  38.2421328   2.7866862  29.0377240  38.7275401   3.2880249
  33.4157711  53.5253159   7.2966132  34.0537431  53.0313354   6.9628588
  32.7731802  53.4530559   6.7118359  33.4151937  53.4412167   7.1608487
  35.1414711  45.3742305   1.8632048  34.7142319  45.2868653   1.1080147
  34.5040764  45.4820080   2.4486892  34.9844318  45.3774965   1.8377489
  28.8321873  35.6946635   5.5302605  29.4614991  36.2306935   5.2523676
  29.0007736  35.6023994   6.3816171  28.9499668  35.7607997   5.6151134
  28.6335788  40.4817830   7.8029017  29.4609217  40.2102979   7.8587631
  28.6543634  41.2778672   8.1592835  28.7588638  40.5597584   7.8644200
  33.4711967  54.2172967   3.9371489  34.2604346  53.8662032   4.0573570
  33.6455565  55.0309355   3.6748123  33.6132249  54.2858824   3.9159357
  23.2105278  47.6281693   0.9899278  22.3693284  47.5285567   1.1978171
  23.4195286  48.3977173   1.3413598  23.1169970  47.7273736   1.0726593
  20.6880845  45.2501230  -1.1815972  20.2937543  45.3244242  -1.9565862
  20.1320962  45.6359176  -0.6307610  20.5483657  45.3183004  -1.2148312
  32.3245792  38.2282524  -1.5012093  32.5295385  38.1604832  -0.6555096
  31.9972216  39.0341345  -1.5690915  32.3061039  38.3368464  -1.3852438
  27.0221943  45.5563092   0.2396875  26.7185080  45.0019080   0.8407283
  26.3201363  45.7355302  -0.2475091  26.8738153  45.5007874   0.2566581
  25.0840294  52.7712813   4.9468973  24.9760649  52.7814875   5.8131031
  25.2936075  53.5967593   4.7573927  25.0990405  52.8953887   5.0473065
  35.5779479  38.7814288  -2.0209327  34.9653793  39.2684690  -1.6355596
  35.6743654  38.1057779  -1.4771676  35.5017377  38.7532597  -1.8830469
  23.1014086  50.0225455   2.4090911  22.5102019  50.6634953   2.3793926
  23.8635109  50.4463072   2.3822210  23.1262346  50.1801293   2.4006058
  23.4974708  41.1827453   3.0758928  23.9576190  41.2566382   3.8134052
  23.5430815  41.9808707   2.7258749  23.5725264  41.3121600   3.1331685
  25.1458058  41.8494148   7.6430955  24.7543623  41.2027495   8.0786733
  25.3143921  42.4405583   8.2625211  25.1128969  41.8408416   7.7993661
  39.2204507  49.8531225   3.4068189  39.2787631  50.3017873   4.1528165
  38.5870975  50.2630038   2.9698269  39.1355802  49.9804959   3.4520737
  32.8603602  55.4734767  -0.1577065  32.6623291  55.9625581  -0.8520854
  32.2391313  55.6776008   0.4207068  32.7391166  55.5751305  -0.1753842
  26.9211580  47.2419663  -5.8166821  27.6653625  47.6293940  -5.5783871
  27.0672276  46.3977089  -5.6526333  27.0522165  47.1750136  -5.7572851
  28.8391156  39.0369922  -0.7834959  27.9927201  39.2092730  -0.9093610
  28.8362288  38.2319266  -0.4469131  28.7138306  38.9430951  -0.7523832
  29.9089456  42.8145137   0.0827099  29.4349410  42.2886899   0.5932410
  30.2807592  42.2674610  -0.4858040  29.8939345  42.6561133   0.0742246
  20.2862486  44.8116643   5.4510644  21.1488099  44.7112353   5.3647974
  19.9554269  44.2311353   4.8896217  20.3647683  44.7108270   5.3556050
  36.1726187  47.8747512   1.4933879  35.9324410  47.0353928   1.4976306
  36.6518194  47.9547679   2.2174653  36.2078370  47.7628912   1.6008681
  38.1731374  44.6548970  -0.5536862  37.9341144  44.6144804  -1.3916077
  38.3365275  45.5020122  -0.4271141  38.1621677  44.7741055  -0.6583380
  34.7777404  49.0398919   5.3768183  35.5011603  48.5871445   5.1979203
  34.5127366  49.3203585   4.5940511  34.8458677  49.0149887   5.2346899
  23.6464272  43.6359092   2.1121063  23.0217342  43.6477484   1.5047015
  23.3109867  44.1119268   2.7612303  23.5049764  43.7077609   2.1177631
  20.3589948  51.6959553   3.5524827  19.8289872  51.0051992   3.6019802
  20.6315041  51.6869738   2.7237535  20.3214670  51.5926684   3.4372243
  30.5596193  49.1382797   3.5263198  29.9453186  48.5940847   3.8211834
  31.0763478  48.6247034   3.0469015  30.5451856  48.9819206   3.4987427
  29.7992491  50.2087067   1.2607497  29.3720099  49.5836786   0.8272932
  29.7917435  49.9261989   2.0866504  29.7351632  50.0739848   1.3187325
  22.9155018  45.2452240   4.3295931  23.0748504  44.4895564   4.7347653
  22.7347911  45.7943180   4.9836669  22.9120377  45.2146054   4.4858637
  30.8575321  37.4113476   4.8846721  30.3615882  37.6077150   4.1938287
  31.6144383  37.8106144   4.7135522  30.8962145  37.4991210   4.7566857
  28.1278200  41.0855822   1.4750031  28.1520687  40.5515934   0.7862811
  28.3789674  40.5773131   2.1375622  28.1688119  40.9316726   1.4714676
  24.4079522  39.8126640   0.8555775  24.4477894  40.3135847   1.5690483
  23.5829187  39.9037034   0.5861698  24.2919048  39.9008456   0.9206314
  26.5909135  49.3787380   8.9576070  25.7404766  49.5159094   9.0933715
  26.7537263  48.6451158   9.4023772  26.4892999  49.2901481   9.0431669
  25.8293886  46.3287150   3.1529674  24.9985816  46.4960968   2.9464922
  25.7745403  45.9523101   3.9378560  25.6983301  46.2976881   3.2378203
  23.6377669  39.8196043   8.7886085  24.2630372  39.2758176   9.0615517
  23.1828149  39.3390960   8.2193875  23.6625930  39.6685524   8.7447679
  37.2112718  48.0025330   3.8798733  37.8030558  48.6422580   3.9116931
  37.6471712  47.3048366   4.1690800  37.3631149  47.9943680   3.9279566
  29.0406108  52.4242702   4.5056627  28.5331199  52.9778549   4.9497258
  28.7432754  52.4850992   3.6875402  28.9210993  52.5149013   4.4505084
  31.2068290  40.7896022   3.3481290  31.6323361  40.3368548   2.7364816
  30.5925283  40.2356092   3.6246077  31.1796935  40.6409998   3.2986315
  34.2361859  45.2170548  -3.8198124  33.5653049  45.7600251  -3.9485059
  34.9301609  45.6865404  -4.0616430  34.2390727  45.3668820  -3.8742597
  28.2848593  57.3567260   1.4113634  28.0614247  56.5986090   1.7797660
  27.7958436  57.3865282   0.6894074  28.1792042  57.2489485   1.3590375
  34.3989987  41.6726432  -0.9107751  34.7517597  41.2456155  -0.2361952
  33.5404788  41.5877276  -0.7806675  34.3239431  41.5971173  -0.7912741
  23.0973672  44.3033952  -2.8524905  22.3785661  44.7198084  -2.5852041
  23.4686034  44.8688190  -3.4033266  23.0465603  44.4483233  -2.8942098
  32.3973252  44.9361801   3.0377091  32.3771180  44.7545096   3.8911870
  32.4452453  45.8073819   3.0136675  32.4007893  45.0378339   3.1600386
  30.3419582  51.5248993   8.9625568  30.3015437  50.8798670   8.3770723
  31.1542901  51.4685610   9.2750980  30.4562736  51.4207959   8.9222517
  26.9327050  57.5767719  -1.1349281  26.5187449  56.9141849  -1.5245440
  27.6174424  57.7245577  -1.6553587  26.9725422  57.5008377  -1.2692784
  30.2992344  56.7357804  -0.3825665  29.9008627  56.8460074  -1.1504845
  29.6843564  56.9439870   0.2000895  30.1491233  56.7831372  -0.4094366
  35.8314047  36.7944844   0.0176561  35.3244911  36.0873983  -0.0502261
  36.6281480  36.4638033   0.1477638  35.8741286  36.6417995   0.0275556
  31.7478063  43.3011456  -4.0849775  31.5191756  43.3244158  -4.9271417
  32.0076139  42.4768923  -3.9654764  31.7524251  43.1827536  -4.1924577
  26.0297291  45.1545929   5.5175325  25.5176194  44.5467112   5.8760357
  25.8576787  45.8702522   5.9849301  25.9286928  45.1709228   5.6391549
  20.8763006  43.5983504   8.1677687  20.7065596  44.2584879   7.6225894
  20.4328956  43.8090066   8.8890176  20.7862339  43.7269487   8.1939317
  24.8022825  41.8388002  -2.7895579  25.2780191  42.2005082  -3.4245398
  24.3011425  42.4944470  -2.5095437  24.7988184  41.9882191  -2.8418838
  29.9066361  43.0770174   7.9577581  30.4637792  42.8483983   7.3256046
  29.5827426  43.8375839   7.6812793  29.9412772  43.1554010   7.8234078
  17.7765070  46.5030370   3.4266177  17.2291790  45.8331016   3.5447045
  18.5657448  46.1360218   3.4909644  17.8117254  46.3495356   3.4534877
  27.6249479  46.1637827   8.9229588  28.3760806  46.4789504   9.2369142
  27.8172055  45.9616998   8.0963510  27.7640893  46.1805209   8.8472984
  34.4734769  42.2911393  -3.8346617  34.4728995  42.1360050  -2.9762340
  34.2690949  43.1374380  -3.8905231  34.4434547  42.3932014  -3.7158677
  16.5352040  45.7151178   0.5812200  16.3573801  45.2627787   1.3067115
  16.2471062  46.5177339   0.7650677  16.4664993  45.7673736   0.7155703
  32.1975621  46.9708895  -0.1810410  32.6929286  46.2531890  -0.2206389
  31.3875397  46.6679693  -0.2955923  32.1519514  46.8206541  -0.2036684
  34.2627440  49.7212583   2.5066719  34.6882511  49.1987005   1.9537144
  33.8984360  50.3193420   1.9855342  34.2714042  49.7322810   2.3475729
  23.8981520  58.0176800   1.2664064  24.2128078  58.8313189   1.2741846
  24.3074933  57.6327019   1.9346224  24.0049618  58.0805503   1.3668156
  30.8506039  53.4346847  -1.1632124  31.3217217  54.1487110  -0.9942138
  31.1866218  52.8345597  -0.6272254  30.9701154  53.4518311  -1.0599748
  32.9383024  55.0448160  11.0159949  33.0479989  54.2556721  11.3716696
  33.2673920  54.9554097  10.2134287  33.0035430  54.9154013  10.9502339
  27.7675534  38.2074318   5.7925971  27.9003440  37.4105311   6.1206947
  28.1520687  38.7340721   6.3724247  27.8431863  38.1674234   5.9269474
  31.4879986  53.2264781   5.5995569  30.9400931  52.6022665   5.3315634
  31.9493014  53.4159053   4.8839648  31.4747195  53.1623831   5.4546000
  30.8407889  35.1304644   2.3907065  30.0353853  35.0202373   2.7074903
  30.7114625  35.2317099   1.5336930  30.7028022  35.1288314   2.3115105
  34.2973850  41.2950136   2.9846761  33.7136839  41.7959342   2.5724329
  34.6178144  40.7879692   2.3511085  34.2587025  41.2941971   2.8305269
  25.4263981  38.2033493   4.0403865  25.9708394  37.8624619   4.6308207
  25.4800917  39.0618954   4.1825150  25.5153100  38.2788752   4.1485738
  21.2394540  51.9649909   0.9142673  21.8439397  51.9245743   0.2856494
  21.0321852  52.8121061   0.9446729  21.2983437  52.0837911   0.8258789
  31.0538312  54.2315854   2.1304910  31.8736686  54.0878820   2.3921205
  30.7732389  54.8562053   2.6721348  31.1335055  54.3026206   2.2492850
  31.9101808  62.2595765   2.6480931  31.7860505  62.8458211   3.2830750
  32.5620092  61.7655961   2.9493206  31.9875457  62.2734570   2.7866861
  35.3483016  62.1775187   8.0609956  35.5203519  62.0681081   8.9095237
  35.8852373  62.8229592   7.8241148  35.4528020  62.2567188   8.1515053
  41.2857717  70.0979438  10.0119032  42.0698134  70.2110285  10.3774774
  41.0854312  69.2720575  10.2077718  41.3723743  69.9926157  10.0953418
  34.4043339  58.3085496   5.5429884  33.7115136  57.8382476   5.7890615
  35.0203666  58.0823801   6.1171591  34.3927869  58.2052628   5.6639036
  33.1283898  62.2750900   6.6856729  33.8523870  62.2603931   7.1721624
  33.2300034  62.9846255   6.1878697  33.2502107  62.3775603   6.6835516
  40.5028847  65.7549985  11.5505676  39.7101828  66.0693497  11.7358295
  40.6177775  65.9701453  10.7126460  40.4024258  65.8333821  11.4544011
  39.4284360  60.1154565   3.8869443  39.0398792  59.6908783   3.2321634
  38.7639058  60.3636715   4.3946470  39.2731287  60.0893286   3.8657311
  43.2510721  53.8129194   1.3993427  43.6321233  53.1307365   1.7861302
  42.4474005  53.5238796   1.2169092  43.1887183  53.6696243   1.4297483
  37.2102562  56.3183392  11.2656036  36.8956003  57.0882955  11.0025598
  36.8892494  55.7553648  10.6808263  37.1161481  56.3493661  11.1397386
  43.8867347  54.8551773   5.2113554  44.6320939  54.6661584   4.7976979
  43.4704652  55.3810011   4.6527410  43.9352322  54.9053919   5.0678127
  36.8419067  58.9180643  10.0041251  36.0318843  59.2238423   9.8931093
  37.3193754  59.6386226  10.1193835  36.7922546  59.0695245  10.0048322
  33.1763099  64.4543194   4.8740653  33.6884196  64.7327447   4.2249413
  32.8899441  65.1932488   5.2403466  33.2097962  64.6045547   4.8330531
  36.6946824  56.5469582   4.9341695  36.5030021  56.5624717   5.7841118
  37.5445420  56.7433257   4.9108349  36.7922546  56.5783933   5.0564989
  31.0793737  59.0760564   2.9125511  30.9379229  58.2244504   3.0370019
  31.3634301  59.1189224   2.0887717  31.1001583  58.9560314   2.8093135
  37.1929357  63.6484373   6.4692982  37.3372733  64.2285581   5.8336092
  37.5405005  64.0260669   7.1742837  37.2656818  63.7905077   6.4791977
  39.6051051  56.7425092   5.1413518  40.0623665  57.4749066   5.2686310
  39.6807380  56.3191557   5.9000773  39.6842021  56.7882330   5.2714594
  31.8484043  56.9890911   6.2302961  31.3126232  56.3771270   6.5463729
  31.9101807  57.5639047   6.8836628  31.7779675  56.9837839   6.3738388
  37.4833429  58.7327196   1.9855342  36.6929504  58.5518656   2.3072677
  37.8794052  57.9554148   1.9685636  37.4250305  58.5914656   2.0307890
  39.9971260  61.2087455   6.4678841  39.9330401  62.0697411   6.3398977
  40.1368447  60.8919448   5.6674392  40.0086730  61.2887621   6.3307053
  44.3769050  67.9832176  12.0243291  45.1903916  67.7117325  12.1848424
  44.2164017  67.6839716  11.2203487  44.4738999  67.8987102  11.9288697
  41.6541212  58.6665834   4.9638680  41.8683182  58.0276748   4.4102034
  41.0375112  59.1111657   4.5346541  41.5946542  58.6375977   4.8189111
  43.8180300  60.2754899   5.9021987  43.0056982  59.9680789   5.9835160
  44.2770235  59.7953899   6.4664699  43.7660685  60.1591391   5.9976581
  40.9133808  61.6814970  10.6850689  41.3833439  62.3057087  11.0718563
  40.9595688  61.0131946  11.2443904  40.9901684  61.6749650  10.8250761
  38.0705082  53.7871998   1.4099493  37.5543570  53.0952189   1.5351072
  37.5099010  54.4542775   1.3562092  37.9111595  53.7835255   1.4205559
  40.1397315  54.3264958   3.2392345  39.7529068  54.3513989   4.0205875
  39.6530252  53.7606636   2.7866862  40.0109824  54.2460709   3.2880249
  39.8054457  51.2131943   5.5302605  40.4347575  51.7492243   5.2523676
  39.9740319  51.1209302   6.3816171  39.9232251  51.2793305   5.6151134
  39.6068372  56.0003138   7.8029017  40.4341801  55.7288287   7.8587631
  39.6276218  56.7963980   8.1592835  39.7321222  56.0782892   7.8644200
  34.4707292  56.7012761   3.0758928  34.9308774  56.7751690   3.8134052
  34.5163399  57.4994015   2.7258749  34.5457847  56.8306908   3.1331685
  36.1190642  57.3679456   7.6430955  35.7276207  56.7212803   8.0786733
  36.2876505  57.9590891   8.2625211  36.0861552  57.3593723   7.7993661
  31.2595070  60.3301951   5.4510644  32.1220683  60.2297661   5.3647974
  30.9286853  59.7496661   4.8896217  31.3380266  60.2293578   5.3556050
  34.6196856  59.1544400   2.1121063  33.9949926  59.1662792   1.5047015
  34.2842451  59.6304576   2.7612303  34.4782348  59.2262917   2.1177631
  33.8887601  60.7637548   4.3295931  34.0481088  60.0080872   4.7347653
  33.7080495  61.3128488   4.9836669  33.8852960  60.7331362   4.4858637
  41.8307904  52.9298784   4.8846721  41.3348465  53.1262458   4.1938287
  42.5876966  53.3291452   4.7135522  41.8694729  53.0176518   4.7566857
  35.3812106  55.3311948   0.8555775  35.4210478  55.8321155   1.5690483
  34.5561771  55.4222342   0.5861698  35.2651632  55.4193764   0.9206314
  37.5641719  64.8972688   8.9576070  36.7137349  65.0344402   9.0933715
  37.7269847  64.1636466   9.4023772  37.4625582  64.8086789   9.0431669
  34.6110253  55.3381351   8.7886085  35.2362956  54.7943483   9.0615517
  34.1560733  54.8576268   8.2193875  34.6358513  55.1870832   8.7447679
  42.1800873  56.3081330   3.3481290  42.6055945  55.8553856   2.7364816
  41.5657867  55.7541400   3.6246077  42.1529519  56.1595306   3.2986315
  41.3152166  67.0434301   8.9625568  41.2748021  66.3983977   8.3770723
  42.1275484  66.9870918   9.2750980  41.4295319  66.9393267   8.9222517
  37.0029875  60.6731237   5.5175325  36.4908778  60.0652420   5.8760357
  36.8309371  61.3887830   5.9849301  36.9019512  60.6894536   5.6391549
  31.8495589  59.1168812   8.1677687  31.6798180  59.7770187   7.6225894
  31.4061539  59.3275374   8.8890176  31.7594923  59.2454795   8.1939317
  40.8798945  58.5955482   7.9577581  41.4370375  58.3669291   7.3256046
  40.5560010  59.3561147   7.6812793  40.9145355  58.6739318   7.8234078
  28.7497654  62.0215678   3.4266177  28.2024373  61.3516324   3.5447045
  29.5390032  61.6545526   3.4909644  28.7849838  61.8680664   3.4534877
  38.5982062  61.6823135   8.9229588  39.3493389  61.9974812   9.2369142
  38.7904639  61.4802306   8.0963510  38.7373476  61.6990517   8.8472984
  27.5084623  61.2336486   0.5812200  27.3306384  60.7813095   1.3067115
  27.2203645  62.0362647   0.7650677  27.4397577  61.2859044   0.7155703
  38.7408118  53.7259625   5.7925971  38.8736023  52.9290619   6.1206947
  39.1253270  54.2526028   6.3724247  38.8164447  53.6859542   5.9269474
  41.8140473  50.6489952   2.3907065  41.0086437  50.5387681   2.7074903
  41.6847208  50.7502407   1.5336930  41.6760606  50.6473622   2.3115105
  36.3996564  53.7218801   4.0403865  36.9440977  53.3809927   4.6308207
  36.4533500  54.5804262   4.1825150  36.4885684  53.7974060   4.1485738
  35.0433840  39.1153318  -5.0049997  35.2154343  39.0059213  -4.1564716
  35.5803197  39.7607723  -5.2418805  35.1478844  39.1945320  -4.9144901
  40.9808541  47.0357569  -3.0540921  41.7648958  47.1488417  -2.6885179
  40.7805136  46.2098706  -2.8582235  41.0674567  46.9304288  -2.9706535
  40.1979671  42.6928116  -1.5154277  39.4052652  43.0071628  -1.3301658
  40.3128598  42.9079584  -2.3533493  40.0975082  42.7711953  -1.6115943
  36.9053386  33.2561523  -1.8003917  36.5906827  34.0261086  -2.0634355
  36.5843318  32.6931780  -2.3851690  36.8112305  33.2871792  -1.9262567
  36.5369891  35.8558775  -3.0618703  35.7269667  36.1616554  -3.1728860
  37.0144578  36.5764357  -2.9466119  36.4873370  36.0073376  -3.0611632
  36.8880181  40.5862504  -6.5966971  37.0323557  41.1663712  -7.2323861
  37.2355829  40.9638800  -5.8917116  36.9607642  40.7283208  -6.5867976
  39.6922083  38.1465586  -6.5981113  39.6281225  39.0075542  -6.7260976
  39.8319271  37.8297579  -7.3985561  39.7037554  38.2265753  -6.7352900
  44.0719874  44.9210308  -1.0416662  44.8854740  44.6495456  -0.8811529
  43.9114841  44.6217848  -1.8456466  44.1689823  44.8365234  -1.1371256
  43.5131124  37.2133030  -7.1637966  42.7007806  36.9058920  -7.0824794
  43.9721059  36.7332030  -6.5995254  43.4611509  37.0969522  -7.0683372
  40.6084632  38.6193101  -2.3809264  41.0784263  39.2435218  -1.9941390
  40.6546512  37.9510077  -1.8216049  40.6852508  38.6127782  -2.2409193
  37.2592543  41.8350819  -4.1083883  36.4088173  41.9722533  -3.9726238
  37.4220671  41.1014597  -3.6636182  37.1576406  41.7464920  -4.0228284
  41.0102990  43.9812432  -4.1034386  40.9698845  43.3362109  -4.6889230
  41.8226308  43.9249049  -3.7908974  41.1246143  43.8771399  -4.1437436
  40.5749769  35.5333613  -5.1082372  41.1321199  35.3047422  -5.7403907
  40.2510834  36.2939279  -5.3847160  40.6096179  35.6117450  -5.2425875
  38.2932886  38.6201266  -4.1430365  39.0444213  38.9352943  -3.8290811
  38.4855463  38.4180437  -4.9696444  38.4324300  38.6368648  -4.2186970
  79.2394686  79.2394686  79.2394686 109.4712190 109.4712190 109.4712190
