default_name
 44102
  38.3773077  29.9441122  23.9866894  38.8659843  30.3895787  24.7501393
  38.0944276  30.6526866  23.3248726  38.9171158  29.1491885  23.6755574
  37.0848027  29.3634192  24.5292310  36.2435297  29.8236037  24.0109751
  37.0093270  27.8472044  24.3340977  36.9265517  27.6676136  23.2621860
  37.9481870  27.4316946  24.7001492  35.8278596  27.1688957  25.0622137
  36.0921114  27.1511278  26.1195481  34.9658185  27.8194244  24.9145666
  35.3936678  25.4399762  24.5091732  34.4772150  25.7858565  22.9996975
  35.1189946  26.3193382  22.2985446  34.1492040  24.8485367  22.5503191
  33.6075234  26.3995077  23.2345805  36.9504487  29.6590442  26.0467035
  35.8456204  29.8734458  26.5493073  37.7547342  32.1352460  27.5705795
  38.5383299  31.7435418  28.0732176  37.4358874  33.5562619  27.7741930
  37.5877182  33.8295438  28.8183978  38.3668655  34.4370923  26.8886793
  38.4030756  34.0283428  25.8788714  37.9802972  35.4556564  26.8541504
  39.6358454  34.4456469  27.4262572  40.2105467  34.9882186  26.8813405
  36.0198814  33.9077431  27.3715506  35.6000844  35.0662638  27.4630020
  35.2964819  32.9250601  26.8204896  35.6348851  31.9738559  26.8486510
  33.9963836  33.1809475  26.1985843  33.8329430  34.2550843  26.1113123
  33.9425005  32.5552200  24.7821074  34.6903194  33.0952422  24.2013817
  34.2619009  31.5213143  24.9129597  32.5812344  32.5857638  24.0300917
  32.6812954  31.9525662  23.1485309  31.8320800  32.1613679  24.6984890
  32.1514842  33.9734082  23.6076966  32.9358297  34.9230349  23.7908937
  31.0211349  34.0808634  23.0930161  32.9130466  32.5105869  27.0741867
  32.8227230  31.2485038  27.1425160  32.1417980  33.3123711  27.7887157
  32.3397364  34.2996840  27.8670286  30.9709781  32.7620446  28.5397487
  31.3165396  32.0516560  29.2907710  30.1983502  33.8955519  29.2508319
  29.8989085  34.5896184  28.4655258  29.3097443  33.4724445  29.7192972
  31.0299442  34.6468818  30.3110831  31.8926157  35.1094704  29.8315933
  30.1529004  35.7539299  30.9867372  29.2902194  35.2920265  31.4668682
  30.7451475  36.2813055  31.7345468  29.8118710  36.4602756  30.2298521
  31.5625746  33.6887690  31.3677765  32.1968240  32.9399261  30.8933701
  32.1449828  34.2446798  32.1025316  30.7277621  33.1948254  31.8649754
  29.9979577  31.9962429  27.6380696  29.7092539  32.4312100  26.5201597
  29.5028840  30.8619592  28.1563086  29.9317568  30.4604494  28.9778665
  28.3675957  30.1417638  27.5333736  28.4929392  30.1105135  26.4510558
  28.2294102  28.6839428  28.0602974  27.4418819  28.1810805  27.4990231
  29.5675729  27.9024339  27.8912987  30.3555279  28.4044742  28.4527094
  29.4454936  26.8864495  28.2667604  29.8387207  27.8691433  26.8360873
  27.8480195  28.6843196  29.4414013  27.7670062  27.7793114  29.7512356
  27.0652936  30.8888619  27.7800506  27.0033331  31.7610099  28.6701481
  26.0266827  30.6131722  26.9648471  25.9534128  29.8507050  25.6981146
  25.7887501  28.7941186  25.9093295  26.8817708  29.9685905  25.1392287
  24.7622106  30.5013705  24.9937356  24.3062378  29.8131582  24.2820111
  25.0653005  31.4111338  24.4754996  23.8130208  30.8212140  26.1466505
  23.2441172  29.9480608  26.4661049  23.1261256  31.6270486  25.8879901
  24.7542903  31.2758792  27.2786401  24.9111475  32.3506498  27.1871942
  24.2307763  30.9510848  28.6963719  23.7264296  31.8635453  29.3524964
  24.4429534  29.7314587  29.2080574  24.8539238  29.0031112  28.6417426
  24.0443315  29.4023051  30.5882667  23.0019595  29.6876593  30.7301566
  24.1894772  27.9166536  30.8993251  25.1506817  27.5866623  30.5052554
  24.1829008  27.8015584  31.9832115  23.0658102  27.0654171  30.2873071
  22.1312594  27.3012341  30.7963316  22.9980481  27.3725879  29.2436819
  23.3189659  25.5602305  30.3594634  24.1601869  25.1144673  31.1745728
  22.6313398  24.8072682  29.6068021  24.8564979  30.1878053  31.6223654
  24.3231192  30.6489973  32.6461418  26.1568383  30.3208112  31.3720769
  26.6078729  29.8921969  30.5764910  26.9763898  31.0806853  32.3025862
  26.8012315  30.7247143  33.3178219  28.4705332  30.9215174  31.9770925
  28.5832543  31.0908013  30.9062349  29.0008783  31.7001657  32.5253086
  29.0547496  29.5519287  32.3418665  29.1725018  29.4916243  33.4238085
  28.3509126  28.7884875  32.0103995  30.4148569  29.3223075  31.6654929
  30.7943799  30.0967021  30.7487594  31.1178989  28.3881689  32.0441839
  26.5541441  32.5584318  32.2236766  26.4442534  33.2087383  33.2539812
  26.2928859  33.1015706  31.0289120  26.2987556  32.5632004  30.1743815
  25.9608926  34.5257587  30.9499832  26.7773418  35.0799692  31.4129741
  25.7471794  35.0656032  29.5185974  24.9485455  34.4758034  29.0686869
  25.4243816  36.1025845  29.6111791  26.9456090  34.9993096  28.6662168
  27.7310035  35.6174612  29.1011247  27.2880836  33.9662150  28.6068125
  26.6132095  35.5117439  27.2522739  25.7250575  35.0224979  26.8523698
  26.4659711  36.5917399  27.2469074  27.7514349  35.1901131  26.3940305
  27.7310705  34.3009958  25.9153289  28.8013450  35.9885574  26.2075030
  28.8634526  37.2123792  26.8013563  28.1052488  37.5227281  27.3920428
  29.6674423  37.8042632  26.6484722  29.7951344  35.5559444  25.4194537
  29.7324600  34.6455301  24.9866514  30.6022870  36.1422735  25.2619054
  24.6816075  34.8154370  31.6695644  24.5634867  35.8546573  32.3118842
  23.7093971  33.8999636  31.5674989  23.8101206  33.0968126  30.9634272
  22.4429608  34.0875690  32.2610603  22.0316635  35.0689705  32.0248720
  21.4381015  33.0185760  31.8258525  21.2066613  33.1293243  30.7664802
  21.8457695  32.0238825  32.0061067  20.2580438  33.1888657  32.5861065
  19.6128162  32.5265086  32.3281061  22.5948663  34.0895432  33.7832938
  22.0324338  34.9450528  34.4818401  23.3325023  33.1152419  34.2790498
  23.6511757  32.3900674  33.6524171  23.6650574  33.0062634  35.6710519
  22.7581416  32.9442918  36.2725187  24.4740573  31.7672405  35.8964309
  23.8233887  30.9213626  35.6745748  25.2944839  31.7917837  35.1792156
  25.0264259  31.6222231  37.2820123  25.8897379  30.9595456  37.2215822
  25.3512654  32.6132967  37.5987957  24.0365711  31.0707704  38.2866264
  22.8626952  30.7502776  37.9216252  24.4682148  30.9588639  39.4589517
  24.4366288  34.2168221  36.2198463  24.2369070  34.5439295  37.3840343
  25.3131072  34.8211493  35.4050560  25.4290252  34.4582541  34.4696580
  26.1862497  35.9215895  35.8389450  26.2510397  35.9248245  36.9270126
  27.6178002  35.7689519  35.2570776  27.3996946  35.7012738  34.1912686
  28.2658040  36.6258793  35.4411060  28.3305077  34.4737628  35.7213439
  27.6241851  33.6467021  35.6493724  29.5586341  34.1704067  34.8640140
  30.2656677  34.9968703  34.9358490  30.0329207  33.2553233  35.2186623
  29.2545417  34.0423456  33.8251547  28.6298316  34.4765257  37.2233484
  27.6968748  34.5642883  37.7801149  29.1293081  33.5470106  37.4965263
  29.2766435  35.3202477  37.4639030  25.6901732  37.3389695  35.5374036
  26.3626772  38.3088900  35.9371479  24.5238457  37.4529277  34.8964327
  23.9804009  36.6220945  34.7107364  23.9843319  38.7435312  34.4710369
  24.5771189  39.1637096  33.6585390  22.5542780  38.5252053  33.9709442
  22.5103210  37.5477227  33.4906371  21.8895280  38.5352423  34.8347189
  22.1228162  39.5812325  32.9957841  21.9499451  40.5283668  33.5068154
  22.8767087  39.7194542  32.2207726  20.8232809  39.1028767  32.3601799
  21.0323128  38.7378190  31.3546266  20.4100627  38.2931150  32.9615418
  19.8099632  40.2530982  32.2861070  18.9133144  39.8846099  31.7877720
  19.5617868  40.5535459  33.3040652  20.3479112  41.4286995  31.5374084
  20.5775372  41.1506132  30.5939893  19.6513257  42.1596344  31.5128550
  21.1785282  41.7705666  31.9992539  23.9413111  39.7301528  35.6395642
  24.4151197  40.8663725  35.5443158  23.3787723  39.2586099  36.7717300
  22.8729836  38.3844420  36.7821072  23.2787736  40.1351181  37.9464643
  22.9794289  41.1290362  37.6138704  22.2508298  39.6317377  38.9880010
  22.4784731  38.5986548  39.2507130  22.3287275  40.2577518  39.8768982
  20.8227139  39.6980958  38.4706669  20.5178180  40.4240984  37.5203641
  19.9156403  38.9117674  39.0977645  18.9522254  38.9167954  38.7946042
  20.2067181  38.3238989  39.8657392  24.6030699  40.5126886  38.5632210
  24.7728841  41.6715866  38.9474599  25.5403616  39.5643745  38.6701489
  25.3174183  38.6008223  38.4653003  26.8795747  39.8762769  39.1489956
  26.8122440  40.3520399  40.1273694  27.7355981  38.6092815  39.2777344
  27.8541272  38.1426785  38.2998122  28.7162491  38.8652785  39.6788444
  27.0859787  37.7039992  40.1582136  27.6145491  36.9073530  40.2452076
  27.6112310  40.8793011  38.2746377  28.3666718  41.6892585  38.7588764
  27.3954333  40.7934471  36.9646234  26.8397021  40.0445933  36.5767056
  28.0480739  41.7121232  36.0486973  29.1074624  41.8239461  36.2795456
  27.8877119  41.2026007  34.5938455  26.8720628  40.8274758  34.4679946
  28.1576967  42.3600063  33.5426578  29.1733797  42.7353452  33.6675950
  28.0370045  41.9692933  32.5322730  27.4484453  43.1716271  33.7049333
  28.8512997  40.0158099  34.3724042  29.8630979  40.4211627  34.3650344
  28.7352986  39.3452266  35.2238508  28.6017192  39.2375514  33.0696409
  28.7180062  39.9074155  32.2176672  29.3198003  38.4213804  32.9901203
  27.5902054  38.8314812  33.0764827  27.5076989  43.1441862  36.2465466
  28.2907223  44.1188411  36.2835595  26.1945362  43.2484901  36.4343961
  25.6078665  42.4328029  36.3315737  25.5458823  44.5491737  36.6873194
  25.8679493  45.2654989  35.9315085  24.0004588  44.3913761  36.5963504
  23.6617770  43.6838854  37.3532199  23.5254908  45.3578871  36.7647610
  23.7300611  44.0216669  35.6072602  26.0120772  45.1114464  38.0341084
  26.2905304  46.3170881  38.1775163  26.1883065  44.2247573  39.0180976
  26.1204205  43.2294968  38.8601504  26.4713297  44.6894056  40.3609382
  25.8233715  45.5272175  40.6184660  26.2119757  43.5342093  41.3660487
  25.1644571  43.2467960  41.2755089  26.8447191  42.6955595  41.0755279
  26.5133673  43.9228945  42.8269833  27.5567860  44.2325316  42.8861707
  25.8696849  44.7683940  43.0696820  26.2588347  42.7775594  43.8313785
  26.0880808  41.5933991  43.4056917  26.2449603  43.0715999  45.0584098
  27.9383913  45.1582851  40.4824265  28.1916608  46.2202095  41.0653092
  28.8865922  44.3322513  39.9846111  28.6010570  43.5427440  39.4231424
  30.3351264  44.5090161  40.2669743  30.4805934  45.2778612  41.0257996
  30.9194028  43.1968697  40.7837660  30.5916256  42.3545006  40.1746062
  32.0081357  43.2487428  40.7754093  30.5178887  42.8908039  42.1859657
  31.0097839  43.6644506  43.2521866  31.6932855  44.4885918  43.0479397
  30.6295819  43.3838945  44.5611498  31.0129522  43.9928119  45.3798973
  29.7646175  42.3319012  44.8251111  29.4714026  42.1159956  45.8524911
  29.2706003  41.5517396  43.7805940  28.6014420  40.7150330  43.9812168
  29.6439481  41.8533511  42.4556718  29.2430607  41.2662671  41.6294021
  31.1645731  44.9632303  39.0914278  32.2508097  45.5227126  39.2707479
  30.6447807  44.7756107  37.8943866  29.6930227  44.4592325  37.7753868
  31.4932710  44.9338951  36.6805269  32.4614852  45.3631357  36.9382341
  31.7212365  43.5418517  36.0596543  30.7925616  43.0771597  35.7284089
  32.3979885  43.6450396  35.2114450  32.3719458  42.5725516  37.0156589
  33.6849218  42.6938349  37.4061090  33.9837391  41.7173229  38.2660617
  34.9629512  41.6838777  38.7436850  32.9343713  40.9131918  38.3750498
  32.8862063  40.0580545  38.9103255  31.8963761  41.4405557  37.6256004
  30.9264227  40.9434498  37.6122877  30.9367098  45.8932088  35.6692194
  31.3712354  45.8781939  34.4738153  30.0702632  46.7963439  36.1201667
  29.7656192  46.7938687  37.0831232  29.5189629  47.8526743  35.1998211
  29.9807527  47.7032972  34.2238417  27.9768516  47.7034856  35.0485453
  27.5093378  47.9362437  36.0052871  27.4161670  48.6721664  33.9414607
  27.8829082  48.4396926  32.9842730  26.3367686  48.5447422  33.8592333
  27.6400663  49.7037162  34.2132597  27.7125368  46.3724035  34.6131959
  26.7657110  46.2512223  34.5110379  29.8500956  49.1898639  35.8118483
  29.8303069  49.3178182  37.0146634  30.1133882  50.2033650  34.9866711
  29.9117434  50.1463095  33.9986511  30.6924393  51.4494382  35.5089194
  30.6162227  51.4708841  36.5960396  32.1834164  51.5415192  35.1168078
  32.3368723  51.5285116  34.0377428  32.5118593  52.5001157  35.5184520
  32.9836372  50.4288225  35.7523632  33.4382337  50.5550495  37.0546253
  33.2411172  51.4882122  37.5823107  34.1259081  49.5357364  37.6863364
  34.5172632  49.6613482  38.6958733  34.3632290  48.3384695  36.9827501
  35.0319058  47.3326177  37.6384379  35.2724434  47.5663682  38.5379389
  33.8952912  48.1653129  35.7013114  34.0670020  47.2305235  35.1676593
  33.1879793  49.2111479  35.0791893  32.7955854  49.0794197  34.0708368
  30.0111974  52.6620934  34.9521378  29.6655291  52.6905364  33.7622893
  29.8575574  53.6582043  35.8134415  29.9452266  53.5170727  36.8096821
  29.5580351  55.0059408  35.3272023  28.8717692  54.9491963  34.4822654
  28.9114867  55.8364637  36.4228559  28.0928830  55.2469598  36.8357390
  29.6653635  55.9998370  37.1929721  28.3753661  57.1850662  35.9405602
  27.9747781  57.0868386  34.9316096  27.5795581  57.4937480  36.6184298
  29.4447146  58.2523183  35.9336559  30.2804828  58.3230936  36.8457817
  29.4453109  59.0795218  34.8908602  30.1372479  59.8129392  34.8323495
  28.7538251  58.9699890  34.1628826  30.8976905  55.5774971  34.9303739
  31.8335522  55.6232008  35.7632995  31.0254409  55.9623475  33.6637891
  30.2626666  55.8575225  33.0101177  32.2996581  56.4896338  33.1662284
  33.0366714  56.4546373  33.9685288  32.8297209  55.6826295  31.9801316
  32.0275580  55.7957057  31.2508527  33.7315088  56.1669829  31.6055914
  33.1084686  54.1856538  32.2079659  32.2640596  53.7573010  32.7479549
  33.2980020  53.4484173  30.9046976  34.1425842  53.8759342  30.3643191
  33.4925430  52.3952445  31.1073834  32.3959529  53.5408880  30.2998364
  34.3082234  53.9876499  33.1234690  34.1117491  54.4570550  34.0873965
  34.4835511  52.9216048  33.2680691  35.1897602  54.4422944  32.6714842
  32.1623453  57.9495658  32.7728830  31.2749358  58.3366494  32.0188089
  33.0651765  58.7369889  33.3219928  33.5110176  58.4525618  34.1824731
  33.3413429  60.0498789  32.8147237  32.4212991  60.5476127  32.5083257
  33.9984266  60.8765084  33.9325347  34.9015956  60.3601266  34.2577037
  34.2659200  61.8469731  33.5145087  33.0587510  61.0782125  35.1397961
  31.8100520  61.0514050  34.9681971  33.5681044  61.2574121  36.2748202
  34.1683369  60.0427718  31.4979730  34.8050050  59.0222590  31.1262615
  34.1320258  61.1810813  30.7514625  33.1923089  62.3159391  30.9127444
  33.5089307  62.9258056  31.7588613  32.1909056  61.9281534  31.0995939
  33.2874487  63.0472619  29.6089786  33.1331921  64.1144561  29.7683536
  32.5351193  62.6715118  28.9154992  34.6836233  62.7606558  29.0989025
  35.4478427  63.3928938  29.5509455  34.7321722  62.8522677  28.0138450
  34.9055229  61.2943152  29.5126932  34.4428595  60.6114386  28.8001482
  36.4102040  60.9729432  29.6293633  36.9987299  60.5255847  28.6717111
  37.0590980  61.1763586  30.7595893  36.6705731  61.5500060  31.6137177
  38.4942062  60.8115099  30.7418183  38.8608475  61.0979015  29.7560936
  38.9680525  61.4346267  31.5003000  38.8599737  59.3354474  31.0042963
  40.0325280  59.0311338  31.1809731  37.8857686  58.4285180  31.0261462
  36.9182511  58.6752677  30.8740810  38.1948613  57.0614215  31.4931344
  39.2451179  56.8406389  31.3025689  37.9307431  56.9191127  32.9865813
  38.1482622  55.8946205  33.2885755  38.5835941  57.6034523  33.5283976
  36.5930943  57.2186245  33.2805782  36.4439842  57.1241804  34.2242129
  37.5518052  55.9571227  30.6667834  36.7525898  56.2145069  29.7676271
  37.9603513  54.7084187  30.9240545  38.5983233  54.5144633  31.6826535
  37.5066569  53.5992687  30.1062834  36.4952737  53.8062800  29.7564984
  38.4176377  53.3728369  28.8777820  38.0140433  52.5644175  28.2681355
  38.4641913  54.2861115  28.2846021  40.1623201  52.9131656  29.2451583
  40.5524307  52.8233016  27.9768380  37.5080048  52.3474895  30.9960671
  38.1319988  52.3508970  32.0656645  36.7956795  51.3308336  30.5503872
  36.2689345  51.4117567  29.6924300  36.6739938  50.0823030  31.3323136
  37.5817086  49.9362481  31.9178228  35.4668683  50.1266216  32.2956603
  35.4825392  49.2239177  32.9063807  35.5728571  51.0009912  32.9378006
  34.2197293  50.2025633  31.5854778  33.4946042  50.2283047  32.2140721
  36.5861893  48.8851592  30.4227675  36.2425204  48.9999907  29.2126946
  36.8857954  47.7125025  30.9899513  37.1501051  47.6754164  31.9640480
  36.7458483  46.4353666  30.2506620  35.9993019  46.5483726  29.4645339
  38.0760322  46.0254696  29.6078322  38.8583298  46.2444379  30.3345801
  38.0271886  44.9495085  29.4404343  38.3728569  46.6867044  28.3743008
  39.2172323  46.3757943  28.0396893  36.4204768  45.3711600  31.2822978
  36.8127439  45.5115426  32.4518624  35.7214236  44.3374606  30.8183321
  35.3703531  44.3955290  29.8730930  35.3992999  43.1652214  31.5973884
  35.8249952  43.2504556  32.5971973  33.8657306  43.0256228  31.7239723
  33.6656312  43.7749358  32.4898636  33.3849782  43.3222784  30.7917853
  33.3094516  41.6719214  32.1767683  33.6603656  40.8935998  31.4991433
  33.7995761  41.3531087  33.6421360  33.4486314  42.1308056  34.3204606
  33.4003420  40.3891934  33.9576995  34.8888523  41.3187548  33.6620744
  31.7728857  41.5865226  32.0251861  31.5020076  41.7288061  30.9790122
  31.4281277  40.6079744  32.3593815  31.3039020  42.3625072  32.6301664
  36.0167472  41.9140806  30.9307832  35.8729954  41.7281616  29.7068815
  36.6668972  41.0594114  31.7339858  36.8328881  41.2908225  32.7030035
  37.1882522  39.7696683  31.2198246  36.8674317  39.6208846  30.1887878
  38.7223911  39.7712535  31.2606801  39.0106765  39.9867500  32.2895397
  39.1952100  38.8436251  30.9381154  39.3010791  40.8629038  30.4163076
  39.3565556  40.7681676  29.0466156  39.8128118  41.9126859  28.5532252
  39.9040269  42.0546973  27.4763726  40.0888747  42.7210192  29.5599628
  40.4780957  43.6503965  29.4902158  39.7585773  42.0902014  30.7369665
  39.8928636  42.6057200  31.6879181  36.6797656  38.5657262  32.0126574
  36.5081129  38.6892782  33.1992573  36.3951175  37.4518104  31.3039762
  36.4927589  37.4591214  30.2987339  35.9501119  36.2060458  31.9537111
  35.7696198  36.3363247  33.0207392  34.6604083  35.6975124  31.2968782
  34.8280020  35.5534954  30.2295116  34.3707940  34.7493345  31.7498489
  33.8647549  36.4278660  31.4439110  37.0287567  35.1780545  31.7905412
  37.7702386  35.1529739  30.7848172  37.1138218  34.2714713  32.7595534
  36.5715606  34.3162612  33.6104623  38.0334829  33.1856616  32.5968425
  38.2033498  32.9834490  31.5393197  39.3952482  33.5702125  33.2562178
  39.8277873  34.3753780  32.6623173  39.1783472  33.9358840  34.2598802
  40.4178001  32.3741004  33.3428517  41.2081464  32.6480921  34.0416951
  39.8960924  31.4915404  33.7130019  41.0416609  32.0423733  32.0197932
  41.5690236  32.9303635  31.3057329  40.9967838  30.7442949  31.6437725
  41.4013300  30.4628174  30.7621749  40.5589219  30.0620540  32.2462056
  37.4479239  31.9400936  33.2567614  37.2293606  31.9463700  34.4592304
  37.2572236  30.8672074  32.4705663  37.4413127  30.9475428  31.4807397
  36.7699696  29.5661841  32.9922287  36.0124675  29.7325194  33.7581415
  36.1393839  28.7301090  31.8431186  35.5195958  29.3981003  31.2449968
  36.9511639  28.3409926  31.2285443  35.2531662  27.5216449  32.3776556
  35.9229553  26.7736853  32.8019665  34.5958012  27.9045459  33.1582708
  34.4041015  26.8771576  31.2605937  35.0611092  26.4737277  30.4900846
  33.8000459  26.0726123  31.6800254  33.5158788  27.8584491  30.6500649
  32.6530625  28.0617994  31.1341064  33.7441944  28.4535059  29.4837792
  34.8470496  28.1605291  28.7877484  35.5054212  27.4861537  29.1508804
  35.0169877  28.6148627  27.9018581  32.8965260  29.3728759  29.0590543
  32.0915144  29.6110969  29.6205764  33.0571938  29.8334988  28.1746838
  37.9575152  28.8334941  33.5966647  39.0708577  28.8295892  33.0182875
  37.7453987  28.2269141  34.7719951  36.8370906  28.2856384  35.2097477
  38.7907699  27.4810794  35.4517947  39.6097389  27.2910919  34.7580413
  39.3318384  28.2573887  36.6960349  38.5232997  28.3833010  37.4161124
  40.4773004  27.4852831  37.3471868  41.2864634  27.3593711  36.6278107
  40.8435526  28.0383779  38.2120834  40.1206135  26.5062317  37.6670807
  39.8130721  29.6568626  36.2160527  40.5005714  29.5157463  35.3820673
  38.9438847  30.2212119  35.8782325  40.5453890  30.4572435  37.3756369
  41.4150102  29.8936944  37.7136773  40.8662293  31.4290605  37.0004938
  39.8583235  30.5991580  38.2098439  38.1954623  26.1501879  35.9000655
  37.1407954  26.1083120  36.5601452  38.8981142  25.0680773  35.5433151
  39.7472113  25.1835836  35.0087202  38.4158388  23.6958292  35.8044488
  37.3309619  23.6951034  35.9099985  38.7978699  22.7688169  34.6307481
  39.8545388  22.9823020  34.4695834  38.6584863  21.6940338  34.7469966
  38.0823868  23.1612123  33.3682106  36.7312422  22.9662077  33.2182128
  36.3262503  23.4931918  32.0705716  35.2838834  23.4296751  31.7582641
  37.3750363  24.0415581  31.4835322  37.3759247  24.5135422  30.5905988
  38.4790517  23.8685449  32.2855830  39.4421077  24.2800068  31.9833850
  38.9757682  23.2724422  37.1598279  39.8496007  22.4226552  37.2508708
  38.4788884  23.9448801  38.1893495  37.7999692  24.6665062  37.9933296
  38.8972444  23.7435309  39.5796598  39.0291430  22.6811758  39.7848513
  40.1981294  24.4578781  39.8736791  40.0791587  25.5242068  39.6816139
  40.4688917  24.3053984  40.9184461  40.9848843  24.0594087  39.2331027
  37.7764995  24.2323206  40.4835687  36.9197614  24.9913770  40.0370194
  37.7401641  23.7592158  41.7605670  38.6944295  22.8200822  42.4020486
  39.5259885  23.3679581  42.8452661  39.0774357  22.1093695  41.6697285
  37.8217734  22.1659753  43.4314929  38.4176739  21.7401142  44.2387377
  37.2052958  21.3857472  42.9850617  36.9418399  23.3494905  43.9367638
  37.5694411  23.9171033  44.6238093  35.9986825  23.1044608  44.4251428
  36.6762523  24.1756409  42.6678463  35.7088059  24.0161081  42.1917213
  36.8406764  25.6548715  43.0001815  37.9863716  26.1235435  43.1238224
  35.7132472  26.3580341  43.1851568  34.3189604  25.9535536  42.9055843
  34.1249717  24.9824686  43.3610648  34.1705667  25.8849663  41.8279136
  33.5234603  27.0324979  43.5141505  33.3379246  26.8110515  44.5651676
  32.5724057  27.1340946  42.9913938  34.3727934  28.2920086  43.3508530
  34.1720988  28.9578932  44.1901493  34.1855808  28.8201237  42.4158955
  35.8251987  27.8172767  43.3999288  36.4150596  28.2402004  42.5867265
  36.4930648  28.1423977  44.7351494  37.1482313  29.1807076  44.8424449
  36.3652116  27.2557146  45.7456679  35.7209864  26.4783528  45.7177046
  37.0703053  27.5228916  46.9901438  36.8657874  28.5456469  47.3067562
  36.6195568  26.5472869  48.1283596  37.1812929  26.8046270  49.0263172
  35.5569116  26.7136263  48.3050414  36.8588282  25.0493070  47.7784919
  37.7567462  25.0235462  47.1610937  37.0468121  24.5231210  48.7143816
  35.6934967  24.3603120  47.0238984  34.8880450  25.0392174  46.3409226
  35.5825432  23.0994649  47.1393752  38.5741086  27.5285523  46.7624828
  39.3011238  28.3305160  47.3852967  39.0787532  26.6485949  45.9007897
  38.5147766  25.9194260  45.4880642  40.5080363  26.6766589  45.5943325
  41.0858216  26.7153392  46.5177865  40.9065694  25.4192355  44.8209045
  40.6218693  24.6170515  45.5017466  40.2461462  25.4106713  43.9538014
  42.3380656  25.2123513  44.3673777  42.5025566  25.8382777  43.4903032
  43.3714153  25.5714251  45.4564541  43.2078393  24.9455449  46.3337314
  44.3776996  25.4027860  45.0729786  43.2594151  26.6198559  45.7327677
  42.4888799  23.7447550  43.9771595  41.7961664  23.5101181  43.1689559
  43.5103265  23.5597755  43.6446980  42.2680197  23.1146373  44.8387112
  40.9284192  27.9455077  44.8074851  41.9390888  28.6013744  45.1281901
  40.1691971  28.2825815  43.7750355  39.4126425  27.6986513  43.4483093
  40.4659215  29.5349761  43.0294899  41.4588230  29.5138302  42.5802700
  39.4231776  29.7740466  41.9126261  38.4231673  29.7004485  42.3400157
  39.6128724  31.1737586  41.2840944  40.6125629  31.2479572  40.8560588
  38.8705096  31.3242961  40.5002983  39.4894767  31.9372659  42.0521646
  39.5104067  28.6751280  40.8150638  39.3224635  27.6988566  41.2619124
  38.7650765  28.8708509  40.0441714  40.5048913  28.6845696  40.3689560
  40.4972200  30.7327939  43.9966522  41.4231273  31.5755022  43.9536134
  39.4770996  30.8201107  44.8420445  38.6926136  30.1946445  44.7259710
  39.3615210  31.9176732  45.8360768  39.4253569  32.8783917  45.3251519
  38.0036553  31.8477094  46.5970898  37.1468255  31.9649407  45.9336150
  37.9378511  30.8873482  47.1084373  37.8760050  32.9120035  47.6592505
  37.8144756  32.7127074  49.0098016  37.8278295  31.6742784  49.3408404
  37.7468443  33.9059701  49.6793381  37.7044873  34.0197097  50.6820189
  37.7529037  34.9280209  48.7592400  37.6939145  36.2997750  48.9713531
  37.6355331  36.6662647  49.9962314  37.7135895  37.1301072  47.8416539
  37.6732328  38.2122925  47.9655337  37.7861061  36.5841636  46.5176954
  37.7932716  37.2271043  45.6375390  37.8506715  35.1867184  46.3189191
  37.8808350  34.8021583  45.2994562  37.8409800  34.3440580  47.4647845
  40.5913936  32.0097344  46.7915569  41.1113803  33.0820100  47.0850613
  41.0353414  30.8455628  47.2924650  40.5321380  29.9917609  47.0977656
  42.2143468  30.7752910  48.1654010  42.0358049  31.3088974  49.0989352
  42.4984701  29.2910170  48.4913361  43.0118998  29.2241435  49.4505113
  41.5556717  28.7467099  48.5457508  43.3221131  28.7180599  47.4680109
  43.4954279  27.7968403  47.6751732  43.4512181  31.4272835  47.5304079
  44.3262756  31.9212420  48.2293616  43.5307043  31.4606939  46.1920840
  42.8123582  31.0324404  45.6258005  44.6488099  32.0901090  45.5217926
  45.5653283  32.0751096  46.1115962  44.9120464  31.4175599  44.1307897
  43.9844202  31.4299804  43.5585522  46.0124442  32.1644924  43.3437461
  46.9405632  32.1520912  43.9151845  46.1707271  31.6727513  42.3839347
  45.7032862  33.1962151  43.1762085  45.2339434  29.9259211  44.3315932
  46.2898689  29.8648707  44.5950221  44.6299586  29.5843615  45.1722113
  44.9557493  29.0255214  43.0939590  45.5597677  29.3662058  42.2530097
  45.2124135  27.9928542  43.3302241  43.8998570  29.0856985  42.8301974
  44.3976094  33.5906345  45.2979015  45.2678117  34.4461337  45.5911696
  43.2374580  33.8791946  44.7094384  42.6322147  33.1179890  44.4367738
  42.8070334  35.2773350  44.3908478  43.4893801  35.8224217  43.7386341
  41.4205361  35.2544960  43.7393989  40.8472660  34.4574046  44.2127972
  40.6465134  36.6116459  43.8838085  41.2189873  37.4091914  43.4102096
  39.6727003  36.5282489  43.4012803  40.5093736  36.8416550  44.9404021
  41.5813079  34.8343885  42.2929771  42.0304856  33.8421694  42.2500503
  40.6044336  34.8116262  41.8099678  42.2248629  35.5466342  41.7766012
  42.7818895  36.1655709  45.6544259  43.0577929  37.3769627  45.5845091
  42.4560873  35.5796812  46.8016762  42.1841523  34.6072565  46.8249294
  42.3136132  36.3823100  48.0472532  41.8686370  37.3499534  47.8153878
  41.4097643  35.6549795  49.0508848  41.0890306  36.3598869  49.8179145
  40.5363233  35.2660774  48.5274765  42.1753729  34.4873833  49.7126518
  42.4644384  33.7707587  48.9438922  43.0692369  34.8784776  50.1986091
  41.2788987  33.7809195  50.7684675  40.3751656  33.3980740  50.2943422
  41.8238117  32.9569789  51.2292182  40.8939078  34.7309595  51.8132847
  40.0099943  35.2015632  51.6816466  41.6090813  35.0180379  52.8925839
  42.7924302  34.4188828  53.0952030  43.1371355  33.7483412  52.4231523
  43.3330820  34.6411468  53.9188498  41.1355185  35.8964627  53.7692961
  40.2403647  36.3350931  53.6068058  41.6727817  36.1216951  54.5943521
  43.6225784  36.8387405  48.7013874  43.6213985  37.7254535  49.5658610
  44.7262443  36.2119140  48.2999933  44.6278456  35.4736118  47.6178446
  46.0503448  36.4708957  48.8519221  45.9943987  36.5941177  49.9334884
  46.9647617  35.2864185  48.5420507  46.9249059  35.0942819  47.4698594
  47.9823238  35.5561607  48.8247284  46.5460960  34.0408274  49.2934280
  45.4811379  33.8623931  49.1446788  47.1120299  33.1837539  48.9283993
  46.8234959  34.2370014  50.7696550  46.3653284  35.1616928  51.1205500
  46.4306200  33.3971840  51.3427647  48.2695440  34.3178872  50.9870563
  48.8644373  34.0911996  50.2029555  48.8391340  34.6717426  52.1328934
  48.0764270  34.9973294  53.1763861  47.0704368  34.9730998  53.0898026
  48.5079729  35.2667812  54.0488903  50.1690202  34.6936139  52.2370441
  50.7389525  34.4404922  51.4425590  50.5997779  34.9631911  53.1098984
  46.6254024  37.8028696  48.3212269  47.5220609  37.8332437  47.4720915
  46.1315685  38.8856354  48.8992003  45.3837663  38.7896443  49.5712695
  46.5668331  40.2376291  48.5312783  46.4119972  40.4124151  47.4665836
  45.7453373  41.2564788  49.3174786  44.6844457  41.1469249  49.0925202
  45.9072580  41.1064492  50.3848927  46.1024269  42.6917849  49.0245614
  45.6395683  43.3034210  47.8542378  45.0215060  42.7394546  47.1556387
  45.9723462  44.6522148  47.5762393  45.6056460  45.1190315  46.6620655
  46.7610005  45.3798126  48.4602664  47.0235174  46.4145728  48.2401386
  47.2160222  44.7801202  49.6319806  47.8299105  45.3396319  50.3378050
  46.8730302  43.4238812  49.9048565  47.2204316  42.9477515  50.8217603
  48.0749161  40.4451051  48.7394811  48.7146038  41.1385558  47.9641388
  48.6674124  39.7726460  49.7367855  48.1158236  39.2302113  50.3861033
  50.1082550  39.8725385  49.9658337  50.4313319  40.9021658  49.8122491
  50.4717315  39.4499530  51.4117204  51.5606990  39.4556900  51.4587966
  50.0737366  40.1664953  52.1302377  49.9597007  38.0642081  51.7447738
  48.8230022  37.6840137  51.3203792  50.6695229  37.3622467  52.4830796
  50.9893067  39.0916018  49.0122133  52.2046432  39.2892294  49.0323216
  50.4123703  38.2185889  48.1936078  49.4068907  38.1233109  48.1879360
  51.1935164  37.3905574  47.2720181  52.2169158  37.7592996  47.2028655
  51.2263123  35.9469181  47.7950352  50.1944452  35.6265792  47.9390235
  51.6938535  35.3303489  47.0273453  51.9816734  35.7975944  49.0858721
  51.8430343  36.6883154  49.6986495  51.6168331  34.9245598  49.6269860
  53.4737283  35.6189200  48.7737626  53.7632937  36.3285031  47.9986866
  54.0525130  35.8120040  49.6769936  53.7505464  34.1761579  48.2820490
  54.0460650  33.5923680  49.1538051  52.8121891  33.7876116  47.8863009
  54.8201153  34.0770388  47.2255890  55.6898068  34.4366268  47.5922400
  54.9412302  33.1104708  46.9587977  54.5462798  34.6175762  46.4175466
  50.6208657  37.3334215  45.8609091  50.3502357  36.2550025  45.3614083
  50.4160028  38.4971388  45.2191208  50.9156801  39.8200355  45.6251713
  51.9308868  39.7255240  46.0105583  50.2703008  40.2330772  46.4004009
  50.8539618  40.6152108  44.3387363  51.8397814  40.6039583  43.8738362
  50.5763821  41.6422413  44.5759264  49.8616184  39.9954939  43.4879574
  50.1353524  40.1313158  42.4416682  48.8602836  40.3921960  43.6554556
  49.9013015  38.4917641  43.8511005  48.9163241  38.0256938  43.8774885
  50.7950309  37.7410935  42.8549566  50.2956230  37.2068179  41.8729855
  52.0904535  37.6792923  43.1139078  52.4710657  38.1899245  43.8978009
  53.0237907  37.0514897  42.1745061  52.8227368  37.4046074  41.1630792
  54.4862550  37.4080131  42.5418622  55.1174507  37.1029251  41.7072291
  54.5397830  38.4902051  42.6605857  54.9740851  36.7292836  43.8251101
  54.4518221  35.7762567  43.9092652  56.0453521  36.5492477  43.7352432
  54.7213392  37.5348132  45.0887902  53.7018178  38.2099029  45.2464008
  55.6789032  37.4722639  46.0029826  55.5800502  37.9822925  46.8691236
  56.5030575  36.9148564  45.8292932  52.7581912  35.5316801  42.0002053
  53.2282178  34.9170552  41.0260964  51.9473562  34.9335389  42.8757958
  51.5553689  35.4131253  43.6735690  51.6094510  33.5073217  42.6795777
  52.5328574  32.9284431  42.6617037  50.6977362  32.9259489  43.7256999
  50.4410800  31.9077215  43.4333971  51.3551223  32.9083928  45.0822652
  51.6116657  33.9263894  45.3754682  50.6685743  32.4822341  45.8137977
  52.2611104  32.3038443  45.0397522  49.4957210  33.7123877  43.7689148
  48.9023377  33.3536720  44.4328573  50.9098961  33.3179827  41.3306434
  51.0098474  32.2397967  40.7458523  50.2515810  34.3555303  40.8098852
  50.0047919  35.1529279  41.3785254  49.7151614  34.2833890  39.4305275
  50.2551805  33.5223294  38.8672631  48.2399763  33.9232373  39.4418785
  47.9653935  33.5445531  38.4573472  48.1499070  33.1230134  40.1764730
  47.3304659  35.0436281  39.8142227  46.6843521  35.7745210  38.8305065
  46.8710597  35.5338499  37.7839325  45.8274743  36.7799000  39.1547667
  45.3036582  37.3324907  38.3747911  45.6107736  37.0961792  40.5053937
  44.7805278  38.1318365  40.8268328  44.4062347  38.5655220  40.0564944
  46.2291759  36.3883368  41.5110585  46.0631587  36.6360081  42.5594848
  47.0648371  35.3577214  41.1753978  47.5382898  34.7633526  41.9568506
  49.9351342  35.4819386  38.4682611  49.7027013  35.3804951  37.2408194
  50.3731903  36.6002968  38.9944149  50.4426132  36.7328965  39.9932628
  50.7003810  37.7134965  38.1304018  50.1850025  37.6237271  37.1741457
  50.2478684  39.0135459  38.8116873  50.9294979  39.1912739  39.6434885
  50.3553518  39.8120476  38.0775604  48.8136364  38.9874491  39.3272010
  48.1158981  38.8242173  38.5058500  48.6896543  38.1999152  40.0705185
  48.5306209  40.3553518  39.9767743  49.0476173  40.3528026  40.9363613
  48.9799694  41.1042065  39.3245457  47.1020995  40.6785412  40.1873952
  46.5170038  40.3688049  39.3214697  46.7307983  40.1697371  41.0769755
  46.9695303  42.2380078  40.3803776  47.3131346  42.7096530  39.5560072
  45.9992774  42.4779578  40.5257506  47.5112765  42.5251621  41.1829688
  52.1906297  37.7416499  37.7971266  53.0493834  38.1911274  38.6467277
  52.5100894  37.4204139  36.5367493  51.7991565  37.3452362  35.8232916
  53.9122872  37.0924669  36.1711851  54.4134907  36.6479480  37.0310090
  53.9741389  36.0879183  34.9858942  53.1621177  36.1871910  34.2655708
  54.9221139  36.3131051  34.4972897  54.0262635  34.6377061  35.3780213
  54.8277893  34.1581769  36.3953438  54.7027095  32.8441864  36.4770385
  55.2420690  32.2808510  37.2385131  53.8711201  32.4456163  35.5295419
  53.5776485  31.4950075  35.3554235  53.4606843  33.5456673  34.8053256
  52.7993836  33.4181550  33.9482823  54.8029640  38.3054715  35.8075881
  56.0323774  38.1191900  35.5160337  54.1921688  39.5017324  35.8281569
  53.1972399  39.5440053  35.9967651  54.9173646  40.7561399  35.6455235
  55.7356168  40.6204686  34.9383066  53.9658218  41.8200344  35.0940991
  53.0294854  41.9186835  35.6433183  54.5049641  42.7669151  35.1231256
  53.5924119  41.5749144  33.6352605  54.6022218  41.6006395  32.6389071
  55.6307742  41.8204295  32.9250405  54.2854526  41.3453225  31.2898539
  55.0532103  41.4057301  30.5184916  52.9811731  41.0142306  30.9468874
  52.7424373  40.8036461  29.9044099  51.9598263  40.9480422  31.9395504
  50.9377031  40.6864591  31.6658012  52.2803617  41.2239165  33.2828406
  51.5087437  41.1649242  34.0504509  55.4560292  41.2571099  36.9837610
  56.0478611  42.3094061  37.0289347  55.1723341  40.5414231  38.0779668
  54.5872232  39.7194857  38.0314530  55.6563201  40.9817009  39.4006572
  55.9782591  42.0230170  39.4113899  54.5636503  40.7670996  40.4822339
  54.2162059  39.7356824  40.4225569  55.1313300  41.0563950  41.9582139
  55.4785606  42.0878311  42.0188050  54.3397780  40.8964463  42.6903085
  55.9610967  40.3813358  42.1676926  53.3546221  41.6326624  40.1220443
  53.6917317  42.6689673  40.1450676  53.0693203  41.3664694  39.1042802
  52.1352864  41.4665662  41.0590942  52.4197121  41.7330421  42.0770296
  51.3283527  42.1188960  40.7252930  51.7973020  40.4305429  41.0362438
  56.9363673  40.2654293  39.8036189  56.9841723  39.0160025  39.9023835
  57.9556414  41.0446871  40.1205061  57.8825513  42.0473990  40.0239343
  59.2051244  40.4913845  40.5831749  59.4093124  39.5423234  40.0875042
  60.3259274  41.4589508  40.2576043  60.2918762  41.6717746  39.1891261
  60.1541381  42.3788922  40.8164391  61.7257302  40.8801899  40.6275757
  61.7711218  40.8433295  41.7160066  61.7603964  39.8664791  40.2284633
  62.9204664  41.6811465  40.0929834  63.8207549  41.1595897  40.4178805
  62.8576404  41.6532928  39.0051523  62.9755598  43.1094266  40.5545620
  62.1727448  43.6491864  40.0523190  62.7990845  43.1151122  41.6301657
  64.3014371  43.7836110  40.2564434  64.4649510  43.7788313  39.2597789
  64.2766224  44.7369714  40.5889913  65.0454290  43.2838621  40.7220894
  59.1599316  40.2268183  42.1002610  59.5771048  39.1648737  42.5703995
  58.6555090  41.1877544  42.8537719  58.3899601  42.0751535  42.4511480
  58.5148562  41.0101105  44.3232039  58.2772301  39.9719788  44.5554012
  59.8472340  41.3829707  45.0259577  59.7971181  41.0797441  46.0717307
  60.6686590  40.8604965  44.5356703  60.0675619  42.7992846  44.9488124
  60.8934897  43.0189159  45.3860826  57.3649756  41.8669843  44.8304629
  56.8908751  42.8003960  44.1618715  56.8773570  41.5519901  46.0268975
  57.2431835  40.7905544  46.5805094  55.7845142  42.3282824  46.5668260
  55.7938363  43.3361669  46.1518788  54.4568509  41.6598962  46.1988844
  54.2986827  41.6726940  45.1204975  54.4245261  40.6313097  46.5581403
  53.0223416  42.4912162  46.9266372  52.1105268  41.6709116  46.4122519
  55.9616920  42.3624659  48.0785299  56.2595784  41.3314891  48.6790434
  55.8680478  43.5263547  48.6696667  55.8632542  44.4133196  48.1865834
  55.9463212  43.5326371  50.1282626  55.8233346  42.5199526  50.5122464
  57.2901034  44.0580631  50.5744318  57.4734276  43.7529167  51.6046634
  58.0694518  43.6498115  49.9309672  57.3025598  45.4588461  50.4925741
  58.1581959  45.7883965  50.7769736  54.7710190  44.2565150  50.7766308
  54.1875135  45.2088745  50.2190012  54.4133409  43.7637267  51.9635933
  54.8878974  42.9420475  52.3096263  53.3756942  44.3448938  52.7746686
  53.0334327  45.2753977  52.3217682  52.1872069  43.3745064  52.8609718
  52.5354623  42.3992768  53.2011842  51.2154412  43.8922945  53.7973658
  50.8663546  44.8673697  53.4575601  50.3705860  43.2065706  53.8614197
  51.6755316  43.9939653  54.7802603  51.5000458  43.2187934  51.4915511
  52.2159460  42.8300817  50.7673328  50.6626504  42.5268224  51.5812433
  51.1344989  44.1891128  51.1554608  53.9575525  44.6091328  54.1797322
  55.0470827  44.1589435  54.5006909  53.2075369  45.3175661  55.0016567
  52.4328612  45.8305766  54.6056805  53.4859279  45.4713363  56.4535951
  54.3741773  46.0802690  56.6218604  52.2856255  46.1742280  57.0845114
  51.3841458  45.6990932  56.6976257  52.3425236  46.0210793  58.1621979
  52.2401173  47.6767269  56.7839667  52.8817890  47.8951646  55.9303607
  51.2084645  47.9258259  56.5354888  52.6858739  48.5015420  57.9747950
  51.9857960  49.4957595  58.3171169  53.7279063  48.1304955  58.5801660
  53.8088921  44.1772629  57.2309060  53.1105836  43.1612142  57.0740101
  50.6515495  42.0633719  59.9023989  50.9488149  41.3002217  60.4934441
  49.2270563  42.4215472  59.8913292  48.8313624  42.3306764  60.9028963
  48.9921071  43.8681297  59.3967962  49.4702181  43.9927825  58.4252146
  47.9251573  44.0712663  59.3048520  49.5631081  44.9452492  60.3036415
  49.8272825  44.6926175  61.6603047  49.6186426  43.7053830  62.0725394
  50.3603891  45.7084844  62.4906443  50.5687438  45.4981444  63.5396658
  50.6218094  46.9904835  61.9628007  51.0314975  47.7720134  62.6026964
  50.3534930  47.2588004  60.6113163  50.5518754  48.2442599  60.1898734
  49.8190932  46.2323481  59.7926933  49.5975118  46.4313069  58.7441624
  48.4373879  41.4517350  59.0123173  48.9500636  40.9922535  57.9830217
  47.2011254  41.1369698  59.4157971  46.8852820  41.3702971  60.3463349
  46.2975068  40.3770699  58.5446067  46.8453280  39.5873697  58.0304425
  45.1435870  39.7380445  59.3401019  45.5493633  39.0410938  60.0733852
  44.5801030  40.5173099  59.8532601  44.2297325  38.9969001  58.3937006
  43.8231805  39.6933321  57.6603531  44.7924392  38.2171151  57.8804798
  43.0858167  38.3634178  59.1822971  42.0440069  39.0540765  59.3411179
  43.2647160  37.1948931  59.6183536  45.7894220  41.3412872  57.4537191
  45.5069374  42.5115952  57.7258841  45.6955200  40.8686403  56.2170444
  46.0094630  39.9421693  55.9656672  45.3232512  41.7854758  55.1479277
  45.8034543  42.7494059  55.3162816  45.7617012  41.2493447  53.7625249
  45.4229717  40.2151825  53.7003153  45.2435905  41.8465852  53.0122149
  47.3328506  41.3104560  53.4978270  47.7807056  40.6946755  54.2777893
  47.4807081  40.8331858  52.5290890  48.1457970  42.9617079  53.4891543
  48.9723948  43.0788759  55.1146486  49.6975412  42.2710658  55.2131602
  49.4844743  44.0378093  55.1941587  48.2289258  42.9977413  55.9076003
  43.8348388  42.1563181  55.2790863  42.9498859  41.2868163  55.3350421
  43.5864768  43.4587492  55.4120207  44.3646706  44.1003846  55.3589378
  42.2518152  44.0067402  55.6245181  41.4524991  43.2830085  55.4651276
  42.1476909  44.5456292  57.0617734  42.2572358  43.7224707  57.7678253
  42.9361271  45.2783870  57.2336291  40.7877901  45.2068579  57.2594362
  40.6776945  46.0304650  56.5539923  39.9988025  44.4745493  57.0881913
  40.6845786  45.7410243  58.6840901  40.7941252  44.9178670  59.3901428
  41.4730139  46.4737831  58.8559439  39.3748962  46.3911348  58.9131957
  38.7112613  46.4194716  58.1523506  39.0319248  46.9397462  60.0752183
  39.8513963  46.9418508  61.1227691  40.7646134  46.5172092  61.0465184
  39.5567185  47.3680788  61.9897144  37.8284860  47.4977967  60.1712161
  37.2086117  47.4944884  59.3738171  37.5400009  47.9223248  61.0410729
  42.0498717  45.1543392  54.6040484  43.0256672  45.7258629  54.1294773
  40.7987401  45.4749736  54.2751211  40.0522310  44.8189922  54.4554316
  40.4921202  46.6851080  53.4853160  40.8914818  46.6118620  52.4737604
  38.9474770  46.9706460  53.3965557  38.5479265  46.9592206  54.4106208
  38.6286690  48.3147177  52.7381897  39.0275315  48.3267234  51.7238596
  37.5484356  48.4564675  52.7049736  39.0826289  49.1197224  53.3161081
  38.2362341  45.8459500  52.6444510  38.3916619  44.9028242  53.1683384
  37.1688582  46.0608138  52.5930516  38.6402806  45.7710547  51.6348779
  41.3019307  47.8827341  53.9723647  41.3270857  48.2187212  55.1935490
  41.9832773  48.5150612  53.0140212  41.9782337  48.1089716  52.0892698
  42.7321711  49.7539589  53.2232664  42.6042755  50.4115500  52.3634316
  42.3707917  50.2558729  54.1208112  44.2095934  49.4423861  53.3919550
  45.0194518  50.3617693  53.3343692  44.5941348  48.1730912  53.6145739
  43.9263664  47.4256320  53.7390308  46.0402657  47.8352256  53.6306763
  46.5396055  48.4527434  54.3772892  46.2829855  46.3854388  53.9642518
  45.6572510  45.7334702  53.3547499  47.3305799  46.1208133  53.8206579
  45.8904675  45.9801980  55.7109067  46.2111468  44.6919640  55.6301845
  46.6316580  48.0602730  52.2376036  45.9046051  47.9847861  51.2285819
  47.9323093  48.2960863  52.1890514  48.4832620  48.4022459  53.0288613
  48.5927692  48.5286378  50.8798557  47.9136918  48.3147798  50.0544965
  49.1120089  50.0022506  50.7330717  49.6753946  50.0743330  49.8027486
  47.9443039  51.0320268  50.7133998  47.3807027  50.9608533  51.6436619
  48.3488386  52.0389248  50.6104082  47.2847563  50.8182190  49.8723387
  50.0180918  50.2856706  51.8100795  50.3409466  51.1860270  51.7280834
  49.7265783  47.5254525  50.6196365  50.3075999  46.9204182  51.5757921
  50.0637227  47.3110249  49.3376211  49.5324476  47.7100181  48.5769302
  51.2146576  46.4606987  49.0116161  51.7484235  46.1974384  49.9247904
  50.7568901  45.1771568  48.3275643  51.6455747  44.5605123  48.1930708
  50.0728569  44.6823065  49.0170002  50.0632062  45.3757483  46.9741046
  49.2394061  46.0802626  47.0886204  50.7799198  45.7696143  46.2534846
  49.5089048  44.0039159  46.4619103  50.3340659  43.3509175  46.1776549
  48.9195220  43.5245211  47.2435163  48.6511524  44.2159130  45.2890271
  48.7528038  45.0900687  44.7934283  47.7398040  43.3375075  44.8541917
  47.5627231  42.1680910  45.4908379  48.1210317  41.9494953  46.3036156
  46.8720696  41.5126871  45.1538763  46.9996468  43.6187366  43.7479591
  47.1406455  44.4906083  43.2580009  46.3124559  42.9543965  43.4215855
  52.1677916  47.2191810  48.0943996  51.6964030  48.0786889  47.3171763
  53.4707627  46.9621732  48.2085495  53.8248880  46.3749332  48.9500640
  54.4222925  47.5849498  47.3123656  53.9076306  48.3458187  46.7255942
  55.5870206  48.2491231  48.0646097  56.0091292  47.4446266  48.6668630
  56.3391745  48.6102840  47.3632344  55.1521639  49.3920745  48.9764999
  54.2610682  50.1978625  48.6490334  55.7908888  49.5247368  50.0357922
  54.9409682  46.5677720  46.3283342  55.6987805  45.6875329  46.6742830
  54.5860888  46.7568100  45.0577492  54.0696574  47.5820860  44.7888303
  54.9491108  45.7892618  44.0107351  55.2343154  44.8083058  44.3908442
  53.7484142  45.6142198  43.0306187  53.3687143  46.6054648  42.7829079
  54.1495534  44.8759726  41.7305036  54.5289443  43.8844029  41.9773901
  53.2780943  44.7801116  41.0828384  54.9244873  45.4428294  41.2145070
  52.5380921  44.8888926  43.7087181  52.1966353  45.4725731  44.5636019
  51.7249019  44.7884752  42.9898734  52.8488397  43.8998922  44.0454894
  56.1511608  46.3614626  43.2614889  56.1961627  47.5965160  42.9987570
  57.1214879  45.5054486  42.9538540  57.1089758  44.5764087  43.3498688
  58.2293141  45.8677970  42.0708474  58.1470664  46.9047832  41.7452800
  59.6221173  45.6344216  42.6996814  59.6673887  44.6187151  43.0926078
  60.7556600  45.8317295  41.6230378  60.7113154  46.8474189  41.2299611
  61.7288186  45.6633450  42.0842424  60.6120683  45.1211044  40.8091014
  59.8357511  46.5479724  43.9337071  59.9979558  47.5561116  43.5523336
  58.9088997  46.5215933  44.5067256  61.0346745  46.1404359  44.8600450
  61.9619998  46.1670344  44.2878037  61.1031947  46.8382245  45.6946079
  60.8729446  45.1325145  45.2421940  58.0535361  44.9924481  40.8133791
  57.8843532  43.7848888  40.9103155  58.0277444  45.6170494  39.6389968
  58.0605994  46.6193796  39.5191882  57.7611906  44.7849378  38.4622087
  57.2980975  43.8412738  38.7505528  56.8715166  45.4671283  37.4022331
  56.7670726  44.8199031  36.5314344  55.4476890  45.7308039  38.0361094
  55.5512764  46.3783785  38.9067515  54.8051632  46.2132000  37.2995260
  55.0034028  44.7829126  38.3397761  57.5040184  46.7105773  36.9092809
  58.4685865  46.4746809  36.4597665  56.8598225  47.1753014  36.1628608
  57.6502665  47.3990825  37.7415506  59.0480453  44.2339078  37.8352559
  60.1433325  44.6992612  38.1311902  58.8803090  43.2639052  36.9585698
  57.9593899  42.8888711  36.7814912  60.0035216  42.6977089  36.2372071
  60.8294050  42.4788925  36.9140639  59.6143734  41.3957209  35.4482165
  60.4842273  41.0259507  34.9053310  59.1284083  40.3114184  36.4456788
  58.2582324  40.6803104  36.9886459  58.8584817  39.4082893  35.8983232
  59.9265863  40.0827446  37.1518794  58.5428418  41.6698800  34.3596203
  57.6462854  42.0534546  34.8466089  58.9326137  42.4214858  33.6731321
  58.1721421  40.3123424  33.5275150  57.7818430  39.5603820  34.2133153
  57.4189054  40.5418345  32.7738127  59.0681724  39.9284118  33.0398401
  60.5462366  43.7074140  35.2467219  59.8521671  44.6817699  34.9111593
  61.7588726  43.4643575  34.7765586  62.2970169  42.6739315  35.1017153
  62.3749986  44.3715318  33.7816870  62.3549048  45.3973955  34.1495171
  63.8315024  43.9688251  33.5344057  64.2723380  44.6747550  32.8305405
  64.3702999  44.0157428  34.4807650  63.9206927  42.6471447  33.0013027
  64.8426402  42.4219959  32.8566626  61.6591555  44.3977116  32.4379831
  60.9594286  43.4392648  32.0674496  61.8900773  45.4777590  31.6829251
  62.3776192  46.2843706  32.0459403  61.4332102  45.5109039  30.2948931
  62.1892003  46.0387521  29.7135547  61.3633447  44.4798883  29.9481583
  60.0959059  46.1892644  30.0947771  59.6468170  46.3615573  28.9397480
  59.4491097  46.5873907  31.1972249  59.8634770  46.4579078  32.1091642
  58.1230618  47.1997035  31.1186819  57.6509152  46.9657882  30.1645014
  57.2378278  46.6404030  32.2589348  57.8199261  46.7602898  33.1726568
  56.3865939  47.3209125  32.2791269  56.7345915  45.1961049  32.1599984
  57.5685661  44.5298235  31.9394166  56.0896959  44.7887294  33.5224138
  55.2552950  45.4543194  33.7434654  55.7285812  43.7620909  33.4615027
  56.8343803  44.8649919  34.3147077  55.7016355  45.0531414  31.1226535
  56.1147679  45.3404299  30.1557583  55.3686419  44.0160773  31.0812460
  54.8549388  45.6968241  31.3611409  58.2098476  48.7272739  31.2390347
  59.2401199  49.2468072  31.7164590  57.1309012  49.4398746  30.8589636
  55.9724763  48.9422517  30.0910279  55.4886069  48.1337861  30.6390737
  56.3059715  48.5741071  29.1207962  55.0563882  50.2248361  29.9666711
  54.3477415  50.2724471  30.7935037  54.5121129  50.2176601  29.0223119
  56.0336675  51.3672302  30.0144197  55.4925692  52.2380591  30.3845126
  56.5198366  51.6160779  29.0711202  57.0730805  50.9328449  31.0346863
  58.0591027  51.3563769  30.8436912  56.6378178  51.2752754  32.4707635
  55.7614198  52.1294370  32.7023399  57.3263168  50.6338541  33.4232333
  58.0827277  50.0165019  33.1647413  56.9909995  50.7646024  34.8431380
  56.9245476  51.8139747  35.1303678  55.6736369  50.0952210  35.1530222
  55.7276336  49.0415409  34.8792656  55.4628328  50.1828281  36.2188491
  54.8780317  50.5773509  34.5849883  58.1072730  50.1527276  35.6485465
  58.8253751  49.2795816  35.1661573  58.2564311  50.6500979  36.8771268
  57.7567458  51.4880515  37.1383694  59.1673139  50.0602159  37.8455692
  59.6535399  49.1944571  37.3959636  60.2665119  51.0684323  38.3010606
  59.8122970  51.9219014  38.8044279  60.9054354  50.5315573  39.0022326
  61.1322540  51.5847721  37.1459603  61.4399226  52.7847533  37.0769219
  61.5588973  50.6994775  36.2874792  62.1326676  50.9909706  35.5090711
  61.3133544  49.7269062  36.4054389  58.4652047  49.5294012  39.0792237
  58.8453081  48.4867583  39.5809736  57.4777355  50.2699404  39.5722788
  57.1037765  51.0392431  39.0352246  56.8621966  49.9637366  40.8776727
  57.0507854  48.9192639  41.1258866  57.4397253  50.8500176  42.0020176
  56.9166141  50.6080196  42.9271619  58.9528246  50.6316227  42.1956673
  59.4766877  50.8738799  41.2710168  59.3139117  51.2764305  42.9968776
  59.1396653  49.5898576  42.4562757  57.2240201  52.2305918  41.6708571
  57.5815318  52.7863277  42.3672357  55.3895475  50.2690558  40.7989402
  54.9488468  51.0905245  39.9683759  54.6222822  49.7011915  41.7103634
  55.0027616  48.9792732  42.3054841  53.2371002  50.0475076  41.8608858
  53.0839273  51.0792318  41.5443696  52.3328212  49.1253399  41.0004051
  52.5750876  49.2753568  39.9483114  52.5258753  48.0877301  41.2727945
  50.9229981  49.4324782  41.2234251  50.3800511  48.8531607  40.6837960
  52.8440912  49.9454078  43.3418674  53.2683717  49.0044395  44.0290294
  52.0744145  50.9240688  43.8268357  51.8059707  51.7021474  43.2414888
  51.5341436  50.8616517  45.1992207  52.0204713  50.0460025  45.7342917
  51.7765399  52.1807137  45.9795876  51.2063637  52.9850551  45.5147927
  51.3189197  52.0088506  47.4655175  51.8890200  51.2049359  47.9311422
  51.4912448  52.9378068  48.0090648  50.2571653  51.7638807  47.4932299
  53.1722690  52.4745189  45.9328122  53.3440138  53.2890116  46.4110440
  50.0624192  50.6996526  45.0843394  49.3959447  51.4977158  44.4070863
  49.5346991  49.6754499  45.7495525  50.1060296  49.1521710  46.3975184
  48.1563728  49.2680318  45.5650201  47.6075591  50.0145144  44.9908544
  48.1352295  47.9515903  44.7980410  48.6563939  47.1790144  45.3633846
  47.1069036  47.6381124  44.6181037  48.8570420  48.1729628  43.4337100
  48.2391312  48.8844691  42.8859455  49.8152710  48.6338692  43.6734213
  49.0906721  46.9298198  42.5704873  48.8583151  45.7652013  43.0097468
  49.5273794  47.1844557  41.4178580  47.4290619  49.0848080  46.9065379
  48.0156944  48.5840711  47.8830306  46.1789030  49.5034906  46.9167147
  45.8003392  49.8891842  46.0634685  45.3014210  49.4532683  48.1191706
  45.8907771  49.2371850  49.0102747  44.6145193  50.8116899  48.3035341
  45.4087440  51.5207183  48.5371683  44.1781446  51.0614165  47.3364179
  43.5186550  50.8839046  49.3990160  42.8161169  50.0672390  49.2328889
  43.9981453  50.7581933  50.3697826  42.7496700  52.2474956  49.3697992
  43.4565337  53.0762852  49.3304228  42.0926900  52.2893875  48.5010519
  41.9277984  52.3830999  50.5926498  42.3588068  52.8938582  51.3499193
  40.6928852  51.9131624  50.7645077  40.0696449  51.2193451  49.8156568
  40.5356937  51.0383272  48.9380857  39.1333354  50.8768511  49.9772798
  40.0602635  52.1294298  51.9382467  40.5262940  52.6431199  52.6724389
  39.1240801  51.7764652  52.0763597  44.2431760  48.3610558  47.9672520
  43.5450839  48.2669878  46.9559911  44.1469053  47.4921037  48.9653548
  44.8471274  47.4644102  49.6926934  43.0734279  46.5100437  49.0032793
  42.9716947  46.0022319  48.0441773  43.4318553  45.4546580  50.0891669
  44.3547922  44.9724291  49.7670769  43.6080052  45.9879091  51.0233588
  42.3445059  44.3877490  50.3052071  41.4227294  44.8935295  50.5926355
  42.0985568  43.5583675  49.0449086  43.0198315  43.0518858  48.7571099
  41.3237049  42.8175944  49.2422932  41.7765096  44.2133865  48.2353803
  42.8627791  43.4812101  51.4672523  43.0074218  44.0851337  52.3630503
  42.1323344  42.6983706  51.6714930  43.8106902  43.0267426  51.1791155
  41.6912074  47.1617823  49.2755813  41.5256480  47.7996669  50.3088322
  40.7546870  47.0959471  48.3256460  40.9320633  46.5085048  47.5234312
  39.4684344  47.8216285  48.3922404  39.5850199  48.7126226  49.0091980
  38.9998788  48.2532248  46.9858275  39.0961395  47.3568482  46.3731758
  37.9586362  48.5754101  46.9963352  39.8665861  49.3594459  46.4047317
  40.4339800  50.1708283  47.2027064  39.9362035  49.4907832  45.1448293
  38.3561366  46.9604249  48.9790554  37.4546388  47.4510081  49.7008724
  38.4284037  45.6686493  48.7064102  39.1448645  45.2969871  48.0992442
  37.3899547  44.7147371  49.2594393  37.1280697  44.9613863  50.2883609
  36.0908630  44.6986561  48.3787905  35.6146174  45.6756608  48.4609632
  36.3867599  44.4027403  46.9242054  36.8626278  43.4256235  46.8411805
  35.4563565  44.4026031  46.3563585  37.0546884  45.1665876  46.5260746
  35.0638682  43.7106174  48.9076291  35.4856043  42.7147043  48.7719956
  34.9495861  43.9143140  49.9723106  33.7615205  43.7787942  48.2579090
  33.8749400  43.5747338  47.1932047  33.0950208  43.0383825  48.7002526
  33.3389227  44.7743449  48.3935180  37.9872933  43.3443015  49.3458895
  38.7548980  42.9771205  48.4456167  37.6851835  42.5958825  50.4463007
  37.1810567  42.9988249  51.2232131  38.1198962  41.2131107  50.5499159
  38.2871458  40.8174137  49.5481421  39.4412454  41.0737352  51.3681076
  40.1186753  41.8134036  50.9414009  39.1994470  41.3522487  52.3938092
  40.1170034  39.6958006  51.3582865  39.3975653  38.9605841  51.7187948
  40.5989073  39.2944850  49.9364622  41.3187712  40.0290352  49.5754485
  41.0710030  38.3128167  49.9758798  39.7454462  39.2597118  49.2593393
  41.3404156  39.6919101  52.3118857  41.0121542  39.9205942  53.3258124
  41.8110495  38.7088788  52.2959321  42.0589562  40.4435200  51.9849591
  36.9718813  40.4459930  51.2074637  36.9609898  40.2378324  52.4513835
  35.9844861  40.0732900  50.4038088  36.0836431  40.1764421  49.4039953
  34.7436340  39.5231864  50.9193455  34.6076440  39.8425087  51.9526118
  33.5423366  39.9974669  50.0988784  33.6505661  41.0812509  50.0564777
  33.5875475  39.5885668  49.0894940  32.1951855  39.6442512  50.7319127
  32.0838295  38.5430340  51.3257911  31.2167842  40.4438631  50.5738410
  34.8619067  38.0100686  50.8481678  34.5710559  37.4178885  49.8165882
  35.2455792  37.3904664  51.9620989  35.5847275  37.9037883  52.7630848
  35.3445298  35.9249865  51.9812444  35.8722198  35.5900915  51.0882228
  36.1116215  35.4170178  53.2299854  35.7086483  35.9448330  54.0943482
  35.9282259  34.3481673  53.3396435  37.5916258  35.6642742  53.1374839
  38.1918603  35.4409137  52.0614729  38.1931063  36.0748481  54.1492053
  34.0241387  35.1743057  51.8181655  34.0355933  33.9612697  51.4592190
  32.8902733  35.8305742  52.0388411  32.8700382  36.8011540  52.3175250
  31.6337215  35.1250364  51.9204348  31.7739609  34.0832962  52.2088954
  30.5662132  35.7419062  52.8225189  30.9379531  35.6488706  53.8429370
  30.5097670  36.7962047  52.5516524  29.1745233  35.1168970  52.7286649
  28.5093253  35.6608865  53.3992527  28.8453096  35.2566328  51.6990089
  29.1415506  33.6048555  53.0816566  30.0392728  33.1126860  53.8349593
  28.2022744  32.9548373  52.6140000  31.1449690  35.1270179  50.4974004
  30.6842158  34.0933608  49.9751931  31.2646048  36.2583792  49.8408580
  31.6408604  37.0846104  50.2834335  30.7690874  36.3709810  48.4600892
  30.0063581  35.6165759  48.2671745  30.1591374  37.7344141  48.2605995
  30.9564386  38.4696319  48.3695249  29.7666163  37.7727351  47.2444506
  29.0163871  38.0542844  49.2709791  28.3589224  37.1872660  49.3351668
  29.4616148  38.2450786  50.2474379  28.2161657  39.2624484  48.8373222
  27.5887035  39.5797266  49.6702236  28.9094747  40.0631407  48.5798073
  27.3537265  38.9915870  47.6726073  26.9054560  38.0879862  47.6210470
  27.1227755  39.8762246  46.6941249  27.7289516  41.0555774  46.7212464
  28.3595388  41.2785412  47.4780468  27.5571850  41.7252802  45.9849760
  26.2983922  39.5963260  45.6683203  25.8369372  38.6989180  45.6256806
  26.1447446  40.2848895  44.9455676  31.8696378  36.0969004  47.3939022
  31.5386770  35.9245566  46.2151165  33.1194907  36.0139010  47.8391435
  33.2589426  36.1935881  48.8231989  34.3074900  35.7408683  47.0007691
  35.1935330  35.7376903  47.6356052  34.2150307  34.3789024  46.2746622
  33.2793352  34.3506787  45.7162925  35.0532440  34.3017590  45.5821687
  34.2566309  33.2208393  47.2472410  35.2052054  33.2346017  47.7840072
  33.4360352  33.3173142  47.9581680  34.1218193  31.9166806  46.4971631
  33.1763561  31.9070756  45.9548475  34.9462127  31.8184226  45.7908910
  34.1493917  30.7725467  47.4134373  34.8226875  30.7762427  48.1662709
  33.3555498  29.7105582  47.2752473  32.4300747  29.6627637  46.3059592
  32.3295129  30.4402744  45.6691982  31.8378191  28.8494752  46.2171063
  33.4561763  28.7091550  48.1324024  34.1310486  28.7562606  48.8823547
  32.8577194  27.9016045  48.0333551  34.4406380  36.8777133  46.0201999
  34.3849277  36.6822029  44.7779757  34.6033871  38.0672622  46.6004276
  34.6396900  38.1296154  47.6078469  34.7999582  39.3066196  45.8123337
  34.9586037  39.1245942  44.7494144  33.6228648  40.2685677  45.9728235
  33.4983844  40.5143544  47.0274290  33.8953597  41.5776200  45.1614232
  34.0194979  41.3326742  44.1065809  33.0537458  42.2602742  45.2787686
  34.8030129  42.0535025  45.5326415  32.3056434  39.5934006  45.5831797
  32.1379987  38.7266542  46.2225137  31.4844568  40.2994755  45.7065100
  32.3550979  39.2725723  44.5426393  36.0308757  39.9880477  46.3874134
  36.1664643  40.1755540  47.6243092  36.9590460  40.3844109  45.4963611
  36.9380914  40.0378428  44.5479146  38.0856386  41.1764576  45.9076578
  37.7991331  41.7172647  46.8096232  39.3959254  40.3410835  46.2131815
  39.1293631  39.4971581  46.8494478  40.0455021  39.8190697  44.9104361
  40.3127777  40.6625024  44.2738164  40.9425242  39.2497172  45.1539277
  39.3396933  39.1765373  44.3840457  40.3612900  41.1456908  46.8894420
  41.1468310  40.6227141  47.0655700  38.3289618  42.2975522  44.8821736
  37.6718727  42.3492524  43.8445427  39.1958274  43.2295653  45.2221802
  39.7322009  43.1804692  46.0765761  39.4011461  44.3971416  44.3282943
  39.7265329  44.0689749  43.3411118  38.4798010  44.9719092  44.2341415
  40.4656480  45.2737792  44.9280535  40.6981844  45.2495337  46.1583689
  41.1737812  46.0210336  44.0863984  41.0186625  45.9477589  43.0910752
  42.2027499  46.9319048  44.5579140  41.9593837  47.2682882  45.5657425
  43.5939603  46.2307727  44.5893511  44.3287520  46.8388870  45.1169658
  43.4877929  45.2706369  45.0942945  44.1733479  45.9398043  43.2250632
  45.1091078  46.8187760  42.6593113  45.4004045  47.7051091  43.2229244
  45.6715901  46.5745512  41.3865125  46.4009511  47.2549034  40.9469057
  45.2676677  45.4143531  40.6785859  45.6726051  45.2203973  39.6853555
  44.3370069  44.5037509  41.2592546  44.0314685  43.6006309  40.7309358
  43.8087808  44.7864860  42.5403276  43.1051859  44.0953401  43.0044090
  42.2842677  48.1566419  43.6763160  41.7567655  48.1592284  42.5330817
  42.9510447  49.1797809  44.2231113  43.3287937  49.1065541  45.1569436
  43.1682408  50.4213704  43.4831798  42.7438233  50.3545337  42.4814305
  42.4706289  51.5648958  44.2368570  42.6520728  51.4433283  45.3047515
  42.8915365  52.5132964  43.9029812  41.0631243  51.5551328  43.9889607
  40.6487441  52.2761706  44.4685368  44.6598610  50.6849240  43.4168407
  45.3706176  50.5147241  44.4170067  45.1420417  51.1863558  42.2683278
  44.5544844  51.3017294  41.4549615  46.5223942  51.5373952  42.1618046
  47.0512150  50.8607342  42.8330553  47.0240015  51.3162018  40.6983417
  46.4103728  51.9031090  40.0148944  48.4555073  51.7462569  40.5789785
  49.0698660  51.1594325  41.2618410  48.7985219  51.5892748  39.5563356
  48.5402128  52.8031253  40.8318685  47.0014789  49.8069365  40.3953303
  47.7128868  49.3067034  41.0524195  45.9988731  49.4254165  40.5885237
  47.4091112  49.5138365  38.8141977  48.4118462  49.8946898  38.6203595
  47.3858698  48.4405621  38.6254089  46.6978332  50.0134052  38.1564633
  46.6373860  52.9910438  42.5855729  46.0663657  53.8756131  41.9003087
  47.2934110  53.2303592  43.7079669  47.7295918  52.4737750  44.2153385
  47.3111422  54.5860128  44.3130949  46.5654684  55.2183671  43.8312259
  47.0324541  54.5251433  45.8203022  46.9925010  55.5338721  46.2313623
  45.6614619  53.8177551  46.0458043  45.7007971  52.8087389  45.6353903
  45.4495214  53.7670261  47.1137971  44.8742280  54.3822527  45.5460999
  48.1166597  53.7905333  46.5894657  48.0892366  52.7425017  46.2911731
  49.0779570  54.2220927  46.3106049  47.9202183  53.9006544  48.1997201
  46.9592735  53.4688475  48.4794124  48.7215084  53.3586072  48.7019335
  47.9479917  54.9484394  48.4988439  48.5848775  55.3753651  44.0587320
  48.6505364  56.5529433  44.4038849  49.6045360  54.6979112  43.5353272
  49.5154597  53.7029771  43.3860926  50.8397678  55.3331905  43.1705469
  50.6225934  56.1323541  42.4618354  51.2901284  55.7568023  44.0682260
  51.8204867  54.3635272  42.5363162  51.4695582  53.2323925  42.1542684
  53.0459938  54.8426243  42.3909842  53.2511527  55.7928147  42.6651147
  54.1373137  54.0254396  41.8348539  54.9372013  53.9504174  42.5715022
  53.7570551  53.0291006  41.6094403  54.6907598  54.6392184  40.5681657
  54.1256509  55.6007612  40.0360554  55.7877439  54.0567115  40.0756611
  56.2210263  53.2846496  40.5617537  56.4274491  54.5546436  38.8432209
  56.2055493  55.6135394  38.7105585  57.9336535  54.3814106  38.9279767
  58.1369817  53.3238530  39.0962884  58.3568146  54.6842841  37.9702177
  58.5769881  55.2191442  40.0656537  58.4415084  56.2735473  39.8248630
  58.0109525  54.9767482  40.9650686  60.0607699  54.9381846  40.3064006
  60.7636688  54.3533201  39.4556359  60.5494894  55.3462715  41.3835726
  55.8639253  53.8198692  37.6413671  56.3550694  52.7604185  37.2995825
  54.8087085  54.3737045  37.0457120  54.4709995  55.2529683  37.4103312
  54.1265791  53.7950904  35.8887210  54.8702234  53.5494859  35.1305846
  53.3400548  52.5130062  36.2424562  52.8053647  52.0778368  35.3981616
  54.0624022  51.7919400  36.6250496  52.3416123  52.7210166  37.3139063
  51.0930210  53.2737770  37.0874343  50.4597731  53.3795416  38.2531911
  49.4386116  53.7584851  38.2947839  51.2720960  52.9655776  39.2126463
  51.0741123  52.9748846  40.2030077  52.4375760  52.5168554  38.6481698
  53.2202617  52.0933774  39.2775907  53.1439290  54.8518605  35.3928895
  52.9611582  55.9063573  36.0351328  52.4797232  54.5771165  34.2791497
  52.6590588  53.7243118  33.7685989  51.6135468  55.5854406  33.6642390
  51.8472110  56.5714367  34.0658757  51.8319257  55.6121757  32.1117698
  51.4494371  54.6807396  31.6943629  51.2715643  56.4514643  31.6998356
  53.2609407  55.7567958  31.7648947  53.6747230  56.6060597  32.3086187
  53.7905176  54.8486842  32.0529637  53.4256966  55.9893031  30.2412590
  54.4908733  56.1068151  30.0420393  53.0577235  55.0979634  29.7331165
  52.7182063  57.1562791  29.7124314  52.9297743  58.0378738  30.1575483
  51.8351787  57.1426407  28.7242339  51.4579215  56.0035063  28.1453085
  51.8484980  55.1269772  28.4603432  50.7830902  56.0217170  27.3940624
  51.3083792  58.3049143  28.2804046  51.5899764  59.1776481  28.7036526
  50.6353512  58.2957898  27.5273782  50.1140261  55.5733704  33.9861846
  49.3660753  56.4584878  33.5223165  49.6406953  54.6137545  34.7871892
  50.2819269  53.9412663  35.1830187  48.2091067  54.4489372  35.0535692
  47.6527561  54.7732981  34.1741585  47.8215453  52.9931370  35.3716353
  48.3762930  52.8179726  36.2934116  46.7526972  52.9175078  35.5714948
  48.2250876  51.9342153  34.3180644  49.2858293  52.0448727  34.0929362
  47.9543811  50.4886126  34.8597505  46.8936942  50.3770396  35.0846804
  48.2441863  49.7571760  34.1053538  48.5367302  50.3248371  35.7664740
  47.5520152  52.1833122  32.9777718  47.8407021  53.1651273  32.6025407
  47.8623879  51.4175604  32.2668609  46.4697162  52.1460912  33.1016366
  47.7062092  55.3291153  36.1691420  48.2763763  55.3698414  37.2520049
  46.6249892  56.0240618  35.9106241  46.2390152  56.0826066  34.9791221
  46.0325284  56.8460053  36.9561887  46.5385373  56.6142389  37.8933858
  46.1542927  58.4370846  36.6821849  45.7035529  58.9663179  37.5217359
  47.5980997  58.8688916  36.5300862  48.0494064  58.3403872  35.6903809
  47.6394165  59.9426816  36.3474193  48.1459727  58.6347904  37.4428470
  45.4685459  58.7420483  35.4967995  45.5333247  59.6839458  35.3229230
  44.5982833  56.4366640  37.2000526  43.8195408  56.1434431  36.2632674
  44.2569526  56.3835003  38.4793399  44.9738558  56.5255612  39.1764539
  42.9246187  55.9766576  38.9272943  42.9277796  55.7858733  40.0004627
  41.9070237  57.1163538  38.6275625  41.9792540  57.3318563  37.5615228
  40.8816498  56.8399922  38.8731895  42.2710378  58.3740317  39.4037900
  42.6699846  59.4209279  38.8153651  42.2155437  58.2782385  40.7148602
  42.4455256  59.0783092  41.2867824  41.9432191  57.4050788  41.1432668
  42.4620094  54.6353495  38.3942479  41.2590872  54.4275624  38.1416064
  43.4221810  53.7162194  38.2874194  44.3893765  53.9680673  38.4330383
  43.1049736  52.3111394  37.9838756  42.4324509  52.2486606  37.1283589
  44.4154290  51.5559697  37.6403359  44.9243707  52.1024923  36.8463645
  45.0424968  51.5435248  38.5318129  44.1546620  50.1357984  37.1876220
  44.0414969  49.8204581  35.8130431  44.1566068  50.6156888  35.0765259
  43.7804821  48.4835446  35.3852505  43.7153533  48.2419749  34.3243527
  43.6573412  47.4684091  36.3440797  43.3961878  46.1406631  35.9424776
  43.3214866  46.0446146  34.9902203  43.7440837  47.7745863  37.7218026
  43.5963898  46.9861578  38.4598185  44.0186107  49.0849807  38.1406981
  44.1295338  49.3058267  39.2023116  42.4624372  51.6186664  39.2050542
  42.9787541  51.6863203  40.3241394  41.3423188  50.9428316  38.9604034
  40.9328523  50.9556898  38.0372180  40.6577824  50.1765987  40.0182158
  41.3702098  49.9021094  40.7961632  39.5268640  51.0279802  40.6586524
  39.9846498  51.9502565  41.0163363  38.8141715  51.2598857  39.8672048
  38.8116026  50.3511358  41.7938320  38.4513668  49.3850469  41.4402739
  39.5263873  50.1980516  42.6023801  37.5983598  51.2016061  42.3211718
  37.9151439  52.2364758  42.4507538  36.7873541  51.1587531  41.5941692
  37.0930786  50.6249013  43.7120199  37.9912830  50.4708010  44.3100019
  36.4919672  51.4173879  44.1578105  36.2828952  49.3351106  43.6714266
  36.8398701  48.6005382  43.2587742  36.0214622  49.0720680  44.6108740
  35.4503393  49.4778125  43.1177246  40.0957610  48.9363547  39.3793570
  39.4541939  49.0245417  38.3272421  40.3003276  47.7712469  40.0069685
  40.9076379  47.6912180  40.8100058  39.7239603  46.5486604  39.4491369
  38.9870019  46.8273512  38.6959286  40.7860620  45.6144263  38.7865935
  40.2740218  44.7837395  38.3009256  41.3429052  46.1828067  38.0416307
  41.6772247  45.1135900  39.7578592  42.3227208  44.5421553  39.3354887
  38.9213509  45.7960132  40.5065329  39.1586173  45.9545584  41.7317293
  37.9956535  44.9698460  40.0282893  37.8027857  44.9253158  39.0378761
  37.2304710  44.1120623  40.9188695  37.6700796  44.0423162  41.9138463
  35.7834500  44.6590041  41.0529814  35.4358795  44.9015141  40.0487490
  34.7885514  43.6605303  41.7200045  35.1352346  43.4178910  42.7245132
  33.7998695  44.1158345  41.7775087  34.7341349  42.7489441  41.1248985
  35.7949285  45.9511986  41.8385530  36.4111965  46.6862653  41.3208728
  34.7771818  46.3306490  41.9297051  36.2046960  45.7693712  42.8320972
  37.2434056  42.7138451  40.2775621  37.0263728  42.5684915  39.0840136
  37.4685145  41.6954934  41.1124046  37.5291044  41.8843168  42.1027449
  37.5586055  40.3179782  40.6684176  37.4023118  40.2410454  39.5924284
  38.9450509  39.7683850  41.0009614  39.1322786  39.8979179  42.0669198
  39.0335925  38.2147405  40.6292314  38.8469204  38.0844543  39.5632677
  40.0273512  37.8385511  40.8721808  38.2869104  37.6612557  41.1986355
  39.8985535  40.5122269  40.2604608  40.7799743  40.1843339  40.4532918
  36.5093751  39.4840076  41.4867706  36.5100851  39.5334881  42.7412933
  35.6493180  38.7537202  40.8001730  35.6619934  38.8046405  39.7915374
  34.6144444  37.9531560  41.4376866  34.7817931  37.9651401  42.5146963
  33.2125652  38.4717374  41.1579545  32.4932839  37.8263084  41.6620935
  33.0489521  39.9098275  41.6618677  33.7676395  40.5559761  41.1578043
  32.0377349  40.2569225  41.4495846  33.2249536  39.9408360  42.7371177
  32.9382417  38.4638707  39.7443125  32.0503283  38.7940718  39.5888219
  34.7431702  36.5066343  41.0339420  35.0686839  36.2177799  39.8819242
  34.5066486  35.5991776  41.9930442  34.2593521  35.8942701  42.9267809
  34.6804452  34.1343205  41.7339835  35.0168357  33.9476204  40.7141386
  35.7200023  33.5434295  42.7128144  35.3636889  33.7112922  43.7291618
  35.9329296  32.0583874  42.4909607  36.2897121  31.8897653  41.4749027
  36.6714564  31.6866029  43.2012106  34.9908752  31.5299155  42.6370855
  37.0579638  34.2787429  42.5531921  36.9192138  35.3378797  42.7701704
  37.7884425  33.8593233  43.2449924  37.4176536  34.1619068  41.5309037
  33.3293399  33.4138656  41.8378971  32.5989743  33.6079832  42.8387300
  32.9719451  32.6366173  40.8177485  33.6277908  32.4852696  40.0647149
  31.6531742  32.0208351  40.7204778  31.0686582  32.2111506  41.6206001
  30.9186386  32.6370291  39.5181416  31.4857003  32.3669264  38.6273078
  29.8824210  32.3207974  39.3983475  30.9055798  34.1249030  39.5800029
  29.9389210  34.8174187  40.2950146  29.1612783  34.3961435  40.7827633
  30.2079970  36.1165227  40.2293342  29.5619764  36.8392345  40.7277758
  31.3114982  36.2860478  39.5024572  31.7783398  35.0587023  39.0994212
  32.6915130  34.9902434  38.5082111  31.6888879  30.5224573  40.5658511
  32.4335988  29.9851187  39.7266211  30.8742415  29.8396430  41.3878231
  30.4002820  30.3476770  42.1208736  30.6359421  28.3670843  41.2772330
  31.5637833  27.8459137  41.0414552  30.1079357  27.8450472  42.6198836
  30.7983369  28.1793169  43.3942925  29.1305748  28.2985555  42.7847957
  29.9811596  26.3500101  42.6742974  29.2116854  26.0163357  41.9781137
  30.9324101  25.8862576  42.4132261  29.5975977  25.9530400  44.0724822
  30.2638955  26.4415586  44.7834645  28.5702975  26.2607853  44.2675379
  29.6956717  24.5112493  44.2557224  30.5635657  24.1574473  44.6321313
  28.7319919  23.6481748  43.9703005  27.5750477  24.0689433  43.4645940
  27.4293778  25.0541625  43.2965959  26.8480451  23.4011065  43.2511442
  28.9322919  22.3507586  44.1878898  29.8136812  22.0356423  44.5673033
  28.2020121  21.6870933  43.9726260  29.6304933  27.9707933  40.2098459
  28.5479903  28.6027487  40.0514902  29.9914550  26.9325686  39.4439894
  30.9448038  26.6011226  39.4809890  29.0669752  26.2816016  38.5177588
  28.0546293  26.6404752  38.7034052  29.4329544  26.5840781  37.0698164
  30.4999572  26.4784869  36.8737173  28.8767017  25.9014334  36.4274153
  29.0537203  27.9770847  36.6480261  27.8245741  28.2122428  36.0689939
  27.1448180  27.3769209  35.9008603  27.4468526  29.5063207  35.6985634
  26.4864913  29.6971844  35.2196292  28.3341997  30.5768946  35.9548595
  28.0325332  31.5944141  35.7063617  29.5849684  30.3396965  36.5200965
  30.2942499  31.1539190  36.6686281  29.9215739  29.0547884  36.8935907
  30.8739591  28.8626725  37.3877099  29.0755330  24.7695115  38.7571669
  30.1111796  24.2057278  39.0683857  27.9147743  24.1491864  38.6221931
  27.0776629  24.6788531  38.4252231  27.7987428  22.6936009  38.7686565
  28.7484251  22.2284909  38.5043168  27.4438794  22.2994011  40.2055418
  28.2778508  22.6189397  40.8304305  26.5523381  22.8669254  40.4723193
  27.1756938  20.7621512  40.4332399  26.2123670  20.5119828  39.9888100
  27.9653097  20.2124431  39.9209636  27.1677872  20.3772600  41.9282661
  26.9501617  21.2740637  42.7842826  27.3693826  19.1706956  42.2523179
  26.7276871  22.2145284  37.8303931  25.6543556  22.8268854  37.7460697
  27.0290659  21.1392509  37.1167475  27.9322077  20.7096016  37.2575863
  26.1327320  20.5588366  36.1142337  25.1061040  20.5668348  36.4803896
  26.1977516  21.3803691  34.8151579  25.9658048  22.4057096  35.1032146
  27.2339243  21.3227232  34.4818062  25.2773127  20.9516753  33.6839241
  25.5287820  19.9373714  33.3740023  24.2425187  20.9807434  34.0251842
  25.4500838  21.9036003  32.4999499  25.1154483  22.8917188  32.8157662
  26.5115849  21.9410944  32.2551867  24.6623712  21.4700277  31.2733804
  25.0807578  20.5403287  30.8877473  23.6209313  21.3107772  31.5529183
  24.7389567  22.5281470  30.2158701  25.7038616  22.6755597  29.9563941
  24.2137153  22.2326955  29.4053580  24.3509298  23.3895948  30.5728602
  26.6244206  19.1239116  35.9276286  27.7850115  18.9074923  35.5703537
  25.7411086  18.1503164  36.2022712  24.7724253  18.4232093  36.2876025
  26.0872596  16.7255241  36.3920611  25.1648401  16.1457185  36.3593952
  27.0515495  16.1737106  35.3318390  27.9579529  16.7761071  35.3922593
  27.2779336  15.1475465  35.6213860  26.5224145  16.1931416  33.8995430
  25.5040511  15.8047904  33.9143824  26.5113012  17.2274751  33.5558426
  27.3798757  15.3456220  32.9454693  28.6375304  15.3032739  33.1243695
  26.7843692  14.7279022  32.0163670  26.7341721  16.6023597  37.7459424
  26.2946006  17.2227296  38.7179343  27.7840246  15.8021722  37.8240680
  28.0167773  15.1354581  37.1019753  28.5802278  15.8129496  39.0278097
  28.0336428  16.3340927  39.8137830  28.8816679  14.3785647  39.5053668
  27.9454322  13.8567880  39.7036367  29.4367228  13.8468641  38.7325093
  29.7122455  14.3888688  40.7807181  30.0536786  15.4519932  41.2941683
  30.0372850  13.1992667  41.2920106  30.5875403  13.1497165  42.1375067
  29.7314504  12.3542633  40.8309951  29.8626320  16.6232204  38.7749524
  30.8811974  16.4022111  39.4479928  29.8042822  17.5787149  37.8326793
  29.0073094  17.6392962  37.2152139  31.0122507  18.3605981  37.4962009
  31.8362348  18.0336854  38.1304545  31.4219402  18.1802626  36.0281830
  32.5056374  18.2973077  36.0278825  31.1686810  17.1457794  35.7962257
  30.8128030  19.0984738  34.9794007  29.8258642  18.7370461  34.6905712
  30.7277249  20.1122351  35.3707470  31.7515155  19.0996103  33.7324430
  31.8019694  18.1051294  33.2890909  31.3982532  19.8117996  32.9867275
  33.1031019  19.4948370  34.1586308  33.5811738  18.8634117  34.7854071
  33.7277735  20.6154680  33.7832728  33.1302384  21.4388232  32.9155948
  32.2162841  21.2083066  32.5527592  33.5955655  22.2875111  32.6269787
  34.9491917  20.9023977  34.2744375  35.3897955  20.2687034  34.9258974
  35.4186258  21.7498739  33.9889302  30.9680278  19.8283453  37.9932285
  30.0119470  20.5408321  37.7700876  32.0020091  20.2250768  38.7221681
  32.8021357  19.6182168  38.8299532  32.0335168  21.5349029  39.3699465
  31.1012354  22.0928406  39.2824481  32.3854441  21.3577310  40.8513264
  33.2865079  20.7494606  40.9300119  32.6275749  22.7163249  41.5150307
  31.7267334  23.3250281  41.4371483  32.8759735  22.5687210  42.5660359
  33.4526128  23.2236627  41.0150107  31.2790197  20.5272934  41.5593600
  30.3901717  21.1540979  41.6312358  31.0630660  19.6619917  40.9326891
  31.6979563  20.0400577  43.0036569  31.9136320  20.9048813  43.6310834
  30.8829911  19.4660753  43.4446504  32.5865282  19.4127765  42.9325367
  33.1161503  22.3661737  38.6724155  34.2247083  21.8942917  38.5289871
  32.8100722  23.5848853  38.2225988  31.8649880  23.9347767  38.1555818
  33.9075585  24.4238910  37.6940665  34.8578112  24.0761183  38.0992493
  33.9722244  24.3524850  36.1585274  34.8883028  24.8070954  35.7813949
  33.9561017  23.2952933  35.8936012  32.8267820  25.0034254  35.4126759
  32.8251554  26.2588270  34.8281852  33.7293439  26.8538760  34.9564798
  31.6289186  26.4929097  34.1835344  31.3807099  27.3387603  33.6905549
  30.8247955  25.4010561  34.3388241  29.5165149  25.1790614  33.8819726
  29.0229292  25.9621851  33.3064822  28.9331815  23.9670357  34.1958800
  27.9186321  23.7540764  33.8590747  29.6211515  22.9953802  34.9441658
  29.1455229  22.0453650  35.1877802  30.9242109  23.2110987  35.3967339
  31.4210286  22.4087464  35.9421729  31.5424461  24.4383493  35.1113583
  33.7273976  25.8586232  38.2177004  32.7654661  26.1581859  38.9645952
  34.6799175  26.7148642  37.8639613  35.4251135  26.4092898  37.2545299
  34.6721724  28.1045718  38.3027035  33.7841854  28.3128140  38.8995396
  35.9177256  28.3799476  39.1621425  36.8012573  28.1490594  38.5670269
  35.9796272  29.7954135  39.6117860  35.0965907  30.0269258  40.2073934
  36.8744017  29.9465610  40.2156339  36.0133435  30.4521741  38.7425166
  35.9220786  27.5381073  40.3412808  36.7054261  27.7239024  40.8642026
  34.7208624  29.0458598  37.0710143  35.3640592  28.7426655  36.0591422
  34.0383317  30.1842327  37.2010409  33.3398284  30.2711780  37.9253564
  34.2370532  31.3192477  36.2821302  35.0080898  31.0552370  35.5583208
  32.9549855  31.6918483  35.5202323  32.1490484  31.8374363  36.2395158
  33.1601310  33.0128308  34.6877670  33.9656588  32.8678535  33.9679006
  32.2391600  33.2555740  34.1576835  33.4177681  33.8306725  35.3607155
  32.5752628  30.5434528  34.5481693  32.4064403  29.6278509  35.1149798
  31.6661218  30.8090498  34.0087061  33.3861189  30.3856331  33.8370391
  34.7305821  32.4693498  37.1430886  34.1653422  32.7852324  38.2192391
  35.8344029  33.0590175  36.7120984  36.3694054  32.6788540  35.9444088
  36.2907793  34.2775246  37.3234142  35.8059971  34.4255804  38.2883831
  37.8019570  34.2430259  37.5368755  38.2829756  34.0205467  36.5843927
  38.3345807  35.6282985  38.0854488  37.8543235  35.8512525  39.0382056
  39.4138652  35.5727009  38.2274149  38.1029880  36.4165899  37.3691646
  38.1756849  33.1229711  38.5431527  37.8487956  32.1592038  38.1527708
  39.2560694  33.1086400  38.6869009  37.6851408  33.3129987  39.4978027
  35.9450846  35.4501766  36.3714203  36.1752133  35.3474162  35.1344392
  35.4407687  36.5406731  36.9461741  35.2251730  36.5334471  37.9328684
  35.2224223  37.8025892  36.1846436  35.4429200  37.6319682  35.1309034
  33.7895443  38.2803099  36.3083907  33.6752686  38.4193312  37.3834318
  33.6778129  39.2403668  35.8044990  32.7238812  37.3167644  35.8056349
  32.8676055  36.3482588  36.2846350  31.3014397  37.8538393  36.1385546
  31.1567955  38.8221727  35.6594853  30.5524552  37.1520444  35.7716664
  31.1975173  37.9639498  37.2179879  32.9186238  37.0601309  34.2820882
  33.9042938  36.6281885  34.1089412  32.1527716  36.3697613  33.9285894
  32.8353123  38.0025547  33.7407975  36.1192776  38.8510256  36.7953921
  36.1672460  38.9679061  38.0156528  36.8477902  39.6038123  35.9534738
  36.8790397  39.3860892  34.9677155  37.6562029  40.7117387  36.4415201
  37.3378703  40.9651804  37.4527228  39.1610723  40.3636235  36.4703792
  39.3087848  39.5256406  37.1516023  39.4676918  40.0728106  35.4656343
  39.9910326  41.5364750  36.9292464  40.0199358  42.2879792  36.1402553
  39.4902502  41.9490374  37.8050936  41.4211085  41.1326475  37.3020241
  41.5742409  40.0756200  37.8944340  42.3787072  41.8437527  36.9808248
  37.3819398  41.9006668  35.5494979  37.4294220  41.7715364  34.3158173
  37.0214262  43.0393346  36.1512965  36.7901117  43.0856933  37.1333575
  36.8887099  44.2659288  35.3429809  37.2394880  44.0882327  34.3263797
  35.4109343  44.6868021  35.2863157  35.3237249  45.5565672  34.6351611
  34.8322015  43.8623290  34.8698873  34.9170617  45.0074302  36.5664104
  33.9949201  45.2655063  36.4982083  37.7665126  45.3682500  35.9264819
  38.1672647  45.2920659  37.0838870  38.0461310  46.4084436  35.1445479
  37.7563990  46.4249058  34.1771370  38.7575416  47.5657848  35.6725917
  38.6465047  47.5711865  36.7569075  40.2873375  47.5685174  35.3253238
  40.6943491  48.4874048  35.7473270  40.7640218  46.7098510  35.7981496
  40.5577909  47.5359348  33.8149694  40.5737282  48.7252139  33.0524216
  40.4274739  49.6776057  33.5619892  40.7683275  48.6965530  31.6971826
  40.7386155  49.6246021  31.1262676  40.9544599  47.4997527  31.0520386
  41.1702659  47.5226441  29.6906651  41.1669752  48.4103646  29.3252322
  40.9714991  46.2998151  31.7654952  41.1488487  45.3509830  31.2591700
  40.7588262  46.3255167  33.1370617  40.7462860  45.3947462  33.7041675
  38.1568290  48.8248391  35.0582240  37.4693967  48.7524800  34.0140679
  38.4594417  49.9405143  35.7207189  38.7809395  49.8725379  36.6757674
  38.2776659  51.2739986  35.1424221  38.1120754  51.2293176  34.0660009
  37.0763393  52.0352189  35.8030490  36.1572700  51.4773580  35.6235993
  37.3052452  52.1730735  37.3213494  38.2239578  52.7312644  37.5016016
  36.4647949  52.7031872  37.7693709  37.3890610  51.1823743  37.7681062
  36.8764901  53.4372572  35.1295277  36.6698975  53.3046165  34.0675352
  36.0386437  53.9511574  35.6007172  37.7818270  54.0318855  35.2515238
  39.5889720  51.9955299  35.3191308  40.3076514  51.7713952  36.3043884
  39.9574985  52.8491551  34.3538732  39.3877200  53.0093112  33.5354590
  41.2265934  53.5751021  34.4705092  41.4362059  53.9655468  35.4663580
  42.4301287  52.6576454  34.0251364  42.4610579  51.7843590  34.6766835
  42.2725354  52.1990423  32.5555686  42.2419918  53.0718262  31.9033292
  43.1174049  51.5685047  32.2785878  41.3470467  51.6333154  32.4482127
  43.7623002  53.3130428  34.2639735  43.8764100  53.5287983  35.3262968
  44.5600440  52.6437089  33.9419540  43.8174493  54.2423681  33.6970398
  41.1329558  54.8067339  33.5644568  40.3667795  54.8021404  32.6120080
  41.9009142  55.8303603  33.8898563  42.4348621  55.8044061  34.7467842
  42.0409997  56.9975831  33.0211400  41.0583823  57.3642778  32.7243283
  42.7741885  58.1129963  33.7652318  43.7661092  57.7348577  34.0126260
  42.8677484  58.9578000  33.0828439  42.0715834  58.5646688  35.0381764
  40.8550594  58.3274334  35.1840043  42.7898019  59.1750055  35.8873521
  42.8809189  56.6834341  31.7680226  43.8055716  55.8709312  31.7943183
  42.6154725  57.3585897  30.6454661  41.8161979  57.9696415  30.5567244
  43.5203477  57.2330428  29.5070089  43.8301501  56.1932912  29.4019454
  42.8269587  57.6820523  28.1854825  42.3388607  58.6338827  28.3949540
  43.6185575  57.8339805  27.4517324  41.7965633  56.6910049  27.6279742
  41.7255975  56.9072496  26.5619991  42.2318495  55.7017352  27.7693022
  40.1378751  56.7204789  28.3529332  39.4798969  58.2665677  27.6091171
  39.4837599  58.1779978  26.5227288  38.4598789  58.4318175  27.9560412
  40.1051983  59.1083051  27.9067368  44.6966819  58.1476589  29.7959802
  44.4661944  59.3534382  30.0716205  45.9455470  57.6208341  29.7415585
  46.3767556  56.2155336  29.6018423  45.9462687  55.7906034  28.6950812
  46.0397941  55.6432250  30.4661448  47.8802160  56.3235123  29.5340090
  48.1777506  56.1830371  28.4948560  48.3000641  55.5229256  30.1430163
  48.2973775  57.6420185  30.0391345  49.0693697  58.0081777  29.3623372
  48.6854516  57.6262518  31.0575890  47.0702447  58.5457001  29.9635923
  46.8771645  59.1170253  30.8715603  47.2404209  59.5115699  28.7768233
  46.6851210  59.2759477  27.7006332  48.0120409  60.5645525  29.0073556
  48.5002811  60.6160554  29.8900040  48.1745914  61.6900146  28.0428772
  47.2086302  62.1374583  27.8087570  49.0742588  62.7664630  28.6812921
  48.6410011  62.9744611  29.6596191  50.0512842  62.3003592  28.8088413
  49.2353942  64.1079703  27.8854715  49.1379164  63.9038489  26.8192007
  48.4301277  64.7703193  28.2031803  50.5999476  64.7873957  28.1579550
  50.9914035  64.9688646  29.3418466  51.2972498  65.1229156  27.1773200
  48.7822383  61.1417674  26.7794853  49.7546770  60.3946714  26.8426649
  48.1909422  61.4665771  25.6193820  47.3715467  62.0566174  25.5960866
  48.7199314  60.9731273  24.3603713  48.5081931  61.7264607  23.6015862
  49.7986165  60.8709290  24.4790857  48.1465164  59.6477816  23.9114516
  48.4183404  59.2150751  22.8049969  47.3357467  58.9955241  24.7488265
  47.1206733  59.3748532  25.6598436  46.7912226  57.6927814  24.3980262
  47.1380986  57.3960681  23.4082094  47.2532273  56.6450409  25.4122946
  47.0355857  57.0327293  26.4074977  46.7210058  55.7053469  25.2645933
  48.7022528  56.3866668  25.3135332  49.4488525  56.8037213  26.1820610
  49.1373372  55.7220334  24.2225346  50.1218724  55.5240458  24.1148724
  48.4764448  55.4256233  23.5186432  45.2780508  57.6798672  24.3101597
  44.5674913  58.3398054  25.0971494  44.7843523  56.8959307  23.3667349
  45.4208128  56.4040572  22.7559340  43.3783067  56.7321487  23.1554995
  42.8541709  57.6762055  23.3042869  43.1506244  56.2704562  21.7259315
  42.0786041  56.2460730  21.5302862  43.6272846  56.9778210  21.0473078
  43.7059847  54.9582554  21.5186225  43.5519663  54.6853098  20.6112202
  42.7464395  55.7183980  24.1184073  43.4871208  54.9831720  24.8409909
  41.4052947  55.6667051  24.1228011  40.8543690  56.3831083  23.6718612
  40.6930356  54.5617010  24.8152445  40.9495432  54.6165365  25.8732124
  39.1698856  54.5933804  24.6793379  38.9200892  54.6373146  23.6192573
  38.7671497  53.6762927  25.1092845  38.5756048  55.7777182  25.3822014
  38.9495297  55.7684738  26.4060156  38.9540569  56.6598037  24.8656762
  37.0600087  55.8133904  25.3983902  36.4073580  54.7301886  25.4161363
  36.5328721  56.9604641  25.4067985  41.1557488  53.2197669  24.2865487
  41.4421684  52.3165667  25.0740398  41.2462521  53.0914481  22.9625878
  40.9313425  53.8152885  22.3325192  41.7193078  51.8329977  22.3907121
  41.0903316  51.0089660  22.7275502  41.6605625  51.9003736  20.8503477
  42.0333285  52.8872400  20.5760495  42.3144933  51.1359740  20.4306241
  40.2195217  51.7156292  20.2889968  39.2975768  51.1924214  20.9943593
  40.0210107  52.0753291  19.0824859  43.1268600  51.4453986  22.8689523
  43.3781280  50.2452504  23.2150374  44.0452225  52.4121557  22.8886747
  43.8015234  53.3693539  22.6777679  45.4265040  52.1211562  23.3290685
  45.8775514  51.4080614  22.6390313  46.2819707  53.3657257  23.3646155
  45.6873208  54.1134922  23.8893401  47.1874036  53.1570145  23.9344671
  46.6662939  53.9023889  21.9639287  46.5755752  53.1574624  20.9458282
  47.0995657  55.0891428  21.9691794  45.3810286  51.6370124  24.7795245
  46.1038389  50.6791430  25.1642212  44.5471343  52.3186768  25.5729569
  43.9417777  53.0320924  25.1925875  44.5380373  52.0948952  27.0567909
  45.5710160  52.1148840  27.4041445  43.7668075  53.2428120  27.7382867
  42.7167309  53.2005739  27.4490547  43.8852234  53.0943172  29.2797172
  44.9350574  53.1369278  29.5697732  43.3412766  53.9040344  29.7661112
  43.4625633  52.1376215  29.5866248  44.4162851  54.4899772  27.3536674
  43.9589569  55.2283084  27.7627129  43.9443797  50.7640445  27.3867305
  44.5548143  49.9640208  28.1820881  42.7907558  50.4862051  26.7774333
  42.2327083  51.1977696  26.3275907  42.2253381  49.1391570  26.9094534
  42.1692785  48.8829159  27.9674217  40.8183399  49.0333222  26.3037472
  40.8705514  49.3732283  25.2694179  40.5198459  47.9852385  26.3265957
  39.7763258  49.8840937  27.0750679  39.6949480  49.4648014  28.0779001
  40.1693065  50.8989059  27.1369087  38.3808225  49.9122525  26.4145024
  37.7640270  50.6730738  26.8928467  38.4818780  50.1413641  25.3536560
  37.7242418  48.6294002  26.5514425  38.1574844  47.9627189  27.1742878
  36.6087236  48.2757476  25.9199346  36.0171074  49.1119841  25.0670227
  36.4184547  50.0231972  24.8975790  35.1701947  48.8305685  24.5941129
  36.0799107  47.0781228  26.1455859  36.5274921  46.4458023  26.7936150
  35.2327251  46.8054384  25.6680729  43.1530362  48.0484807  26.3815224
  43.2468603  46.9802896  26.9836734  43.8481443  48.2728030  25.2721035
  43.7704722  49.1265378  24.7380592  44.7433327  47.2221071  24.7770462
  44.1710363  46.3057943  24.6323158  45.4017602  47.6092220  23.4362269
  45.7733374  48.6292014  23.5345711  46.2400640  46.9317790  23.2736913
  44.4462395  47.5287615  22.2502680  43.8689435  46.6043236  22.2659050
  43.7665730  48.3806147  22.2278726  45.4870903  47.5569301  20.7642663
  47.1542678  47.8687547  21.4380755  47.4252649  47.0664519  22.1243479
  47.8754150  47.9068841  20.6216238  47.1592619  48.8194328  21.9712615
  45.8545374  46.8892761  25.7589763  46.2087903  45.7230154  25.9312806
  46.4715465  47.9347490  26.3145671  46.2205095  48.8646152  26.0105463
  47.5314054  47.7936969  27.3253155  48.3622166  47.2244919  26.9083530
  48.0615919  49.1967621  27.7742169  48.4973204  49.6738618  26.8963697
  47.2861795  49.8403941  28.1896366  49.1637741  49.1155168  28.8168696
  50.4825588  48.9802602  28.4289293  50.7142961  48.9727710  27.3638746
  51.5241222  48.8528733  29.3817248  52.5592512  48.7581498  29.0536455
  51.2250773  48.8490425  30.7244171  52.0258318  48.7723364  31.4599498
  49.8900163  48.9438078  31.1476354  49.6528173  48.9003483  32.2106255
  48.8569493  49.0949389  30.2005864  47.8236664  49.1958016  30.5326303
  46.9932597  47.0109357  28.5576117  47.5228508  45.9360624  28.8928574
  45.9306223  47.5187573  29.2012567  45.5154964  48.3947158  28.9175904
  45.4016816  46.8502096  30.4163035  46.2361952  46.7331532  31.1076673
  44.3040142  47.7235319  31.1024233  43.4577698  47.8421069  30.4257326
  43.9706075  47.2355152  32.0182726  44.7163585  48.7034553  31.3428847
  44.8679021  45.4334047  30.1032707  45.0968372  44.4699424  30.9139569
  44.1877654  45.2786548  28.9636342  43.9883627  46.0708169  28.3696501
  43.6664434  43.9368735  28.5553739  42.9994597  43.5535359  29.3275683
  42.8802098  44.0306214  27.2241486  43.4985830  44.5737768  26.5095186
  42.7353298  43.0082333  26.8751038  41.5257350  44.7207644  27.3517327
  41.0552870  45.0862660  28.4632876  40.9408421  44.8997662  26.2517878
  44.7771153  42.8895873  28.3882073  44.6398550  41.7080626  28.8369421
  45.9145142  43.2953714  27.8014502  46.0043431  44.2280568  27.4244515
  47.0338939  42.3829010  27.6544546  46.7510192  41.5243954  27.0453165
  48.2186853  43.1044359  26.9714768  48.4664968  43.9884780  27.5589793
  49.4594316  42.1933066  26.8655466  49.2125069  41.3092133  26.2777484
  50.2697876  42.7370906  26.3800351  49.7737329  41.8890596  27.8639197
  47.7774243  43.4891942  25.6681231  48.4890503  43.9425625  25.2102520
  47.4547490  41.8409733  29.0133636  47.6533448  40.5994962  29.1881870
  47.5735793  42.7418012  29.9949880  47.4363793  43.7284895  29.8284900
  48.0118419  42.3086168  31.3514729  48.8719955  41.6445129  31.2666137
  48.4056492  43.5283958  32.2701784  47.5826359  44.2430596  32.2682009
  48.6959598  43.0649940  33.7506596  49.5192199  42.3506162  33.7534961
  48.9643472  43.9302819  34.3567500  47.8050970  42.5935810  34.1656715
  49.6375473  44.2018779  31.6980062  49.4232649  44.5563319  30.6897665
  49.9161305  45.0466169  32.3280118  50.4601861  43.4875746  31.6642862
  46.9345998  41.4497302  32.0303678  47.2401057  40.3484530  32.5714524
  45.7044626  41.9665367  32.0743061  45.5082869  42.8728149  31.6739634
  44.6175397  41.2705242  32.8055682  44.9655032  41.0824241  33.8212645
  43.3030428  42.1260975  32.8759545  42.9968209  42.4011862  31.8666708
  42.1757931  41.3019538  33.5513584  42.4811180  41.0268736  34.5609170
  41.2657073  41.9000210  33.5978317  41.9873053  40.3990111  32.9706102
  43.5430610  43.3938142  33.7265140  44.3354263  43.9905218  33.2746299
  42.6261914  43.9816425  33.7701908  43.8371027  43.1047131  34.7355040
  44.3444874  39.8961968  32.1904677  44.1926666  38.8816630  32.9055632
  44.3567600  39.8104572  30.8674926  44.5117659  40.5940677  30.2494092
  44.0391654  38.5075389  30.2725593  43.1367809  38.1122621  30.7389900
  43.8002460  38.6144737  28.7397695  44.6517012  39.1519699  28.3223716
  43.7863467  37.5971070  28.3487812  42.4968916  39.3331595  28.3458049
  41.6712420  38.7649487  28.7742206  42.5257101  40.3259072  28.7949414
  42.2886111  39.4679873  26.7777556  41.9953747  38.4928132  26.3889796
  41.4864612  40.1847758  26.6020594  43.5474748  39.9354751  26.0722973
  43.6656992  41.0017741  26.2649887  44.3927917  39.3941058  26.4971006
  43.4944322  39.6957249  24.5778792  42.7114643  40.1976310  24.1839869
  44.3511447  40.0219815  24.1539683  43.3853146  38.7076807  24.3991027
  45.1250623  37.4603718  30.5565680  44.8040606  36.2864359  30.7675812
  46.3998903  37.8679816  30.5200616  46.6458977  38.8158148  30.2726915
  47.4621955  36.9443689  30.8259506  47.3931511  36.0610930  30.1910051
  48.8149003  37.6273736  30.5716212  48.7034129  38.0101937  29.5571664
  48.9615726  38.4600409  31.2595546  50.0419534  36.6831015  30.6350635
  50.0728726  36.2282168  31.6251265  49.9713360  35.5873250  29.5737864
  49.9408526  36.0414592  28.5833664  50.8501314  34.9473155  29.6525727
  49.0725462  34.9899519  29.7268310  51.3331199  37.4969180  30.5348844
  51.3822002  38.2047436  31.3623343  52.1907310  36.8256914  30.5802638
  51.3478737  38.0411025  29.5905621  47.3507540  36.5163486  32.3035291
  47.5747528  35.3329823  32.6538285  47.0564598  37.4734074  33.1742835
  46.8847964  38.4257023  32.8848609  46.9866239  37.1512204  34.6382137
  47.9312924  36.7205607  34.9702270  46.7199417  38.4169204  35.4414385
  45.9204385  38.9575955  34.9349166  46.4001300  38.1582189  36.4508413
  47.9637087  39.3441522  35.5368157  49.0546797  38.9436045  35.2461049
  47.7505405  40.5719966  35.9873336  48.5229488  41.2174806  36.0700118
  46.8166419  40.8566900  36.2459527  45.8595230  36.1372825  34.8692167
  46.0238091  35.1949631  35.6740311  44.7067698  36.3490099  34.2150573
  44.5277621  37.1825555  33.6735250  43.5973271  35.3781567  34.4013290
  43.4814252  35.2063027  35.4714375  42.2430936  35.8380690  33.8268499
  42.4365791  36.0668584  32.7788432  41.5140170  35.0305224  33.8933035
  41.6845510  37.0968928  34.5350629  42.4390499  37.8824977  34.5757715
  40.4941170  37.5787989  33.7167950  39.7389454  36.7938452  33.6760221
  40.0685947  38.4678106  34.1822945  40.8215037  37.8201723  32.7055298
  41.3047787  36.7830045  36.0011305  42.1880269  36.4409356  36.5405385
  40.9151423  37.6830455  36.4767469  40.5431415  36.0035038  36.0207896
  43.9776946  34.0076301  33.8447113  43.6100357  32.9433840  34.4355946
  44.7116979  33.9927482  32.7250704  44.9378751  34.8425474  32.2282962
  45.1530601  32.7036341  32.1473421  44.2917903  32.0448051  32.0366268
  45.8008748  32.8967514  30.7740680  46.3489646  33.8389136  30.7792861
  46.4947098  32.0743424  30.5998943  44.7768553  32.9227341  29.6865304
  44.6048941  31.8785252  29.4254597  43.8392725  33.3750607  30.0097044
  45.2744743  33.6641135  28.4396010  46.4743009  33.9864981  28.3233674
  44.3430226  34.0115128  27.5559645  44.6080910  34.5023006  26.7139624
  43.3749307  33.7829270  27.7310302  46.1141445  32.0159514  33.1082450
  46.0290436  30.7756543  33.3094092  46.9966249  32.7883185  33.7446083
  47.1008264  33.7680048  33.5222208  47.9466202  32.1807926  34.7110716
  48.3316149  31.2509567  34.2924030  49.1441562  33.1176289  35.0228846
  49.7162938  33.2674592  34.1072926  48.7556854  34.0755043  35.3688113
  50.0689585  32.5058610  36.1189524  49.4273507  32.1987933  36.9448759
  50.5447490  31.6273499  35.6831271  51.1575412  33.4753276  36.6439260
  51.8567326  33.6504399  35.8262671  50.6607535  34.4103016  36.9030110
  51.9416792  32.9328241  37.8977436  51.2346542  32.8770779  38.7254564
  52.2940291  31.9306941  37.6534400  53.1416348  33.8148521  38.3048886
  52.8153017  34.7433742  38.5317212  53.5974472  33.4118715  39.1110782
  53.7971054  33.8662893  37.5381999  47.2153758  31.7378754  35.9884890
  47.5033296  30.6650274  36.5431642  46.2158124  32.4928016  36.4250132
  46.0289222  33.4037511  36.0308782  45.3715613  32.0275875  37.5490443
  45.9865153  31.9102517  38.4413240  44.2541165  33.0313159  37.8529547
  44.8080863  33.9138411  38.1729016  43.6912135  33.2642334  36.9490799
  43.2791164  32.6036443  38.9697585  42.7583329  31.7003426  38.6520616
  44.0503774  32.3194943  40.3180675  44.5710671  33.2225334  40.6366605
  43.3391926  32.0200317  41.0878981  44.7740106  31.5194979  40.1616668
  42.1781949  33.6466531  39.1408794  41.6256585  33.7490678  38.2069018
  41.4980333  33.3313107  39.9321068  42.6234866  34.6055667  39.4060190
  44.7721688  30.6492959  37.2128673  44.7616721  29.7517197  38.0729538
  44.2330523  30.5072712  36.0136624  44.1662942  31.2767720  35.3628849
  43.6351986  29.2241781  35.6358093  42.8482446  29.0074060  36.3581752
  43.0158088  29.2989015  34.2511874  43.7929962  29.5063930  33.5156420
  42.5371110  28.3485619  34.0149605  42.2721357  30.0954572  34.2277664
  44.6614293  28.0654148  35.7057240  44.3481185  26.9759052  36.2503360
  45.8648199  28.3097290  35.1705282  46.0215555  29.1833044  34.6884500
  46.9499561  27.2949185  35.1601265  46.6150592  26.3794263  34.6724615
  48.1696439  27.8555891  34.3791949  48.4227548  28.8279382  34.8017732
  49.4181036  26.9089201  34.4616113  49.1658827  25.9364560  34.0387665
  50.2436932  27.3457615  33.8997656  49.7133087  26.7859274  35.5036417
  47.7552162  27.9937390  33.0094617  48.4834051  28.3395439  32.4881555
  47.3094963  26.8528675  36.5683622  47.3437030  25.6332380  36.8674271
  47.5398285  27.8398521  37.4398171  47.4749994  28.7976323  37.1258846
  47.9500048  27.5925407  38.7998195  48.7917024  26.9087442  38.9096680
  48.2894925  28.9189527  39.5320799  47.4928492  29.6330816  39.3235648
  48.4260858  28.7259516  41.0857487  49.2229040  28.0122549  41.2950780
  48.6638919  29.6822271  41.5516735  47.4863329  28.3493183  41.4896221
  49.5152312  29.5696958  38.9054834  49.3166154  29.7840475  37.8553847
  49.7416217  30.4986191  39.4288843  50.3661483  28.8929143  38.9829923
  46.8647097  26.8205312  39.5414642  47.1695869  25.7639987  40.1765036
  45.6104312  27.2884467  39.4658497  45.4162118  28.1550594  38.9848501
  44.5085825  26.6246843  40.1790243  44.8398481  26.5414148  41.2141226
  43.2206551  27.4548276  40.1422267  42.8715644  27.5394046  39.1131094
  42.4556445  26.9664978  40.7458764  43.4175423  28.4497777  40.5414874
  44.2514216  25.1834461  39.6615015  44.0070685  24.2545982  40.4574532
  44.3258571  25.0134848  38.3457700  44.4392740  25.8163845  37.7436172
  44.1084996  23.6959696  37.7205471  43.1945176  23.2522984  38.1153786
  43.9740449  23.8223215  36.2005280  44.7462863  24.4919247  35.8218804
  44.0893028  22.8398857  35.7426680  42.5923532  24.3884258  35.8536390
  41.8519023  23.6231335  36.0863644  42.4533313  25.2416030  36.5176124
  42.4275671  24.8202764  34.4627186  43.4000401  24.6650953  33.6914961
  41.3240509  25.2951780  34.0987867  45.2211266  22.7074403  38.1570980
  44.9442397  21.5533809  38.5200712  46.4568358  23.1698524  38.1888296
  46.6930688  24.0753811  37.8089466  47.5349604  22.3294937  38.6921939
  47.4982945  21.3846175  38.1500096  48.8617712  22.9744086  38.4400256
  48.9171352  23.9174881  38.9837496  49.6584497  22.3125224  38.7795992
  48.9774169  23.1635745  37.3728135  47.3486426  21.9991779  40.1872187
  47.5557150  20.8474970  40.6072070  46.9737308  22.9922760  40.9988462
  46.9545168  23.9478329  40.6722867  46.6730250  22.7346264  42.4058994
  47.5299549  22.2428014  42.8662019  46.3755187  24.0129989  43.1746672
  45.6551212  24.5964577  42.6013415  45.9388293  23.7399974  44.1353298
  47.6076300  24.8272799  43.4014228  48.2867131  24.2707955  44.0473889
  48.0907540  25.0142556  42.4423955  47.2067558  26.4030396  44.1802857
  46.7279059  25.9345163  45.8566546  47.5614616  25.4304116  46.3456969
  46.4618357  26.8275976  46.4220863  45.8708842  25.2622477  45.8157872
  45.5292806  21.7528376  42.5862721  45.5945993  20.9169997  43.4943732
  44.5230438  21.8260748  41.7108449  44.5268945  22.5715245  41.0293837
  43.3643107  20.9386081  41.7596134  42.9704506  21.0102895  42.7734355
  42.2758176  21.3857582  40.7788337  42.6522331  21.3108747  39.7586357
  41.4003924  20.7460108  40.8904322  41.9992210  22.4190062  40.9885765
  43.7419766  19.4591760  41.5162020  43.1626180  18.5706040  42.1471834
  44.6810576  19.2109551  40.6073076  45.0353823  19.9713129  40.0448048
  45.1842552  17.8318835  40.3316075  44.3183583  17.1751293  40.2479679
  45.9529630  17.8024413  39.0019009  45.3054952  18.1558653  38.1994197
  46.8280533  18.4483843  39.0731382  46.3983512  16.3747288  38.7037555
  47.0462721  16.0207565  39.5056301  45.5237150  15.7282370  38.6319088
  47.1614583  16.3455007  37.3837410  46.5139921  16.6989262  36.5812594
  48.0365491  16.9914424  37.4549801  47.6104412  14.9726859  37.0609485
  47.3842503  14.2278349  37.7044810  48.2981684  14.6750431  35.9621580
  48.6333722  15.6008668  35.0680722  48.3635048  16.5627921  35.2162990
  49.1562505  15.3377560  34.2449862  48.6514768  13.4071651  35.7709524
  48.3953318  12.7065622  36.4518675  49.1743013  13.1507694  34.9457164
  46.0749548  17.2864779  41.4737953  46.1679754  16.0640802  41.6865510
  46.7336230  18.1963341  42.1992585  46.5944917  19.1684402  41.9631409
  47.7665636  17.8601838  43.1950711  48.2953775  16.9537433  42.9004175
  48.7886191  19.0206748  43.2908258  49.6851852  18.7390324  42.7386067
  48.3412919  19.9020074  42.8312050  49.1895399  19.3690505  44.7340946
  49.6064765  18.5040482  45.5033312  49.0651499  20.6586057  45.0959378
  49.3142768  20.9434526  46.0323660  48.7231896  21.3361768  44.4295585
  47.2200030  17.4294291  44.5638611  46.1211737  17.8306392  44.9743041
  47.8287391  16.6106128  45.2490032  49.8912837  46.5038203  37.4427843
  50.9858560  47.2928092  37.0620587  52.0819711  47.6022195  37.8182267
  52.8946563  48.3848996  37.0666320  52.3454913  48.5961696  35.8247320
  51.1101144  47.8953954  35.8084723  50.0887582  47.7144230  34.8551678
  48.9747426  46.9343216  35.1938105  47.8953328  46.7200303  34.2426597
  46.8426573  45.9731996  34.5894538  46.7214583  45.3452346  35.9150162
  45.7394537  44.6701471  36.1977827  47.7633392  45.5636369  36.8013003
  48.8949931  46.3515414  36.4612415  49.6747216  45.8675368  38.6525810
  50.7162529  45.0137524  39.1254383  52.4031904  43.9178013  36.6969485
  51.2573845  43.2156972  37.3723385  50.9225206  41.8701584  36.7822287
  50.5564870  43.6967663  38.4189693  53.8074885  48.7074460  37.5472101
  52.7802886  49.1841196  35.0295269  50.1736789  48.1780285  33.8767449
  47.9577189  47.1711133  33.2584589  46.0206070  45.7923514  33.9075643
  50.5605976  44.8609702  40.1990006  51.7087882  45.4557504  39.0177471
  52.1273910  44.1871152  35.6722560  52.7165962  44.8274387  37.2116160
  53.2766365  43.2580428  36.6566407  50.0802974  41.3893681  37.2913815
  50.6544329  41.9773992  35.7253056  51.7836253  41.1969747  36.8567096
  49.7314807  43.1012822  38.8078812  38.8229128  61.5258540  35.3298380
  44.0630626  15.2159431  46.2636099  33.0850667  55.3170172  26.2491727
  53.2288144  48.6697633  52.3979859  27.4533004  28.6828099  55.1584926
  34.1498825  35.8769214  82.0687111  45.4959137  80.7452635  55.2214249
  23.6504468  25.9976529  25.4961041  49.3741566  27.6873725  67.2094167
  26.2690988  72.9808290  14.9942642  57.0842448  16.7094680  40.8753800
  20.4332985  23.9320245  48.6934152  69.4502389  71.2522218  38.1807825
  57.0509879  57.8332677  23.3689403  68.2233696  73.4522718  37.0670893
  31.5218742  52.9624569  78.0545761  54.3932153  19.5614905  34.3417133
   1.5059757  30.0550800  31.4153711  36.1596381  -1.8413197  37.2316587
  39.1888002  69.6358142  59.1416249  76.0755911  39.2173174  62.2653262
   2.8520085  49.8434160  23.4541660  40.9803182  64.0309734  44.8969588
  68.0904888  70.4708983  48.6995926  73.0998511  17.4496859  48.2708997
  24.0716072  32.9540114  72.5843981  19.2299479  32.2636636  74.1294263
  60.2486257  48.1159495  68.3811689  60.9081883  21.6516138  17.5012922
  26.4923806  72.8229448  41.3997188  15.7139607  15.8039684  41.1322461
   6.4498125  42.5314525  57.8469886   4.3225820  41.9437674  14.9942642
  26.5593532  68.0603203  44.9904071  59.3857157  34.6314600  12.4794197
   2.5712494  26.5228717  23.0954764   3.0093823  36.3150558  59.5603084
  22.4439374  38.0082097   7.2980378   6.0959727  25.2981269  31.0207292
  45.0588589  25.9389736   3.3507814   9.5553029  22.8801802  54.9428249
  33.0307198  61.0422319  67.2776719  24.8072906  54.5211489  74.8315833
  15.3894898   9.2348452  46.2156367  60.2205641  15.2621199  19.4069450
  57.7397043  59.1209270  31.3536665   3.6557567  62.2123554  40.1299416
   4.1742031  40.5973645  11.6086370  56.4773309  63.1565503  22.1294924
   7.1661088  67.8514448  27.7109488  21.0053134  16.5817255  54.6995803
  14.2410777  21.1871745  51.4999220  66.9417144  63.2635751  27.6702710
  26.1593818  10.2183152  34.9040497  56.8934480  65.1574830  27.9157133
  21.2077546  63.7277926  31.9089316  37.3693402  37.1387091  71.6693256
  42.2981795  31.7490151  62.0328745  72.0581158  33.7971973  18.7556996
  46.8538409  41.0764120   3.6102895  11.2164922  23.8512950  37.4228741
  44.5912621  38.1202458  85.7350598  44.0624093  38.3362092  86.3947905
  45.1137641  38.8138597  85.6551568  44.5901074  38.2545595  85.8206198
  36.4812229  42.0165675  84.5358066  35.8969444  42.5215706  84.9423930
  36.0782324  41.7908062  83.7954658  36.3351533  42.0573923  84.4863092
  40.9389443  38.2631327  83.0126987  41.1785447  38.4709311  82.2002330
  41.2605284  37.4588836  83.1215931  41.0226601  38.1745428  82.9087540
  41.3246143  44.3799168  82.4448919  41.7397292  44.0484192  81.7533415
  40.4938073  44.1468071  82.3169056  41.2634152  44.2970424  82.3239767
  44.0179533  40.6309728  81.6310121  43.9359696  40.7011915  82.4965108
  44.6559254  41.1939472  81.4393861  44.0999371  40.7248699  81.7300070
  41.1219644  40.6530182  84.6418727  41.9360282  40.9445075  84.5301498
  41.0578785  39.9990044  84.0677020  41.2322383  40.5995377  84.5407564
  37.6330367  39.3453989  84.1065928  38.0175520  39.1261696  84.8582474
  37.3841987  40.1716935  84.2367005  37.6532439  39.4352136  84.2367005
  42.5595666  43.8691982  79.9834532  43.3268651  43.9292107  79.5740384
  42.1126975  43.2972424  79.4990851  42.6069093  43.7928558  79.8512243
  38.6070266  40.1410748  81.4471642  38.8962791  40.9175631  81.7215217
  38.6942065  39.6299480  82.1486142  38.6624522  40.1802667  81.5914140
  43.4001885  35.5344012  85.7025329  42.8724904  35.6172756  85.0131038
  43.8597593  36.2761883  85.6989974  43.3903736  35.6564674  85.6000024
  35.3934950  33.8046531  80.7266224  35.0447755  34.4566256  81.1897774
  34.9131396  33.7903644  79.9990096  35.2705194  33.8989585  80.6877316
  35.7959081  37.2972173  83.5684846  36.4304161  37.8932598  83.5034308
  35.8784692  36.9975630  84.3830716  35.9015632  37.3413081  83.6787932
  40.4349175  35.1694272  85.0420952  39.8414015  35.4911268  84.4905519
  40.4724453  34.3235367  84.8342058  40.3523564  35.0918600  84.9303723
  38.4078408  35.8091522  83.1350282  38.7877372  35.8271152  82.3501396
  37.6671004  36.2545511  83.0141129  38.3547245  35.8773297  83.0013850
  39.2063162  42.6469029  84.5259072  38.3974484  42.3235702  84.4792381
  39.7138071  41.9402251  84.4587320  39.1612828  42.4950345  84.5089366
  47.8099132  15.1335849  74.5860310  47.7793136  15.9880486  74.7578580
  48.4080481  14.8331142  75.1446454  47.8936290  15.2152345  74.6935113
  35.3939956  23.7574218  75.1050472  34.6422856  23.3789756  74.8766517
  35.8425968  23.7892651  74.3569283  35.3489623  23.7059825  74.9607975
  40.8464916  24.1799587  70.5336019  40.5116285  24.8576509  70.0980242
  41.3591787  23.7904899  69.9452891  40.8730497  24.2224166  70.3822811
  40.3869208  26.1313856  76.4747131  40.7708587  26.7000755  75.9351906
  40.3228349  25.4063366  75.9952947  40.4342635  26.1089319  76.3240994
  45.6315706  17.7088151  72.8578620  45.5155232  18.4595837  73.2870758
  46.4271593  17.4512104  73.1074707  45.7320296  17.7822998  72.9582712
  36.8125452  28.6870199  78.7728101  37.4562908  29.1283363  79.1624259
  37.1381708  27.8823625  78.6858360  36.9557281  28.6335394  78.8173578
  37.5146032  21.6982174  74.1447963  37.8361873  22.2387381  73.5409271
  38.1618128  21.1278945  74.2770252  37.6572087  21.6941349  74.0754998
  39.7535675  20.0868614  74.2162141  40.1929311  19.4785714  74.6616914
  39.6040338  19.7075987  73.4447606  39.7957141  19.9407085  74.1681308
  43.3545012  18.4395795  71.1692910  43.2696307  19.2956762  71.3142479
  43.8429395  18.1640119  71.8375069  43.4133909  18.5253117  71.2894992
  44.2863445  15.0580589  72.6690645  43.7574917  15.2740223  73.3287951
  44.8088465  15.7516728  72.5891615  44.2851898  15.1923726  72.7546244
  49.7411498  20.6326894  78.0423690  48.9109201  20.8437538  78.2057106
  49.6920750  19.8063948  77.7665973  49.6118233  20.5416500  78.0261055
  36.1763053  18.9543806  71.4698113  35.5920268  19.4593838  71.8763977
  35.7733148  18.7286193  70.7294705  36.0302357  18.9952054  71.4203138
  40.6340267  15.2009458  69.9467034  40.8736271  15.4087442  69.1342377
  40.9556108  14.3966967  70.0555978  40.7177425  15.1123559  69.8427587
  46.9975813  21.3026248  78.1788405  46.5611045  21.3062991  78.9347377
  46.6638729  21.9831747  77.7467983  46.8838433  21.4038704  78.2269238
  50.1320159  18.0207168  77.0708043  50.7936594  17.4597837  76.9703951
  49.4911571  17.5259199  77.3960734  50.1349027  17.8643577  77.1040383
  41.0196967  21.3177300  69.3788966  41.4348116  20.9862323  68.6873462
  40.1888897  21.0846202  69.2509103  40.9584976  21.2348556  69.2579813
  46.4184990  19.0372551  76.8120031  46.6540579  19.1817749  75.9846882
  46.5674554  19.8014959  77.2051545  46.4750793  19.1711605  76.7483635
  48.2475447  17.8774217  74.6489635  48.5783664  18.4101857  74.0429730
  48.8208535  17.9313104  75.3051586  48.3809126  17.9643785  74.6567417
  43.7130357  17.5687859  68.5650167  43.6310520  17.6390046  69.4305154
  44.3510078  18.1317603  68.3733908  43.7950195  17.6626830  68.6640117
  40.8170468  17.5908313  71.5758774  41.6311106  17.8823206  71.4641545
  40.7529609  16.9368176  71.0017067  40.9273207  17.5373508  71.4747611
  37.3281191  16.2832121  71.0405975  37.7126344  16.0639827  71.7922520
  37.0792811  17.1095066  71.1707052  37.3483263  16.3730267  71.1707052
  37.6104433  24.5036996  73.1138346  37.9002732  24.1125978  72.3897572
  38.3407914  24.6853701  73.5543621  37.7611318  24.4730810  73.0721153
  35.5510349  26.4804379  76.1798495  35.3310644  26.1901734  76.9725162
  35.3304871  25.8219334  75.6516408  35.4857943  26.3404087  76.2187404
  37.7178305  27.8533769  74.9629188  38.3702363  27.3210211  75.1920214
  37.0203913  27.5002421  75.3497062  37.7109023  27.7223292  75.0541355
  45.7118223  20.1738183  74.3060167  46.2776256  20.8331393  74.2218710
  45.0646127  20.5187881  74.7776569  45.6996980  20.3220124  74.3632923
  42.1824801  23.1176967  73.7297246  41.9411477  22.3844828  73.3224311
  42.3626134  23.6663824  73.0763579  42.1732425  23.0899358  73.5727469
  46.9080921  20.2244410  71.0985803  46.5287730  19.4381548  71.0915093
  46.2447166  20.7731268  70.9557448  46.7539396  20.1889234  71.0766600
  39.7327829  23.7757930  74.9374630  40.4977720  23.5067573  74.6157294
  39.6305919  23.2907940  75.6544692  39.8309325  23.6647494  74.9954457
  42.2546490  20.8070113  66.9174579  43.0219475  20.8670238  66.5080431
  41.8077799  20.2350555  66.4330898  42.3019917  20.7306689  66.7852289
  45.1541020  22.4689902  71.4337489  45.2360857  23.2756888  71.1098940
  45.6390762  22.4885861  72.1578263  45.2378178  22.5910564  71.4924388
  40.7899113  17.0184672  74.4028903  41.3314658  16.5155054  74.8667524
  41.1045672  16.9649867  73.5918388  40.9163510  16.9364093  74.3512715
  38.9585562  22.4102024  71.6868931  39.0278383  21.5516562  71.8261931
  39.7374018  22.6273905  71.3587956  39.0838412  22.3154888  71.6586088
  43.3493050  24.8339725  75.9005424  42.9572842  24.5306440  75.1828290
  43.5046122  25.6708815  75.7110378  43.3146640  24.9123562  75.7661921
  43.5132725  21.3989714  75.8411455  43.1547379  21.5704357  76.6175487
  43.0271435  21.8602920  75.2839453  43.3891422  21.4928685  75.8736724
  38.3021090  17.0788880  68.3811689  38.5913615  17.8553762  68.6555264
  38.3892889  16.5677611  69.0826189  38.3575346  17.1180798  68.5254187
  44.1183355  24.2375218  79.3335459  43.9203044  24.7266032  78.6391670
  43.4971066  24.4416459  79.9119592  43.9970920  24.3391756  79.3158682
  43.0952709  12.4722143  72.6365376  42.5675728  12.5550887  71.9471085
  43.5548417  13.2140014  72.6330021  43.0854560  12.5942805  72.5340071
  35.0885774  10.7424662  67.6606271  34.7398579  11.3944388  68.1237821
  34.6082220  10.7281775  66.9330142  34.9656018  10.8367716  67.6217363
  42.6489792  21.0425706  71.7675033  43.3723990  21.5083819  71.6239606
  42.2090383  21.1099316  71.0172630  42.6905484  21.1209543  71.6359815
  42.9093641  25.1046411  71.9273094  42.1922951  24.9307273  71.4620332
  43.5600379  24.8698983  71.3948580  42.8995492  25.0442204  71.7802312
  38.1906803  26.3408170  78.3563242  37.7767202  25.6782300  77.9667084
  38.8754177  26.4886029  77.8358936  38.2305175  26.2648828  78.2219739
  41.5572097  25.4998255  79.1086859  41.1588380  25.6100525  78.3407679
  40.9423317  25.7080321  79.6913419  41.4070987  25.5471823  79.0818158
  49.2913940  20.0750222  72.4929949  49.6747546  20.8241578  72.7228046
  48.4958053  20.3216042  72.2341939  49.2307722  20.2219916  72.4887523
  38.1029232  12.7469654  70.0690328  38.4828196  12.7649283  69.2841443
  37.3621828  13.1923642  69.9481176  38.0498069  12.8151428  69.9353897
  38.9013986  19.5847160  71.4599118  38.0925308  19.2613833  71.4132428
  39.4088894  18.8780382  71.3927367  38.8563652  19.4328476  71.4429413
  58.7831715  30.6521157  74.5860310  58.7525720  31.5065794  74.7578580
  59.3813064  30.3516449  75.1446454  58.8668873  30.7337653  74.6935113
  51.9831400  29.7396808  79.3413241  51.1269296  29.9005306  79.3922358
  52.0299054  28.8688872  79.3618302  51.8630512  29.6347610  79.3519307
  46.3672540  39.2759526  75.1050472  45.6155440  38.8975064  74.8766517
  46.8158552  39.3077959  74.3569283  46.3222207  39.2245133  74.9607975
  51.8197500  39.6984895  70.5336019  51.4848868  40.3761817  70.0980242
  52.3324370  39.3090207  69.9452891  51.8463081  39.7409473  70.3822811
  51.3601791  41.6499164  76.4747131  51.7441170  42.2186063  75.9351906
  51.2960932  40.9248674  75.9952947  51.4075218  41.6274627  76.3240994
  54.8283221  31.7988852  81.9844892  55.3739181  32.4773938  82.0438862
  54.7700098  31.6576313  81.1246474  54.8999136  31.8780853  81.8656953
  47.9457296  39.2877918  77.3713245  48.0467659  38.4778272  77.6810373
  47.3499041  39.1934864  76.7412923  47.8729835  39.1542946  77.3239483
  56.6048290  33.2273459  72.8578620  56.4887816  33.9781145  73.2870758
  57.4004177  32.9697412  73.1074707  56.7052879  33.3008306  72.9582712
  47.7858036  44.2055507  78.7728101  48.4295491  44.6468671  79.1624259
  48.1114291  43.4008933  78.6858360  47.9289864  44.1520702  78.8173578
  41.1422340  35.3098204  76.9965579  40.9072525  34.4765857  76.8897847
  41.2807981  35.5902870  76.1826779  41.1278003  35.2281708  76.8607934
  43.4412428  27.4783935  79.8949886  42.8217460  26.8876582  79.7259901
  43.3396291  28.0695370  79.2614209  43.3350103  27.4788018  79.7754876
  48.4878615  37.2167482  74.1447963  48.8094457  37.7572689  73.5409271
  49.1350712  36.6464253  74.2770252  48.6304671  37.2126657  74.0754998
  50.5380324  29.2183477  74.2282349  51.2360488  29.3971604  74.7203813
  50.8532656  28.6953816  73.6052739  50.6875661  29.1677249  74.2084359
  43.1681561  31.0236217  82.1393455  43.0440258  31.6098662  82.7743274
  43.8199845  30.5296412  82.4405730  43.2455210  31.0375021  82.2779385
  50.7268259  35.6053922  74.2162141  51.1661894  34.9971022  74.6616914
  50.5772922  35.2261295  73.4447606  50.7689725  35.4592393  74.1681308
  48.1939902  34.1997934  81.4180966  48.8388904  33.7070377  81.0991915
  48.4341679  34.3422720  82.2447045  48.3250487  34.1475376  81.4930500
  50.7325993  37.0452840  81.0687859  51.0149236  36.2504245  80.8474615
  51.4612154  37.5233427  81.0892920  50.8815557  36.9987437  81.0390874
  48.7107187  24.5875874  78.3103624  48.3810517  25.0387017  77.6407323
  48.0352189  24.5092037  78.8576630  48.5617623  24.6427009  78.2926847
  54.3277595  33.9581103  71.1692910  54.2428891  34.8142070  71.3142479
  54.8161979  33.6825427  71.8375069  54.3866493  34.0438425  71.2894992
  55.9183595  20.5761396  76.5553235  55.6037036  21.2664875  76.9873657
  55.4010537  20.5206179  75.8538735  55.7948065  20.6696285  76.5150184
  55.2596029  30.5765897  72.6690645  54.7307500  30.7925531  73.3287951
  55.7821049  31.2702036  72.5891615  55.2584482  30.7109034  72.7546244
  60.7144082  36.1512202  78.0423690  59.8841785  36.3622845  78.2057106
  60.6653334  35.3249256  77.7665973  60.5850817  36.0601808  78.0261055
  47.1495636  34.4729114  71.4698113  46.5652852  34.9779146  71.8763977
  46.7465732  34.2471501  70.7294705  47.0034940  34.5137362  71.4203138
  42.7039665  40.1883875  78.2721785  42.2207243  40.9134365  78.2481368
  43.5162983  40.4860005  78.3831942  42.7530413  40.3386229  78.2849064
  48.7753819  38.9816056  80.8771599  48.2580761  38.6223471  80.2732907
  49.4728210  38.4578230  80.8877665  48.8019400  38.8513744  80.7901858
  51.6072851  30.7194766  69.9467034  51.8468855  30.9272750  69.1342377
  51.9288692  29.9152275  70.0555978  51.6910009  30.6308867  69.8427587
  46.9163141  22.6488162  73.7926572  47.6709109  23.0166479  73.5543622
  46.7390676  23.0227716  74.5605751  47.0017620  22.7586350  73.8711460
  45.5583862  40.7040051  78.4242065  46.2604442  40.1892040  78.4814821
  45.4781345  41.0314203  79.2288940  45.6507623  40.6754277  78.5514857
  45.2720206  25.0558481  70.4904685  45.0895779  25.2730362  69.6645677
  46.1345819  25.1697494  70.5463299  45.3724795  25.1048379  70.3759172
  44.8834638  36.8946403  77.9327673  45.7223537  37.1269336  77.9801434
  44.9146407  36.0250715  77.8634708  45.0116355  36.8003350  77.9292317
  45.5087341  37.3147278  82.2340978  46.0485566  37.1718409  82.9044350
  44.8257287  37.7144029  82.6025004  45.4879495  37.3526949  82.3875400
  50.9519925  22.0584892  73.5253708  51.6806085  21.8800847  73.0791865
  51.0414818  22.9002971  73.7360887  51.0726587  22.1568770  73.4907226
  54.9328226  32.9938279  77.4286002  55.6885741  33.4269793  77.4674911
  55.0390550  32.3443049  78.0020638  55.0598396  32.9615763  77.5184028
  57.9708397  36.8211556  78.1788405  57.5343629  36.8248299  78.9347377
  57.6371312  37.5017055  77.7467983  57.8571017  36.9224012  78.2269238
  40.9124486  33.5347569  82.3875400  40.6462901  32.7186686  82.5466390
  40.9263050  33.5800725  81.5170915  40.8749208  33.4204474  82.2828882
  44.8182233  28.3332654  69.0027158  44.1040410  28.0470833  69.4149590
  45.3026202  28.6729279  69.6433545  44.7841596  28.3414303  69.1582793
  61.1052743  33.5392476  77.0708043  61.7669177  32.9783145  76.9703951
  60.4644155  33.0444507  77.3960734  61.1081611  33.3828885  77.1040383
  51.9929551  36.8362608  69.3788966  52.4080699  36.5047631  68.6873462
  51.1621480  36.6031510  69.2509103  51.9317559  36.7533863  69.2579813
  41.3217900  34.3206349  79.6687144  41.1393473  34.2953235  78.8159436
  42.0567568  34.7905286  79.7076053  41.4031963  34.3867711  79.5485062
  57.3917574  34.5557859  76.8120031  57.6273163  34.7003057  75.9846882
  57.5407137  35.3200267  77.2051545  57.4483377  34.6896913  76.7483635
  59.2208030  33.3959524  74.6489635  59.5516248  33.9287165  74.0429730
  59.7941119  33.4498412  75.3051586  59.3541710  33.4829093  74.6567417
  54.4339920  31.2424427  75.3313215  54.5286774  31.9813721  75.7852841
  53.8098763  30.8141903  75.7647780  54.3548950  31.2885748  75.4621363
  41.2888810  31.1999849  79.8186210  41.8662312  31.0636300  80.4578456
  40.5902872  30.7435633  80.0731795  41.2709831  31.1122115  79.9508500
  54.6862941  33.0873167  68.5650167  54.6043103  33.1575354  69.4305154
  55.3242661  33.6502911  68.3733908  54.7682778  33.1812138  68.6640117
  48.0456112  32.8533905  78.0324694  47.7875356  32.0205640  78.0055993
  48.1004595  33.0791518  77.1917194  48.0155890  32.7631676  77.9044830
  53.1257162  24.9562356  78.1328786  52.4213489  24.4671541  78.2912705
  53.1742137  24.9684830  77.2617231  53.0287214  24.8852004  78.0268126
  47.0190824  30.4071667  78.5189588  46.4440415  30.5663836  79.1553549
  46.6426500  29.7707076  78.0558039  46.8793637  30.3369480  78.5444147
  50.6864113  28.8795017  83.3781967  50.2978546  28.4549234  82.7234158
  50.0218811  29.1277166  83.8858993  50.5311041  28.8533738  83.3569835
  60.3287382  28.6370021  76.1529797  60.0723947  27.8249963  75.9627680
  61.1716696  28.6447588  75.9259984  60.4153407  28.5182019  76.0914614
  36.7647643  30.0511742  76.5334029  36.8507895  29.6743610  77.3147559
  37.3923441  29.6772188  76.0553987  36.8704194  29.9397224  76.5779506
  51.7903051  33.1093621  71.5758774  52.6043690  33.4008514  71.4641545
  51.7262192  32.4553484  71.0017067  51.9005790  33.0558816  71.4747611
  47.6610959  36.5815139  76.7031086  48.2984906  36.3426886  77.2482879
  48.0866031  36.7852298  75.9684246  47.8187126  36.5766149  76.6748243
  42.3523602  38.8203475  80.5865390  42.3927747  39.0918326  79.7585169
  42.9118126  39.3445383  81.0023178  42.4406948  38.9379230  80.5257278
  48.3013774  31.8017428  71.0405975  48.6858927  31.5825135  71.7922520
  48.0525395  32.6280374  71.1707052  48.3215847  31.8915575  71.1707052
  50.0432431  37.0587561  78.3824872  50.1171440  36.8962733  79.2366722
  50.8601938  37.2477751  78.1385354  50.1748790  37.0624304  78.4722898
  43.8038188  37.4045424  75.4119316  42.9776306  37.6507161  75.2853594
  43.8650179  37.3257505  76.2781374  43.6912355  37.4290373  75.5208260
  46.0214212  23.4714365  76.3714756  45.1536637  23.5436965  76.4372365
  46.3089416  24.2736444  76.5602731  45.9353960  23.6008512  76.4089522
  48.5837017  40.0222304  73.1138346  48.8735315  39.6311286  72.3897572
  49.3140498  40.2039009  73.5543621  48.7343901  39.9916118  73.0721153
  49.1731762  34.8240050  84.1991476  48.6743456  35.5355818  84.2776364
  49.9831986  35.1440717  84.1609638  49.2187869  34.9766899  84.2048045
  46.5242933  41.9989687  76.1798495  46.3043228  41.7087042  76.9725162
  46.3037455  41.3404642  75.6516408  46.4590527  41.8589395  76.2187404
  45.4359880  34.0863003  78.4454197  45.1473128  33.4600475  78.9799924
  46.3043228  34.0283291  78.5118877  45.5220132  33.9850548  78.5345152
  56.2237778  29.2297787  78.7636179  55.8802543  28.5088122  79.1143428
  56.3230820  29.0211638  77.9214537  56.1879820  29.0921990  78.6907859
  48.6910888  43.3719077  74.9629188  49.3434946  42.8395519  75.1920214
  47.9936497  43.0187729  75.3497062  48.6841606  43.2408600  75.0541355
  45.6392153  35.7258254  74.3696562  46.3938121  36.1071293  74.5832025
  45.0462766  36.1769398  74.8243259  45.6628867  35.8487082  74.4679440
  56.6850807  35.6923491  74.3060167  57.2508839  36.3516701  74.2218710
  56.0378710  36.0373189  74.7776569  56.6729563  35.8405432  74.3632923
  46.9590380  36.8966816  79.7436677  46.4371133  37.0367107  80.4288542
  47.3464400  36.1377480  79.9338795  46.9394081  36.8052340  79.8737754
  43.9481564  26.9472624  73.8131632  43.6606360  26.5773895  73.0763579
  44.6352032  27.4167480  73.5515337  44.0070461  26.9619594  73.6646708
  53.1557385  38.6362275  73.7297246  52.9144061  37.9030136  73.3224311
  53.3358718  39.1849132  73.0763579  53.1465009  38.6084666  73.5727469
  48.3856705  33.9270835  75.1418168  48.1899488  34.5345569  74.5478471
  48.6091051  33.2338779  74.6609842  48.3891346  33.9148360  74.9834249
  46.7835235  30.8125573  75.2599037  47.5057887  30.9766731  74.8002843
  46.3043228  31.5335237  75.1538377  46.8198966  30.9423802  75.1764651
  54.7428743  27.1489371  80.6395722  53.9039844  27.1750650  80.4033985
  54.8133110  27.7960107  81.2201068  54.6297136  27.2485497  80.6904839
  44.4342852  33.2183645  84.3653177  44.9463949  33.4967898  83.7161936
  44.1479195  33.9572939  84.7315990  44.4677715  33.3685999  84.3243055
  53.1898021  24.0474748  75.3723338  53.8924374  23.8482497  74.8943296
  52.9242210  23.2750691  75.6792181  53.2544654  23.9037714  75.3468779
  58.6186267  32.3557358  77.9256963  58.5320241  32.5112784  78.7791742
  58.1636747  32.9995434  77.5516369  58.5389523  32.4733113  77.9964070
  41.5209758  27.7253837  74.6616913  41.6225895  28.5279998  74.9897889
  42.3165645  27.5241173  74.3639994  41.6537664  27.8139736  74.6652269
  52.4912083  29.6768105  76.5482523  52.2446797  29.5963856  77.3819312
  52.8197206  28.8921573  76.3545050  52.5033326  29.5494371  76.6430046
  56.3860132  36.3851465  80.3369304  56.2474491  37.0832510  80.8418047
  55.6060130  36.2300121  79.9805486  56.2503359  36.4651631  80.3595578
  48.4509110  32.4124824  85.9605506  48.5952486  32.9926032  85.3248616
  48.7984759  32.7901121  86.6655361  48.5236572  32.5545528  85.9704501
  50.6229028  31.6114992  83.7430638  49.8752342  31.8046007  83.3378916
  50.7770553  30.7860212  83.5054759  50.5351455  31.5180104  83.6476044
  47.5236865  40.6027596  82.8266533  47.6726429  40.0430512  82.1739937
  48.3036867  40.6819597  83.2099052  47.6610959  40.5313161  82.7863482
  57.8813505  35.7429718  71.0985803  57.5020313  34.9566856  71.0915093
  57.2179750  36.2916575  70.9557448  57.7271979  35.7074542  71.0766600
  50.7060413  39.2943237  74.9374630  51.4710304  39.0252881  74.6157294
  50.6038503  38.8093248  75.6544692  50.8041908  39.1832802  74.9954457
  48.7413182  27.4967647  81.4767865  47.9509257  27.3159107  81.7985201
  49.1373805  26.7194599  81.4598160  48.6830059  27.3555108  81.5220414
  53.2279073  36.3255421  66.9174579  53.9952058  36.3855546  66.5080431
  52.7810382  35.7535863  66.4330898  53.2752500  36.2491997  66.7852289
  54.1256869  35.1310077  79.2027311  53.4501871  34.8995309  79.7040698
  54.1349245  34.5231260  78.5769416  54.0275373  35.0069002  79.1843464
  51.2551013  29.9727906  85.9591364  51.1910154  30.8337862  85.8311501
  51.3948200  29.6559899  85.1586916  51.2666483  30.0528073  85.8219577
  56.1273603  37.9875209  71.4337489  56.2093441  38.7942196  71.1098940
  56.6123346  38.0071169  72.1578263  56.2110761  38.1095872  71.4924388
  49.9370107  32.6660045  80.1007567  49.5132356  32.8664544  79.3646586
  49.7614962  31.8188893  80.2131867  49.8480987  32.5708827  80.0081257
  45.2252552  33.1612097  75.5335540  45.3817171  33.0958900  76.3891532
  45.5653145  33.9360649  75.3214219  45.2985786  33.2661295  75.6290134
  51.7631696  32.5369980  74.4028903  52.3047242  32.0340361  74.8667524
  52.0778255  32.4835175  73.5918388  51.8896093  32.4549401  74.3512715
  49.9318146  37.9287332  71.6868931  50.0010966  37.0701870  71.8261931
  50.7106601  38.1459213  71.3587956  50.0570996  37.8340196  71.6586088
  52.9120966  27.4306285  84.4551203  53.1262935  26.7917199  83.9014557
  52.2954865  27.8752109  84.0259065  52.8526295  27.4016429  84.3101635
  54.3225634  40.3525033  75.9005424  53.9305425  40.0491748  75.1828290
  54.4778706  41.1894123  75.7110378  54.2879223  40.4308870  75.7661921
  41.7986813  30.3447047  75.8496307  42.1785778  30.7631592  75.1856574
  41.2242178  30.9260503  76.1565150  41.7698138  30.4924906  75.7973048
  54.4865308  36.9175022  75.8411455  54.1279963  37.0889665  76.6175487
  54.0004019  37.3788228  75.2839453  54.3624005  37.0113993  75.8736724
  52.3035694  20.5406221  79.4438546  51.4329252  20.5144942  79.3971856
  52.5576036  20.3683413  78.6264392  52.2129254  20.5116364  79.3158683
  49.2753674  32.5974187  68.3811689  49.5646199  33.3739070  68.6555264
  49.3625473  32.0862919  69.0826189  49.3307930  32.6366106  68.5254187
  49.3284835  22.5512449  80.9012017  48.8123323  21.8592640  81.0263596
  48.7678764  23.2183226  80.8474615  49.1691348  22.5475707  80.9118083
  57.3727048  29.6568064  81.3544571  56.9454656  29.5694413  80.5992671
  56.7353101  29.7645839  81.9399415  57.2156655  29.6600724  81.3290013
  45.4417615  31.9107452  80.4811801  44.6005621  31.8111326  80.6890695
  45.6507623  32.6802932  80.8326122  45.3482307  32.0099495  80.5639116
  42.9193182  29.5326989  78.3096552  42.5249879  29.6070001  77.5346662
  42.3633298  29.9184935  78.8604914  42.7795994  29.6008764  78.2764212
  54.5558128  22.5108283  77.9900431  54.7607722  22.4430591  78.8357428
  54.2284552  23.3167104  77.9221608  54.5373376  22.6194223  78.1060086
  49.2534280  29.8388851  79.7309399  48.9497417  29.2844839  80.3319807
  48.5513700  30.0181061  79.2437433  49.1050489  29.7833634  79.7479105
  48.3100377  27.1489371  74.2954101  48.5860111  26.4308284  73.8831668
  48.9099046  27.7474291  74.0875207  48.4393641  27.1309742  74.2034862
  47.3152631  37.0538572  84.4381497  47.2072985  37.0640634  85.3043555
  47.5248412  37.8793352  84.2486450  47.3302742  37.1779647  84.5385588
  57.8091816  23.0640047  77.4703196  57.1966130  23.5510449  77.8556928
  57.9055991  22.3883538  78.0140848  57.7329714  23.0358356  77.6082055
  51.8110897  24.8202888  72.5700696  52.2654644  24.9913449  73.2948540
  52.2850943  24.2070999  72.1698471  51.9479217  24.7553774  72.6174457
  45.3326423  34.3051214  81.9003434  44.7414356  34.9460713  81.8706449
  46.0947446  34.7288832  81.8734734  45.3574683  34.4627053  81.8918581
  55.0915939  39.7560526  79.3335459  54.8935627  40.2451340  78.6391670
  54.4703650  39.9601767  79.9119592  54.9703503  39.8577064  79.3158682
  49.1523917  31.5245423  73.6745703  49.8965962  31.9119699  73.9128653
  49.2984613  30.6802848  73.8386191  49.2834502  31.4575896  73.7339673
  51.0703493  23.3195682  78.7077564  50.2239538  23.4918489  78.5818914
  51.0674625  22.5145025  79.0443393  50.9450642  23.2256711  78.7388691
  52.1401793  27.0970896  79.5739622  51.6661747  26.5712658  80.0844933
  52.5119929  26.5500369  79.0054484  52.1251682  26.9386893  79.5654769
  58.4038524  32.1573272  80.9846403  58.1636746  31.3179687  80.9888829
  58.8830531  32.2373438  81.7087176  58.4390707  32.0454671  81.0921205
  54.0685293  27.9907451  72.6365376  53.5408311  28.0736195  71.9471085
  54.5281001  28.7325322  72.6330021  54.0587143  28.1128113  72.5340071
  60.4043711  28.9374729  78.9375662  60.1653481  28.8970563  78.0996447
  60.5677612  29.7845881  79.0641383  60.3934014  29.0566814  78.8329144
  45.8776609  27.9184852  81.6033586  45.2529679  27.9303244  80.9959539
  45.5422204  28.3945027  82.2524826  45.7362101  27.9903369  81.6090155
  46.0618358  26.2609970  67.6606271  45.7131162  26.9129695  68.1237821
  45.5814804  26.2467083  66.9330142  45.9388602  26.3553024  67.6217363
  42.5902285  35.9785312  83.0437351  42.0602209  35.2877751  83.0932325
  42.8627378  35.9695497  82.2150059  42.5527007  35.8752444  82.9284767
  53.6222375  36.5611014  71.7675033  54.3456574  37.0269127  71.6239606
  53.1822966  36.6284624  71.0172630  53.6638067  36.6394851  71.6359815
  52.7908530  33.4208556  83.0175722  52.1765523  32.8766607  83.3124357
  53.3075815  32.9072793  82.5381538  52.7764193  33.2644966  82.9899951
  52.0304827  34.4912826  80.7520021  51.6032435  33.8662545  80.3185456
  52.0229772  34.2087748  81.5779028  51.9663969  34.3565607  80.8099848
  50.3590537  25.3681581  80.9662555  50.3833024  24.8341693  80.2775335
  50.6102011  24.8598890  81.6288145  50.4000456  25.2142485  80.9627199
  37.8698127  32.6513076  80.4005699  37.7641576  32.6059920  79.5357783
  37.1198347  32.9966857  80.6819984  37.7433730  32.6953984  80.3143029
  46.6391859  24.0952399  80.3468299  46.6790231  24.5961606  81.0603006
  45.8141524  24.1862793  80.0774222  46.5231385  24.1834216  80.4118837
  48.0606223  30.6112909  82.6442198  47.2298152  30.7786727  82.4377446
  48.0057740  30.2348860  83.4291083  47.9295638  30.5802640  82.7290726
  46.4342266  28.8868501  73.1732316  46.5745228  29.3840965  73.8760957
  46.9324799  28.1854795  73.3146529  46.5283347  28.8570479  73.2983895
  46.4642489  29.7535612  70.5024893  47.0987568  30.3496037  70.4374354
  46.5468100  29.4539069  71.3170763  46.5699040  29.7976520  70.6127979
  48.0421472  25.6849587  70.4770335  48.3637313  25.2052670  69.8229597
  48.3048415  26.4949233  70.2861146  48.1287497  25.7339485  70.3525827
  53.4380627  25.0721781  82.8393814  53.8635698  24.6194307  82.2277340
  52.8237620  24.5181852  83.1158601  53.4109272  24.9235757  82.7898839
  42.9695477  31.9503452  73.7714439  43.4787706  32.5467960  74.1525744
  43.4429749  31.6829426  73.0890858  43.1138852  31.9989268  73.7268961
  53.8826225  40.6231719  71.9273094  53.1655535  40.4492581  71.4620332
  54.5332962  40.3884291  71.3948580  53.8728075  40.5627512  71.7802312
  51.8774850  21.5436881  76.2484391  51.2343168  21.3934527  76.8169529
  51.5374257  21.2979226  75.4833495  51.7319927  21.4849003  76.2187406
  56.4674196  29.4996308  75.6714399  55.7965386  30.0426010  75.5427465
  57.1613946  29.9691163  75.4296094  56.4703064  29.6494579  75.6169927
  50.5160930  41.6393020  80.9026158  50.2926584  40.8811849  81.2710184
  50.0270773  41.6691041  80.1806597  50.4104379  41.5315244  80.8502899
  56.6302324  25.9552191  78.5804773  56.9829934  25.5281914  79.2550571
  55.7717125  25.8703035  78.7105849  56.5551768  25.8796932  78.6999783
  45.3286009  28.5859711  76.6387619  44.6097998  29.0023844  76.9060483
  45.6998371  29.1513950  76.0879257  45.2777940  28.7308992  76.5970426
  54.6285589  29.2187560  82.5289615  54.6083517  29.0370855  83.3824394
  54.6764790  30.0899578  82.5049198  54.6320230  29.3204098  82.6512910
  49.1639387  41.8593478  78.3563242  48.7499785  41.1967608  77.9667084
  49.8486761  42.0071337  77.8358936  49.2037758  41.7834136  78.2219739
  52.5304681  41.0183563  79.1086859  52.1320964  41.1285833  78.3407679
  51.9155900  41.2265629  79.6913419  52.3803570  41.0657131  79.0818158
  51.1032583  27.6257711  71.9760999  50.5097422  27.9474707  71.4245566
  51.1407861  26.7798806  71.7682105  51.0206972  27.5482039  71.8643770
  53.9790399  27.5837215  75.4062749  53.7504092  27.6069917  74.5641107
  54.2388476  26.7594682  75.5257759  53.9836587  27.4653295  75.2987946
  47.0335162  26.1213762  76.7016944  47.5092528  26.4830842  76.0667126
  46.5323762  26.7770229  76.9817087  47.0300521  26.2707950  76.6493685
  60.2646524  35.5935530  72.4929949  60.6480129  36.3426886  72.7228046
  59.4690637  35.8401349  72.2341939  60.2040306  35.7405224  72.4887523
  49.0761815  28.2654961  70.0690328  49.4560780  28.2834591  69.2841443
  48.3354411  28.7108950  69.9481176  49.0230653  28.3336736  69.9353897
  56.7047106  26.5737153  75.6565907  56.7041332  26.4185809  76.5150183
  56.5003286  27.4200140  75.6007293  56.6746883  26.6757773  75.7753846
  38.7664377  29.9976937  80.0724724  38.5886138  29.5453546  80.7979639
  38.4783399  30.8003099  80.2563201  38.6977330  30.0499495  80.2068227
  54.4287958  31.2534654  79.3102114  54.9241623  30.5357650  79.2706134
  53.6187733  30.9505452  79.1956601  54.3831851  31.1032301  79.2875840
  49.8746569  35.1032468  71.4599118  49.0657892  34.7799141  71.4132428
  50.3821478  34.3965690  71.3927367  49.8296236  34.9513784  71.4429413
  40.5036846  32.5304661  77.1846483  39.6382366  32.5190351  77.0729254
  40.6035662  32.3434884  78.0317622  40.3911013  32.5010722  77.2935427
  56.4939777  34.0038342  81.9979243  56.9194848  33.4812764  81.4449668
  56.1296696  34.6019179  81.4767866  56.5026379  34.0148569  81.8388252
  46.1293856  42.3002559  80.7576588  46.4440415  43.1138948  80.7654370
  46.5387270  41.9152778  81.4258747  46.2361954  42.3631262  80.8580680
  53.0818376  37.7172606  78.3280400  53.5529554  38.4312869  78.4970385
  53.4178555  37.1171356  78.8640270  53.2013491  37.7344071  78.4312776
  49.0680986  24.4916490  72.7517960  49.8896680  24.6614803  72.5099655
  48.6050637  24.6463751  72.0284258  49.1212148  24.5398223  72.6089604
  43.4706876  36.2475668  80.4055197  44.0751734  36.2071502  79.7769017
  43.2634189  37.0946820  80.4359252  43.5295774  36.3663670  80.3171313
  53.2850649  38.5141613  81.6217434  54.1049022  38.3704579  81.8833729
  53.0044726  39.1387812  82.1633872  53.3647392  38.5851965  81.7405373
  38.7058159  35.2310285  80.2754120  38.6082437  34.4206557  80.5844176
  39.4887028  35.2102079  79.8900388  38.8074295  35.1077376  80.2640983
  61.5112907  44.7368785  74.2282349  62.2093072  44.9156912  74.7203813
  61.8265240  44.2139124  73.6052739  61.6608244  44.6862557  74.2084359
  59.6839771  40.1061181  78.3103624  59.3543101  40.5572325  77.6407323
  59.0084772  40.0277345  78.8576630  59.5350207  40.1612317  78.2926847
  66.8916178  36.0946704  76.5553235  66.5769619  36.7850183  76.9873657
  66.3743120  36.0391487  75.8538735  66.7680649  36.1881593  76.5150184
  58.1228220  49.9914422  71.4698113  57.5385435  50.4964453  71.8763977
  57.7198315  49.7656809  70.7294705  57.9767524  50.0322670  71.4203138
  62.5805434  46.2380074  69.9467034  62.8201438  46.4458058  69.1342377
  62.9021275  45.4337583  70.0555978  62.6642592  46.1494175  69.8427587
  57.8895725  38.1673470  73.7926572  58.6441693  38.5351787  73.5543622
  57.7123259  38.5413024  74.5605751  57.9750203  38.2771658  73.8711460
  56.2452789  40.5743789  70.4904685  56.0628363  40.7915670  69.6645677
  57.1078402  40.6882802  70.5463299  56.3457379  40.6233687  70.3759172
  61.9252509  37.5770200  73.5253708  62.6538669  37.3986154  73.0791865
  62.0147401  38.4188279  73.7360887  62.0459171  37.6754078  73.4907226
  55.7914816  43.8517961  69.0027158  55.0772994  43.5656141  69.4149590
  56.2758785  44.1914587  69.6433545  55.7574180  43.8599611  69.1582793
  62.9662134  52.3547915  69.3788966  63.3813283  52.0232939  68.6873462
  62.1354064  52.1216818  69.2509103  62.9050143  52.2719171  69.2579813
  65.6595524  48.6058475  68.5650167  65.5775687  48.6760662  69.4305154
  66.2975245  49.1688219  68.3733908  65.7415362  48.6997446  68.6640117
  47.7380227  45.5697050  76.5334029  47.8240478  45.1928918  77.3147559
  48.3656024  45.1957496  76.0553987  47.8436778  45.4582532  76.5779506
  62.7635635  48.6278929  71.5758774  63.5776273  48.9193822  71.4641545
  62.6994776  47.9738792  71.0017067  62.8738374  48.5744124  71.4747611
  59.2746358  47.3202736  71.0405975  59.6591511  47.1010443  71.7922520
  59.0257978  48.1465682  71.1707052  59.2948431  47.4100883  71.1707052
  56.9946795  38.9899673  76.3714756  56.1269221  39.0622273  76.4372365
  57.2822000  39.7921752  76.5602731  56.9086543  39.1193820  76.4089522
  54.9214147  42.4657932  73.8131632  54.6338943  42.0959203  73.0763579
  55.6084616  42.9352788  73.5515337  54.9803045  42.4804902  73.6646708
  57.7567819  46.3310881  75.2599037  58.4790471  46.4952039  74.8002843
  57.2775812  47.0520545  75.1538377  57.7931550  46.4609110  75.1764651
  64.1630605  39.5660056  75.3723338  64.8656958  39.3667805  74.8943296
  63.8974794  38.7935999  75.6792181  64.2277237  39.4223022  75.3468779
  52.4942342  43.2439145  74.6616913  52.5958478  44.0465306  74.9897889
  53.2898229  43.0426481  74.3639994  52.6270248  43.3325044  74.6652269
  64.2011657  51.8440729  66.9174579  64.9684642  51.9040854  66.5080431
  63.7542966  51.2721171  66.4330898  64.2485084  51.7677305  66.7852289
  52.7719397  45.8632355  75.8496307  53.1518362  46.2816900  75.1856574
  52.1974761  46.4445811  76.1565150  52.7430722  46.0110214  75.7973048
  63.2768278  36.0591529  79.4438546  62.4061836  36.0330250  79.3971856
  63.5308619  35.8868721  78.6264392  63.1861838  36.0301672  79.3158683
  59.2832960  42.6674679  74.2954101  59.5592695  41.9493591  73.8831668
  59.8831630  43.2659599  74.0875207  59.4126225  42.6495050  74.2034862
  62.7843481  40.3388196  72.5700696  63.2387227  40.5098757  73.2948540
  63.2583526  39.7256307  72.1698471  62.9211801  40.2739082  72.6174457
  60.1256501  47.0430731  73.6745703  60.8698546  47.4305007  73.9128653
  60.2717197  46.1988156  73.8386191  60.2567086  46.9761203  73.7339673
  62.0436076  38.8380990  78.7077564  61.1972121  39.0103797  78.5818914
  62.0407209  38.0330333  79.0443393  61.9183226  38.7442019  78.7388691
  65.0417876  43.5092759  72.6365376  64.5140895  43.5921503  71.9471085
  65.5013584  44.2510630  72.6330021  65.0319727  43.6313421  72.5340071
  57.0350941  41.7795278  67.6606271  56.6863746  42.4315003  68.1237821
  56.5547387  41.7652391  66.9330142  56.9121185  41.8738332  67.6217363
  57.4074850  44.4053809  73.1732316  57.5477811  44.9026273  73.8760957
  57.9057383  43.7040103  73.3146529  57.5015931  44.3755787  73.2983895
  57.4375072  45.2720920  70.5024893  58.0720152  45.8681345  70.4374354
  57.5200683  44.9724377  71.3170763  57.5431623  45.3161828  70.6127979
  59.0154055  41.2034895  70.4770335  59.3369896  40.7237978  69.8229597
  59.2780999  42.0134541  70.2861146  59.1020081  41.2524793  70.3525827
  53.9428060  47.4688760  73.7714439  54.4520290  48.0653268  74.1525744
  54.4162333  47.2014734  73.0890858  54.0871436  47.5174576  73.7268961
  62.8507433  37.0622189  76.2484391  62.2075751  36.9119835  76.8169529
  62.5106840  36.8164534  75.4833495  62.7052510  37.0034311  76.2187406
  56.3018592  44.1045019  76.6387619  55.5830581  44.5209152  76.9060483
  56.6730954  44.6699258  76.0879257  56.2510524  44.2494300  76.5970426
  62.0765166  43.1443019  71.9760999  61.4830006  43.4660015  71.4245566
  62.1140444  42.2984114  71.7682105  61.9939556  43.0667347  71.8643770
  58.0067746  41.6399070  76.7016944  58.4825112  42.0016149  76.0667126
  57.5056345  42.2955537  76.9817087  58.0033105  41.7893258  76.6493685
  60.0494399  43.7840269  70.0690328  60.4293364  43.8019899  69.2841443
  59.3086995  44.2294258  69.9481176  59.9963236  43.8522044  69.9353897
  60.8479153  50.6217776  71.4599118  60.0390475  50.2984449  71.4132428
  61.3554062  49.9150998  71.3927367  60.8028820  50.4699092  71.4429413
  60.0413569  40.0101798  72.7517960  60.8629264  40.1800110  72.5099655
  59.5783220  40.1649059  72.0284258  60.0944732  40.0583531  72.6089604
  35.0890780   0.6952349  62.0390519  34.3373680   0.3167887  61.8106564
  35.5376792   0.7270783  61.2909329  35.0440447   0.6437956  61.8948021
  40.5415740   1.1177718  57.4676066  40.2067109   1.7954640  57.0320288
  41.0542611   0.7283030  56.8792938  40.5681321   1.1602297  57.3162858
  40.0820032   3.0691987  63.4087178  40.4659411   3.6378886  62.8691953
  40.0179173   2.3441498  62.9292994  40.1293459   3.0467451  63.2581040
  36.5076276   5.6248330  65.7068148  37.1513732   6.0661494  66.0964306
  36.8332532   4.8201757  65.6198406  36.6508105   5.5713525  65.7513625
  37.2096856  -1.3639695  61.0788009  37.5312697  -0.8234488  60.4749318
  37.8568952  -1.9342923  61.2110299  37.3522911  -1.3680520  61.0095045
  37.3055257   1.4415128  60.0478392  37.5953556   1.0504109  59.3237619
  38.0358738   1.6231833  60.4883668  37.4562142   1.4108941  60.0061199
  35.2461173   3.4182510  63.1138542  35.0261468   3.1279865  63.9065209
  35.0255695   2.7597465  62.5856454  35.1808767   3.2782218  63.1527451
  37.4129129   4.7911900  61.8969234  38.0653187   4.2588342  62.1260261
  36.7154737   4.4380552  62.2837109  37.4059847   4.6601423  61.9881402
  41.8775625   0.0555098  60.6637293  41.6362301  -0.6777041  60.2564358
  42.0576958   0.6041955  60.0103626  41.8683249   0.0277489  60.5067516
  39.4278653   0.7136061  61.8714677  40.1928544   0.4445704  61.5497341
  39.3256743   0.2286071  62.5884739  39.5260149   0.6025625  61.9294504
  38.6536386  -0.6519845  58.6208978  38.7229207  -1.5105306  58.7601978
  39.4324841  -0.4347964  58.2928002  38.7789236  -0.7466981  58.5926135
  43.0443874   1.7717856  62.8345471  42.6523666   1.4684572  62.1168337
  43.1996946   2.6086946  62.6450425  43.0097464   1.8501693  62.7001968
  43.8134179   1.1753349  66.2675505  43.6153868   1.6644164  65.5731717
  43.1921890   1.3794591  66.8459639  43.6921744   1.2769887  66.2498729
  42.6044465   2.0424542  58.8613141  41.8873775   1.8685405  58.3960378
  43.2551203   1.8077115  58.3288627  42.5946316   1.9820335  58.7142359
  37.8857627   3.2786301  65.2903289  37.4718026   2.6160431  64.9007131
  38.5705001   3.4264160  64.7698983  37.9255999   3.2026959  65.1559786
  41.2522921   2.4376386  66.0426906  40.8539204   2.5478657  65.2747726
  40.6374141   2.6458453  66.6253465  41.1021811   2.4849954  66.0158205
  58.4782539   7.5899288  61.5200357  58.4476544   8.4443925  61.6918627
  59.0763888   7.2894581  62.0786501  58.5619697   7.6715785  61.6275159
  51.6782224   6.6774939  66.2753288  50.8220120   6.8383437  66.3262404
  51.7249878   5.8067003  66.2958349  51.5581336   6.5725741  66.2859354
  46.0623364  16.2137657  62.0390519  45.3106263  15.8353195  61.8106564
  46.5109376  16.2456091  61.2909329  46.0173031  16.1623264  61.8948021
  51.5148324  16.6363026  57.4676066  51.1799692  17.3139948  57.0320288
  52.0275194  16.2468338  56.8792938  51.5413905  16.6787605  57.3162858
  51.0552615  18.5877295  63.4087178  51.4391994  19.1564194  62.8691953
  50.9911756  17.8626805  62.9292994  51.1026042  18.5652759  63.2581040
  54.5234045   8.7366983  68.9184939  55.0690005   9.4152070  68.9778909
  54.4650922   8.5954444  68.0586521  54.5949960   8.8158985  68.7997000
  47.6408120  16.2256049  64.3053292  47.7418483  15.4156403  64.6150419
  47.0449865  16.1312995  63.6752970  47.5680659  16.0921077  64.2579530
  56.2999114  10.1651590  59.7918667  56.1838640  10.9159276  60.2210805
  57.0955001   9.9075543  60.0414754  56.4003703  10.2386437  59.8922759
  47.4808860  21.1433638  65.7068148  48.1246315  21.5846802  66.0964306
  47.8065115  20.3387064  65.6198406  47.6240688  21.0898833  65.7513625
  40.8373164  12.2476336  63.9305625  40.6023349  11.4143988  63.8237894
  40.9758805  12.5281001  63.1166826  40.8228827  12.1659839  63.7947980
  43.1363252   4.4162066  66.8289933  42.5168283   3.8254713  66.6599948
  43.0347115   5.0073501  66.1954256  43.0300927   4.4166149  66.7094923
  48.1829439  14.1545613  61.0788009  48.5045280  14.6950820  60.4749318
  48.8301536  13.5842384  61.2110299  48.3255495  14.1504788  61.0095045
  50.2331147   6.1561608  61.1622396  50.9311312   6.3349736  61.6543859
  50.5483480   5.6331947  60.5392785  50.3826485   6.1055380  61.1424406
  42.8632385   7.9614348  69.0733502  42.7391082   8.5476793  69.7083321
  43.5150669   7.4674544  69.3745777  42.9406034   7.9753152  69.2119431
  50.4219083  12.5432053  61.1502188  50.8612718  11.9349154  61.5956960
  50.2723746  12.1639426  60.3787653  50.4640549  12.3970524  61.1021355
  47.8890726  11.1376065  68.3521013  48.5339728  10.6448508  68.0331962
  48.1292503  11.2800852  69.1787091  48.0201311  11.0853507  68.4270546
  50.4276817  13.9830971  68.0027906  50.7100060  13.1882377  67.7814662
  51.1562978  14.4611558  68.0232967  50.5766381  13.9365568  67.9730921
  48.4058011   1.5254005  65.2443671  48.0761341   1.9765148  64.5747369
  47.7303013   1.4470168  65.7916677  48.2568447   1.5805140  65.2266894
  54.0228419  10.8959234  58.1032957  53.9379715  11.7520201  58.2482526
  54.5112803  10.6203558  58.7715116  54.0817317  10.9816556  58.2235038
  54.9546853   7.5144029  59.6030692  54.4258324   7.7303662  60.2627998
  55.4771873   8.2080167  59.5231661  54.9535306   7.6487165  59.6886291
  60.4094906  13.0890333  64.9763736  59.5792609  13.3000977  65.1397153
  60.3604158  12.2627388  64.7006020  60.2801641  12.9979939  64.9601102
  46.8446460  11.4107245  58.4038160  46.2603676  11.9157277  58.8104024
  46.4416556  11.1849632  57.6634752  46.6985764  11.4515494  58.3543185
  42.3990489  17.1262006  65.2061832  41.9158067  17.8512496  65.1821415
  43.2113807  17.4238136  65.3171989  42.4481237  17.2764360  65.2189111
  48.4704643  15.9194187  67.8111646  47.9531585  15.5601602  67.2072954
  49.1679034  15.3956362  67.8217712  48.4970224  15.7891875  67.7241905
  52.1268235  16.3689001  73.7727819  52.2151581  16.1815142  74.6206029
  52.5557948  15.7226431  73.3732666  52.2030337  16.2452009  73.8399570
  49.6938695  15.6520161  72.7545481  49.1309530  15.2392771  73.2785142
  50.4559718  15.5773067  73.1738624  49.7233143  15.5797562  72.8938482
  51.3023675   7.6572897  56.8807081  51.5419679   7.8650881  56.0682424
  51.6239516   6.8530406  56.9896025  51.3860833   7.5686999  56.7767634
  45.2534686  17.6418182  65.3582111  45.9555266  17.1270171  65.4154868
  45.1732169  17.9692334  66.1628986  45.3458447  17.6132409  65.4854904
  44.9671030   1.9936612  57.4244731  44.7846603   2.2108493  56.5985724
  45.8296643   2.1075625  57.4803346  45.0675619   2.0426510  57.3099219
  44.5785462  13.8324534  64.8667719  45.4174361  14.0647467  64.9141481
  44.6097231  12.9628846  64.7974755  44.7067179  13.7381481  64.8632364
  45.2038165  14.2525410  69.1681025  45.7436390  14.1096541  69.8384397
  44.5208111  14.6522160  69.5365051  45.1830319  14.2905080  69.3215447
  54.6279050   9.9316410  64.3626049  55.3836565  10.3647925  64.4014958
  54.7341374   9.2821180  64.9360685  54.7549220   9.8993894  64.4524075
  57.6659221  13.7589687  65.1128452  57.2294453  13.7626430  65.8687424
  57.3322136  14.4395186  64.6808030  57.5521841  13.8602143  65.1609285
  52.2388294  15.7998020  76.4371603  53.0228711  15.9128868  76.8027345
  52.0384889  14.9739157  76.6330288  52.3254320  15.6944740  76.5205989
  40.6075310  10.4725700  69.3215446  40.3413725   9.6564817  69.4806437
  40.6213874  10.5178856  68.4510962  40.5700032  10.3582605  69.2168928
  44.5133057   5.2710785  55.9367205  43.7991234   4.9848964  56.3489637
  44.9977025   5.6107411  56.5773592  44.4792420   5.2792434  56.0922839
  52.3958688  17.7108122  70.0838058  51.5973933  17.4707622  70.3411927
  52.8444699  17.7622515  70.8305106  52.3433299  17.6830513  70.2322982
  60.8003567  10.4770607  64.0048089  61.4620001   9.9161276  63.9043998
  60.1594979   9.9822638  64.3300781  60.8032434  10.3207016  64.0380430
  51.6880375  13.7740739  56.3129013  52.1031523  13.4425763  55.6213508
  50.8572304  13.5409641  56.1849149  51.6268383  13.6911995  56.1919860
  41.0168723  11.2584480  66.6027191  40.8344297  11.2331366  65.7499483
  41.7518392  11.7283418  66.6416099  41.0982787  11.3245842  66.4825109
  57.0868398  11.4935990  63.7460078  57.3223987  11.6381189  62.9186929
  57.2357961  12.2578398  64.1391592  57.1434201  11.6275044  63.6823682
  58.9158854  10.3337656  61.5829682  59.2467072  10.8665296  60.9769777
  59.4891943  10.3876543  62.2391633  59.0492534  10.4207224  61.5907464
  54.1290744   8.1802558  62.2653262  54.2237598   8.9191852  62.7192888
  53.5049587   7.7520034  62.6987827  54.0499774   8.2263879  62.3961410
  52.3843217  11.3588771  72.9143543  52.9582079  10.7216015  73.0692107
  52.3058021  11.3592853  72.0453201  52.4576452  11.2653882  72.8089954
  40.9839634   8.1377980  66.7526257  41.5613136   8.0014431  67.3918503
  40.2853696   7.6813765  67.0071842  40.9660655   8.0500247  66.8848547
  54.3813765  10.0251298  55.4990214  54.2993927  10.0953485  56.3645201
  55.0193485  10.5881042  55.3073955  54.4633602  10.1190269  55.5980164
  47.7406936   9.7912036  64.9664741  47.4826180   8.9583771  64.9396040
  47.7955419  10.0169649  64.1257241  47.7106714   9.7009807  64.8384877
  46.7141648   7.3449799  65.4529635  46.1391239   7.5041967  66.0893596
  46.3377324   6.7085208  64.9898086  46.5744460   7.2747611  65.4784194
  50.3814937   5.8173148  70.3122014  49.9929370   5.3927366  69.6574205
  49.7169635   6.0655297  70.8199040  50.2261865   5.7911869  70.2909882
  36.4598467   6.9889873  63.4674076  36.5458719   6.6121742  64.2487606
  37.0874264   6.6150319  62.9894034  36.5655018   6.8775355  63.5119553
  51.4853875  10.0471752  58.5098821  52.2994514  10.3386645  58.3981592
  51.4213016   9.3931615  57.9357114  51.5956614   9.9936947  58.4087658
  47.3561783  13.5193270  63.6371133  47.9935730  13.2805017  64.1822926
  47.7816855  13.7230429  62.9024293  47.5137950  13.5144280  63.6088290
  42.0474426  15.7581606  67.5205437  42.0878571  16.0296457  66.6925216
  42.6068950  16.2823514  67.9363224  42.1357772  15.8757361  67.4597325
  47.9964598   8.7395560  57.9746022  48.3809751   8.5203266  58.7262567
  47.7476219   9.5658505  58.1047098  48.0166671   8.8293706  58.1047099
  58.7299786  12.5142197  68.9856691  58.4245603  13.2470254  69.3470006
  58.0106002  12.1080127  68.7049477  58.5787128  12.5623930  68.9969828
  49.7383255  13.9965692  65.3164919  49.8122264  13.8340864  66.1706769
  50.5552762  14.1855882  65.0725401  49.8699614  14.0002435  65.4062945
  43.4989012  14.3423555  62.3459362  42.6727130  14.5885292  62.2193641
  43.5601003  14.2635636  63.2121421  43.3863179  14.3668504  62.4548307
  45.7165036   0.4092496  63.3054803  44.8487461   0.4815096  63.3712412
  46.0040240   1.2114575  63.4942778  45.6304784   0.5386643  63.3429569
  48.2787841  16.9600436  60.0478392  48.5686139  16.5689417  59.3237619
  49.0091322  17.1417140  60.4883668  48.4294725  16.9294249  60.0061199
  48.8682586  11.7618181  71.1331523  48.3694280  12.4733949  71.2116411
  49.6782810  12.0818848  71.0949685  48.9138693  11.9145030  71.1388091
  46.2193757  18.9367818  63.1138542  45.9994052  18.6465173  63.9065209
  45.9988279  18.2782773  62.5856454  46.1541351  18.7967526  63.1527451
  45.1310704  11.0241134  65.3794244  44.8423952  10.3978606  65.9139971
  45.9994052  10.9661422  65.4458924  45.2170956  10.9228679  65.4685198
  55.9188602   6.1675918  65.6976226  55.5753367   5.4466253  66.0483475
  56.0181644   5.9589769  64.8554584  55.8830644   6.0300121  65.6247906
  48.3861712  20.3097208  61.8969234  49.0385770  19.7773650  62.1260261
  47.6887321  19.9565860  62.2837109  48.3792430  20.1786731  61.9881402
  45.3342977  12.6636386  61.3036609  46.0888945  13.0449425  61.5172071
  44.7413590  13.1147529  61.7583305  45.3579691  12.7865213  61.4019487
  56.3801631  12.6301622  61.2400214  56.9459663  13.2894832  61.1558757
  55.7329534  12.9751320  61.7116616  56.3680387  12.7783563  61.2972970
  46.6541204  13.8344947  66.6776724  46.1321957  13.9745239  67.3628589
  47.0415224  13.0755611  66.8678842  46.6344905  13.7430471  66.8077801
  43.6432388   3.8850756  60.7471679  43.3557184   3.5152026  60.0103626
  44.3302856   4.3545611  60.4855384  43.7021285   3.8997725  60.5986755
  52.8508209  15.5740406  60.6637293  52.6094885  14.8408267  60.2564358
  53.0309542  16.1227263  60.0103626  52.8415833  15.5462797  60.5067516
  48.0807529  10.8648966  62.0758215  47.8850312  11.4723700  61.4818518
  48.3041875  10.1716910  61.5949889  48.0842170  10.8526491  61.9174296
  46.4786059   7.7503704  62.1939084  47.2008711   7.9144862  61.7342890
  45.9994052   8.4713369  62.0878423  46.5149790   7.8801933  62.1104698
  54.4379567   4.0867503  67.5735769  53.5990668   4.1128782  67.3374032
  54.5083934   4.7338238  68.1541115  54.3247960   4.1863628  67.6244885
  44.1293676  10.1561776  71.2993223  44.6414773  10.4346030  70.6501983
  43.8430019  10.8951070  71.6656037  44.1628539  10.3064130  71.2583102
  58.3137091   9.2935489  64.8597010  58.2271065   9.4490915  65.7131789
  57.8587571   9.9373565  64.4856415  58.2340347   9.4111244  64.9304117
  41.2160582   4.6631968  61.5956960  41.3176719   5.4658129  61.9237935
  42.0116469   4.4619304  61.2980041  41.3488488   4.7517867  61.5992315
  52.1862907   6.6146236  63.4822570  51.9397621   6.5341987  64.3159359
  52.5148030   5.8299704  63.2885097  52.1984150   6.4872502  63.5770093
  56.0810956  13.3229596  67.2709351  55.9425315  14.0210642  67.7758093
  55.3010954  13.1678252  66.9145533  55.9454183  13.4029762  67.2935625
  48.1459934   9.3502955  72.8945553  48.2903310   9.9304163  72.2588663
  48.4935583   9.7279252  73.5995408  48.2187395   9.4923659  72.9044548
  50.3179851   8.5493123  70.6770684  49.5703166   8.7424138  70.2718963
  50.4721377   7.7238343  70.4394806  50.2302279   8.4558235  70.5816090
  47.2187689  17.5405727  69.7606580  47.3677253  16.9808643  69.1079984
  47.9987691  17.6197729  70.1439099  47.3561783  17.4691292  69.7203529
  57.5764328  12.6807850  58.0325850  57.1971137  11.8944988  58.0255140
  56.9130574  13.2294707  57.8897494  57.4222803  12.6452674  58.0106647
  49.7440990  17.7120370  71.0391071  49.6684661  17.0429180  71.5941859
  49.6730849  18.4138158  71.5531737  49.7221597  17.7165277  71.1967919
  50.4011237  16.2321369  61.8714677  51.1661128  15.9631012  61.5497341
  50.2989327  15.7471379  62.5884739  50.4992732  16.1210933  61.9294504
  48.4364006   4.4345778  68.4107912  47.6460081   4.2537238  68.7325248
  48.8324629   3.6572731  68.3938207  48.3780883   4.2933239  68.4560461
  52.9229897  13.2633552  53.8514626  53.6902882  13.3233677  53.4420478
  52.4761206  12.6913994  53.3670944  52.9703324  13.1870128  53.7192336
  53.8207693  12.0688208  66.1367358  53.1452695  11.8373440  66.6380745
  53.8300069  11.4609391  65.5109463  53.7226197  11.9447133  66.1183510
  50.9501837   6.9106037  72.8931411  50.8860978   7.7715994  72.7651548
  51.0899024   6.5938030  72.0926962  50.9617307   6.9906204  72.7559624
  55.8224427  14.9253341  58.3677536  55.9044265  15.7320327  58.0438987
  56.3074169  14.9449300  59.0918310  55.9061585  15.0474003  58.4264435
  49.6320931   9.6038177  67.0347614  49.2083180   9.8042676  66.2986632
  49.4565786   8.7567025  67.1471914  49.5431811   9.5086958  66.9421304
  49.1332624  21.1188690  69.4969071  49.6228554  20.4199479  69.3144736
  48.5616856  20.8212560  70.0845129  49.1217154  20.9714913  69.5570112
  44.9203376  10.0990228  62.4675587  45.0767995  10.0337031  63.3231579
  45.2603969  10.8738781  62.2554266  44.9936610  10.2039426  62.5630181
  51.4582520   9.4748112  61.3368950  51.9998066   8.9718493  61.8007570
  51.7729079   9.4213306  60.5258435  51.5846917   9.3927533  61.2852762
  49.6268970  14.8665463  58.6208978  49.6961790  14.0080002  58.7601978
  50.4057425  15.0837344  58.2928002  49.7521820  14.7718327  58.5926135
  52.6071790   4.3684416  71.3891250  52.8213759   3.7295330  70.8354604
  51.9905689   4.8130240  70.9599112  52.5477119   4.3394560  71.2441681
  54.0176457  17.2903164  62.8345471  53.6256249  16.9869880  62.1168337
  54.1729530  18.1272254  62.6450425  53.9830047  17.3687001  62.7001968
  41.4937637   7.2825178  62.7836354  41.8736602   7.7009723  62.1196621
  40.9193002   7.8638634  63.0905197  41.4648962   7.4303037  62.7313095
  54.1816132  13.8553153  62.7751502  53.8230787  14.0267796  63.5515534
  53.6954843  14.3166359  62.2179500  54.0574829  13.9492124  62.8076771
  48.9704498   9.5352319  55.3151736  49.2597022  10.3117201  55.5895310
  49.0576296   9.0241050  56.0166235  49.0258754   9.5744237  55.4594234
  55.3420872  14.7457049  73.7218703  55.9800592  14.2517245  73.3881159
  54.6994963  14.6734450  73.1370929  55.3415098  14.6616058  73.5861058
  57.0677872   6.5946195  68.2884618  56.6405480   6.5072544  67.5332718
  56.4303925   6.7023971  68.8739462  56.9107479   6.5978855  68.2630060
  55.3975128  15.4376857  70.3624059  56.1867506  15.0865922  70.4826141
  55.5718726  16.2513246  70.1000693  55.5395410  15.5062715  70.3411927
  45.1368439   8.8485583  67.4151848  44.2956445   8.7489457  67.6230742
  45.3458447   9.6181064  67.7666169  45.0433131   8.9477627  67.4979163
  42.6144006   6.4705120  65.2436599  42.2200703   6.5448132  64.4686708
  42.0584122   6.8563067  65.7944961  42.4746818   6.5386895  65.2104259
  48.9485103   6.7766982  66.6649446  48.6448241   6.2222971  67.2659853
  48.2464524   6.9559192  66.1777480  48.8001313   6.7211765  66.6819151
  48.0051201   4.0867502  61.2294148  48.2810935   3.3686415  60.8171715
  48.6049870   4.6852422  61.0215254  48.1344465   4.0687873  61.1374909
  47.0103454  13.9916703  71.3721543  46.9023809  14.0018765  72.2383602
  47.2199236  14.8171484  71.1826497  47.0253566  14.1157778  71.4725635
  45.0277246  11.2429346  68.8343481  44.4365180  11.8838844  68.8046496
  45.7898270  11.6666963  68.8074781  45.0525507  11.4005184  68.8258628
  54.7866763  16.6938657  66.2675505  54.5886451  17.1829472  65.5731717
  54.1654474  16.8979899  66.8459639  54.6654327  16.7955195  66.2498729
  48.8474741   8.4623554  60.6085750  49.5916786   8.8497830  60.8468700
  48.9935437   7.6180979  60.7726238  48.9785326   8.3954027  60.6679719
  51.8352617   4.0349027  66.5079669  51.3612571   3.5090789  67.0184980
  52.2070753   3.4878500  65.9394531  51.8202506   3.8765024  66.4994816
  58.0989347   9.0951403  67.9186450  57.8587570   8.2557818  67.9228876
  58.5781355   9.1751570  68.6427223  58.1341531   8.9832803  68.0261252
  53.7636117   4.9285582  59.5705423  53.2359135   5.0114326  58.8811132
  54.2231825   5.6703453  59.5670068  53.7537967   5.0506244  59.4680118
  60.0994535   5.8752860  65.8715709  59.8604304   5.8348694  65.0336493
  60.2628436   6.7224012  65.9981430  60.0884838   5.9944945  65.7669191
  56.7040565  10.2602809  71.8020754  57.4274764   9.8075336  71.6231774
  56.4390527  10.5407475  71.0193082  56.7721838  10.2353778  71.6599469
  45.5727433   4.8562983  68.5373633  44.9480503   4.8681375  67.9299586
  45.2373028   5.3323158  69.1864873  45.4312925   4.9281500  68.5430202
  45.7569182   3.1988101  54.5946318  45.4081986   3.8507827  55.0577867
  45.2765628   3.1845214  53.8670189  45.6339426   3.2931155  54.5557409
  42.2853109  12.9163443  69.9777397  41.7553033  12.2255882  70.0272372
  42.5578202  12.9073628  69.1490106  42.2477831  12.8130575  69.8624813
  53.3173199  13.4989145  58.7015080  54.0407398  13.9647258  58.5579653
  52.8773790  13.5662755  57.9512677  53.3588891  13.5772982  58.5699861
  52.4859354  10.3586688  69.9515769  51.8716347   9.8144738  70.2464404
  53.0026639   9.8450924  69.4721585  52.4715017  10.2023097  69.9239997
  51.7255651  11.4290958  67.6860068  51.2983259  10.8040676  67.2525503
  51.7180596  11.1465880  68.5119075  51.6614792  11.2943738  67.7439895
  37.5648951   9.5891207  67.3345746  37.4592400   9.5438052  66.4697830
  36.8149171   9.9344988  67.6160031  37.4384554   9.6332115  67.2483075
  46.3342683   1.0330530  67.2808346  46.3741055   1.5339737  67.9943053
  45.5092348   1.1240924  67.0114269  46.2182209   1.1212347  67.3458884
  47.7557047   7.5491040  69.5782245  46.9248976   7.7164858  69.3717493
  47.7008564   7.1726991  70.3631130  47.6246461   7.5180772  69.6630773
  46.1293090   5.8246632  60.1072363  46.2696052   6.3219096  60.8101004
  46.6275623   5.1232926  60.2486576  46.2234171   5.7948611  60.2323942
  46.1593313   6.6913743  57.4364939  46.7938392   7.2874168  57.3714401
  46.2418924   6.3917200  58.2510810  46.2649864   6.7354651  57.5468026
  47.7372296   2.6227718  57.4110381  48.0588137   2.1430801  56.7569644
  47.9999239   3.4327364  57.2201193  47.8238321   2.6717616  57.2865873
  50.9669268  13.6446593  70.9309198  50.4594360  14.1982439  71.3749828
  50.6695915  13.7054883  70.1127972  50.8474153  13.7352904  70.8757654
  42.6646301   8.8881584  60.7054485  43.1738530   9.4846091  61.0865791
  43.1380573   8.6207557  60.0230905  42.8089676   8.9367399  60.6609008
  53.5777049  17.5609850  58.8613141  52.8606358  17.3870713  58.3960378
  54.2283786  17.3262423  58.3288627  53.5678899  17.5005643  58.7142359
  56.1625020   6.4374439  62.6054446  55.4916210   6.9804141  62.4767512
  56.8564770   6.9069294  62.3636141  56.1653887   6.5872710  62.5509974
  50.2111754  18.5771151  67.8366204  49.9877408  17.8189980  68.2050231
  49.7221597  18.6069172  67.1146644  50.1055203  18.4693375  67.7842945
  45.0236832   5.5237842  63.5727666  44.3048822   5.9401975  63.8400529
  45.3949195   6.0892081  63.0219304  44.9728764   5.6687124  63.5310473
  54.3236413   6.1565691  69.4629662  54.3034341   5.9748986  70.3164440
  54.3715614   7.0277710  69.4389245  54.3271054   6.2582229  69.5852956
  52.2682743  12.7452883  75.3878138  52.2278598  12.1002560  74.8023294
  53.0806061  12.6889500  75.7003550  52.3825897  12.6411850  75.3475087
  48.8590211  18.7971609  65.2903289  48.4450609  18.1345739  64.9007131
  49.5437585  18.9449468  64.7698983  48.8988582  18.7212267  65.1559786
  52.2255505  17.9561694  66.0426906  51.8271788  18.0663965  65.2747726
  51.6106724  18.1643761  66.6253465  52.0754394  18.0035262  66.0158205
  50.7983407   4.5635842  58.9101045  50.2048246   4.8852839  58.3585612
  50.8358685   3.7176937  58.7022151  50.7157796   4.4860170  58.7983817
  53.6741223   4.5215347  62.3402796  53.4454916   4.5448048  61.4981154
  53.9339300   3.6972814  62.4597806  53.6787411   4.4031427  62.2327993
  46.7285986   3.0591893  63.6356991  47.2043352   3.4208973  63.0007172
  46.2274586   3.7148360  63.9157134  46.7251345   3.2086082  63.5833732
  59.9597347  12.5313661  59.4269996  60.3430953  13.2805017  59.6568093
  59.1641461  12.7779481  59.1681985  59.8991130  12.6783355  59.4227570
  48.7712639   5.2033093  57.0030375  49.1511604   5.2212722  56.2181490
  48.0305235   5.6487081  56.8821223  48.7181477   5.2714867  56.8693943
  38.4615201   6.9355068  67.0064770  38.2836962   6.4831677  67.7319686
  38.1734223   7.7381230  67.1903248  38.3928154   6.9877626  67.1408273
  54.1238782   8.1912786  66.2442161  54.6192447   7.4735781  66.2046181
  53.3138557   7.8883583  66.1296648  54.0782675   8.0410432  66.2215887
  49.5697393  12.0410599  58.3939165  48.7608716  11.7177272  58.3472475
  50.0772302  11.3343821  58.3267414  49.5247060  11.8891915  58.3769460
  40.1987670   9.4682792  64.1186530  39.3333190   9.4568483  64.0069301
  40.2986486   9.2813015  64.9657669  40.0861837   9.4388853  64.2275474
  56.1890600  10.9416473  68.9319290  56.6145672  10.4190895  68.3789715
  55.8247520  11.5397311  68.4107912  56.1977203  10.9526700  68.7728299
  45.8244680  19.2380691  67.6916635  46.1391239  20.0517079  67.6994417
  46.2338094  18.8530909  68.3598794  45.9312778  19.3009393  67.7920727
  52.7769200  14.6550737  65.2620447  53.2480378  15.3691000  65.4310432
  53.1129378  14.0549488  65.7980316  52.8964315  14.6722202  65.3652823
  53.4143146  14.4468672  72.0248140  52.8664092  13.8226555  71.7568205
  53.8756175  14.6362944  71.3092219  53.4010356  14.3827722  71.8798571
  43.1657700  13.1853799  67.3395243  43.7702558  13.1449633  66.7109064
  42.9585013  14.0324951  67.3699299  43.2246598  13.3041802  67.2511360
  52.9801473  15.4519744  68.5557481  53.7999846  15.3082710  68.8173776
  52.6995550  16.0765943  69.0973919  53.0598216  15.5230096  68.6745420
  38.4008983  12.1688417  67.2094167  38.3033261  11.3584688  67.5184223
  39.1837852  12.1480210  66.8240435  38.5025119  12.0455507  67.1981029
  69.4515123  23.1084596  61.5200357  69.4209127  23.9629233  61.6918627
  70.0496472  22.8079889  62.0786501  69.5352281  23.1901093  61.6275159
  62.6514808  22.1960247  66.2753288  61.7952703  22.3568745  66.3262404
  62.6982462  21.3252311  66.2958349  62.5313919  22.0911049  66.2859354
  57.0355948  31.7322965  62.0390519  56.2838847  31.3538503  61.8106564
  57.4841959  31.7641398  61.2909329  56.9905614  31.6808572  61.8948021
  62.4880907  32.1548334  57.4676066  62.1532276  32.8325256  57.0320288
  63.0007778  31.7653646  56.8792938  62.5146488  32.1972913  57.3162858
  62.0285199  34.1062603  63.4087178  62.4124578  34.6749502  62.8691953
  61.9644340  33.3812113  62.9292994  62.0758626  34.0838066  63.2581040
  65.4966629  24.2552291  68.9184939  66.0422589  24.9337378  68.9778909
  65.4383505  24.1139752  68.0586521  65.5682543  24.3344293  68.7997000
  58.6140704  31.7441357  64.3053292  58.7151067  30.9341711  64.6150419
  58.0182449  31.6498303  63.6752970  58.5413242  31.6106385  64.2579530
  67.2731697  25.6836898  59.7918667  67.1571223  26.4344584  60.2210805
  68.0687584  25.4260851  60.0414754  67.3736287  25.7571745  59.8922759
  58.4541443  36.6618946  65.7068148  59.0978899  37.1032110  66.0964306
  58.7797699  35.8572372  65.6198406  58.5973272  36.6084141  65.7513625
  51.8105748  27.7661644  63.9305625  51.5755932  26.9329296  63.8237894
  51.9491389  28.0466309  63.1166826  51.7961410  27.6845147  63.7947980
  54.1095835  19.9347374  66.8289933  53.4900867  19.3440021  66.6599948
  54.0079699  20.5258809  66.1954256  54.0033511  19.9351457  66.7094923
  59.1562023  29.6730921  61.0788009  59.4777864  30.2136128  60.4749318
  59.8034119  29.1027692  61.2110299  59.2988078  29.6690096  61.0095045
  61.2063731  21.6746916  61.1622396  61.9043896  21.8535044  61.6543859
  61.5216064  21.1517255  60.5392785  61.3559068  21.6240688  61.1424406
  53.8364968  23.4799656  69.0733502  53.7123665  24.0662101  69.7083321
  54.4883253  22.9859852  69.3745777  53.9138618  23.4938460  69.2119431
  61.3951666  28.0617361  61.1502188  61.8345302  27.4534462  61.5956960
  61.2456329  27.6824734  60.3787653  61.4373132  27.9155832  61.1021355
  58.8623309  26.6561373  68.3521013  59.5072312  26.1633816  68.0331962
  59.1025086  26.7986159  69.1787091  58.9933895  26.6038815  68.4270546
  61.4009401  29.5016279  68.0027906  61.6832644  28.7067684  67.7814662
  62.1295561  29.9796866  68.0232967  61.5498964  29.4550876  67.9730921
  59.3790595  17.0439313  65.2443671  59.0493925  17.4950456  64.5747369
  58.7035596  16.9655476  65.7916677  59.2301031  17.0990448  65.2266894
  64.9961003  26.4144542  58.1032957  64.9112298  27.2705509  58.2482526
  65.4845386  26.1388866  58.7715116  65.0549900  26.5001864  58.2235038
  66.5867002  13.0324836  63.4893281  66.2720443  13.7228314  63.9213704
  66.0693944  12.9769618  62.7878782  66.4631473  13.1259724  63.4490231
  65.9279436  23.0329336  59.6030692  65.3990908  23.2488970  60.2627998
  66.4504456  23.7265475  59.5231661  65.9267889  23.1672473  59.6886291
  71.3827489  28.6075641  64.9763736  70.5525192  28.8186285  65.1397153
  71.3336741  27.7812695  64.7006020  71.2534225  28.5165247  64.9601102
  57.8179044  26.9292553  58.4038160  57.2336259  27.4342585  58.8104024
  57.4149139  26.7034940  57.6634752  57.6718348  26.9700802  58.3543185
  53.3723073  32.6447314  65.2061832  52.8890651  33.3697804  65.1821415
  54.1846391  32.9423444  65.3171989  53.4213820  32.7949668  65.2189111
  59.4437227  31.4379495  67.8111646  58.9264168  31.0786910  67.2072954
  60.1411618  30.9141670  67.8217712  59.4702808  31.3077183  67.7241905
  63.1000819  31.8874309  73.7727819  63.1884165  31.7000450  74.6206029
  63.5290531  31.2411739  73.3732666  63.1762921  31.7637317  73.8399570
  60.6671278  31.1705469  72.7545481  60.1042113  30.7578079  73.2785142
  61.4292302  31.0958375  73.1738624  60.6965727  31.0982870  72.8938482
  62.2756258  23.1758205  56.8807081  62.5152262  23.3836189  56.0682424
  62.5972099  22.3715714  56.9896025  62.3593416  23.0872307  56.7767634
  57.5846549  15.1051601  60.7266618  58.3392517  15.4729918  60.4883669
  57.4074083  15.4791155  61.4945798  57.6701027  15.2149789  60.8051507
  56.2267270  33.1603490  65.3582111  56.9287849  32.6455479  65.4154868
  56.1464753  33.4877642  66.1628986  56.3191030  33.1317716  65.4854904
  57.2746176  23.3979077  74.4862526  57.4466680  23.2884972  75.3347808
  57.8115534  24.0433483  74.2493719  57.3791180  23.4771079  74.5767623
  55.9403613  17.5121920  57.4244731  55.7579187  17.7293801  56.5985724
  56.8029226  17.6260933  57.4803346  56.0408203  17.5611818  57.3099219
  55.5518045  29.3509842  64.8667719  56.3906945  29.5832775  64.9141481
  55.5829814  28.4814154  64.7974755  55.6799763  29.2566789  64.8632364
  56.1770748  29.7710717  69.1681025  56.7168973  29.6281848  69.8384397
  55.4940695  30.1707468  69.5365051  56.1562902  29.8090388  69.3215447
  61.6203333  14.5148331  60.4593755  62.3489493  14.3364286  60.0131912
  61.7098225  15.3566410  60.6700933  61.7409995  14.6132209  60.4247273
  65.6011633  25.4501718  64.3626049  66.3569148  25.8833232  64.4014958
  65.7073958  24.8006488  64.9360685  65.7281804  25.4179202  64.4524075
  68.6391804  29.2774995  65.1128452  68.2027036  29.2811738  65.8687424
  68.3054720  29.9580494  64.6808030  68.5254424  29.3787451  65.1609285
  63.2120878  31.3183328  76.4371603  63.9961295  31.4314176  76.8027345
  63.0117472  30.4924465  76.6330288  63.2986903  31.2130048  76.5205989
  51.5807893  25.9911008  69.3215446  51.3146309  25.1750125  69.4806437
  51.5946458  26.0364164  68.4510962  51.5432616  25.8767913  69.2168928
  55.4865640  20.7896093  55.9367205  54.7723817  20.5034272  56.3489637
  55.9709609  21.1292718  56.5773592  55.4525004  20.7977742  56.0922839
  56.3306500  19.5289387  71.9682454  55.6378297  19.0586366  72.2143186
  56.9466827  19.3027691  72.5424161  56.3191030  19.4256518  72.0891607
  63.3691271  33.2293430  70.0838058  62.5706517  32.9892930  70.3411927
  63.8177283  33.2807823  70.8305106  63.3165883  33.2015821  70.2322982
  71.7736151  25.9955915  64.0048089  72.4352585  25.4346584  63.9043998
  71.1327563  25.5007946  64.3300781  71.7765018  25.8392324  64.0380430
  62.6612958  29.2926047  56.3129013  63.0764107  28.9611070  55.6213508
  61.8304888  29.0594949  56.1849149  62.6000967  29.2097303  56.1919860
  51.9901307  26.7769788  66.6027191  51.8076880  26.7516674  65.7499483
  52.7250976  27.2468725  66.6416099  52.0715371  26.8431150  66.4825109
  68.0600981  27.0121298  63.7460078  68.2956570  27.1566497  62.9186929
  68.2090545  27.7763706  64.1391592  68.1166785  27.1460352  63.6823682
  55.0547059  23.4954791  73.1109299  55.7787031  23.4807821  73.5974194
  55.1563195  24.2050146  72.6131268  55.1765268  23.5979494  73.1088086
  69.8891438  25.8522964  61.5829682  70.2199655  26.3850604  60.9769777
  70.4624526  25.9061851  62.2391633  70.0225117  25.9392532  61.5907464
  65.1023327  23.6987866  62.2653262  65.1970181  24.4377160  62.7192888
  64.4782171  23.2705342  62.6987827  65.0232357  23.7449187  62.3961410
  63.3575801  26.8774079  72.9143543  63.9314663  26.2401323  73.0692107
  63.2790605  26.8778161  72.0453201  63.4309036  26.7839190  72.8089954
  51.9572217  23.6563288  66.7526257  52.5345720  23.5199739  67.3918503
  51.2586279  23.1999072  67.0071842  51.9393239  23.5685555  66.8848547
  65.3546348  25.5436606  55.4990214  65.2726511  25.6138793  56.3645201
  65.9926069  26.1066350  55.3073955  65.4366186  25.6375577  55.5980164
  58.7139520  25.3097344  64.9664741  58.4558764  24.4769079  64.9396040
  58.7688002  25.5354957  64.1257241  58.6839297  25.2195115  64.8384877
  63.7940570  17.4125795  65.0668833  63.0896896  16.9234980  65.2252752
  63.8425544  17.4248269  64.1957278  63.6970621  17.3415443  64.9608173
  57.6874232  22.8635106  65.4529635  57.1123823  23.0227275  66.0893596
  57.3109908  22.2270516  64.9898086  57.5477044  22.7932919  65.4784194
  61.3547520  21.3358456  70.3122014  60.9661953  20.9112673  69.6574205
  60.6902219  21.5840605  70.8199040  61.1994448  21.3097177  70.2909882
  70.9970790  21.0933460  63.0869844  70.7407354  20.2813402  62.8967727
  71.8400103  21.1011028  62.8600031  71.0836815  20.9745458  63.0254661
  47.4331051  22.5075181  63.4674076  47.5191302  22.1307050  64.2487606
  48.0606848  22.1335627  62.9894034  47.5387602  22.3960663  63.5119553
  62.4586459  25.5657060  58.5098821  63.2727097  25.8571953  58.3981592
  62.3945600  24.9116923  57.9357114  62.5689198  25.5122255  58.4087658
  58.3294367  29.0378578  63.6371133  58.9668314  28.7990325  64.1822926
  58.7549438  29.2415737  62.9024293  58.4870533  29.0329588  63.6088290
  53.0207009  31.2766914  67.5205437  53.0611155  31.5481765  66.6925216
  53.5801533  31.8008822  67.9363224  53.1090355  31.3942669  67.4597325
  58.9697182  24.2580868  57.9746022  59.3542335  24.0388574  58.7262567
  58.7208802  25.0843813  58.1047098  58.9899254  24.3479014  58.1047099
  69.7032369  28.0327505  68.9856691  69.3978186  28.7655562  69.3470006
  68.9838585  27.6265435  68.7049477  69.5519712  28.0809238  68.9969828
  60.7115839  29.5151000  65.3164919  60.7854847  29.3526172  66.1706769
  61.5285345  29.7041190  65.0725401  60.8432197  29.5187743  65.4062945
  54.4721596  29.8608863  62.3459362  53.6459713  30.1070600  62.2193641
  54.5333587  29.7820944  63.2121421  54.3595762  29.8853812  62.4548307
  56.6897619  15.9277804  63.3054803  55.8220045  16.0000404  63.3712412
  56.9772824  16.7299883  63.4942778  56.6037367  16.0571951  63.3429569
  59.2520425  32.4785743  60.0478392  59.5418723  32.0874725  59.3237619
  59.9823905  32.6602448  60.4883668  59.4027309  32.4479557  60.0061199
  59.8415170  27.2803489  71.1331523  59.3426863  27.9919257  71.2116411
  60.6515394  27.6004156  71.0949685  59.8871276  27.4330338  71.1388091
  57.1926340  34.4553126  63.1138542  56.9726636  34.1650481  63.9065209
  56.9720862  33.7968081  62.5856454  57.1273934  34.3152834  63.1527451
  56.1043287  26.5426442  65.3794244  55.8156536  25.9163914  65.9139971
  56.9726635  26.4846730  65.4458924  56.1903539  26.4413987  65.4685198
  66.8921185  21.6861226  65.6976226  66.5485951  20.9651561  66.0483475
  66.9914228  21.4775077  64.8554584  66.8563228  21.5485429  65.6247906
  59.3594296  35.8282516  61.8969234  60.0118354  35.2958958  62.1260261
  58.6619905  35.4751168  62.2837109  59.3525014  35.6972039  61.9881402
  56.3075561  28.1821693  61.3036609  57.0621529  28.5634733  61.5172071
  55.7146173  28.6332837  61.7583305  56.3312274  28.3050521  61.4019487
  67.3534214  28.1486930  61.2400214  67.9192247  28.8080140  61.1558757
  66.7062118  28.4936628  61.7116616  67.3412971  28.2968871  61.2972970
  58.7682228  20.1384534  76.4293821  57.9582003  20.4442313  76.3183663
  59.2456914  20.8590116  76.5446405  58.7185706  20.2899135  76.4300892
  57.6273787  29.3530255  66.6776724  57.1054541  29.4930546  67.3628589
  58.0147808  28.5940919  66.8678842  57.6077488  29.2615779  66.8077801
  54.6164971  19.4036064  60.7471679  54.3289767  19.0337334  60.0103626
  55.3035440  19.8730919  60.4855384  54.6753869  19.4183033  60.5986755
  63.8240792  31.0925714  60.6637293  63.5827468  30.3593575  60.2564358
  64.0042125  31.6412571  60.0103626  63.8148416  31.0648105  60.5067516
  59.0540113  26.3834274  62.0758215  58.8582896  26.9909008  61.4818518
  59.2774459  25.6902218  61.5949889  59.0574754  26.3711799  61.9174296
  57.4518643  23.2689012  62.1939084  58.1741295  23.4330170  61.7342890
  56.9726636  23.9898677  62.0878423  57.4882374  23.3987241  62.1104698
  65.4112151  19.6052811  67.5735769  64.5723251  19.6314089  67.3374032
  65.4816518  20.2523546  68.1541115  65.2980544  19.7048936  67.6244885
  55.1026260  25.6747084  71.2993223  55.6147357  25.9531337  70.6501983
  54.8162602  26.4136378  71.6656037  55.1361123  25.8249438  71.2583102
  63.8581429  16.5038188  62.3063384  64.5607782  16.3045936  61.8283343
  63.5925618  15.7314130  62.6132228  63.9228061  16.3601154  62.2808826
  69.2869674  24.8120797  64.8597010  69.2003649  24.9676223  65.7131789
  68.8320154  25.4558873  64.4856415  69.2072931  24.9296552  64.9304117
  52.1893166  20.1817276  61.5956960  52.2909302  20.9843437  61.9237935
  52.9849053  19.9804612  61.2980041  52.3221072  20.2703175  61.5992315
  58.6209985  17.7673473  71.3594265  58.4293182  17.7828607  72.2093689
  59.4708581  17.9637147  71.3360920  58.7185707  17.7987824  71.4817560
  53.0056898  20.2964454  69.3378082  52.8642390  19.4448395  69.4622589
  53.2897461  20.3393115  68.5140288  53.0264744  20.1764204  69.2345706
  63.1595490  22.1331544  63.4822570  62.9130205  22.0527295  64.3159359
  63.4880613  21.3485012  63.2885097  63.1716734  22.0057810  63.5770093
  67.0543539  28.8414904  67.2709351  66.9157899  29.5395950  67.7758093
  66.2743537  28.6863560  66.9145533  66.9186766  28.9215070  67.2935625
  59.1192518  24.8688263  72.8945553  59.2635893  25.4489471  72.2588663
  59.4668166  25.2464560  73.5995408  59.1919979  25.0108967  72.9044548
  61.2912435  24.0678431  70.6770684  60.5435749  24.2609446  70.2718963
  61.4453960  23.2423651  70.4394806  61.2034863  23.9743543  70.5816090
  58.1920273  33.0591035  69.7606580  58.3409836  32.4993951  69.1079984
  58.9720275  33.1383037  70.1439099  58.3294366  32.9876600  69.7203529
  68.5496912  28.1993158  58.0325850  68.1703721  27.4130295  58.0255140
  67.8863157  28.7480015  57.8897494  68.3955387  28.1637982  58.0106647
  60.7173573  33.2305678  71.0391071  60.6417244  32.5614488  71.5941859
  60.6463432  33.9323466  71.5531737  60.6954180  33.2350585  71.1967919
  61.5314212  17.9628982  71.5666088  61.9886826  18.6952956  71.6938880
  61.6070541  17.5395447  72.3253344  61.6105182  18.0086220  71.6967165
  53.7747203  18.2094802  72.6555532  53.2389393  17.5975160  72.9716299
  53.8364968  18.7842938  73.3089199  53.7042836  18.2041730  72.7990959
  61.3743820  31.7506677  61.8714677  62.1393711  31.4816320  61.5497341
  61.2721910  31.2656687  62.5884739  61.4725316  31.6396241  61.9294504
  59.4096590  19.9531086  68.4107912  58.6192665  19.7722546  68.7325248
  59.8057213  19.1758039  68.3938207  59.3513466  19.8118547  68.4560461
  63.8962481  28.7818860  53.8514626  64.6635466  28.8418985  53.4420478
  63.4493790  28.2099302  53.3670944  63.9435908  28.7055436  53.7192336
  64.7940276  27.5873516  66.1367358  64.1185278  27.3558748  66.6380745
  64.8032652  26.9794699  65.5109463  64.6958781  27.4632441  66.1183510
  61.9234420  22.4291345  72.8931411  61.8593561  23.2901302  72.7651548
  62.0631608  22.1123338  72.0926962  61.9349890  22.5091512  72.7559624
  66.7957011  30.4438649  58.3677536  66.8776848  31.2505635  58.0438987
  67.2806753  30.4634608  59.0918310  66.8794169  30.5659311  58.4264435
  60.6053514  25.1223484  67.0347614  60.1815763  25.3227984  66.2986632
  60.4298369  24.2752332  67.1471914  60.5164395  25.0272266  66.9421304
  60.1065208  36.6373997  69.4969071  60.5961138  35.9384787  69.3144736
  59.5349440  36.3397867  70.0845129  60.0949738  36.4900221  69.5570112
  55.8935959  25.6175536  62.4675587  56.0500578  25.5522339  63.3231579
  56.2336552  26.3924088  62.2554266  55.9669194  25.7224734  62.5630181
  62.4315104  24.9933420  61.3368950  62.9730649  24.4903801  61.8007570
  62.7461663  24.9398614  60.5258435  62.5579501  24.9112840  61.2852762
  60.6001553  30.3850771  58.6208978  60.6694374  29.5265310  58.7601978
  61.3790009  30.6022652  58.2928002  60.7254404  30.2903635  58.5926135
  63.5804373  19.8869724  71.3891250  63.7946343  19.2480638  70.8354604
  62.9638272  20.3315548  70.9599112  63.5209702  19.8579868  71.2441681
  64.9909041  32.8088472  62.8345471  64.5988833  32.5055187  62.1168337
  65.1462113  33.6457562  62.6450425  64.9562631  32.8872309  62.7001968
  52.4670221  22.8010486  62.7836354  52.8469185  23.2195031  62.1196621
  51.8925585  23.3823942  63.0905197  52.4381546  22.9488345  62.7313095
  65.1548716  29.3738461  62.7751502  64.7963371  29.5453104  63.5515534
  64.6687427  29.8351667  62.2179500  65.0307413  29.4677432  62.8076771
  62.9719102  12.9969660  66.3778593  62.1012660  12.9708381  66.3311903
  63.2259443  12.8246852  65.5604439  62.8812662  12.9679803  66.2498730
  59.9437081  25.0537627  55.3151736  60.2329606  25.8302509  55.5895310
  60.0308880  24.5426358  56.0166235  59.9991337  25.0929545  55.4594234
  59.9968242  15.0075888  67.8352063  59.4806731  14.3156080  67.9603642
  59.4362171  15.6746665  67.7814662  59.8374756  15.0039146  67.8458129
  62.0660476  15.5468848  69.6644916  61.6792229  15.5717880  70.4458446
  61.5793413  14.9810527  69.2119433  61.9372985  15.4664599  69.7132820
  66.3153455  30.2642357  73.7218703  66.9533176  29.7702553  73.3881159
  65.6727547  30.1919758  73.1370929  66.3147682  30.1801366  73.5861058
  68.0410455  22.1131503  68.2884618  67.6138063  22.0257852  67.5332718
  67.4036508  22.2209279  68.8739462  67.8840062  22.1164163  68.2630060
  66.3707712  30.9562165  70.3624059  67.1600090  30.6051230  70.4826141
  66.5451310  31.7698554  70.1000693  66.5127993  31.0248023  70.3411927
  56.1101022  24.3670891  67.4151848  55.2689029  24.2674765  67.6230742
  56.3191030  25.1366371  67.7666169  56.0165715  24.4662934  67.4979163
  53.5876589  21.9890428  65.2436599  53.1933287  22.0633440  64.4686708
  53.0316706  22.3748374  65.7944961  53.4479401  22.0572203  65.2104259
  65.2241536  14.9671722  64.9240478  65.4291129  14.8994030  65.7697475
  64.8967960  15.7730543  64.8561655  65.2056784  15.0757663  65.0400133
  59.9217687  22.2952290  66.6649446  59.6180825  21.7408279  67.2659853
  59.2197108  22.4744500  66.1777480  59.7733897  22.2397073  66.6819151
  58.9783784  19.6052810  61.2294148  59.2543518  18.8871723  60.8171715
  59.5782453  20.2037730  61.0215254  59.1077049  19.5873181  61.1374909
  57.9836038  29.5102011  71.3721543  57.8756393  29.5204073  72.2383602
  58.1931820  30.3356791  71.1826497  57.9986149  29.6343086  71.4725635
  68.4775224  15.5203486  64.4043243  67.8649537  16.0073889  64.7896975
  68.5739399  14.8446977  64.9480894  68.4013121  15.4921795  64.5422101
  62.4794305  17.2766328  59.5040743  62.9338051  17.4476888  60.2288587
  62.9534350  16.6634438  59.1038518  62.6162625  17.2117213  59.5514504
  56.0009830  26.7614653  68.8343481  55.4097763  27.4024152  68.8046496
  56.7630854  27.1852271  68.8074781  56.0258091  26.9190492  68.8258628
  56.3970453  17.9216651  69.5011499  56.8571934  17.9955581  70.2386622
  56.4426560  18.7197905  69.1511320  56.4721008  18.0510798  69.5584255
  58.0453803  18.5883346  74.0683526  57.6539368  17.9416693  74.5039304
  58.2139665  19.1794781  74.6877781  58.0124713  18.5797614  74.2246232
  65.7599346  32.2123965  66.2675505  65.5619035  32.7014780  65.5731717
  65.1387057  32.4165207  66.8459639  65.6386911  32.3140503  66.2498729
  59.8207325  23.9808862  60.6085750  60.5649370  24.3683138  60.8468700
  59.9668021  23.1366287  60.7726238  59.9517910  23.9139335  60.6679719
  61.7386900  15.7759121  65.6417611  60.8922945  15.9481929  65.5158961
  61.7358033  14.9708465  65.9783440  61.6134050  15.6820150  65.6728738
  62.8085200  19.5534335  66.5079669  62.3345155  19.0276097  67.0184980
  63.1803336  19.0063808  65.9394531  62.7935089  19.3950332  66.4994816
  53.1858231  21.5505842  71.8763215  54.0483844  21.4501551  71.7900545
  52.8550014  20.9700551  71.3148787  53.2643427  21.4497469  71.7808621
  69.0721931  24.6136711  67.9186450  68.8320154  23.7743126  67.9228876
  69.5513938  24.6936878  68.6427223  69.1074115  24.5018111  68.0261252
  64.7368700  20.4470890  59.5705423  64.2091719  20.5299634  58.8811132
  65.1964408  21.1888761  59.5670068  64.7270551  20.5691552  59.4680118
  71.0727118  21.3938168  65.8715709  70.8336888  21.3534002  65.0336493
  71.2361019  22.2409320  65.9981430  71.0617422  21.5130253  65.7669191
  67.6773148  25.7788117  71.8020754  68.4007347  25.3260644  71.6231774
  67.4123111  26.0592783  71.0193082  67.7454422  25.7539086  71.6599469
  56.5460017  20.3748291  68.5373633  55.9213087  20.3866683  67.9299586
  56.2105611  20.8508466  69.1864873  56.4045508  20.4466808  68.5430202
  56.7301765  18.7173409  54.5946318  56.3814570  19.3693135  55.0577867
  56.2498211  18.7030522  53.8670189  56.6072009  18.8116463  54.5557409
  53.2585692  28.4348751  69.9777397  52.7285617  27.7441190  70.0272372
  53.5310785  28.4258936  69.1490106  53.2210414  28.3315883  69.8624813
  64.2905783  29.0174453  58.7015080  65.0139982  29.4832566  58.5579653
  63.8506374  29.0848063  57.9512677  64.3321475  29.0958290  58.5699861
  63.4591938  25.8771996  69.9515769  62.8448931  25.3330046  70.2464404
  63.9759223  25.3636232  69.4721585  63.4447600  25.7208405  69.9239997
  62.6988235  26.9476266  67.6860068  62.2715843  26.3225984  67.2525503
  62.6913179  26.6651187  68.5119075  62.6347376  26.8129046  67.7439895
  55.8150762  21.9841439  70.7548502  55.9744249  21.2284763  71.1600223
  55.6343656  22.5332378  71.4089239  55.8116121  21.9535252  70.9111208
  61.0273945  17.8245020  67.9002602  61.0516432  17.2905132  67.2115382
  61.2785418  17.3162329  68.5628192  61.0683863  17.6705924  67.8967246
  48.5381534  25.1076515  67.3345746  48.4324983  25.0623359  66.4697830
  47.7881754  25.4530296  67.6160031  48.4117137  25.1517423  67.2483075
  57.3075267  16.5515838  67.2808346  57.3473638  17.0525045  67.9943053
  56.4824931  16.6426232  67.0114269  57.1914793  16.6397655  67.3458884
  59.4904880  26.1176578  75.3828640  58.6400510  26.2548293  75.5186285
  59.6533007  25.3840357  75.8276342  59.3888743  26.0290680  75.4684240
  58.7289630  23.0676348  69.5782245  57.8981560  23.2350166  69.3717493
  58.6741147  22.6912299  70.3631130  58.5979045  23.0366079  69.6630773
  57.1025674  21.3431940  60.1072363  57.2428635  21.8404404  60.8101004
  57.6008207  20.6418234  60.2486576  57.1966755  21.3133919  60.2323942
  57.1325896  22.2099051  57.4364939  57.7670976  22.8059476  57.3714401
  57.2151507  21.9102508  58.2510810  57.2382447  22.2539959  57.5468026
  58.7104879  18.1413026  57.4110381  59.0320720  17.6616109  56.7569644
  58.9731823  18.9512672  57.2201193  58.7970905  18.1902924  57.2865873
  61.9401852  29.1631901  70.9309198  61.4326943  29.7167747  71.3749828
  61.6428498  29.2240190  70.1127972  61.8206737  29.2538212  70.8757654
  64.1064034  17.5285220  69.7733861  64.5319106  17.0757747  69.1617387
  63.4921027  16.9745291  70.0498648  64.0792680  17.3799196  69.7238886
  53.6378884  24.4066892  60.7054485  54.1471114  25.0031399  61.0865791
  54.1113157  24.1392865  60.0230905  53.7822260  24.4552707  60.6609008
  64.5509632  33.0795158  58.8613141  63.8338942  32.9056020  58.3960378
  65.2016370  32.8447731  58.3288627  64.5411483  33.0190951  58.7142359
  62.5458257  14.0000320  63.1824438  61.9026575  13.8497966  63.7509576
  62.2057664  13.7542665  62.4173542  62.4003334  13.9412442  63.1527453
  67.1357604  21.9559747  62.6054446  66.4648793  22.4989449  62.4767512
  67.8297354  22.4254602  62.3636141  67.1386471  22.1058018  62.5509974
  61.1844337  34.0956459  67.8366204  60.9609992  33.3375288  68.2050231
  60.6954181  34.1254480  67.1146644  61.0787786  33.9878683  67.7842945
  67.2985731  18.4115630  65.5144819  67.6513341  17.9845353  66.1890618
  66.4400533  18.3266474  65.6445896  67.2235176  18.3360371  65.6339830
  55.9969416  21.0423150  63.5727666  55.2781405  21.4587283  63.8400529
  56.3681778  21.6077389  63.0219304  55.9461348  21.1872432  63.5310473
  65.2968997  21.6750999  69.4629662  65.2766924  21.4934294  70.3164440
  65.3448198  22.5463018  69.4389245  65.3003638  21.7767537  69.5852956
  63.2415327  28.2638191  75.3878138  63.2011182  27.6187868  74.8023294
  64.0538645  28.2074808  75.7003550  63.3558480  28.1597158  75.3475087
  59.8322794  34.3156917  65.2903289  59.4183193  33.6531047  64.9007131
  60.5170168  34.4634776  64.7698983  59.8721166  34.2397575  65.1559786
  63.1988088  33.4747002  66.0426906  62.8004372  33.5849272  65.2747726
  62.5839308  33.6829068  66.6253465  63.0486978  33.5220570  66.0158205
  61.7715990  20.0821150  58.9101045  61.1780830  20.4038146  58.3585612
  61.8091268  19.2362245  58.7022151  61.6890380  20.0045478  58.7983817
  64.6473807  20.0400654  62.3402796  64.4187500  20.0633356  61.4981154
  64.9071883  19.2158122  62.4597806  64.6519995  19.9216734  62.2327993
  58.9293035  21.8935128  71.9427896  58.4171938  21.2856310  72.3012927
  58.7572532  22.6091720  72.4101872  58.8282672  21.9098427  72.0644119
  53.7758750  20.3372703  74.5930258  53.6061340  20.9974078  74.0478464
  53.3324700  20.5479264  75.3142747  53.6858084  20.4658685  74.6191887
  57.7018569  18.5777201  63.6356991  58.1775936  18.9394281  63.0007172
  57.2007169  19.2333668  63.9157134  57.6983928  18.7271390  63.5833732
  70.9329931  28.0498969  59.4269996  71.3163537  28.7990325  59.6568093
  70.1374044  28.2964789  59.1681985  70.8723713  28.1968663  59.4227570
  50.6760815  23.2419568  69.8518747  50.1287534  22.5720214  69.9699616
  51.4653193  22.8749416  69.9162215  50.7112998  23.0884555  69.8787448
  60.5245223  22.9027025  75.3482158  61.2756550  23.2178702  75.6621713
  60.7167799  22.7006196  74.5216080  60.6636637  22.9194407  75.2725554
  59.7445223  20.7218401  57.0030375  60.1244187  20.7398030  56.2181490
  59.0037819  21.1672389  56.8821223  59.6914060  20.7900175  56.8693943
  67.3730513  19.0300592  62.5905954  67.3724740  18.8749248  63.4490230
  67.1686693  19.8763579  62.5347339  67.3430291  19.1321213  62.7093893
  49.4347784  22.4540376  67.0064770  49.2569545  22.0016985  67.7319686
  49.1466806  23.2566538  67.1903248  49.3660737  22.5062934  67.1408273
  65.0971365  23.7098094  66.2442161  65.5925031  22.9921089  66.2046181
  64.2871141  23.4068891  66.1296648  65.0515258  23.5595740  66.2215887
  60.5429977  27.5595907  58.3939165  59.7341299  27.2362580  58.3472475
  61.0504886  26.8529129  58.3267414  60.4979643  27.4077223  58.3769460
  51.1720254  24.9868100  64.1186530  50.3065773  24.9753790  64.0069301
  51.2719070  24.7998323  64.9657669  51.0594421  24.9574161  64.2275474
  67.1623184  26.4601781  68.9319290  67.5878256  25.9376203  68.3789715
  66.7980104  27.0582619  68.4107912  67.1709787  26.4712008  68.7728299
  56.7977264  34.7565999  67.6916635  57.1123823  35.5702387  67.6994417
  57.2070677  34.3716217  68.3598794  56.9045362  34.8194701  67.7920727
  63.7501784  30.1736045  65.2620447  64.2212962  30.8876308  65.4310432
  64.0861962  29.5734796  65.7980316  63.8696899  30.1907510  65.3652823
  64.3875730  29.9653980  72.0248140  63.8396676  29.3411863  71.7568205
  64.8488759  30.1548252  71.3092219  64.3742939  29.9013030  71.8798571
  59.7364393  16.9479929  59.6858007  60.5580088  17.1178242  59.4439702
  59.2734044  17.1027190  58.9624304  59.7895556  16.9961662  59.5429651
  58.3259725  14.9422691  70.4656436  58.8704138  14.6013818  71.0560777
  58.3796661  15.8008153  70.6077720  58.4148845  15.0177950  70.5738309
  54.1390284  28.7039107  67.3395243  54.7435141  28.6634941  66.7109064
  53.9317597  29.5510259  67.3699299  54.1979181  28.8227110  67.2511360
  63.9534056  30.9705052  68.5557481  64.7732430  30.8268018  68.8173776
  63.6728134  31.5951251  69.0973919  64.0330800  31.0415404  68.6745420
  73.6247391  37.7145555  66.2753288  72.7685287  37.8754053  66.3262404
  73.6715045  36.8437619  66.2958349  73.5046503  37.6096357  66.2859354
  68.0088531  47.2508273  62.0390519  67.2571431  46.8723811  61.8106564
  68.4574543  47.2826706  61.2909329  67.9638198  47.1993880  61.8948021
  73.4613491  47.6733642  57.4676066  73.1264859  48.3510564  57.0320288
  73.9740361  47.2838954  56.8792938  73.4879072  47.7158220  57.3162858
  73.0017782  49.6247911  63.4087178  73.3857162  50.1934810  62.8691953
  72.9376923  48.8997421  62.9292994  73.0491209  49.6023374  63.2581040
  76.4699212  39.7737599  68.9184939  77.0155172  40.4522685  68.9778909
  76.4116089  39.6325060  68.0586521  76.5415127  39.8529601  68.7997000
  69.5873287  47.2626665  64.3053292  69.6883650  46.4527019  64.6150419
  68.9915033  47.1683611  63.6752970  69.5145826  47.1291693  64.2579530
  69.4274027  52.1804254  65.7068148  70.0711482  52.6217418  66.0964306
  69.7530282  51.3757680  65.6198406  69.5705856  52.1269449  65.7513625
  62.7838332  43.2846951  63.9305625  62.5488516  42.4514604  63.8237894
  62.9223972  43.5651617  63.1166826  62.7693994  43.2030455  63.7947980
  65.0828419  35.4532682  66.8289933  64.4633451  34.8625329  66.6599948
  64.9812283  36.0444117  66.1954256  64.9766095  35.4536765  66.7094923
  70.1294607  45.1916229  61.0788009  70.4510448  45.7321436  60.4749318
  70.7766703  44.6213000  61.2110299  70.2720662  45.1875404  61.0095045
  72.1796315  37.1932224  61.1622396  72.8776479  37.3720351  61.6543859
  72.4948647  36.6702563  60.5392785  72.3291652  37.1425996  61.1424406
  64.8097552  38.9984964  69.0733502  64.6856249  39.5847409  69.7083321
  65.4615837  38.5045160  69.3745777  64.8871201  39.0123768  69.2119431
  72.3684250  43.5802669  61.1502188  72.8077885  42.9719769  61.5956960
  72.2188913  43.2010042  60.3787653  72.4105716  43.4341140  61.1021355
  69.8355893  42.1746681  68.3521013  70.4804896  41.6819124  68.0331962
  70.0757670  42.3171467  69.1787091  69.9666478  42.1224123  68.4270546
  72.3741984  45.0201587  68.0027906  72.6565227  44.2252992  67.7814662
  73.1028145  45.4982174  68.0232967  72.5231548  44.9736184  67.9730921
  70.3523178  32.5624621  65.2443671  70.0226508  33.0135764  64.5747369
  69.6768180  32.4840784  65.7916677  70.2033615  32.6175756  65.2266894
  75.9693587  41.9329850  58.1032957  75.8844882  42.7890817  58.2482526
  76.4577970  41.6574174  58.7715116  76.0282484  42.0187172  58.2235038
  77.5599586  28.5510143  63.4893281  77.2453027  29.2413622  63.9213704
  77.0426528  28.4954926  62.7878782  77.4364056  28.6445032  63.4490231
  76.9012020  38.5514644  59.6030692  76.3723491  38.7674278  60.2627998
  77.4237040  39.2450783  59.5231661  76.9000473  38.6857781  59.6886291
  68.7911628  42.4477861  58.4038160  68.2068843  42.9527893  58.8104024
  68.3881723  42.2220248  57.6634752  68.6450931  42.4886109  58.3543185
  64.3455656  48.1632622  65.2061832  63.8623234  48.8883112  65.1821415
  65.1578974  48.4608752  65.3171989  64.3946404  48.3134976  65.2189111
  70.4169810  46.9564803  67.8111646  69.8996752  46.5972218  67.2072954
  71.1144202  46.4326977  67.8217712  70.4435391  46.8262491  67.7241905
  73.2488842  38.6943513  56.8807081  73.4884846  38.9021497  56.0682424
  73.5704683  37.8901022  56.9896025  73.3326000  38.6057614  56.7767634
  68.5579132  30.6236909  60.7266618  69.3125100  30.9915226  60.4883669
  68.3806667  30.9976463  61.4945798  68.6433611  30.7335097  60.8051507
  67.1999853  48.6788798  65.3582111  67.9020433  48.1640787  65.4154868
  67.1197337  49.0062950  66.1628986  67.2923614  48.6503024  65.4854904
  68.2478760  38.9164385  74.4862526  68.4199264  38.8070280  75.3347808
  68.7848118  39.5618791  74.2493719  68.3523764  38.9956387  74.5767623
  66.9136197  33.0307228  57.4244731  66.7311770  33.2479109  56.5985724
  67.7761810  33.1446241  57.4803346  67.0140786  33.0797126  57.3099219
  66.5250629  44.8695150  64.8667719  67.3639528  45.1018083  64.9141481
  66.5562398  43.9999462  64.7974755  66.6532346  44.7752097  64.8632364
  67.1503332  45.2896025  69.1681025  67.6901557  45.1467156  69.8384397
  66.4673278  45.6892776  69.5365051  67.1295486  45.3275696  69.3215447
  72.5935916  30.0333639  60.4593755  73.3222077  29.8549594  60.0131912
  72.6830809  30.8751718  60.6700933  72.7142578  30.1317517  60.4247273
  76.5744217  40.9687026  64.3626049  77.3301732  41.4018540  64.4014958
  76.6806541  40.3191796  64.9360685  76.7014387  40.9364510  64.4524075
  62.5540477  41.5096316  69.3215446  62.2878892  40.6935433  69.4806437
  62.5679041  41.5549472  68.4510962  62.5165199  41.3953221  69.2168928
  66.4598224  36.3081401  55.9367205  65.7456401  36.0219580  56.3489637
  66.9442193  36.6478026  56.5773592  66.4257587  36.3163050  56.0922839
  67.3039083  35.0474694  71.9682454  66.6110880  34.5771674  72.2143186
  67.9199411  34.8212999  72.5424161  67.2923613  34.9441826  72.0891607
  73.6345542  44.8111355  56.3129013  74.0496690  44.4796378  55.6213508
  72.8037471  44.5780257  56.1849149  73.5733551  44.7282611  56.1919860
  62.9633891  42.2955096  66.6027191  62.7809464  42.2701982  65.7499483
  63.6983560  42.7654033  66.6416099  63.0447955  42.3616458  66.4825109
  66.0279642  39.0140098  73.1109299  66.7519615  38.9993129  73.5974194
  66.1295779  39.7235454  72.6131268  66.1497851  39.1164802  73.1088086
  62.9304801  39.1748596  66.7526257  63.5078304  39.0385047  67.3918503
  62.2318863  38.7184380  67.0071842  62.9125822  39.0870862  66.8848547
  76.3278932  41.0621914  55.4990214  76.2459095  41.1324101  56.3645201
  76.9658652  41.6251658  55.3073955  76.4098769  41.1560885  55.5980164
  69.6872103  40.8282652  64.9664741  69.4291347  39.9954387  64.9396040
  69.7420586  41.0540265  64.1257241  69.6571881  40.7380423  64.8384877
  74.7673153  32.9311103  65.0668833  74.0629480  32.4420288  65.2252752
  74.8158128  32.9433577  64.1957278  74.6703205  32.8600751  64.9608173
  68.6606815  38.3820414  65.4529635  68.0856407  38.5412583  66.0893596
  68.2842492  37.7455824  64.9898086  68.5209628  38.3118227  65.4784194
  72.3280104  36.8543764  70.3122014  71.9394537  36.4297981  69.6574205
  71.6634802  37.1025913  70.8199040  72.1727032  36.8282485  70.2909882
  58.4063634  38.0260489  63.4674076  58.4923886  37.6492357  64.2487606
  59.0339432  37.6520935  62.9894034  58.5120185  37.9145971  63.5119553
  73.4319042  41.0842368  58.5098821  74.2459681  41.3757261  58.3981592
  73.3678183  40.4302231  57.9357114  73.5421781  41.0307563  58.4087658
  69.3026950  44.5563886  63.6371133  69.9400897  44.3175633  64.1822926
  69.7282022  44.7601045  62.9024293  69.4603117  44.5514896  63.6088290
  63.9939593  46.7952222  67.5205437  64.0343738  47.0667073  66.6925216
  64.5534117  47.3194130  67.9363224  64.0822939  46.9127977  67.4597325
  69.9429765  39.7766175  57.9746022  70.3274918  39.5573882  58.7262567
  69.6941386  40.6029121  58.1047098  69.9631838  39.8664322  58.1047099
  71.6848422  45.0336308  65.3164919  71.7587431  44.8711480  66.1706769
  72.5017929  45.2226498  65.0725401  71.8164781  45.0373051  65.4062945
  65.4454179  45.3794171  62.3459362  64.6192297  45.6255908  62.2193641
  65.5066170  45.3006252  63.2121421  65.3328346  45.4039120  62.4548307
  67.6630203  31.4463112  63.3054803  66.7952628  31.5185712  63.3712412
  67.9505407  32.2485191  63.4942778  67.5769951  31.5757259  63.3429569
  70.2253008  47.9971051  60.0478392  70.5151307  47.6060033  59.3237619
  70.9556489  48.1787756  60.4883668  70.3759892  47.9664865  60.0061199
  70.8147753  42.7988797  71.1331523  70.3159447  43.5104565  71.2116411
  71.6247978  43.1189464  71.0949685  70.8603860  42.9515646  71.1388091
  68.1658924  49.9738434  63.1138542  67.9459219  49.6835789  63.9065209
  67.9453446  49.3153389  62.5856454  68.1006518  49.8338142  63.1527451
  67.0775871  42.0611750  65.3794244  66.7889120  41.4349222  65.9139971
  67.9459219  42.0032038  65.4458924  67.1636123  41.9599295  65.4685198
  77.8653769  37.2046534  65.6976226  77.5218535  36.4836869  66.0483475
  77.9646811  36.9960385  64.8554584  77.8295812  37.0670737  65.6247906
  70.3326879  51.3467824  61.8969234  70.9850937  50.8144266  62.1260261
  69.6352488  50.9936476  62.2837109  70.3257597  51.2157347  61.9881402
  67.2808144  43.7007001  61.3036609  68.0354112  44.0820040  61.5172071
  66.6878757  44.1518145  61.7583305  67.3044858  43.8235829  61.4019487
  69.7414811  35.6569842  76.4293821  68.9314587  35.9627621  76.3183663
  70.2189498  36.3775424  76.5446405  69.6918290  35.8084443  76.4300892
  68.6006371  44.8715563  66.6776724  68.0787124  45.0115854  67.3628589
  68.9880391  44.1126227  66.8678842  68.5810072  44.7801087  66.8077801
  65.5897555  34.9221371  60.7471679  65.3022351  34.5522642  60.0103626
  66.2768023  35.3916227  60.4855384  65.6486452  34.9368341  60.5986755
  74.7973376  46.6111022  60.6637293  74.5560052  45.8778883  60.2564358
  74.9774709  47.1597879  60.0103626  74.7881000  46.5833413  60.5067516
  70.0272696  41.9019582  62.0758215  69.8315479  42.5094316  61.4818518
  70.2507042  41.2087526  61.5949889  70.0307338  41.8897107  61.9174296
  68.4251227  38.7874320  62.1939084  69.1473878  38.9515478  61.7342890
  67.9459219  39.5083984  62.0878423  68.4614957  38.9172549  62.1104698
  76.3844734  35.1238118  67.5735769  75.5455835  35.1499397  67.3374032
  76.4549101  35.7708854  68.1541115  76.2713128  35.2234244  67.6244885
  66.0758843  41.1932392  71.2993223  66.5879940  41.4716645  70.6501983
  65.7895186  41.9321686  71.6656037  66.1093706  41.3434746  71.2583102
  74.8314012  32.0223495  62.3063384  75.5340365  31.8231244  61.8283343
  74.5658201  31.2499438  62.6132228  74.8960645  31.8786462  62.2808826
  63.1625750  35.7002584  61.5956960  63.2641886  36.5028745  61.9237935
  63.9581636  35.4989920  61.2980041  63.2953655  35.7888483  61.5992315
  69.5942569  33.2858781  71.3594265  69.4025766  33.3013915  72.2093689
  70.4441165  33.4822455  71.3360920  69.6918291  33.3173132  71.4817560
  63.9789482  35.8149762  69.3378082  63.8374973  34.9633703  69.4622589
  64.2630045  35.8578423  68.5140288  63.9997328  35.6949512  69.2345706
  74.1328074  37.6516852  63.4822570  73.8862788  37.5712603  64.3159359
  74.4613197  36.8670320  63.2885097  74.1449318  37.5243118  63.5770093
  78.0276123  44.3600212  67.2709351  77.8890482  45.0581257  67.7758093
  77.2476121  44.2048868  66.9145533  77.8919350  44.4400378  67.2935625
  70.0925101  40.3873571  72.8945553  70.2368477  40.9674779  72.2588663
  70.4400750  40.7649868  73.5995408  70.1652563  40.5294275  72.9044548
  72.2645019  39.5863739  70.6770684  71.5168333  39.7794754  70.2718963
  72.4186544  38.7608959  70.4394806  72.1767446  39.4928851  70.5816090
  72.5046796  33.4814290  71.5666088  72.9619410  34.2138264  71.6938880
  72.5803124  33.0580755  72.3253344  72.5837765  33.5271528  71.6967165
  64.7479787  33.7280110  72.6555532  64.2121976  33.1160468  72.9716299
  64.8097552  34.3028246  73.3089199  64.6775420  33.7227037  72.7990959
  72.3476404  47.2691985  61.8714677  73.1126295  47.0001628  61.5497341
  72.2454494  46.7841995  62.5884739  72.4457899  47.1581549  61.9294504
  70.3829174  35.4716394  68.4107912  69.5925248  35.2907854  68.7325248
  70.7789796  34.6943347  68.3938207  70.3246050  35.3303855  68.4560461
  74.8695064  44.3004168  53.8514626  75.6368049  44.3604293  53.4420478
  74.4226373  43.7284610  53.3670944  74.9168492  44.2240744  53.7192336
  75.7672860  43.1058824  66.1367358  75.0917862  42.8744056  66.6380745
  75.7765236  42.4980007  65.5109463  75.6691364  42.9817749  66.1183510
  72.8967004  37.9476653  72.8931411  72.8326145  38.8086610  72.7651548
  73.0364192  37.6308646  72.0926962  72.9082474  38.0276820  72.7559624
  77.7689594  45.9623956  58.3677536  77.8509432  46.7690943  58.0438987
  78.2539337  45.9819916  59.0918310  77.8526752  46.0844619  58.4264435
  71.5786098  40.6408792  67.0347614  71.1548347  40.8413291  66.2986632
  71.4030953  39.7937640  67.1471914  71.4896978  40.5457574  66.9421304
  66.8668543  41.1360844  62.4675587  67.0233162  41.0707647  63.3231579
  67.2069136  41.9109396  62.2554266  66.9401778  41.2410042  62.5630181
  73.4047687  40.5118727  61.3368950  73.9463233  40.0089109  61.8007570
  73.7194246  40.4583922  60.5258435  73.5312084  40.4298148  61.2852762
  71.5734137  45.9036079  58.6208978  71.6426957  45.0450617  58.7601978
  72.3522592  46.1207960  58.2928002  71.6986987  45.8088943  58.5926135
  74.5536957  35.4055032  71.3891250  74.7678926  34.7665946  70.8354604
  73.9370856  35.8500856  70.9599112  74.4942286  35.3765176  71.2441681
  75.9641625  48.3273780  62.8345471  75.5721416  48.0240495  62.1168337
  76.1194697  49.1642870  62.6450425  75.9295214  48.4057617  62.7001968
  63.4402804  38.3195794  62.7836354  63.8201769  38.7380339  62.1196621
  62.8658169  38.9009250  63.0905197  63.4114129  38.4673653  62.7313095
  76.1281299  44.8923769  62.7751502  75.7695954  45.0638412  63.5515534
  75.6420010  45.3536975  62.2179500  76.0039996  44.9862740  62.8076771
  73.9451685  28.5154968  66.3778593  73.0745243  28.4893689  66.3311903
  74.1992027  28.3432160  65.5604439  73.8545245  28.4865111  66.2498730
  70.9169665  40.5722934  55.3151736  71.2062190  41.3487817  55.5895310
  71.0041464  40.0611666  56.0166235  70.9723921  40.6114853  55.4594234
  70.9700826  30.5261196  67.8352063  70.4539314  29.8341388  67.9603642
  70.4094755  31.1931973  67.7814662  70.8107339  30.5224454  67.8458129
  73.0393059  31.0654156  69.6644916  72.6524812  31.0903188  70.4458446
  72.5525997  30.4995835  69.2119433  72.9105568  30.9849907  69.7132820
  67.0833606  39.8856199  67.4151848  66.2421612  39.7860073  67.6230742
  67.2923614  40.6551679  67.7666169  66.9898298  39.9848242  67.4979163
  64.5609173  37.5075736  65.2436599  64.1665870  37.5818748  64.4686708
  64.0049290  37.8933682  65.7944961  64.4211985  37.5757511  65.2104259
  76.1974119  30.4857030  64.9240478  76.4023713  30.4179338  65.7697475
  75.8700543  31.2915851  64.8561655  76.1789367  30.5942970  65.0400133
  70.8950271  37.8137598  66.6649446  70.5913408  37.2593587  67.2659853
  70.1929691  37.9929808  66.1777480  70.7466480  37.7582381  66.6819151
  69.9516368  35.1238118  61.2294148  70.2276102  34.4057031  60.8171715
  70.5515037  35.7223038  61.0215254  70.0809632  35.1058489  61.1374909
  68.9568622  45.0287319  71.3721543  68.8488977  45.0389381  72.2383602
  69.1664403  45.8542099  71.1826497  68.9718733  45.1528394  71.4725635
  73.4526888  32.7951635  59.5040743  73.9070635  32.9662196  60.2288587
  73.9266934  32.1819746  59.1038518  73.5895208  32.7302521  59.5514504
  66.9742414  42.2799961  68.8343481  66.3830347  42.9209460  68.8046496
  67.7363437  42.7037579  68.8074781  66.9990674  42.4375800  68.8258628
  67.3703036  33.4401959  69.5011499  67.8304518  33.5140889  70.2386622
  67.4159143  34.2383213  69.1511320  67.4453592  33.5696106  69.5584255
  69.0186386  34.1068654  74.0683526  68.6271951  33.4602001  74.5039304
  69.1872249  34.6980089  74.6877781  68.9857296  34.0982922  74.2246232
  76.7331930  47.7309273  66.2675505  76.5351619  48.2200087  65.5731717
  76.1119641  47.9350514  66.8459639  76.6119494  47.8325811  66.2498729
  70.7939908  39.4994170  60.6085750  71.5381953  39.8868446  60.8468700
  70.9400604  38.6551595  60.7726238  70.9250493  39.4324643  60.6679719
  72.7119484  31.2944429  65.6417611  71.8655529  31.4667236  65.5158961
  72.7090616  30.4893772  65.9783440  72.5866634  31.2005458  65.6728738
  73.7817784  35.0719643  66.5079669  73.3077738  34.5461405  67.0184980
  74.1535920  34.5249116  65.9394531  73.7667673  34.9135640  66.4994816
  64.1590814  37.0691150  71.8763215  65.0216427  36.9686859  71.7900545
  63.8282597  36.4885859  71.3148787  64.2376011  36.9682777  71.7808621
  75.7101284  35.9656198  59.5705423  75.1824302  36.0484942  58.8811132
  76.1696992  36.7074069  59.5670068  75.7003134  36.0876860  59.4680118
  67.5192600  35.8933599  68.5373633  66.8945670  35.9051991  67.9299586
  67.1838195  36.3693774  69.1864873  67.3778092  35.9652116  68.5430202
  67.7034349  34.2358717  54.5946318  67.3547153  34.8878443  55.0577867
  67.2230795  34.2215830  53.8670189  67.5804593  34.3301771  54.5557409
  64.2318276  43.9534059  69.9777397  63.7018200  43.2626498  70.0272372
  64.5043369  43.9444244  69.1490106  64.1942998  43.8501191  69.8624813
  75.2638366  44.5359761  58.7015080  75.9872565  45.0017874  58.5579653
  74.8238957  44.6033371  57.9512677  75.3054058  44.6143598  58.5699861
  74.4324521  41.3957303  69.9515769  73.8181514  40.8515354  70.2464404
  74.9491806  40.8821540  69.4721585  74.4180184  41.2393713  69.9239997
  73.6720818  42.4661574  67.6860068  73.2448427  41.8411292  67.2525503
  73.6645763  42.1836495  68.5119075  73.6079960  42.3314354  67.7439895
  66.7883346  37.5026747  70.7548502  66.9476832  36.7470071  71.1600223
  66.6076239  38.0517686  71.4089239  66.7848705  37.4720560  70.9111208
  72.0006528  33.3430328  67.9002602  72.0249015  32.8090440  67.2115382
  72.2518002  32.8347637  68.5628192  72.0416447  33.1891232  67.8967246
  59.5114118  40.6261823  67.3345746  59.4057567  40.5808667  66.4697830
  58.7614338  40.9715604  67.6160031  59.3849721  40.6702731  67.2483075
  68.2807850  32.0701146  67.2808346  68.3206222  32.5710353  67.9943053
  67.4557515  32.1611540  67.0114269  68.1647376  32.1582963  67.3458884
  69.7022214  38.5861656  69.5782245  68.8714143  38.7535474  69.3717493
  69.6473731  38.2097607  70.3631130  69.5711629  38.5551387  69.6630773
  68.0758258  36.8617248  60.1072363  68.2161219  37.3589712  60.8101004
  68.5740790  36.1603542  60.2486576  68.1699339  36.8319226  60.2323942
  68.1058480  37.7284359  57.4364939  68.7403559  38.3244784  57.3714401
  68.1884091  37.4287816  58.2510810  68.2115031  37.7725267  57.5468026
  69.6837463  33.6598334  57.4110381  70.0053304  33.1801417  56.7569644
  69.9464407  34.4697980  57.2201193  69.7703488  33.7088232  57.2865873
  75.0796618  33.0470528  69.7733861  75.5051689  32.5943055  69.1617387
  74.4653611  32.4930599  70.0498648  75.0525263  32.8984504  69.7238886
  64.6111468  39.9252199  60.7054485  65.1203697  40.5216707  61.0865791
  65.0845740  39.6578173  60.0230905  64.7554844  39.9738015  60.6609008
  75.5242216  48.5980466  58.8613141  74.8071526  48.4241328  58.3960378
  76.1748954  48.3633038  58.3288627  75.5144066  48.5376259  58.7142359
  73.5190841  29.5185628  63.1824438  72.8759159  29.3683274  63.7509576
  73.1790248  29.2727973  62.4173542  73.3735918  29.4597750  63.1527453
  72.1576921  49.6141767  67.8366204  71.9342575  48.8560596  68.2050231
  71.6686764  49.6439788  67.1146644  72.0520370  49.5063991  67.7842945
  78.2718315  33.9300938  65.5144819  78.6245925  33.5030661  66.1890618
  77.4133116  33.8451782  65.6445896  78.1967759  33.8545679  65.6339830
  66.9702000  36.5608458  63.5727666  66.2513989  36.9772591  63.8400529
  67.3414362  37.1262697  63.0219304  66.9193931  36.7057739  63.5310473
  76.2701580  37.1936307  69.4629662  76.2499508  37.0119602  70.3164440
  76.3180781  38.0648325  69.4389245  76.2736221  37.2952845  69.5852956
  70.8055378  49.8342225  65.2903289  70.3915776  49.1716355  64.9007131
  71.4902752  49.9820084  64.7698983  70.8453750  49.7582883  65.1559786
  74.1720672  48.9932310  66.0426906  73.7736955  49.1034580  65.2747726
  73.5571892  49.2014376  66.6253465  74.0219561  49.0405878  66.0158205
  72.7448574  35.6006458  58.9101045  72.1513413  35.9223454  58.3585612
  72.7823852  34.7547553  58.7022151  72.6622963  35.5230786  58.7983817
  75.6206391  35.5585962  62.3402796  75.3920084  35.5818664  61.4981154
  75.8804467  34.7343429  62.4597806  75.6252579  35.4402042  62.2327993
  69.9025619  37.4120435  71.9427896  69.3904522  36.8041618  72.3012927
  69.7305115  38.1277028  72.4101872  69.8015256  37.4283735  72.0644119
  64.7491334  35.8558011  74.5930258  64.5793924  36.5159386  74.0478464
  64.3057284  36.0664572  75.3142747  64.6590667  35.9843993  74.6191887
  68.6751153  34.0962509  63.6356991  69.1508519  34.4579589  63.0007172
  68.1739753  34.7518976  63.9157134  68.6716512  34.2456697  63.5833732
  61.6493398  38.7604876  69.8518747  61.1020118  38.0905522  69.9699616
  62.4385776  38.3934724  69.9162215  61.6845582  38.6069863  69.8787448
  70.7177806  36.2403709  57.0030375  71.0976771  36.2583338  56.2181490
  69.9770402  36.6857697  56.8821223  70.6646644  36.3085483  56.8693943
  78.3463097  34.5485900  62.5905954  78.3457323  34.3934556  63.4490230
  78.1419277  35.3948887  62.5347339  78.3162875  34.6506520  62.7093893
  60.4080368  37.9725684  67.0064770  60.2302129  37.5202293  67.7319686
  60.1199390  38.7751846  67.1903248  60.3393321  38.0248242  67.1408273
  76.0703949  39.2283402  66.2442161  76.5657614  38.5106397  66.2046181
  75.2603725  38.9254199  66.1296648  76.0247842  39.0781048  66.2215887
  71.5162560  43.0781215  58.3939165  70.7073883  42.7547888  58.3472475
  72.0237469  42.3714437  58.3267414  71.4712227  42.9262531  58.3769460
  62.1452838  40.5053408  64.1186530  61.2798357  40.4939098  64.0069301
  62.2451653  40.3183631  64.9657669  62.0327005  40.4759469  64.2275474
  78.1355768  41.9787089  68.9319290  78.5610839  41.4561511  68.3789715
  77.7712687  42.5767926  68.4107912  78.1442370  41.9897316  68.7728299
  67.7709847  50.2751307  67.6916635  68.0856406  51.0887695  67.6994417
  68.1803261  49.8901525  68.3598794  67.8777945  50.3380009  67.7920727
  74.7234367  45.6921353  65.2620447  75.1945545  46.4061616  65.4310432
  75.0594546  45.0920103  65.7980316  74.8429482  45.7092818  65.3652823
  70.7096977  32.4665237  59.6858007  71.5312671  32.6363550  59.4439702
  70.2466628  32.6212498  58.9624304  70.7628139  32.5146970  59.5429651
  69.2992309  30.4607999  70.4656436  69.8436722  30.1199126  71.0560777
  69.3529245  31.3193460  70.6077720  69.3881428  30.5363258  70.5738309
  65.1122868  44.2224415  67.3395243  65.7167725  44.1820249  66.7109064
  64.9050180  45.0695567  67.3699299  65.1711765  44.3412417  67.2511360
  60.3474150  43.2059033  67.2094167  60.2498428  42.3955304  67.5184223
  61.1303020  43.1850826  66.8240435  60.4490286  43.0826123  67.1981029
  77.4330808  51.8266709  55.9367205  76.7188985  51.5404888  56.3489637
  77.9174776  52.1663334  56.5773592  77.3990171  51.8348358  56.0922839
  69.3796218  53.5445797  63.4674076  69.4656470  53.1677665  64.2487606
  70.0072015  53.1706243  62.9894034  69.4852769  53.4331279  63.5119553
  76.5630139  50.4406679  60.7471679  76.2754934  50.0707950  60.0103626
  77.2500607  50.9101535  60.4855384  76.6219036  50.4553649  60.5986755
  74.1358333  51.2187892  61.5956960  74.2374470  52.0214053  61.9237935
  74.9314220  51.0175228  61.2980041  74.2686239  51.3073791  61.5992315
  74.4135388  53.8381102  62.7836354  74.7934353  54.2565647  62.1196621
  73.8390753  54.4194558  63.0905197  74.3846713  53.9858961  62.7313095
  75.5844051  55.4437507  60.7054485  76.0936281  56.0402015  61.0865791
  76.0578324  55.1763481  60.0230905  75.7287427  55.4923323  60.6609008
  77.9434583  52.0793766  63.5727666  77.2246572  52.4957899  63.8400529
  78.3146945  52.6448005  63.0219304  77.8926515  52.2243047  63.5310473
  56.7306771   8.6701096  48.9730566  55.9789671   8.2916634  48.7446611
  57.1792783   8.7019530  48.2249376  56.6856438   8.6186703  48.8288068
  62.1831731   9.0926466  44.4016113  61.8483100   9.7703387  43.9660335
  62.6958602   8.7031777  43.8132985  62.2097312   9.1351044  44.2502905
  61.7236023  11.0440734  50.3427225  62.1075402  11.6127633  49.8032000
  61.6595164  10.3190245  49.8633041  61.7709450  11.0216198  50.1921087
  58.3091528   8.6819488  51.2393338  58.4101891   7.8719842  51.5490466
  57.7133273   8.5876435  50.6093017  58.2364066   8.5484516  51.1919577
  58.1492267  13.5997077  52.6408195  58.7929723  14.0410241  53.0304353
  58.4748523  12.7950504  52.5538453  58.2924096  13.5462272  52.6853672
  51.5056572   4.7039775  50.8645672  51.2706756   3.8707427  50.7577941
  51.6442213   4.9844440  50.0506873  51.4912234   4.6223278  50.7288027
  58.8512847   6.6109052  48.0128056  59.1728688   7.1514260  47.4089364
  59.4984943   6.0405824  48.1450346  58.9938902   6.6068227  47.9435092
  53.0673897   9.5825446  52.1401878  52.5841475  10.3075935  52.1161462
  53.8797215   9.8801576  52.2512036  53.1164644   9.7327799  52.1529158
  59.1388051   8.3757626  54.7451693  58.6214992   8.0165041  54.1413001
  59.8362442   7.8519801  54.7557759  59.1653632   8.2455314  54.6581951
  62.7951643   8.8252440  60.7067866  62.8834988   8.6378581  61.5546076
  63.2241355   8.1789870  60.3072713  62.8713745   8.7015448  60.7739617
  60.3622102   8.1083600  59.6885528  59.7992937   7.6956210  60.2125189
  61.1243126   8.0336506  60.1078671  60.3916551   8.0361001  59.8278528
  55.9218094  10.0981621  52.2922158  56.6238673   9.5833611  52.3494915
  55.8415577  10.4255773  53.0969033  56.0141854  10.0695848  52.4194950
  55.2468869   6.2887973  51.8007766  56.0857769   6.5210906  51.8481528
  55.2780638   5.4192285  51.7314802  55.3750587   6.1944920  51.7972411
  55.8721572   6.7088849  56.1021072  56.4119797   6.5659980  56.7724444
  55.1891519   7.1085599  56.4705098  55.8513726   6.7468520  56.2555493
  62.9071702   8.2561459  63.3711649  63.6912119   8.3692307  63.7367392
  62.7068296   7.4302596  63.5670335  62.9937727   8.1508179  63.4546035
  63.0642095  10.1671561  57.0178105  62.2657341   9.9271061  57.2751974
  63.5128107  10.2185954  57.7645153  63.0116706  10.1393953  57.1663029
  51.6852131   3.7147919  53.5367238  51.5027704   3.6894805  52.6839530
  52.4201800   4.1846857  53.5756146  51.7666195   3.7809281  53.4165156
  58.0245191   5.9756709  50.5711180  58.6619138   5.7368457  51.1162973
  58.4500262   6.1793868  49.8364340  58.1821357   5.9707719  50.5428337
  52.7157833   8.2145045  54.4545483  52.7561978   8.4859897  53.6265263
  53.2752357   8.7386954  54.8703271  52.8041179   8.3320801  54.3937371
  60.4066663   6.4529132  52.2504966  60.4805671   6.2904303  53.1046816
  61.2236169   6.6419321  52.0065447  60.5383021   6.4565874  52.3402991
  54.1672419   6.7986994  49.2799409  53.3410537   7.0448732  49.1533688
  54.2284411   6.7199075  50.1461467  54.0546586   6.8231943  49.3888354
  58.9471248   9.4163875  46.9818439  59.2369547   9.0252856  46.2577666
  59.6774729   9.5980580  47.4223714  59.0978133   9.3857688  46.9401246
  56.8877164  11.3931257  50.0478589  56.6677459  11.1028612  50.8405256
  56.6671686  10.7346212  49.5196501  56.8224758  11.2530965  50.0867498
  59.0545120  12.7660647  48.8309281  59.7069178  12.2337089  49.0600307
  58.3570729  12.4129299  49.2177155  59.0475838  12.6350170  48.9221449
  56.0026385   5.1199825  48.2376656  56.7572353   5.5012864  48.4512118
  55.4096997   5.5710968  48.6923352  56.0263098   5.2428652  48.3359534
  57.3224611   6.2908386  53.6116771  56.8005365   6.4308678  54.2968636
  57.7098632   5.5319050  53.8018888  57.3028312   6.1993910  53.7417848
  63.5191616   8.0303845  47.5977340  63.2778292   7.2971706  47.1904405
  63.6992949   8.5790702  46.9443673  63.5099240   8.0026236  47.4407563
  57.8871097   9.9969166  56.6946627  58.0360660   9.4372082  56.0420031
  58.6671099  10.0761168  57.0779145  58.0245190   9.9254731  56.6543576
  60.4124397  10.1683809  57.9731117  60.3368068   9.4992619  58.5281906
  60.3414256  10.8701597  58.4871784  60.3905004  10.1728716  58.1307965
  61.0694644   8.6884808  48.8054723  61.8344535   8.4194451  48.4837388
  60.9672734   8.2034818  49.5224786  61.1676140   8.5774372  48.8634551
  59.8016032  13.5752129  56.4309118  60.2911962  12.8762918  56.2484783
  59.2300264  13.2775999  57.0185175  59.7900561  13.4278352  56.4910159
  60.2952377   7.3228902  45.5549025  60.3645198   6.4643441  45.6942025
  61.0740833   7.5400783  45.2268049  60.4205227   7.2281766  45.5266182
  64.6859865   9.7466604  49.7685518  64.2939657   9.4433319  49.0508384
  64.8412937  10.5835693  49.5790472  64.6513455   9.8250440  49.6342015
  57.6786862   6.4480142  58.3061590  57.5707217   6.4582204  59.1723648
  57.8882643   7.2734923  58.1166544  57.6936973   6.5721217  58.4065682
  65.4550170   9.1502096  53.2015552  65.2569859   9.6392911  52.5071764
  64.8337881   9.3543338  53.7799686  65.3337735   9.2518634  53.1838776
  52.9536516   5.3726882  56.9117444  52.4236441   4.6819321  56.9612419
  53.2261609   5.3637067  56.0830153  52.9161238   5.2694014  56.7964860
  48.2332358   2.0454646  54.2685792  48.1275807   2.0001491  53.4037877
  47.4832578   2.3908427  54.5500077  48.1067961   2.0895554  54.1823122
  61.6352676   6.1010032  57.8649244  61.1277767   6.6545879  58.3089875
  61.3379322   6.1618322  57.0468019  61.5157561   6.1916343  57.8097701
  64.2460456  10.0173289  45.7953188  63.5289766   9.8434152  45.3300425
  64.8967194   9.7825862  45.2628674  64.2362307   9.9569082  45.6482406
  60.8795161  11.0334590  54.7706251  60.6560816  10.2753419  55.1390278
  60.3905005  11.0632611  54.0486691  60.7738610  10.9256814  54.7182992
  59.5273618  11.2535048  52.2243336  59.1134017  10.5909178  51.8347178
  60.2120992  11.4012907  51.7039030  59.5671990  11.1775706  52.0899833
  62.8938912  10.4125133  52.9766952  62.4955196  10.5227404  52.2087773
  62.2790132  10.6207200  53.5593512  62.7437802  10.4598701  52.9498252
  56.4928088  11.6944130  54.6256682  56.8074647  12.5080518  54.6334464
  56.9021501  11.3094348  55.2938841  56.5996186  11.7572832  54.7260773
  53.8341108   5.6417238  54.2735290  54.4385965   5.6013072  53.6449111
  53.6268420   6.4888390  54.3039346  53.8930005   5.7605241  54.1851407
  63.6484880   7.9083183  55.4897528  64.4683254   7.7646149  55.7513823
  63.3678958   8.5329382  56.0313966  63.7281623   7.9793535  55.6085467
  49.0692390   4.6251856  54.1434213  48.9716668   3.8148127  54.4524270
  49.8521260   4.6043649  53.7580481  49.1708527   4.5018946  54.1321076
  73.3198215  14.6523686  53.2093334  72.4636111  14.8132184  53.2602451
  73.3665869  13.7815750  53.2298395  73.1997327  14.5474488  53.2199400
  67.7039355  24.1886404  48.9730566  66.9522255  23.8101942  48.7446611
  68.1525367  24.2204838  48.2249376  67.6589022  24.1372011  48.8288068
  73.1564315  24.6111773  44.4016113  72.8215683  25.2888695  43.9660335
  73.6691185  24.2217085  43.8132985  73.1829896  24.6536352  44.2502905
  72.6968606  26.5626042  50.3427225  73.0807986  27.1312941  49.8032000
  72.6327747  25.8375552  49.8633041  72.7442033  26.5401506  50.1921087
  76.1650036  16.7115730  55.8524986  76.7105996  17.3900817  55.9118956
  76.1066913  16.5703191  54.9926568  76.2365951  16.7907732  55.7337047
  69.2824111  24.2004796  51.2393338  69.3834474  23.3905150  51.5490466
  68.6865856  24.1061743  50.6093017  69.2096650  24.0669824  51.1919577
  69.1224851  29.1182385  52.6408195  69.7662306  29.5595549  53.0304353
  69.4481106  28.3135811  52.5538453  69.2656679  29.0647580  52.6853672
  62.4789155  20.2225083  50.8645672  62.2439340  19.3892735  50.7577941
  62.6174796  20.5029748  50.0506873  62.4644818  20.1408586  50.7288027
  64.7779243  12.3910813  53.7629980  64.1584275  11.8003461  53.5939995
  64.6763107  12.9822249  53.1294303  64.6716918  12.3914896  53.6434969
  69.8245431  22.1294360  48.0128056  70.1461272  22.6699567  47.4089364
  70.4717527  21.5591132  48.1450346  69.9671486  22.1253535  47.9435092
  71.8747139  14.1310355  48.0962443  72.5727303  14.3098483  48.5883906
  72.1899471  13.6080694  47.4732832  72.0242476  14.0804127  48.0764453
  64.5048376  15.9363095  56.0073549  64.3807073  16.5225540  56.6423368
  65.1566660  15.4423291  56.3085824  64.5822025  15.9501899  56.1459478
  72.0635074  20.5180800  48.0842234  72.5028709  19.9097901  48.5297007
  71.9139737  20.1388173  47.3127699  72.1056540  20.3719271  48.0361402
  69.5306717  19.1124812  55.2861060  70.1755719  18.6197255  54.9672008
  69.7708494  19.2549599  56.1127138  69.6617302  19.0602254  55.3610593
  72.0692808  21.9579718  54.9367952  72.3516051  21.1631124  54.7154708
  72.7978969  22.4360305  54.9573013  72.2182372  21.9114315  54.9070968
  70.0474002   9.5002752  52.1783718  69.7177332   9.9513895  51.5087416
  69.3719004   9.4218915  52.7256724  69.8984438   9.5553887  52.1606941
  75.6644411  18.8707981  45.0373004  75.5795706  19.7268948  45.1822572
  76.1528794  18.5952305  45.7055163  75.7233308  18.9565303  45.1575085
  76.5962844  15.4892776  46.5370739  76.0674315  15.7052409  47.1968045
  77.1187864  16.1828914  46.4571708  76.5951297  15.6235912  46.6226338
  68.4862452  19.3855992  45.3378207  67.9019667  19.8906024  45.7444071
  68.0832547  19.1598379  44.5974799  68.3401755  19.4264241  45.2883232
  64.0406480  25.1010753  52.1401878  63.5574058  25.8261243  52.1161462
  64.8529798  25.3986884  52.2512036  64.0897228  25.2513107  52.1529158
  70.1120634  23.8942934  54.7451693  69.5947576  23.5350349  54.1413001
  70.8095025  23.3705109  54.7557759  70.1386215  23.7640622  54.6581951
  73.7684226  24.3437748  60.7067866  73.8567572  24.1563889  61.5546076
  74.1973939  23.6975178  60.3072713  73.8446329  24.2200756  60.7739617
  71.3354686  23.6268908  59.6885528  70.7725521  23.2141518  60.2125189
  72.0975709  23.5521814  60.1078671  71.3649135  23.5546309  59.8278528
  72.9439666  15.6321644  43.8147127  73.1835670  15.8399628  43.0022470
  73.2655507  14.8279153  43.9236072  73.0276824  15.5435746  43.7107680
  66.8950677  25.6166929  52.2922158  67.5971257  25.1018918  52.3494915
  66.8148160  25.9441081  53.0969033  66.9874438  25.5881156  52.4194950
  67.9429584  15.8542516  61.4202573  68.1150088  15.7448411  62.2687855
  68.4798941  16.4996922  61.1833766  68.0474588  15.9334518  61.5107670
  66.6087021   9.9685359  44.3584778  66.4262594  10.1857240  43.5325771
  67.4712634  10.0824372  44.4143393  66.7091610  10.0175257  44.2439265
  66.2201453  21.8073281  51.8007766  67.0590352  22.0396214  51.8481528
  66.2513222  20.9377593  51.7314802  66.3483170  21.7130228  51.7972411
  66.8454156  22.2274157  56.1021072  67.3852381  22.0845288  56.7724444
  66.1624102  22.6270907  56.4705098  66.8246310  22.2653827  56.2555493
  76.2695041  17.9065157  51.2966096  77.0252556  18.3396672  51.3355005
  76.3757365  17.2569927  51.8700732  76.3965211  17.8742641  51.3864122
  73.8804285  23.7746767  63.3711649  74.6644702  23.8877615  63.7367392
  73.6800880  22.9487904  63.5670335  73.9670311  23.6693487  63.4546035
  62.2491301  18.4474447  56.2555493  61.9829716  17.6313564  56.4146484
  62.2629865  18.4927603  55.3851009  62.2116023  18.3331352  56.1508975
  66.1549048  13.2459532  42.8707251  65.4407225  12.9597711  43.2829684
  66.6393017  13.5856158  43.5113639  66.1208411  13.2541181  43.0262886
  66.9989907  11.9852826  58.9022501  66.3061704  11.5149805  59.1483233
  67.6150235  11.7591130  59.4764208  66.9874437  11.8819957  59.0231654
  74.0374679  25.6856869  57.0178105  73.2389925  25.4456369  57.2751974
  74.4860690  25.7371262  57.7645153  73.9849290  25.6579260  57.1663029
  73.3296366  21.7489486  43.2469060  73.7447514  21.4174510  42.5553555
  72.4988295  21.5158388  43.1189196  73.2684375  21.6660742  43.1259907
  62.6584715  19.2333227  53.5367238  62.4760288  19.2080113  52.6839530
  63.3934383  19.7032165  53.5756146  62.7398778  19.2994589  53.4165156
  65.7230466  15.9518230  60.0449346  66.4470439  15.9371260  60.5314241
  65.8246603  16.6613585  59.5471314  65.8448675  16.0542933  60.0428133
  75.7706735  16.1551305  49.1993309  75.8653589  16.8940599  49.6532934
  75.1465578  15.7268781  49.6327874  75.6915765  16.2012626  49.3301457
  74.0259208  19.3337518  59.8483590  74.5998070  18.6964762  60.0032154
  73.9474012  19.3341600  58.9793248  74.0992443  19.2402629  59.7430001
  62.6255625  16.1126727  53.6866304  63.2029128  15.9763178  54.3258549
  61.9269687  15.6562512  53.9411888  62.6076646  16.0248994  53.8188594
  76.0229756  18.0000045  42.4330261  75.9409918  18.0702232  43.2985248
  76.6609476  18.5629789  42.2414002  76.1049593  18.0939016  42.5320210
  69.3822927  17.7660783  51.9004787  69.1242171  16.9332518  51.8736087
  69.4371410  17.9918396  51.0597288  69.3522705  17.6758554  51.7724924
  68.3557639  15.3198546  52.3869682  67.7807230  15.4790714  53.0233643
  67.9793316  14.6833955  51.9238133  68.2160452  15.2496359  52.4124240
  72.0230928  13.7921895  57.2462060  71.6345361  13.3676113  56.5914252
  71.3585626  14.0404045  57.7539087  71.8677856  13.7660616  57.2249928
  58.1014458  14.9638620  50.4014123  58.1874710  14.5870489  51.1827653
  58.7290256  14.5899066  49.9234081  58.2071009  14.8524103  50.4459600
  73.1269866  18.0220499  45.4438867  73.9410505  18.3135392  45.3321639
  73.0629007  17.3680362  44.8697160  73.2372605  17.9685694  45.3427705
  68.9977774  21.4942017  50.5711180  69.6351721  21.2553764  51.1162973
  69.4232846  21.6979176  49.8364340  69.1553941  21.4893027  50.5428337
  63.6890417  23.7330353  54.4545483  63.7294562  24.0045204  53.6265263
  64.2484941  24.2572261  54.8703271  63.7773763  23.8506108  54.3937371
  69.6380589  16.7144307  44.9086069  70.0225742  16.4952013  45.6602614
  69.3892210  17.5407252  45.0387145  69.6582662  16.8042453  45.0387145
  71.3799246  21.9714440  52.2504966  71.4538255  21.8089611  53.1046816
  72.1968753  22.1604629  52.0065447  71.5115605  21.9751182  52.3402991
  65.1405003  22.3172302  49.2799409  64.3143121  22.5634040  49.1533688
  65.2016994  22.2384383  50.1461467  65.0279170  22.3417251  49.3888354
  67.3581027   8.3841243  50.2394849  66.4903452   8.4563843  50.3052459
  67.6456231   9.1863322  50.4282825  67.2720775   8.5135390  50.2769616
  69.9203832  24.9349183  46.9818439  70.2102130  24.5438164  46.2577666
  70.6507313  25.1165887  47.4223714  70.0710716  24.9042996  46.9401246
  70.5098577  19.7366928  58.0671570  70.0110271  20.4482696  58.1456458
  71.3198802  20.0567595  58.0289732  70.5554684  19.8893777  58.0728138
  67.8609748  26.9116565  50.0478589  67.6410043  26.6213920  50.8405256
  67.6404270  26.2531520  49.5196501  67.7957342  26.7716273  50.0867498
  66.7726695  18.9989881  52.3134291  66.4839943  18.3727353  52.8480018
  67.6410043  18.9410169  52.3798971  66.8586947  18.8977426  52.4025245
  77.5604593  14.1424665  52.6316272  77.2169358  13.4215000  52.9823522
  77.6597635  13.9338516  51.7894631  77.5246635  14.0048868  52.5587952
  70.0277703  28.2845955  48.8309281  70.6801761  27.7522397  49.0600307
  69.3303312  27.9314607  49.2177155  70.0208421  28.1535478  48.9221449
  66.9758968  20.6385133  48.2376656  67.7304936  21.0198172  48.4512118
  66.3829581  21.0896276  48.6923352  66.9995682  20.7613960  48.3359534
  78.0217622  20.6050369  48.1740261  78.5875654  21.2643579  48.0898804
  77.3745525  20.9500067  48.6456663  78.0096378  20.7532310  48.2313017
  69.4365635  12.5947973  63.3633868  68.6265411  12.9005753  63.2523710
  69.9140322  13.3153555  63.4786452  69.3869114  12.7462574  63.3640939
  68.2957195  21.8093694  53.6116771  67.7737948  21.9493986  54.2968636
  68.6831215  21.0504358  53.8018888  68.2760896  21.7179218  53.7417848
  65.2848379  11.8599503  47.6811726  64.9973175  11.4900773  46.9443673
  65.9718847  12.3294358  47.4195431  65.3437276  11.8746472  47.5326801
  74.4924200  23.5489153  47.5977340  74.2510876  22.8157014  47.1904405
  74.6725533  24.0976010  46.9443673  74.4831824  23.5211544  47.4407563
  69.7223520  18.8397713  49.0098262  69.5266303  19.4472447  48.4158565
  69.9457866  18.1465657  48.5289936  69.7258161  18.8275238  48.8514343
  68.1202050  15.7252451  49.1279130  68.8424702  15.8893609  48.6682936
  67.6410043  16.4462116  49.0218470  68.1565781  15.8550680  49.0444744
  76.0795558  12.0616250  54.5075815  75.2406659  12.0877529  54.2714079
  76.1499925  12.7086985  55.0881162  75.9663952  12.1612375  54.5584932
  65.7709667  18.1310523  58.2333270  66.2830764  18.4094777  57.5842030
  65.4846010  18.8699817  58.5996083  65.8044530  18.2812877  58.1923148
  62.8576573  12.6380715  48.5297007  62.9592710  13.4406877  48.8577982
  63.6532460  12.4368051  48.2320087  62.9904479  12.7266614  48.5332362
  69.2893393  10.2236912  58.2934312  69.0976590  10.2392046  59.1433735
  70.1391988  10.4200586  58.2700967  69.3869114  10.2551263  58.4157607
  63.6740306  12.7527893  56.2718128  63.5325797  11.9011834  56.3962636
  63.9580869  12.7956554  55.4480334  63.6948152  12.6327643  56.1685752
  73.8278898  14.5894984  50.4162617  73.5813612  14.5090734  51.2499406
  74.1564021  13.8048451  50.2225144  73.8400141  14.4621249  50.5110140
  77.7226947  21.2978343  54.2049398  77.5841306  21.9959389  54.7098140
  76.9426945  21.1426999  53.8485580  77.5870174  21.3778510  54.2275672
  69.7875925  17.3251702  59.8285600  69.9319301  17.9052910  59.1928710
  70.1351574  17.7027999  60.5335454  69.8603387  17.4672406  59.8384595
  71.9595843  16.5241870  57.6110731  71.2119157  16.7172885  57.2059009
  72.1137368  15.6987090  57.3734853  71.8718270  16.4306982  57.5156137
  68.8603680  25.5154474  56.6946627  69.0093244  24.9557390  56.0420031
  69.6403682  25.5946476  57.0779145  68.9977774  25.4440039  56.6543576
  71.3856981  25.6869117  57.9731117  71.3100652  25.0177927  58.5281906
  71.3146840  26.3886905  58.4871784  71.3637588  25.6914024  58.1307965
  72.1997620  10.4192421  58.5006135  72.6570234  11.1516396  58.6278927
  72.2753948   9.9958886  59.2593391  72.2788589  10.4649659  58.6307212
  64.4430611  10.6658241  59.5895579  63.9072800  10.0538599  59.9056346
  64.5048376  11.2406377  60.2429245  64.3726243  10.6605169  59.7331005
  72.0427228  24.2070116  48.8054723  72.8077119  23.9379759  48.4837388
  71.9405318  23.7220126  49.5224786  72.1408723  24.0959680  48.8634551
  70.0779997  12.4094525  55.3447959  69.2876072  12.2285985  55.6665295
  70.4740620  11.6321478  55.3278254  70.0196874  12.2681986  55.3900507
  74.5645888  21.2382299  40.7854673  75.3318873  21.2982424  40.3760524
  74.1177197  20.6662741  40.3010991  74.6119316  21.1618875  40.6532383
  75.4623684  20.0436955  53.0707405  74.7868686  19.8122188  53.5720792
  75.4716060  19.4358138  52.4449510  75.3642188  19.9195880  53.0523557
  72.5917828  14.8854784  59.8271458  72.5276969  15.7464741  59.6991595
  72.7315016  14.5686777  59.0267009  72.6033298  14.9654951  59.6899671
  77.4640418  22.9002088  45.3017583  77.5460256  23.7069074  44.9779034
  77.9490161  22.9198047  46.0258356  77.5477576  23.0222750  45.3604482
  71.2736922  17.5786924  53.9687661  70.8499171  17.7791423  53.2326679
  71.0981777  16.7315772  54.0811961  71.1847802  17.4835705  53.8761351
  70.7748615  29.0937437  56.4309118  71.2644545  28.3948226  56.2484783
  70.2032847  28.7961307  57.0185175  70.7633145  28.9463660  56.4910159
  66.5619367  18.0738975  49.4015633  66.7183986  18.0085778  50.2571625
  66.9019960  18.8487528  49.1894313  66.6352601  18.1788173  49.4970228
  71.2684961  22.8414210  45.5549025  71.3377781  21.9828749  45.6942025
  72.0473416  23.0586091  45.2268049  71.3937811  22.7467074  45.5266182
  74.2487781  12.3433163  58.3231297  74.4629750  11.7044077  57.7694651
  73.6321680  12.7878987  57.8939159  74.1893110  12.3143307  58.1781728
  75.6592449  25.2651911  49.7685518  75.2672240  24.9618627  49.0508384
  75.8145521  26.1021001  49.5790472  75.6246038  25.3435748  49.6342015
  63.1353628  15.2573926  49.7176401  63.5152593  15.6758470  49.0536668
  62.5608993  15.8387381  50.0245244  63.1064953  15.4051784  49.6653142
  75.8232123  21.8301900  49.7091549  75.4646778  22.0016543  50.4855581
  75.3370834  22.2915106  49.1519547  75.6990820  21.9240871  49.7416818
  70.6120489  17.5101066  42.2491783  70.9013014  18.2865948  42.5235357
  70.6992288  16.9989797  42.9506282  70.6674745  17.5492984  42.3934281
  76.9836863  22.7205796  60.6558749  77.6216583  22.2265992  60.3221205
  76.3410954  22.6483197  60.0710976  76.9831089  22.6364805  60.5201104
  77.0391119  23.4125605  57.2964106  77.8283497  23.0614669  57.4166188
  77.2134717  24.2261993  57.0340740  77.1811401  23.4811462  57.2751974
  66.7784430  16.8234330  54.3491895  65.9372436  16.7238204  54.5570789
  66.9874438  17.5929811  54.7006216  66.6849122  16.9226374  54.4319210
  64.2559997  14.4453867  52.1776646  63.8616694  14.5196879  51.4026755
  63.7000113  14.8311814  52.7285007  64.1162809  14.5135642  52.1444305
  70.5901095  14.7515729  53.5989493  70.2864232  14.1971718  54.1999900
  69.8880515  14.9307939  53.1117527  70.4417304  14.6960512  53.6159198
  69.6467192  12.0616249  48.1634194  69.9226926  11.3435162  47.7511762
  70.2465861  12.6601169  47.9555300  69.7760456  12.0436620  48.0714956
  68.6519446  21.9665450  58.3061590  68.5439800  21.9767512  59.1723648
  68.8615227  22.7920231  58.1166544  68.6669557  22.0906525  58.4065682
  66.6693238  19.2178093  55.7683528  66.0781171  19.8587591  55.7386543
  67.4314261  19.6415710  55.7414827  66.6941498  19.3753931  55.7598675
  67.0653860  10.3780090  56.4351545  67.5255342  10.4519020  57.1726669
  67.1109967  11.1761344  56.0851367  67.1404416  10.5074237  56.4924302
  68.7137210  11.0446785  61.0023573  68.3222775  10.3980132  61.4379350
  68.8823073  11.6358220  61.6217828  68.6808120  11.0361053  61.1586279
  76.4282754  24.6687404  53.2015552  76.2302442  25.1578219  52.5071764
  75.8070465  24.8728646  53.7799686  76.3070318  24.7703942  53.1838776
  70.4890732  16.4372301  47.5425797  71.2332777  16.8246577  47.7808746
  70.6351428  15.5929726  47.7066284  70.6201317  16.3702774  47.6019766
  73.4768608  12.0097774  53.4419716  73.0028562  11.4839536  53.9525027
  73.8486744  11.4627247  52.8734577  73.4618497  11.8513771  53.4334863
  63.8541638  14.0069281  58.8103262  64.7167251  13.9064990  58.7240592
  63.5233421  13.4263990  58.2488834  63.9326835  13.9060908  58.7148668
  75.4052108  12.9034329  46.5045470  74.8775126  12.9863073  45.8151179
  75.8647816  13.6452200  46.5010114  75.3953958  13.0254991  46.4020165
  67.2143424  12.8311730  55.4713680  66.5896494  12.8430122  54.8639633
  66.8789019  13.3071905  56.1204920  67.0728916  12.9030247  55.4770248
  67.3985173  11.1736848  41.5286365  67.0497977  11.8256574  41.9917914
  66.9181619  11.1593962  40.8010236  67.2755417  11.2679902  41.4897456
  63.9269100  20.8912190  56.9117444  63.3969024  20.2004629  56.9612419
  64.1994193  20.8822375  56.0830153  63.8893822  20.7879322  56.7964860
  74.9589190  21.4737892  45.6355127  75.6823389  21.9396005  45.4919700
  74.5189781  21.5411502  44.8852724  75.0004882  21.5521729  45.5039908
  74.1275345  18.3335435  56.8855816  73.5132338  17.7893485  57.1804451
  74.6442630  17.8199671  56.4061632  74.1131008  18.1771844  56.8580044
  73.3671642  19.4039705  54.6200114  72.9399250  18.7789423  54.1865550
  73.3596587  19.1214627  55.4459122  73.3030784  19.2692485  54.6779942
  66.4834170  14.4404878  57.6888548  66.6427656  13.6848202  58.0940270
  66.3027063  14.9895817  58.3429286  66.4799528  14.4098692  57.8451254
  71.6957352  10.2808459  54.8342648  71.7199839   9.7468572  54.1455428
  71.9468826   9.7725768  55.4968239  71.7367271  10.1269363  54.8307293
  59.2064942  17.5639954  54.2685792  59.1008391  17.5186799  53.4037877
  58.4565162  17.9093735  54.5500077  59.0800545  17.6080862  54.1823122
  67.9758674   9.0079278  54.2148393  68.0157046   9.5088484  54.9283100
  67.1508339   9.0989671  53.9454316  67.8598200   9.0961094  54.2798931
  70.1588287  18.5740017  62.3168687  69.3083918  18.7111732  62.4526332
  70.3216415  17.8403796  62.7616389  70.0572151  18.4854119  62.4024286
  69.3973038  15.5239787  56.5122292  68.5664967  15.6913605  56.3057540
  69.3424555  15.1475738  57.2971177  69.2662453  15.4929519  56.5970820
  67.7709082  13.7995379  47.0412409  67.9112043  14.2967843  47.7441051
  68.2691614  13.0981673  47.1826623  67.8650162  13.7697358  47.1663988
  67.8009304  14.6662490  44.3704986  68.4354383  15.2622915  44.3054448
  67.8834915  14.3665948  45.1850856  67.9065855  14.7103398  44.4808073
  69.3788287  10.5976465  44.3450428  69.7004128  10.1179548  43.6909691
  69.6415231  11.4076111  44.1541240  69.4654312  10.6466363  44.2205920
  72.6085260  21.6195340  57.8649244  72.1010351  22.1731186  58.3089875
  72.3111906  21.6803630  57.0468019  72.4890144  21.7101651  57.8097701
  64.3062292  16.8630331  47.6394532  64.8154521  17.4594838  48.0205838
  64.7796564  16.5956304  46.9570952  64.4505667  16.9116146  47.5949055
  75.2193040  25.5358597  45.7953188  74.5022350  25.3619460  45.3300425
  75.8699777  25.3011170  45.2628674  75.2094890  25.4754390  45.6482406
  77.8041011  14.4123186  49.5394493  77.1332201  14.9552888  49.4107558
  78.4980761  14.8818041  49.2976188  77.8069879  14.5621457  49.4850021
  71.8527745  26.5519898  54.7706251  71.6293399  25.7938727  55.1390278
  71.3637588  26.5817919  54.0486691  71.7471194  26.4442122  54.7182992
  66.6652824  13.4986589  50.5067713  65.9464813  13.9150722  50.7740576
  67.0365186  14.0640828  49.9559351  66.6144755  13.6435871  50.4650520
  75.9652404  14.1314438  56.3969708  75.9450332  13.9497733  57.2504487
  76.0131605  15.0026457  56.3729292  75.9687045  14.2330976  56.5193003
  73.9098734  20.7201630  62.3218185  73.8694589  20.0751307  61.7363341
  74.7222052  20.6638247  62.6343597  74.0241888  20.6160597  62.2815134
  70.5006202  26.7720356  52.2243336  70.0866600  26.1094486  51.8347178
  71.1853576  26.9198215  51.7039030  70.5404573  26.6961014  52.0899833
  73.8671496  25.9310441  52.9766952  73.4687779  26.0412712  52.2087773
  73.2522715  26.1392508  53.5593512  73.7170385  25.9784009  52.9498252
  72.4399398  12.5384589  45.8441092  71.8464237  12.8601586  45.2925659
  72.4774676  11.6925685  45.6362198  72.3573787  12.4608917  45.7323863
  75.3157214  12.4964094  49.2742842  75.0870907  12.5196795  48.4321201
  75.5755291  11.6721561  49.3937853  75.3203403  12.3780174  49.1668040
  69.5976443  14.3498567  58.8767943  69.0855346  13.7419750  59.2352974
  69.4255939  15.0655159  59.3441918  69.4966080  14.3661866  58.9984166
  64.4442158  12.7936142  61.5270304  64.2744748  13.4537517  60.9818511
  64.0008107  13.0042703  62.2482793  64.3541491  12.9222124  61.5531934
  68.3701977  11.0340640  50.5697038  68.8459343  11.3957720  49.9347219
  67.8690577  11.6897107  50.8497181  68.3667336  11.1834829  50.5173779
  61.3444222  15.6983008  56.7858794  60.7970942  15.0283653  56.9039663
  62.1336600  15.3312855  56.8502261  61.3796406  15.5447994  56.8127495
  71.1928631  15.3590465  62.2822205  71.9439958  15.6742141  62.5961759
  71.3851207  15.1569635  61.4556127  71.3320045  15.3757846  62.2065601
  70.4128630  13.1781840  43.9370422  70.7927595  13.1961469  43.1521537
  69.6721226  13.6235829  43.8161269  70.3597468  13.2463614  43.8033990
  60.1031192  14.9103815  53.9404817  59.9252953  14.4580424  54.6659733
  59.8150214  15.7129977  54.1243295  60.0344145  14.9626373  54.0748320
  75.7654773  16.1661533  53.1782208  76.2608438  15.4484528  53.1386228
  74.9554548  15.8632330  53.0636695  75.7198666  16.0159179  53.1555933
  71.2113384  20.0159346  45.3279212  70.4024707  19.6926019  45.2812522
  71.7188293  19.3092568  45.2607461  71.1663051  19.8640662  45.3109506
  61.8403661  17.4431539  51.0526576  60.9749181  17.4317230  50.9409348
  61.9402477  17.2561762  51.8997716  61.7277828  17.4137600  51.1615521
  77.8306592  18.9165220  55.8659336  78.2561663  18.3939642  55.3129761
  77.4663511  19.5146058  55.3447959  77.8393194  18.9275447  55.7068346
  67.4660671  27.2129438  54.6256682  67.7807230  28.0265826  54.6334464
  67.8754085  26.8279656  55.2938841  67.5728769  27.2758140  54.7260773
  74.4185191  22.6299484  52.1960494  74.8896369  23.3439747  52.3650479
  74.7545370  22.0298235  52.7320363  74.5380306  22.6470949  52.2992870
  75.0559137  22.4217419  58.9588186  74.5080083  21.7975302  58.6908252
  75.5172166  22.6111691  58.2432266  75.0426347  22.3576469  58.8138618
  70.4047801   9.4043368  46.6198054  71.2263495   9.5741681  46.3779748
  69.9417452   9.5590629  45.8964351  70.4578963   9.4525101  46.4769698
  64.8073692  21.1602546  54.2735290  65.4118549  21.1198380  53.6449111
  64.6001004  22.0073698  54.3039346  64.8662589  21.2790549  54.1851407
  74.6217464  23.4268491  55.4897528  75.4415837  23.2831457  55.7513823
  74.3411541  24.0514690  56.0313966  74.7014207  23.4978843  55.6085467
  60.0424974  20.1437164  54.1434213  59.9449252  19.3333435  54.4524270
  60.8253843  20.1228957  53.7580481  60.1441110  20.0204254  54.1321076
  73.4521739  35.7410391  50.8645672  73.2171923  34.9078043  50.7577941
  73.5907380  36.0215056  50.0506873  73.4377402  35.6593894  50.7288027
  75.7511827  27.9096121  53.7629980  75.1316858  27.3188768  53.5939995
  75.6495690  28.5007556  53.1294303  75.6449502  27.9100204  53.6434969
  75.4780960  31.4548403  56.0073549  75.3539656  32.0410848  56.6423368
  76.1299244  30.9608599  56.3085824  75.5554609  31.4687207  56.1459478
  75.0139064  40.6196061  52.1401878  74.5306642  41.3446551  52.1161462
  75.8262382  40.9172191  52.2512036  75.0629811  40.7698415  52.1529158
  77.8683261  41.1352237  52.2922158  78.5703840  40.6204226  52.3494915
  77.7880744  41.4626389  53.0969033  77.9607021  41.1066464  52.4194950
  77.5819604  25.4870667  44.3584778  77.3995178  25.7042548  43.5325771
  78.4445217  25.6009680  44.4143393  77.6824194  25.5360565  44.2439265
  77.1934036  37.3258589  51.8007766  78.0322936  37.5581522  51.8481528
  77.2245806  36.4562901  51.7314802  77.3215754  37.2315536  51.7972411
  77.8186739  37.7459464  56.1021072  78.3584964  37.6030596  56.7724444
  77.1356686  38.1456215  56.4705098  77.7978893  37.7839135  56.2555493
  73.2223884  33.9659755  56.2555493  72.9562300  33.1498872  56.4146484
  73.2362449  34.0112911  55.3851009  73.1848607  33.8516660  56.1508975
  77.1281631  28.7644840  42.8707251  76.4139809  28.4783019  43.2829684
  77.6125600  29.1041466  43.5113639  77.0940995  28.7726489  43.0262886
  77.9722491  27.5038134  58.9022501  77.2794288  27.0335113  59.1483233
  78.5882818  27.2776438  59.4764208  77.9607021  27.4005265  59.0231654
  73.6317298  34.7518535  53.5367238  73.4492871  34.7265421  52.6839530
  74.3666967  35.2217473  53.5756146  73.7131362  34.8179897  53.4165156
  76.6963050  31.4703538  60.0449346  77.4203022  31.4556568  60.5314241
  76.7979186  32.1798893  59.5471314  76.8181259  31.5728241  60.0428133
  73.5988208  31.6312035  53.6866304  74.1761711  31.4948486  54.3258549
  72.9002270  31.1747820  53.9411888  73.5809230  31.5434302  53.8188594
  69.0747042  30.4823928  50.4014123  69.1607294  30.1055797  51.1827653
  69.7022839  30.1084374  49.9234081  69.1803593  30.3709410  50.4459600
  74.6623000  39.2515661  54.4545483  74.7027146  39.5230512  53.6265263
  75.2217524  39.7757569  54.8703271  74.7506346  39.3691416  54.3937371
  76.1137587  37.8357610  49.2799409  75.2875704  38.0819347  49.1533688
  76.1749578  37.7569691  50.1461467  76.0011754  37.8602559  49.3888354
  78.3313610  23.9026551  50.2394849  77.4636036  23.9749151  50.3052459
  78.6188815  24.7048630  50.4282825  78.2453358  24.0320698  50.2769616
  77.7459278  34.5175189  52.3134291  77.4572527  33.8912661  52.8480018
  78.6142626  34.4595477  52.3798971  77.8319530  34.4162734  52.4025245
  76.2580962  27.3784811  47.6811726  75.9705758  27.0086081  46.9443673
  76.9451431  27.8479666  47.4195431  76.3169860  27.3931780  47.5326801
  76.7442251  33.6495831  58.2333270  77.2563348  33.9280084  57.5842030
  76.4578593  34.3885125  58.5996083  76.7777114  33.7998185  58.1923148
  73.8309157  28.1566023  48.5297007  73.9325293  28.9592184  48.8577982
  74.6265044  27.9553359  48.2320087  73.9637063  28.2451922  48.5332362
  74.6472889  28.2713201  56.2718128  74.5058381  27.4197142  56.3962636
  74.9313453  28.3141862  55.4480334  74.6680735  28.1512951  56.1685752
  75.4163194  26.1843549  59.5895579  74.8805384  25.5723907  59.9056346
  75.4780959  26.7591685  60.2429245  75.3458827  26.1790477  59.7331005
  77.5351950  33.5924283  49.4015633  77.6916569  33.5271086  50.2571625
  77.8752543  34.3672836  49.1894313  77.6085185  33.6973481  49.4970228
  74.1086212  30.7759233  49.7176401  74.4885177  31.1943778  49.0536668
  73.5341577  31.3572689  50.0245244  74.0797537  30.9237092  49.6653142
  77.7517013  32.3419638  54.3491895  76.9105020  32.2423512  54.5570789
  77.9607021  33.1115118  54.7006216  77.6581706  32.4411682  54.4319210
  75.2292580  29.9639175  52.1776646  74.8349278  30.0382187  51.4026755
  74.6732697  30.3497121  52.7285007  75.0895393  30.0320950  52.1444305
  77.6425821  34.7363400  55.7683528  77.0513754  35.3772899  55.7386543
  78.4046845  35.1601018  55.7414827  77.6674082  34.8939239  55.7598675
  78.0386444  25.8965398  56.4351545  78.4987925  25.9704328  57.1726669
  78.0842551  26.6946652  56.0851367  78.1136999  26.0259545  56.4924302
  74.8274222  29.5254589  58.8103262  75.6899835  29.4250298  58.7240592
  74.4966005  28.9449298  58.2488834  74.9059418  29.4246216  58.7148668
  78.1876008  28.3497038  55.4713680  77.5629078  28.3615430  54.8639633
  77.8521603  28.8257213  56.1204920  78.0461500  28.4215555  55.4770248
  78.3717756  26.6922156  41.5286365  78.0230561  27.3441882  41.9917914
  77.8914202  26.6779269  40.8010236  78.2488000  26.7865210  41.4897456
  74.9001683  36.4097498  56.9117444  74.3701608  35.7189937  56.9612419
  75.1726777  36.4007683  56.0830153  74.8626406  36.3064630  56.7964860
  77.4566753  29.9590186  57.6888548  77.6160240  29.2033510  58.0940270
  77.2759647  30.5081125  58.3429286  77.4532112  29.9283999  57.8451254
  70.1797525  33.0825262  54.2685792  70.0740975  33.0372106  53.4037877
  69.4297745  33.4279043  54.5500077  70.0533128  33.1266170  54.1823122
  75.2794875  32.3815639  47.6394532  75.7887105  32.9780146  48.0205838
  75.7529148  32.1141612  46.9570952  75.4238251  32.4301454  47.5949055
  77.6385407  29.0171897  50.5067713  76.9197396  29.4336030  50.7740576
  78.0097769  29.5826136  49.9559351  77.5877339  29.1621179  50.4650520
  75.4174741  28.3121450  61.5270304  75.2477331  28.9722825  60.9818511
  74.9740691  28.5228011  62.2482793  75.3274075  28.4407432  61.5531934
  72.3176806  31.2168315  56.7858794  71.7703525  30.5468961  56.9039663
  73.1069184  30.8498163  56.8502261  72.3528989  31.0633302  56.8127495
  71.0763775  30.4289123  53.9404817  70.8985536  29.9765732  54.6659733
  70.7882797  31.2315285  54.1243295  71.0076728  30.4811681  54.0748320
  72.8136245  32.9616847  51.0526576  71.9481765  32.9502537  50.9409348
  72.9135061  32.7747070  51.8997716  72.7010412  32.9322908  51.1615521
  75.7806275  36.6787854  54.2735290  76.3851132  36.6383688  53.6449111
  75.5733588  37.5259006  54.3039346  75.8395172  36.7975857  54.1851407
  71.0157557  35.6622472  54.1434213  70.9181835  34.8518743  54.4524270
  71.7986427  35.6414265  53.7580481  71.1173694  35.5389562  54.1321076
  73.1472563  12.6788522  37.7985719  72.9122747  11.8456174  37.6917988
  73.2858204  12.9593187  36.9846920  73.1328225  12.5972025  37.6628074
  74.7089888  17.5574193  39.0741925  74.2257466  18.2824682  39.0501509
  75.5213206  17.8550323  39.1852083  74.7580635  17.7076546  39.0869204
  77.5634085  18.0730368  39.2262205  78.2654664  17.5582358  39.2834962
  77.4831568  18.4004520  40.0309080  77.6557845  18.0444595  39.3534997
  76.8884860  14.2636720  38.7347813  77.7273760  14.4959653  38.7821575
  76.9196630  13.3941032  38.6654848  77.0166578  14.1693667  38.7312458
  77.5137563  14.6837596  43.0361119  78.0535788  14.5408727  43.7064491
  76.8307510  15.0834346  43.4045145  77.4929717  14.7217267  43.1895540
  72.9174708  10.9037886  43.1895540  72.6513124  10.0877003  43.3486530
  72.9313273  10.9491042  42.3191056  72.8799431  10.7894791  43.0849022
  73.3268122  11.6896666  40.4707284  73.1443695  11.6643552  39.6179577
  74.0617791  12.1595604  40.5096193  73.4082186  11.7558028  40.3505203
  74.3573824  16.1893793  41.3885530  74.3977970  16.4608644  40.5605310
  74.9168348  16.7135701  41.8043318  74.4457170  16.3069548  41.3277418
  75.8088411  14.7735741  36.2139456  74.9826528  15.0197479  36.0873735
  75.8700402  14.6947822  37.0801514  75.6962578  14.7980690  36.3228401
  78.5293155  19.3680004  36.9818636  78.3093451  19.0777359  37.7745303
  78.3087677  18.7094959  36.4536548  78.4640749  19.2279712  37.0207544
  77.6442376  13.0948572  35.1716702  78.3988344  13.4761611  35.3852165
  77.0512988  13.5459715  35.6263399  77.6679089  13.2177399  35.2699581
  77.3376645  11.6741532  42.7023575  76.7464578  12.3151030  42.6726590
  78.0997669  12.0979149  42.6754874  77.3624906  11.8317370  42.6938722
  74.5952507  13.3475629  43.8457491  74.0652432  12.6568068  43.8952466
  74.8677601  13.3385814  43.0170200  74.5577230  13.2442761  43.7304907
  69.8748349  10.0203393  41.2025839  69.7691799   9.9750238  40.3377923
  69.1248569  10.3657174  41.4840124  69.7483952  10.0644301  41.1163169
  78.1344079  19.6692877  41.5596729  78.4490638  20.4829265  41.5674510
  78.5437492  19.2843095  42.2278888  78.2412177  19.7321579  41.6600820
  75.4757099  13.6165985  41.2075337  76.0801956  13.5761819  40.5789158
  75.2684412  14.4637137  41.2379393  75.5345996  13.7353988  41.1191454
  70.7108381  12.6000603  41.0774260  70.6132659  11.7896874  41.3864317
  71.4937251  12.5792396  40.6920528  70.8124518  12.4767693  41.0661123
  26.2499498  30.3787812  74.3125671  26.2193502  31.2332449  74.4843940
  26.8480847  30.0783105  74.8711814  26.3336656  30.4604309  74.4200473
  13.8340323  39.0026181  74.8315833  13.0823222  38.6241719  74.6031878
  14.2826334  39.0344615  74.0834643  13.7889989  38.9511788  74.6873335
  19.2865282  39.4251550  70.2601380  18.9516651  40.1028472  69.8245602
  19.7992153  39.0356862  69.6718252  19.3130864  39.4676129  70.1088171
  18.8269574  41.3765819  76.2012491  19.2108953  41.9452718  75.6617267
  18.7628715  40.6515329  75.7218308  18.8743001  41.3541283  76.0506354
  15.2525818  43.9322162  78.4993461  15.8963274  44.3735326  78.8889620
  15.5782074  43.1275588  78.4123720  15.3957647  43.8787357  78.5438939
  15.9546398  36.9434137  73.8713323  16.2762239  37.4839344  73.2674631
  16.6018495  36.3730909  74.0035613  16.0972453  36.9393312  73.8020358
  18.1936041  35.3320577  73.9427501  18.6329677  34.7237678  74.3882274
  18.0440704  34.9527950  73.1712966  18.2357507  35.1859048  73.8946669
  21.7945378  33.6847758  70.8958270  21.7096673  34.5408725  71.0407839
  22.2829761  33.4092082  71.5640430  21.8534275  33.7705080  71.0160352
  22.7263811  30.3032553  72.3956006  22.1975283  30.5192186  73.0553312
  23.2488831  30.9968691  72.3156975  22.7252264  30.4375689  72.4811605
  28.1811864  35.8778857  77.7689050  27.3509567  36.0889501  77.9322467
  28.1321116  35.0515912  77.4931334  28.0518600  35.7868463  77.7526416
  14.6163419  34.1995769  71.1963474  14.0320634  34.7045801  71.6029337
  14.2133514  33.9738156  70.4560066  14.4702723  34.2404018  71.1468499
  19.0740633  30.4461421  69.6732394  19.3136637  30.6539405  68.8607737
  19.3956474  29.6418930  69.7821339  19.1577791  30.3575523  69.5692947
  25.4376179  36.5478211  77.9053766  25.0011411  36.5514954  78.6612737
  25.1039095  37.2283710  77.4733343  25.3238799  36.6490667  77.9534598
  12.2850015  28.0599309  68.7292518  11.5708193  27.7737488  69.1414951
  12.7693984  28.3995935  69.3698906  12.2509379  28.0680958  68.8848153
  28.5720526  33.2659131  76.7973403  29.2336960  32.7049800  76.6969312
  27.9311938  32.7711162  77.1226094  28.5749393  33.1095540  76.8305743
  19.4597333  36.5629263  69.1054326  19.8748482  36.2314287  68.4138822
  18.6289263  36.3298165  68.9774463  19.3985342  36.4800519  68.9845174
  24.8585356  34.2824514  76.5385392  25.0940945  34.4269713  75.7112243
  25.0074920  35.0466922  76.9316906  24.9151160  34.4163568  76.4748996
  26.6875813  33.1226180  74.3754996  27.0184030  33.6553820  73.7695091
  27.2608901  33.1765067  75.0316947  26.8209492  33.2095749  74.3832777
  22.1530723  32.8139822  68.2915528  22.0710886  32.8842009  69.1570515
  22.7910444  33.3769566  68.0999268  22.2350561  32.9078793  68.3905477
  27.7955165  28.3636677  75.8795157  27.5391729  27.5516618  75.6893040
  28.6384478  28.3714244  75.6525345  27.8821190  28.2448674  75.8179974
  19.2570834  32.8360276  71.3024134  20.0711472  33.1275169  71.1906906
  19.1929975  32.1820139  70.7282427  19.3673573  32.7825471  71.2012972
  15.7681557  31.5284084  70.7671336  16.1526710  31.3091790  71.5187881
  15.5193177  32.3547029  70.8972412  15.7883630  31.6182230  70.8972412
  16.0504800  39.7488960  72.8403706  16.3403098  39.3577941  72.1162933
  16.7808280  39.9305664  73.2808981  16.2011684  39.7182773  72.7986513
  13.9910715  41.7256342  75.9063856  13.7711011  41.4353697  76.6990523
  13.7705237  41.0671297  75.3781768  13.9258309  41.5856050  75.9452764
  16.1578671  43.0985732  74.6894548  16.8102729  42.5662174  74.9185574
  15.4604280  42.7454384  75.0762422  16.1509389  42.9675255  74.7806716
  24.1518589  35.4190146  74.0325527  24.7176622  36.0783356  73.9484070
  23.5046493  35.7639844  74.5041930  24.1397346  35.5672087  74.0898284
  20.6225167  38.3628930  73.4562607  20.3811843  37.6296791  73.0489672
  20.8026500  38.9115787  72.8028940  20.6132791  38.3351321  73.2992830
  25.3481287  35.4696374  70.8251164  24.9688096  34.6833512  70.8180453
  24.6847533  36.0183231  70.6822808  25.1939762  35.4341198  70.8031961
  18.1728195  39.0209893  74.6639990  18.9378086  38.7519536  74.3422654
  18.0706285  38.5359903  75.3810053  18.2709691  38.9099457  74.7219818
  20.6946856  36.0522076  66.6439939  21.4619841  36.1122201  66.2345791
  20.2478165  35.4802518  66.1596258  20.7420283  35.9758652  66.5117650
  23.5941386  37.7141865  71.1602850  23.6761223  38.5208851  70.8364301
  24.0791128  37.7337824  71.8843623  23.6778544  37.8362527  71.2189748
  17.3985928  37.6553987  71.4134291  17.4678749  36.7968526  71.5527292
  18.1774384  37.8725868  71.0853316  17.5238779  37.5606851  71.3851449
  21.7893416  40.0791688  75.6270785  21.3973208  39.7758404  74.9093651
  21.9446488  40.9160778  75.4375739  21.7547006  40.1575525  75.4927282
  21.9533091  36.6441677  75.5676815  21.5947746  36.8156320  76.3440848
  21.4671802  37.1054883  75.0104814  21.8291788  36.7380648  75.6002084
  16.7421456  32.3240843  68.1077050  17.0313981  33.1005725  68.3820624
  16.8293255  31.8129574  68.8091549  16.7975712  32.3632761  68.2519548
  22.5583721  39.4827181  79.0600819  22.3603410  39.9717996  78.3657030
  21.9371432  39.6868423  79.6384953  22.4371286  39.5843719  79.0424042
  21.5353075  27.7174106  72.3630737  21.0076094  27.8002850  71.6736445
  21.9948783  28.4591977  72.3595381  21.5254926  27.8394768  72.2605432
  13.5286140  25.9876625  67.3871632  13.1798945  26.6396351  67.8503181
  13.0482586  25.9733739  66.6595503  13.4056384  26.0819679  67.3482723
  21.0890158  36.2877669  71.4940394  21.8124357  36.7535782  71.3504967
  20.6490749  36.3551279  70.7437991  21.1305850  36.3661506  71.3625175
  13.9310271  29.4802267  70.2290253  14.5655351  30.0762692  70.1639715
  14.0135882  29.1805724  71.0436123  14.0366822  29.5243175  70.3393340
  21.3494007  40.3498374  71.6538455  20.6323317  40.1759237  71.1885692
  22.0000745  40.1150947  71.1213941  21.3395858  40.2894167  71.5067673
  16.6307169  41.5860133  78.0828603  16.2167568  40.9234263  77.6932444
  17.3154544  41.7337992  77.5624297  16.6705541  41.5100791  77.9485100
  19.9972463  40.7450218  78.8352219  19.5988747  40.8552489  78.0673040
  19.3823683  40.9532285  79.4178779  19.8471353  40.7923786  78.8083519
  27.7314306  35.3202185  72.2195310  28.1147912  36.0693541  72.4493407
  26.9358419  35.5668005  71.9607299  27.6708088  35.4671879  72.2152883
  16.5429598  27.9921617  69.7955689  16.9228562  28.0101246  69.0106804
  15.8022194  28.4375606  69.6746536  16.4898435  28.0603391  69.6619257
  17.3414352  34.8299123  71.1864479  16.5325674  34.5065796  71.1397788
  17.8489261  34.1232345  71.1192728  17.2964019  34.6780439  71.1694773
  37.2232082  45.8973120  74.3125671  37.1926086  46.7517757  74.4843940
  37.8213430  45.5968413  74.8711814  37.3069239  45.9789617  74.4200473
  30.4231766  44.9848771  79.0678601  29.5669662  45.1457269  79.1187718
  30.4699420  44.1140835  79.0883662  30.3030878  44.8799573  79.0784667
  30.2597866  54.9436858  70.2601380  29.9249234  55.6213780  69.8245602
  30.7724736  54.5542170  69.6718252  30.2863447  54.9861437  70.1088171
  29.8002157  56.8951127  76.2012491  30.1841537  57.4638026  75.6617267
  29.7361299  56.1700637  75.7218308  29.8475585  56.8726590  76.0506354
  33.2683587  47.0440815  81.7110253  33.8139547  47.7225902  81.7704223
  33.2100464  46.9028276  80.8511834  33.3399502  47.1232817  81.5922313
  26.3857662  54.5329881  77.0978605  26.4868025  53.7230235  77.4075733
  25.7899408  54.4386827  76.4678284  26.3130201  54.3994909  77.0504844
  35.0448656  48.4725422  72.5843981  34.9288182  49.2233108  73.0136119
  35.8404543  48.2149375  72.8340068  35.1453246  48.5460269  72.6848072
  26.2258402  59.4507470  78.4993461  26.8695857  59.8920634  78.8889620
  26.5514657  58.6460896  78.4123720  26.3690231  59.3972665  78.5438939
  19.5822707  50.5550168  76.7230939  19.3472891  49.7217820  76.6163208
  19.7208347  50.8354833  75.9092140  19.5678369  50.4733671  76.5873294
  21.8812794  42.7235898  79.6215247  21.2617826  42.1328545  79.4525261
  21.7796658  43.3147333  78.9879570  21.7750470  42.7239981  79.5020236
  26.9278982  52.4619445  73.8713323  27.2494823  53.0024652  73.2674631
  27.5751078  51.8916216  74.0035613  27.0705037  52.4578620  73.8020358
  28.9780690  44.4635440  73.9547710  29.6760854  44.6423568  74.4469173
  29.2933022  43.9405779  73.3318099  29.1276027  44.4129212  73.9349720
  21.6081927  46.2688180  81.8658816  21.4840624  46.8550625  82.5008635
  22.2600212  45.7748376  82.1671091  21.6855576  46.2826984  82.0044745
  29.1668625  50.8505885  73.9427501  29.6062261  50.2422986  74.3882274
  29.0173288  50.4713258  73.1712966  29.2090091  50.7044356  73.8946669
  26.6340268  49.4449897  81.1446327  27.2789271  48.9522340  80.8257275
  26.8742045  49.5874683  81.9712405  26.7650853  49.3927339  81.2195860
  29.1726359  52.2904803  80.7953219  29.4549602  51.4956208  80.5739975
  29.9012520  52.7685390  80.8158280  29.3215923  52.2439400  80.7656234
  27.1507553  39.8327837  78.0368984  26.8210883  40.2838980  77.3672683
  26.4752555  39.7544000  78.5841991  27.0017990  39.8878972  78.0192208
  32.7677962  49.2033066  70.8958270  32.6829257  50.0594033  71.0407839
  33.2562345  48.9277390  71.5640430  32.8266859  49.2890388  71.0160352
  34.3583961  35.8213360  76.2818595  34.0437402  36.5116838  76.7139017
  33.8410903  35.7658142  75.5804096  34.2348431  35.9148248  76.2415544
  33.6996395  45.8217861  72.3956006  33.1707866  46.0377494  73.0553312
  34.2221415  46.5153999  72.3156975  33.6984848  45.9560997  72.4811605
  39.1544448  51.3964165  77.7689050  38.3242151  51.6074809  77.9322467
  39.1053700  50.5701220  77.4931334  39.0251183  51.3053771  77.7526416
  25.5896003  49.7181077  71.1963474  25.0053218  50.2231109  71.6029337
  25.1866098  49.4923464  70.4560066  25.4435306  49.7589326  71.1468499
  21.1440031  55.4335838  77.9987145  20.6607609  56.1586328  77.9746729
  21.9563350  55.7311968  78.1097303  21.1930779  55.5838192  78.0114424
  27.2154185  54.2268019  80.6036960  26.6981127  53.8675434  79.9998268
  27.9128577  53.7030194  80.6143026  27.2419766  54.0965707  80.5167218
  30.0473217  45.9646729  69.6732394  30.2869221  46.1724713  68.8607737
  30.3689058  45.1604238  69.7821339  30.1310375  45.8760831  69.5692947
  25.3563507  37.8940125  73.5191932  26.1109475  38.2618442  73.2808982
  25.1791042  38.2679679  74.2871112  25.4417986  38.0038313  73.5976821
  23.9984229  55.9492014  78.1507425  24.7004808  55.4344003  78.2080182
  23.9181712  56.2766166  78.9554300  24.0907989  55.9206241  78.2780217
  38.6498406  44.0434566  81.5639471  37.8126827  44.1136753  81.7987066
  38.6186637  44.0459060  80.6913774  38.5216688  44.0544793  81.4699019
  23.7120572  40.3010444  70.2170045  23.5296145  40.5182325  69.3911038
  24.5746185  40.4149457  70.2728660  23.8125161  40.3500342  70.1024532
  23.3235004  52.1398366  77.6593033  24.1623903  52.3721299  77.7066795
  23.3546773  51.2702678  77.5900068  23.4516722  52.0455313  77.6557678
  23.9487707  52.5599241  81.9606339  24.4885932  52.4170373  82.6309711
  23.2657653  52.9595992  82.3290365  23.9279861  52.5978912  82.1140760
  29.3920291  37.3036855  73.2519069  30.1206452  37.1252810  72.8057225
  29.4815184  38.1454935  73.4626247  29.5126953  37.4020733  73.2172587
  33.3728592  48.2390242  77.1551363  34.1286107  48.6721756  77.1940272
  33.4790916  47.5895012  77.7285999  33.4998762  48.2067726  77.2449389
  36.4108763  52.0663519  77.9053766  35.9743995  52.0700262  78.6612737
  36.0771678  52.7469018  77.4733343  36.2971383  52.1675975  77.9534598
  36.3306246  39.1077347  80.1483194  36.9732154  39.1775452  80.7345109
  36.5829267  38.4406570  79.6462736  36.4628378  39.0203696  80.1610473
  23.2582599  43.5784617  68.7292518  22.5440776  43.2922796  69.1414951
  23.7426568  43.9181243  69.3698906  23.2241962  43.5866266  68.8848153
  39.5453109  48.7844439  76.7973403  40.2069543  48.2235108  76.6969312
  38.9044521  48.2896470  77.1226094  39.5481977  48.6280848  76.8305743
  30.4329917  52.0814571  69.1054326  30.8481065  51.7499594  68.4138822
  29.6021847  51.8483473  68.9774463  30.3717926  51.9985827  68.9845174
  19.7618266  49.5658312  79.3952504  19.5793839  49.5405198  78.5424797
  20.4967935  50.0357250  79.4341413  19.8432330  49.6319674  79.2750423
  35.8317940  49.8009822  76.5385392  36.0673529  49.9455021  75.7112243
  35.9807504  50.5652230  76.9316906  35.8883743  49.9348876  76.4748996
  37.6608397  48.6411488  74.3754996  37.9916614  49.1739128  73.7695091
  38.2341485  48.6950375  75.0316947  37.7942076  48.7281056  74.3832777
  32.8740286  46.4876390  75.0578576  32.9687140  47.2265684  75.5118201
  32.2499129  46.0593866  75.4913140  32.7949316  46.5337711  75.1886723
  19.7289176  46.4451812  79.5451571  20.3062679  46.3088263  80.1843816
  19.0303238  45.9887597  79.7997155  19.7110197  46.3574079  79.6773861
  33.1263307  48.3325130  68.2915528  33.0443470  48.4027317  69.1570515
  33.7643028  48.8954874  68.0999268  33.2083144  48.4264101  68.3905477
  26.4856478  48.0985868  77.7590054  26.2275722  47.2657603  77.7321354
  26.5404961  48.3243481  76.9182555  26.4556256  48.0083639  77.6310191
  31.5657528  40.2014319  77.8594147  30.8613855  39.7123504  78.0178066
  31.6142503  40.2136793  76.9882591  31.4687580  40.1303967  77.7533487
  25.4591190  45.6523630  78.2454949  24.8840782  45.8115799  78.8818910
  25.0826867  45.0159040  77.7823399  25.3194003  45.5821443  78.2709507
  29.1264479  44.1246980  83.1047327  28.7378912  43.7001198  82.4499519
  28.4619177  44.3729129  83.6124354  28.9711407  44.0985701  83.0835195
  38.7687748  43.8821984  75.8795157  38.5124313  43.0701926  75.6893040
  39.6117062  43.8899552  75.6525345  38.8553774  43.7633982  75.8179974
  15.2048009  45.2963705  76.2599390  15.2908261  44.9195574  77.0412919
  15.8323807  44.9224151  75.7819348  15.3104560  45.1849187  76.3044867
  32.9490841  37.8221609  80.6171312  33.3301352  37.1399780  81.0039186
  32.1454125  37.5331211  80.4346976  32.8867302  37.6788657  80.6475367
  30.2303417  48.3545584  71.3024134  31.0444056  48.6460477  71.1906906
  30.1662558  47.7005447  70.7282427  30.3406156  48.3010779  71.2012972
  26.1011326  51.8267102  76.4296446  26.7385272  51.5878849  76.9748240
  26.5266397  52.0304261  75.6949607  26.2587492  51.8218112  76.4013604
  26.7414141  47.0469392  70.7671336  27.1259293  46.8277098  71.5187881
  26.4925761  47.8732337  70.8972412  26.7616213  47.1367538  70.8972412
  28.4832797  52.3039524  78.1090233  28.5571806  52.1414696  78.9632083
  29.3002304  52.4929714  77.8650714  28.6149156  52.3076267  78.1988258
  22.2438554  52.6497387  75.1384676  21.4176672  52.8959124  75.0118955
  22.3050545  52.5709468  76.0046734  22.1312721  52.6742336  75.2473621
  24.4614578  38.7166328  76.0980116  23.5937003  38.7888928  76.1637726
  24.7489782  39.5188407  76.2868091  24.3754326  38.8460475  76.1354883
  33.5847467  38.8644188  84.4291438  34.3301059  38.6753998  84.0154864
  33.1684771  39.3902426  83.8705294  33.6332441  38.9146333  84.2856011
  27.0237383  55.2674267  72.8403706  27.3135682  54.8763249  72.1162933
  27.7540864  55.4490972  73.2808981  27.1744267  55.2368081  72.7986513
  40.9609738  46.2353416  79.3796943  41.5117659  45.6021485  79.6194035
  40.9453853  46.7668809  80.0712447  41.0394934  46.2202364  79.5175801
  27.6132128  50.0692013  83.9256837  27.1143822  50.7807781  84.0041725
  28.4232353  50.3892680  83.8874999  27.6588235  50.2218862  83.9313405
  24.9643299  57.2441650  75.9063856  24.7443594  56.9539005  76.6990523
  24.7437821  56.5856605  75.3781768  24.8990893  57.1041358  75.9452764
  23.8760246  49.3314966  78.1719557  23.5873495  48.7052438  78.7065285
  24.7443594  49.2735254  78.2384238  23.9620498  49.2302511  78.2610512
  34.6638144  44.4749750  78.4901539  34.3202910  43.7540085  78.8408789
  34.7631186  44.2663601  77.6479898  34.6280187  44.3373953  78.4173219
  27.1311254  58.6171040  74.6894548  27.7835312  58.0847482  74.9185574
  26.4336863  58.2639692  75.0762422  27.1241972  58.4860563  74.7806716
  24.0792519  50.9710217  74.0961922  24.8338487  51.3523257  74.3097385
  23.4863132  51.4221361  74.5508619  24.1029233  51.0939045  74.1944801
  35.1251173  50.9375454  74.0325527  35.6909205  51.5968664  73.9484070
  34.4779076  51.2825152  74.5041930  35.1129929  51.0857395  74.0898284
  25.3990746  52.1418779  79.4702038  24.8771499  52.2819071  80.1553903
  25.7864766  51.3829443  79.6604155  25.3794447  52.0504303  79.6003114
  22.3881930  42.1924588  73.5396993  22.1006726  41.8225858  72.8028940
  23.0752398  42.6619443  73.2780697  22.4470827  42.2071557  73.3912068
  31.5957751  53.8814238  73.4562607  31.3544427  53.1482099  73.0489672
  31.7759084  54.4301095  72.8028940  31.5865375  53.8536629  73.2992830
  26.8257072  49.1722798  74.8683529  26.6299854  49.7797532  74.2743832
  27.0491417  48.4790742  74.3875203  26.8291713  49.1600323  74.7099610
  25.2235602  46.0577536  74.9864397  25.9458253  46.2218694  74.5268203
  24.7443594  46.7787201  74.8803737  25.2599332  46.1875765  74.9030011
  33.1829109  42.3941335  80.3661082  32.3440210  42.4202613  80.1299345
  33.2533476  43.0412070  80.9466429  33.0697503  42.4937460  80.4170199
  31.6298387  39.2926712  75.0988698  32.3324740  39.0934460  74.6208656
  31.3642576  38.5202654  75.4057542  31.6945020  39.1489678  75.0734140
  37.0586633  47.6009321  77.6522324  36.9720607  47.7564747  78.5057103
  36.6037113  48.2447397  77.2781729  36.9789890  47.7185076  77.7229431
  19.9610125  42.9705800  74.3882274  20.0626261  43.7731961  74.7163249
  20.7566011  42.7693136  74.0905354  20.0938030  43.0591699  74.3917629
  30.9312449  44.9220068  76.2747883  30.6847163  44.8415819  77.1084672
  31.2597572  44.1373536  76.0810411  30.9433693  44.7946334  76.3695407
  34.8260498  51.6303428  80.0634665  34.6874857  52.3284474  80.5683407
  34.0460496  51.4752084  79.7070846  34.6903725  51.7103594  80.0860939
  26.8909476  47.6576787  85.6870867  27.0352852  48.2377995  85.0513977
  27.2385125  48.0353084  86.3920721  26.9636938  47.7997491  85.6969861
  29.0629394  46.8566955  83.4695998  28.3152708  47.0497970  83.0644276
  29.2170919  46.0312175  83.2320119  28.9751821  46.7632067  83.3741404
  25.9637231  55.8479559  82.5531893  26.1126795  55.2882475  81.9005298
  26.7437233  55.9271561  82.9364412  26.1011325  55.7765124  82.5128843
  36.3213871  50.9881682  70.8251164  35.9420679  50.2018819  70.8180453
  35.6580116  51.5368539  70.6822808  36.1672345  50.9526506  70.8031961
  33.7758497  33.9307381  78.2285245  33.8942065  34.3883845  77.4952547
  33.6020672  33.1252643  77.9421462  33.7677668  33.8801153  78.0786178
  29.1460779  54.5395201  74.6639990  29.9110670  54.2704844  74.3422654
  29.0438869  54.0545211  75.3810053  29.2442274  54.4284765  74.7219818
  27.1813549  42.7419610  81.2033226  26.3909623  42.5611070  81.5250562
  27.5774171  41.9646563  81.1863520  27.1230425  42.6007071  81.2485774
  31.6679439  51.5707384  66.6439939  32.4352424  51.6307509  66.2345791
  31.2210748  50.9987826  66.1596258  31.7152867  51.4943960  66.5117650
  32.5657235  50.3762040  78.9292672  31.8902237  50.1447272  79.4306059
  32.5749611  49.7683223  78.3034777  32.4675739  50.2520965  78.9108824
  29.6951379  45.2179869  85.6856725  29.6310520  46.0789826  85.5576861
  29.8348567  44.9011862  84.8852276  29.7066849  45.2980036  85.5484938
  34.5673969  53.2327173  71.1602850  34.6493807  54.0394159  70.8364301
  35.0523712  53.2523132  71.8843623  34.6511127  53.3547835  71.2189748
  28.3770473  47.9112009  79.8272928  27.9532722  48.1116508  79.0911946
  28.2015328  47.0640856  79.9397228  28.2881353  47.8160790  79.7346618
  23.6652918  48.4064060  75.2600900  23.8217537  48.3410863  76.1156892
  24.0053511  49.1812613  75.0479580  23.7386153  48.5113258  75.3555494
  30.2032062  47.7821944  74.1294263  30.7447608  47.2792325  74.5932884
  30.5178621  47.7287138  73.3183749  30.3296459  47.7001364  74.0778076
  28.3718512  53.1739295  71.4134291  28.4411332  52.3153834  71.5527292
  29.1506967  53.3911176  71.0853316  28.4971362  53.0792159  71.3851449
  31.3521332  42.6758248  84.1816564  31.5663301  42.0369162  83.6279918
  30.7355231  43.1204072  83.7524426  31.2926661  42.6468392  84.0366995
  32.7626000  55.5976996  75.6270785  32.3705791  55.2943712  74.9093651
  32.9179072  56.4346086  75.4375739  32.7279589  55.6760833  75.4927282
  20.2387179  45.5899010  75.5761667  20.6186144  46.0083555  74.9121935
  19.6642544  46.1712466  75.8830511  20.2098504  45.7376869  75.5238408
  33.5160420  44.2847313  85.1199871  32.7037101  43.9773204  85.2013044
  33.9750354  43.8046313  85.6842583  33.4640804  44.1683806  85.2154465
  32.9265674  52.1626985  75.5676815  32.5680329  52.3341628  76.3440848
  32.4404385  52.6240191  75.0104814  32.8024371  52.2565956  75.6002084
  30.7436060  35.7858184  79.1703907  29.8729618  35.7596905  79.1237216
  30.9976402  35.6135376  78.3529752  30.6529620  35.7568327  79.0424043
  27.7154040  47.8426151  68.1077050  28.0046565  48.6191033  68.3820624
  27.8025839  47.3314882  68.8091549  27.7708296  47.8818069  68.2519548
  27.7685201  37.7964412  80.6277377  27.2523689  37.1044604  80.7528956
  27.2079130  38.4635189  80.5739976  27.6091714  37.7927670  80.6383443
  35.8127414  44.9020027  81.0809932  35.3855022  44.8146376  80.3258031
  35.1753467  45.0097803  81.6664776  35.6557021  44.9052687  81.0555373
  23.8817981  47.1559415  80.2077162  23.0405987  47.0563289  80.4156056
  24.0907989  47.9254895  80.5591482  23.7882673  47.2551459  80.2904477
  21.3593548  44.7778952  78.0361912  20.9650245  44.8521964  77.2612022
  20.8033665  45.1636898  78.5870274  21.2196360  44.8460727  78.0029572
  32.9958495  37.7560246  77.7165791  33.2008088  37.6882554  78.5622789
  32.6684919  38.5619067  77.6486969  32.9773742  37.8646187  77.8325447
  27.6934646  45.0840814  79.4574759  27.3897783  44.5296803  80.0585167
  26.9914066  45.2633024  78.9702794  27.5450855  45.0285597  79.4744465
  26.7500743  42.3941334  74.0219461  27.0260477  41.6760247  73.6097029
  27.3499412  42.9926254  73.8140567  26.8794007  42.3761705  73.9300222
  36.2492182  38.3092010  77.1968557  35.6366496  38.7962413  77.5822289
  36.3456357  37.6335501  77.7406208  36.1730080  38.2810319  77.3347415
  30.2511263  40.0654852  72.2966056  30.7055010  40.2365412  73.0213901
  30.7251309  39.4522962  71.8963832  30.3879583  40.0005737  72.3439818
  23.7726789  49.5503177  81.6268795  23.1814722  50.1912676  81.5971810
  24.5347812  49.9740795  81.6000094  23.7975049  49.7079016  81.6183942
  33.5316305  55.0012489  79.0600819  33.3335994  55.4903304  78.3657030
  32.9104016  55.2053731  79.6384953  33.4103869  55.1029027  79.0424042
  27.5924283  46.7697386  73.4011063  28.3366328  47.1571662  73.6394013
  27.7384979  45.9254811  73.5651551  27.7234868  46.7027859  73.4605033
  29.5103859  38.5647645  78.4342925  28.6639904  38.7370453  78.3084275
  29.5074991  37.7596989  78.7708753  29.3851009  38.4708674  78.4654052
  30.5802159  42.3422859  79.3004983  30.1062113  41.8164621  79.8110294
  30.9520295  41.7952332  78.7319844  30.5652048  42.1838856  79.2920130
  36.8438890  47.4025235  80.7111763  36.6037113  46.5631650  80.7154190
  37.3230897  47.4825402  81.4352537  36.8791073  47.2906635  80.8186566
  32.5085659  43.2359414  72.3630737  31.9808677  43.3188158  71.6736445
  32.9681367  43.9777285  72.3595381  32.4987509  43.3580076  72.2605432
  38.8444077  44.1826692  78.6641022  38.6053847  44.1422526  77.8261807
  39.0077978  45.0297844  78.7906743  38.8334380  44.3018777  78.5594504
  24.3176975  43.1636815  81.3298947  23.6930045  43.1755207  80.7224899
  23.9822570  43.6396990  81.9790187  24.1762467  43.2355332  81.3355515
  24.5018724  41.5061933  67.3871632  24.1531528  42.1581659  67.8503181
  24.0215170  41.4919046  66.6595503  24.3788968  41.6004987  67.3482723
  32.0622741  51.8062977  71.4940394  32.7856940  52.2721090  71.3504967
  31.6223332  51.8736587  70.7437991  32.1038433  51.8846814  71.3625175
  31.2308896  48.6660520  82.7441083  30.6165889  48.1218570  83.0389718
  31.7476181  48.1524756  82.2646899  31.2164559  48.5096929  82.7165311
  30.4705193  49.7364790  80.4785381  30.0432802  49.1114508  80.0450817
  30.4630138  49.4539712  81.3044388  30.4064335  49.6017570  80.5365209
  28.7990903  40.6133544  80.6927915  28.8233390  40.0793656  80.0040695
  29.0502377  40.1050853  81.3553506  28.8400822  40.4594448  80.6892560
  25.0792225  39.3404362  80.0733660  25.1190597  39.8413569  80.7868367
  24.2541890  39.4314756  79.8039583  24.9631751  39.4286179  80.1384198
  26.5006589  45.8564872  82.3707559  25.6698518  46.0238690  82.1642807
  26.4458106  45.4800823  83.1556444  26.3696004  45.8254604  82.4556087
  24.8742633  44.1320464  72.8997676  25.0145594  44.6292928  73.6026318
  25.3725165  43.4306758  73.0411890  24.9683714  44.1022443  73.0249255
  24.9042855  44.9987575  70.2290253  25.5387934  45.5948000  70.1639715
  24.9868466  44.6991032  71.0436123  25.0099406  45.0428483  70.3393340
  26.4821838  40.9301550  70.2035695  26.8037679  40.4504633  69.5494957
  26.7448782  41.7401196  70.0126507  26.5687863  40.9791448  70.0791187
  29.7118811  51.9520425  83.7234511  29.2043902  52.5056271  84.1675142
  29.4145457  52.0128714  82.9053286  29.5923696  52.0426736  83.6682968
  31.8780993  40.3173744  82.5659174  32.3036064  39.8646271  81.9542701
  31.2637986  39.7633815  82.8423962  31.8509638  40.1687720  82.5164199
  21.4095843  47.1955416  73.4979799  21.9188072  47.7919923  73.8791105
  21.8830115  46.9281389  72.8156219  21.5539219  47.2441231  73.4534322
  32.3226591  55.8683682  71.6538455  31.6055901  55.6944545  71.1885692
  32.9733329  55.6336255  71.1213941  32.3128441  55.8079475  71.5067673
  30.3175216  36.7888844  75.9749751  29.6743534  36.6386490  76.5434890
  29.9774623  36.5431189  75.2098856  30.1720293  36.7300966  75.9452766
  34.9074562  44.7448271  75.3979760  34.2365752  45.2877973  75.2692825
  35.6014312  45.2143126  75.1561455  34.9103430  44.8946542  75.3435288
  28.9561296  56.8844983  80.6291518  28.7326950  56.1263812  80.9975544
  28.4671139  56.9143004  79.9071958  28.8504745  56.7767207  80.5768259
  35.0702690  41.2004154  78.3070133  35.4230300  40.7733877  78.9815932
  34.2117491  41.1154998  78.4371209  34.9952134  41.1248895  78.4265143
  23.7686375  43.8311674  76.3652980  23.0498364  44.2475807  76.6325843
  24.1398737  44.3965913  75.8144618  23.7178306  43.9760956  76.3235787
  33.0685955  44.4639523  82.2554975  33.0483883  44.2822818  83.1089754
  33.1165156  45.3351542  82.2314559  33.0720596  44.5656061  82.3778270
  27.6039753  57.1045441  78.0828603  27.1900151  56.4419571  77.6932444
  28.2887127  57.2523300  77.5624297  27.6438125  57.0286099  77.9485100
  30.9705047  56.2635526  78.8352219  30.5721330  56.3737797  78.0673040
  30.3556267  56.4717593  79.4178779  30.8203936  56.3109094  78.8083519
  29.5432949  42.8709674  71.7026359  28.9497788  43.1926671  71.1510926
  29.5808227  42.0250769  71.4947465  29.4607338  42.7934002  71.5909130
  36.5026750  36.3222566  79.2354445  35.9957614  35.6151706  79.1675623
  37.2994183  35.9915755  79.3655522  36.5453989  36.1695718  79.2453440
  32.4190766  42.8289179  75.1328109  32.1904459  42.8521880  74.2906467
  32.6788842  42.0046646  75.2523120  32.4236954  42.7105258  75.0253307
  25.4735528  41.3665725  76.4282305  25.9492894  41.7282805  75.7932486
  24.9724128  42.0222192  76.7082448  25.4700887  41.5159914  76.3759046
  38.7046890  50.8387493  72.2195310  39.0880495  51.5878849  72.4493407
  37.9091003  51.0853313  71.9607299  38.6440672  50.9857187  72.2152883
  27.5162181  43.5106925  69.7955689  27.8961146  43.5286554  69.0106804
  26.7754777  43.9560913  69.6746536  27.4631019  43.5788699  69.6619257
  35.1447472  41.8189116  75.3831268  35.1441698  41.6637772  76.2415544
  34.9403652  42.6652103  75.3272653  35.1147250  41.9209737  75.5019207
  17.2064743  45.2428900  79.7990084  17.0286504  44.7905509  80.5245000
  16.9183765  46.0455062  79.9828562  17.1377696  45.2951458  79.9333587
  32.8688324  46.4986618  79.0367474  33.3641989  45.7809613  78.9971495
  32.0588100  46.1957415  78.9221961  32.8232217  46.3484264  79.0141200
  28.3146935  50.3484431  71.1864479  27.5058258  50.0251104  71.1397788
  28.8221844  49.6417653  71.1192728  28.2696602  50.1965747  71.1694773
  18.9437213  47.7756624  76.9111843  18.0782732  47.7642314  76.7994614
  19.0436028  47.5886847  77.7582982  18.8311380  47.7462685  77.0200788
  34.9340143  49.2490305  81.7244603  35.3595214  48.7264727  81.1715028
  34.5697063  49.8471143  81.2033226  34.9426745  49.2600532  81.5653613
  24.5694222  57.5454523  80.4841949  24.8840781  58.3590911  80.4919730
  24.9787636  57.1604741  81.1524108  24.6762320  57.6083225  80.5846040
  34.9686553  40.8227858  82.2024646  34.3849542  41.3237064  81.7902213
  35.2890847  40.3157414  81.5688969  34.9299728  40.8219693  82.0483153
  27.5081352  39.7368453  72.4783320  28.3297046  39.9066766  72.2365015
  27.0451003  39.8915714  71.7549618  27.5612514  39.7850186  72.3354965
  21.9107243  51.4927631  80.1320557  22.5152100  51.4523465  79.5034378
  21.7034555  52.3398783  80.1624613  21.9696140  51.6115634  80.0436674
  31.7251015  53.7593576  81.3482794  32.5449389  53.6156542  81.6099090
  31.4445092  54.3839775  81.8899232  31.8047758  53.8303928  81.4670734
  39.9513273  59.9820748  73.9547710  40.6493438  60.1608875  74.4469173
  40.2665606  59.4591087  73.3318099  40.1008610  59.9314520  73.9349720
  38.1240137  55.3513145  78.0368984  37.7943467  55.8024288  77.3672683
  37.4485139  55.2729308  78.5841991  37.9750573  55.4064280  78.0192208
  45.3316545  51.3398667  76.2818595  45.0169986  52.0302146  76.7139017
  44.8143486  51.2843450  75.5804096  45.2081015  51.4333556  76.2415544
  36.5628586  65.2366385  71.1963474  35.9785801  65.7416417  71.6029337
  36.1598681  65.0108772  70.4560066  36.4167890  65.2774633  71.1468499
  41.0205801  61.4832037  69.6732394  41.2601804  61.6910021  68.8607737
  41.3421642  60.6789546  69.7821339  41.1042959  61.3946138  69.5692947
  36.3296091  53.4125433  73.5191932  37.0842059  53.7803750  73.2808982
  36.1523625  53.7864987  74.2871112  36.4150569  53.5223621  73.5976821
  34.6853156  55.8195752  70.2170045  34.5028729  56.0367633  69.3911038
  35.5478769  55.9334765  70.2728660  34.7857745  55.8685650  70.1024532
  40.3652875  52.8222163  73.2519069  41.0939035  52.6438118  72.8057225
  40.4547768  53.6640242  73.4626247  40.4859537  52.9206041  73.2172587
  34.2315183  59.0969925  68.7292518  33.5173360  58.8108104  69.1414951
  34.7159151  59.4366550  69.3698906  34.1974546  59.1051574  68.8848153
  41.4062500  67.5999879  69.1054326  41.8213649  67.2684902  68.4138822
  40.5754430  67.3668781  68.9774463  41.3450509  67.5171135  68.9845174
  44.0995891  63.8510438  68.2915528  44.0176053  63.9212625  69.1570515
  44.7375611  64.4140182  68.0999268  44.1815728  63.9449409  68.3905477
  26.1780593  60.8149013  76.2599390  26.2640845  60.4380882  77.0412919
  26.8056390  60.4409459  75.7819348  26.2837144  60.7034495  76.3044867
  41.2036001  63.8730892  71.3024134  42.0176640  64.1645785  71.1906906
  41.1395142  63.2190755  70.7282427  41.3138740  63.8196087  71.2012972
  37.7146724  62.5654700  70.7671336  38.0991877  62.3462406  71.5187881
  37.4658344  63.3917645  70.8972412  37.7348797  62.6552846  70.8972412
  35.4347161  54.2351636  76.0980116  34.5669587  54.3074236  76.1637726
  35.7222366  55.0373715  76.2868091  35.3486910  54.3645783  76.1354883
  33.3614514  57.7109895  73.5396993  33.0739309  57.3411166  72.8028940
  34.0484982  58.1804751  73.2780697  33.4203411  57.7256865  73.3912068
  36.1968185  61.5762844  74.9864397  36.9190837  61.7404002  74.5268203
  35.7176178  62.2972509  74.8803737  36.2331916  61.7061073  74.9030011
  42.6030971  54.8112020  75.0988698  43.3057324  54.6119768  74.6208656
  42.3375160  54.0387962  75.4057542  42.6677603  54.6674986  75.0734140
  30.9342708  58.4891108  74.3882274  31.0358845  59.2917269  74.7163249
  31.7298595  58.2878444  74.0905354  31.0670614  58.5777007  74.3917629
  44.7491080  49.4492689  78.2285245  44.8674648  49.9069153  77.4952547
  44.5753256  48.6437950  77.9421462  44.7410251  49.3986461  78.0786178
  42.6412023  67.0892692  66.6439939  43.4085008  67.1492817  66.2345791
  42.1943332  66.5173134  66.1596258  42.6885450  67.0129268  66.5117650
  31.2119763  61.1084318  75.5761667  31.5918728  61.5268863  74.9121935
  30.6375128  61.6897774  75.8830511  31.1831088  61.2562177  75.5238408
  41.7168644  51.3043492  79.1703907  40.8462202  51.2782213  79.1237216
  41.9708985  51.1320684  78.3529752  41.6262204  51.2753635  79.0424043
  38.6886623  63.3611459  68.1077050  38.9779148  64.1376341  68.3820624
  38.7758422  62.8500190  68.8091549  38.7440880  63.4003377  68.2519548
  37.7233326  57.9126642  74.0219461  37.9993061  57.1945555  73.6097029
  38.3231996  58.5111562  73.8140567  37.8526591  57.8947013  73.9300222
  41.2243847  55.5840159  72.2966056  41.6787593  55.7550720  73.0213901
  41.6983893  54.9708270  71.8963832  41.3612167  55.5191045  72.3439818
  38.5656867  62.2882694  73.4011063  39.3098912  62.6756970  73.6394013
  38.7117563  61.4440119  73.5651551  38.6967452  62.2213167  73.4605033
  40.4836442  54.0832953  78.4342925  39.6372487  54.2555760  78.3084275
  40.4807575  53.2782296  78.7708753  40.3583592  53.9893982  78.4654052
  43.4818242  58.7544722  72.3630737  42.9541261  58.8373466  71.6736445
  43.9413950  59.4962593  72.3595381  43.4720093  58.8765384  72.2605432
  35.4751307  57.0247241  67.3871632  35.1264112  57.6766967  67.8503181
  34.9947753  57.0104354  66.6595503  35.3521551  57.1190295  67.3482723
  35.8475216  59.6505772  72.8997676  35.9878177  60.1478236  73.6026318
  36.3457749  58.9492066  73.0411890  35.9416297  59.6207750  73.0249255
  35.8775439  60.5172883  70.2290253  36.5120518  61.1133308  70.1639715
  35.9601049  60.2176340  71.0436123  35.9831990  60.5613791  70.3393340
  37.4554421  56.4486858  70.2035695  37.7770263  55.9689941  69.5494957
  37.7181365  57.2586504  70.0126507  37.5420447  56.4976756  70.0791187
  32.3828426  62.7140723  73.4979799  32.8920656  63.3105231  73.8791105
  32.8562699  62.4466697  72.8156219  32.5271802  62.7626539  73.4534322
  41.2907799  52.3074152  75.9749751  40.6476117  52.1571798  76.5434890
  40.9507206  52.0616497  75.2098856  41.1452877  52.2486274  75.9452766
  34.7418958  59.3496982  76.3652980  34.0230947  59.7661115  76.6325843
  35.1131320  59.9151221  75.8144618  34.6910890  59.4946263  76.3235787
  40.5165533  58.3894982  71.7026359  39.9230372  58.7111978  71.1510926
  40.5540810  57.5436077  71.4947465  40.4339922  58.3119310  71.5909130
  43.3923349  58.3474486  75.1328109  43.1637042  58.3707188  74.2906467
  43.6521425  57.5231953  75.2523120  43.3969537  58.2290566  75.0253307
  36.4468112  56.8851033  76.4282305  36.9225478  57.2468113  75.7932486
  35.9456711  57.5407500  76.7082448  36.4433471  57.0345222  76.3759046
  38.4894765  59.0292233  69.7955689  38.8693730  59.0471862  69.0106804
  37.7487361  59.4746221  69.6746536  38.4363603  59.0974007  69.6619257
  39.2879519  65.8669739  71.1864479  38.4790842  65.5436412  71.1397788
  39.7954428  65.1602961  71.1192728  39.2429186  65.7151055  71.1694773
  29.9169796  63.2941932  76.9111843  29.0515316  63.2827622  76.7994614
  30.0168612  63.1072155  77.7582982  29.8043963  63.2647993  77.0200788
  38.4813936  55.2553761  72.4783320  39.3029630  55.4252074  72.2365015
  38.0183586  55.4101022  71.7549618  38.5345098  55.3035494  72.3354965
  25.9450322   7.3165943  61.2465718  25.9144326   8.1710580  61.4183987
  26.5431671   7.0161236  61.8051861  26.0287480   7.3982440  61.3540520
  13.5291146  15.9404312  61.7655880  12.7774046  15.5619850  61.5371925
  13.9777158  15.9722746  61.0174690  13.4840813  15.8889919  61.6213382
  18.9816106  16.3629682  57.1941427  18.6467475  17.0406603  56.7585649
  19.4942977  15.9734993  56.6058298  19.0081687  16.4054260  57.0428218
  18.5220398  18.3143950  63.1352538  18.9059777  18.8830849  62.5957314
  18.4579539  17.5893461  62.6558354  18.5693825  18.2919414  62.9846401
  23.7666896   9.8918245  59.5184028  23.6506422  10.6425931  59.9476166
  24.5622783   9.6342199  59.7680115  23.8671486   9.9653092  59.6188119
  14.9476642  20.8700293  65.4333508  15.5914098  21.3113457  65.8229667
  15.2732898  20.0653720  65.3463767  15.0908471  20.8165488  65.4778985
  15.6497222  13.8812268  60.8053370  15.9713063  14.4217476  60.2014678
  16.2969318  13.3109040  60.9375660  15.7923277  13.8771443  60.7360405
  17.8886865  12.2698708  60.8767548  18.3280501  11.6615809  61.3222321
  17.7391528  11.8906082  60.1053013  17.9308331  12.1237179  60.8286715
  21.4896202  10.6225890  57.8298317  21.4047497  11.4786856  57.9747886
  21.9780585  10.3470214  58.4980476  21.5485099  10.7083211  57.9500399
  22.4214635   7.2410684  59.3296052  21.8926107   7.4570317  59.9893359
  22.9439655   7.9346822  59.2497022  22.4203088   7.3753821  59.4151652
  27.8762688  12.8156988  64.7029097  27.0460391  13.0267632  64.8662513
  27.8271940  11.9894043  64.4271380  27.7469423  12.7246594  64.6866462
  14.3114243  11.1373901  58.1303520  13.7271458  11.6423932  58.5369384
  13.9084338  10.9116287  57.3900112  14.1653547  11.1782149  58.0808546
  18.7691457   7.3839553  56.6072441  19.0087461   7.5917536  55.7947784
  19.0907298   6.5797061  56.7161386  18.8528615   7.2953654  56.5032994
  25.1327003  13.4856343  64.8393813  24.6962235  13.4893085  65.5952784
  24.7989919  14.1661842  64.4073390  25.0189623  13.5868798  64.8874645
  28.2671350  10.2037262  63.7313450  28.9287784   9.6427931  63.6309358
  27.6262761   9.7089293  64.0566141  28.2700217  10.0473672  63.7645790
  19.1548157  13.5007394  56.0394373  19.5699306  13.1692418  55.3478869
  18.3240087  13.2676296  55.9114510  19.0936166  13.4178650  55.9185221
  24.5536180  11.2202645  63.4725439  24.7891769  11.3647844  62.6452289
  24.7025744  11.9845053  63.8656952  24.6101983  11.3541699  63.4089043
  26.3826637  10.0604311  61.3095043  26.7134854  10.5931951  60.7035137
  26.9559725  10.1143199  61.9656993  26.5160316  10.1473880  61.3172824
  21.8481547   9.7517953  55.2255575  21.7661710   9.8220140  56.0910562
  22.4861268  10.3147697  55.0339315  21.9301385   9.8456924  55.3245524
  18.9521658   9.7738408  58.2364181  19.7662296  10.0653300  58.1246952
  18.8880799   9.1198270  57.6622474  19.0624397   9.7203602  58.1353018
  15.4632381   8.4662215  57.7011383  15.8477534   8.2469922  58.4527928
  15.2144001   9.2925160  57.8312459  15.4834453   8.5560361  57.8312459
  15.7455624  16.6867091  59.7743753  16.0353922  16.2956072  59.0502979
  16.4759104  16.8683796  60.2149028  15.8962508  16.6560905  59.7326560
  13.6861539  18.6634473  62.8403903  13.4661835  18.3731828  63.6330570
  13.4656061  18.0049428  62.3121815  13.6209133  18.5234182  62.8792811
  15.8529495  20.0363863  61.6234595  16.5053553  19.5040305  61.8525621
  15.1555104  19.6832515  62.0102469  15.8460213  19.9053386  61.7146763
  23.8469413  12.3568277  60.9665574  24.4127446  13.0161487  60.8824117
  23.1997317  12.7017975  61.4381976  23.8348170  12.5050218  61.0238331
  20.3175991  15.3007061  60.3902653  20.0762667  14.5674922  59.9829718
  20.4977324  15.8493918  59.7368987  20.3083615  15.2729452  60.2332876
  25.0432111  12.4074505  57.7591211  24.6638920  11.6211643  57.7520500
  24.3798356  12.9561362  57.6162855  24.8890586  12.3719329  57.7372008
  17.8679019  15.9588024  61.5980037  18.6328910  15.6897668  61.2762701
  17.7657109  15.4738034  62.3150100  17.9660515  15.8477589  61.6559865
  20.3897680  12.9900208  53.5779986  21.1570665  13.0500333  53.1685838
  19.9428989  12.4180649  53.0936305  20.4371107  12.9136783  53.4457697
  23.2892210  14.6519996  58.0942897  23.3712047  15.4586982  57.7704347
  23.7741952  14.6715955  58.8183670  23.3729368  14.7740658  58.1529795
  18.9250303   9.2014767  61.0634310  19.4665848   8.6985148  61.5272931
  19.2396862   9.1479961  60.2523796  19.0514700   9.1194188  61.0118122
  17.0936752  14.5932118  58.3474338  17.1629573  13.7346657  58.4867339
  17.8725208  14.8103999  58.0193363  17.2189603  14.4984982  58.3191496
  21.4844240  17.0169820  62.5610832  21.0924032  16.7136535  61.8433698
  21.6397312  17.8538910  62.3715785  21.4497830  17.0953656  62.4267329
  21.6483915  13.5819808  62.5016862  21.2898570  13.7534451  63.2780895
  21.1622626  14.0433014  61.9444861  21.5242612  13.6758780  62.5342131
  16.4372280   9.2618974  55.0417097  16.7264805  10.0383856  55.3160671
  16.5244079   8.7507705  55.7431596  16.4926536   9.3010892  55.1859594
  22.2534545  16.4205312  65.9940866  22.0554234  16.9096127  65.2997077
  21.6322256  16.6246554  66.5724999  22.1322110  16.5221851  65.9764089
  21.2303899   4.6552237  59.2970783  20.7026918   4.7380981  58.6076492
  21.6899607   5.3970108  59.2935428  21.2205750   4.7772899  59.1945479
  20.7840982  13.2255801  58.4280440  21.5075181  13.6913914  58.2845014
  20.3441573  13.2929410  57.6778037  20.8256674  13.3039637  58.2965222
  21.0444831  17.2876506  58.5878502  20.3274141  17.1137368  58.1225739
  21.6951569  17.0529078  58.0553988  21.0346682  17.2272298  58.4407719
  16.3257993  18.5238264  65.0168650  15.9118392  17.8612394  64.6272491
  17.0105367  18.6716123  64.4964344  16.3656365  18.4478922  64.8825147
  19.6923287  17.6828349  65.7692266  19.2939571  17.7930620  65.0013086
  19.0774507  17.8910416  66.3518826  19.5422177  17.7301917  65.7423565
  27.4265130  12.2580316  59.1535357  27.8098736  13.0071672  59.3833454
  26.6309243  12.5046136  58.8947346  27.3658912  12.4050010  59.1492930
  16.2380422   4.9299748  56.7295736  16.6179386   4.9479377  55.9446850
  15.4973018   5.3753737  56.6086583  16.1849259   4.9981522  56.5959304
  17.0365176  11.7677254  58.1204526  16.2276498  11.4443928  58.0737835
  17.5440085  11.0610476  58.0532774  16.9914842  11.6158570  58.1034820
  36.9182905  22.8351251  61.2465718  36.8876910  23.6895888  61.4183987
  37.5164254  22.5346544  61.8051861  37.0020063  22.9167748  61.3540520
  30.1182590  21.9226902  66.0018648  29.2620486  22.0835400  66.0527765
  30.1650244  21.0518966  66.0223709  29.9981702  21.8177704  66.0124714
  24.5023730  31.4589620  61.7655880  23.7506630  31.0805158  61.5371925
  24.9509742  31.4908054  61.0174690  24.4573397  31.4075227  61.6213382
  33.4276307  28.1913428  75.6079104  34.1343074  27.6965459  75.7366039
  33.6164242  28.6322509  74.8781762  33.5604212  28.1831778  75.5188150
  29.9548690  31.8814990  57.1941427  29.6200058  32.5591911  56.7585649
  30.4675560  31.4920301  56.6058298  29.9814271  31.9239568  57.0428218
  29.4952981  33.8329258  63.1352538  29.8792361  34.4016157  62.5957314
  29.4312122  33.1078769  62.6558354  29.5426408  33.8104722  62.9846401
  32.9634411  23.9818946  68.6450300  33.5090371  24.6604033  68.7044269
  32.9051288  23.8406407  67.7851881  33.0350326  24.0610948  68.5262360
  26.0808486  31.4708012  64.0318652  26.1818849  30.6608366  64.3415780
  25.4850231  31.3764959  63.4018331  26.0081025  31.3373040  63.9844891
  34.7399480  25.4103553  59.5184028  34.6239006  26.1611239  59.9476166
  35.5355367  25.1527506  59.7680115  34.8404069  25.4838400  59.6188119
  25.9209226  36.3885601  65.4333508  26.5646681  36.8298765  65.8229667
  26.2465481  35.5839028  65.3463767  26.0641054  36.3350796  65.4778985
  19.2773531  27.4928299  63.6570986  19.0423715  26.6595951  63.5503255
  19.4159171  27.7732964  62.8432187  19.2629193  27.4111802  63.5213341
  21.5763618  19.6614029  66.5555294  20.9568650  19.0706677  66.3865308
  21.4747482  20.2525465  65.9219617  21.4701293  19.6618112  66.4360283
  26.6229806  29.3997576  60.8053370  26.9445647  29.9402784  60.2014678
  27.2701902  28.8294348  60.9375660  26.7655861  29.3956751  60.7360405
  28.6731514  21.4013571  60.8887757  29.3711678  21.5801699  61.3809220
  28.9883846  20.8783911  60.2658146  28.8226851  21.3507343  60.8689767
  21.3032751  23.2066311  68.7998862  21.1791448  23.7928757  69.4348681
  21.9551035  22.7126507  69.1011137  21.3806400  23.2205116  68.9384792
  28.8619449  27.7884016  60.8767548  29.3013084  27.1801117  61.3222321
  28.7124112  27.4091390  60.1053013  28.9040915  27.6422487  60.8286715
  26.3291092  26.3828028  68.0786374  26.9740095  25.8900471  67.7597322
  26.5692869  26.5252815  68.9052452  26.4601677  26.3305470  68.1535907
  28.8677183  29.2282934  67.7293266  29.1500426  28.4334340  67.5080022
  29.5963344  29.7063521  67.7498327  29.0166747  29.1817531  67.6996281
  26.8458377  16.7705968  64.9709031  26.5161707  17.2217111  64.3012730
  26.1703379  16.6922131  65.5182038  26.6968813  16.8257103  64.9532255
  32.4628786  26.1411197  57.8298317  32.3780081  26.9972164  57.9747886
  32.9513169  25.8655522  58.4980476  32.5217683  26.2268519  57.9500399
  34.0534785  12.7591491  63.2158642  33.7388226  13.4494969  63.6479064
  33.5361727  12.7036273  62.5144143  33.9299255  12.8526379  63.1755591
  33.3947219  22.7595992  59.3296052  32.8658690  22.9755625  59.9893359
  33.9172239  23.4532130  59.2497022  33.3935672  22.8939129  59.4151652
  38.8495272  28.3342296  64.7029097  38.0192975  28.5452940  64.8662513
  38.8004524  27.5079351  64.4271380  38.7202007  28.2431902  64.6866462
  25.2846827  26.6559208  58.1303520  24.7004042  27.1609240  58.5369384
  24.8816922  26.4301595  57.3900112  25.1386130  26.6967457  58.0808546
  20.8390855  32.3713970  64.9327192  20.3558433  33.0964459  64.9086776
  21.6514173  32.6690100  65.0437350  20.8881603  32.5216323  64.9454471
  26.9105009  31.1646150  67.5377006  26.3931951  30.8053565  66.9338314
  27.6079400  30.6408325  67.5483073  26.9370590  31.0343838  67.4507265
  30.5668601  31.6140964  73.4993179  30.6551947  31.4267105  74.3471390
  30.9958314  30.9678394  73.0998026  30.6430704  31.4903972  73.5664931
  28.1339061  30.8972124  72.4810842  27.5709896  30.4844734  73.0050503
  28.8960084  30.8225030  72.9003985  28.1633510  30.8249525  72.6203842
  29.7424041  22.9024861  56.6072441  29.9820045  23.1102844  55.7947784
  30.0639882  22.0982369  56.7161386  29.8261199  22.8138962  56.5032994
  25.0514331  14.8318256  60.4531979  25.8060299  15.1996573  60.2149029
  24.8741866  15.2057811  61.2211159  25.1368810  14.9416444  60.5316867
  23.6935052  32.8870145  65.0847472  24.3955632  32.3722135  65.1420228
  23.6132536  33.2144297  65.8894347  23.7858813  32.8584372  65.2120264
  38.3449230  20.9812697  68.4979518  37.5077651  21.0514884  68.7327113
  38.3137461  20.9837192  67.6253821  38.2167512  20.9922924  68.4039066
  23.4071396  17.2388575  57.1510092  23.2246969  17.4560456  56.3251085
  24.2697009  17.3527588  57.2068706  23.5075985  17.2878473  57.0364579
  23.0185828  29.0776497  64.5933080  23.8574727  29.3099430  64.6406841
  23.0497597  28.2080809  64.5240115  23.1467545  28.9833444  64.5897725
  23.6438531  29.4977373  68.8946385  24.1836756  29.3548504  69.5649758
  22.9608477  29.8974123  69.2630412  23.6230685  29.5357044  69.0480807
  29.0871115  14.2414986  60.1859116  29.8157276  14.0630941  59.7397272
  29.1766008  15.0833066  60.3966294  29.2077777  14.3398864  60.1512633
  33.0679416  25.1768373  64.0891410  33.8236931  25.6099888  64.1280318
  33.1741740  24.5273143  64.6626046  33.1949586  25.1445857  64.1789435
  36.1059587  29.0041651  64.8393813  35.6694819  29.0078393  65.5952784
  35.7722502  29.6847150  64.4073390  35.9922207  29.1054106  64.8874645
  30.6788660  31.0449983  76.1636963  31.4629077  31.1580831  76.5292705
  30.4785255  30.2191120  76.3595649  30.7654686  30.9396703  76.2471349
  19.0475676  25.7177663  69.0480807  18.7814091  24.9016780  69.2071797
  19.0614240  25.7630819  68.1776322  19.0100398  25.6034568  68.9434289
  36.0257070  16.0455478  67.0823241  36.6682978  16.1153583  67.6685156
  36.2780091  15.3784701  66.5802783  36.1579202  15.9581827  67.0950520
  22.9533423  20.5162748  55.6632565  22.2391600  20.2300927  56.0754997
  23.4377392  20.8559374  56.3038952  22.9192786  20.5244398  55.8188200
  30.8359054  32.9560085  69.8103419  30.0374300  32.7159585  70.0677287
  31.2845065  33.0074478  70.5570466  30.7833665  32.9282477  69.9588343
  39.2403933  25.7222570  63.7313450  39.9020367  25.1613239  63.6309358
  38.5995345  25.2274601  64.0566141  39.2432801  25.5658979  63.7645790
  30.1280741  29.0192702  56.0394373  30.5431889  28.6877726  55.3478869
  29.2972670  28.7861604  55.9114510  30.0668750  28.9363958  55.9185221
  19.4569090  26.5036443  66.3292551  19.2744663  26.4783329  65.4764843
  20.1918759  26.9735381  66.3681460  19.5383153  26.5697805  66.2090470
  35.5268764  26.7387953  63.4725439  35.7624353  26.8833152  62.6452289
  35.6758327  27.5030361  63.8656952  35.5834567  26.8727007  63.4089043
  37.3559221  25.5789619  61.3095043  37.6867438  26.1117259  60.7035137
  37.9292309  25.6328507  61.9656993  37.4892900  25.6659188  61.3172824
  32.5691110  23.4254521  61.9918623  32.6637964  24.1643816  62.4458248
  31.9449953  22.9971997  62.4253187  32.4900140  23.4715842  62.1226770
  30.8243584  26.6040734  72.6408904  31.3982445  25.9667978  72.7957467
  30.7458387  26.6044817  71.7718561  30.8976818  26.5105845  72.5355314
  19.4240000  23.3829944  66.4791618  20.0013503  23.2466394  67.1183863
  18.7254062  22.9265728  66.7337202  19.4061021  23.2952210  66.6113907
  32.8214131  25.2703261  55.2255575  32.7394294  25.3405448  56.0910562
  33.4593851  25.8333005  55.0339315  32.9033968  25.3642232  55.3245524
  26.1807302  25.0363999  64.6930101  25.9226546  24.2035734  64.6661400
  26.2355785  25.2621612  63.8522601  26.1507080  24.9461770  64.5650238
  31.2608352  17.1392450  64.7934194  30.5564679  16.6501635  64.9518113
  31.3093327  17.1514924  63.9222638  31.1638404  17.0682098  64.6873533
  25.1542014  22.5901762  65.1794996  24.5791606  22.7493930  65.8158957
  24.7777691  21.9537171  64.7163446  25.0144827  22.5199575  65.2049554
  28.8215303  21.0625111  70.0387374  28.4329736  20.6379329  69.3839565
  28.1570001  21.3107261  70.5464401  28.6662231  21.0363832  70.0175242
  38.4638572  20.8200116  62.8135204  38.2075137  20.0080057  62.6233087
  39.3067886  20.8277683  62.5865391  38.5504597  20.7012113  62.7520021
  14.8998833  22.2341836  63.1939436  14.9859085  21.8573705  63.9752966
  15.5274631  21.8602282  62.7159395  15.0055384  22.1227319  63.2384914
  32.6441664  14.7599740  67.5511358  33.0252176  14.0777911  67.9379233
  31.8404949  14.4709342  67.3687023  32.5818126  14.6166788  67.5815414
  29.9254241  25.2923716  58.2364181  30.7394880  25.5838608  58.1246952
  29.8613382  24.6383578  57.6622474  30.0356980  25.2388910  58.1353018
  36.1463731  27.9749712  72.6493757  35.9102369  27.1437776  72.5305817
  36.7906960  27.9235319  73.2348601  36.2058402  27.8447400  72.7179650
  25.7962149  28.7645233  63.3636493  26.4336096  28.5256981  63.9088287
  26.2217221  28.9682392  62.6289654  25.9538316  28.7596243  63.3353650
  20.4874792  31.0033570  67.2470797  20.5278937  31.2748421  66.4190577
  21.0469316  31.5275478  67.6628585  20.5758138  31.1209325  67.1862685
  26.4364964  23.9847523  57.7011383  26.8210117  23.7655229  58.4527928
  26.1876585  24.8110468  57.8312459  26.4567037  24.0745669  57.8312459
  37.1700152  27.7594160  68.7122051  36.8645969  28.4922217  69.0735367
  36.4506368  27.3532090  68.4314837  37.0187494  27.8075893  68.7235188
  28.1783621  29.2417656  65.0430279  28.2522630  29.0792827  65.8972129
  28.9953128  29.4307845  64.7990761  28.3099980  29.2454398  65.1328305
  42.8701944  24.3987161  68.0390395  42.8026444  24.4183120  67.1692982
  42.8557607  25.2417488  68.2646066  42.8580701  24.5260896  67.9442872
  21.9389378  29.5875518  62.0724723  21.1127496  29.8337256  61.9459002
  22.0001369  29.5087599  62.9386781  21.8263545  29.6120467  62.1813667
  24.1565402  15.6544459  63.0320163  23.2887827  15.7267059  63.0977772
  24.4440606  16.4566538  63.2208138  24.0705150  15.7838607  63.0694930
  26.7188207  32.2052399  59.7743753  27.0086506  31.8141380  59.0502979
  27.4491688  32.3869104  60.2149028  26.8695091  32.1746212  59.7326560
  40.6560561  23.1731547  66.3136990  41.2068483  22.5399616  66.5534082
  40.6404677  23.7046940  67.0052494  40.7345758  23.1580495  66.4515848
  27.3082952  27.0070145  70.8596883  26.8094646  27.7185912  70.9381772
  28.1183177  27.3270811  70.8215046  27.3539059  27.1596993  70.8653452
  24.6594123  34.1819781  62.8403903  24.4394418  33.8917136  63.6330570
  24.4388645  33.5234736  62.3121815  24.5941717  34.0419489  62.8792811
  23.5711070  26.2693098  65.1059604  23.2824319  25.6430569  65.6405332
  24.4394418  26.2113385  65.1724285  23.6571322  26.1680642  65.1950559
  34.3588968  21.4127881  65.4241586  34.0153734  20.6918216  65.7748836
  34.4582010  21.2041732  64.5819944  34.3231011  21.2752084  65.3513266
  26.8262078  35.5549171  61.6234595  27.4786136  35.0225613  61.8525621
  26.1287687  35.2017823  62.0102469  26.8192796  35.4238694  61.7146763
  23.7743343  27.9088349  61.0301969  24.5289311  28.2901388  61.2437432
  23.1813956  28.3599492  61.4848666  23.7980057  28.0317176  61.1284848
  34.8201997  27.8753585  60.9665574  35.3860029  28.5346795  60.8824117
  34.1729900  28.2203283  61.4381976  34.8080753  28.0235526  61.0238331
  25.0941570  29.0796910  66.4042085  24.5722323  29.2197202  67.0893949
  25.4815590  28.3207574  66.5944202  25.0745271  28.9882434  66.5343161
  22.0832754  19.1302719  60.4737039  21.7957550  18.7603989  59.7368987
  22.7703222  19.5997574  60.2120744  22.1421651  19.1449688  60.3252115
  31.2908575  30.8192369  60.3902653  31.0495251  30.0860230  59.9829718
  31.4709908  31.3679226  59.7368987  31.2816199  30.7914760  60.2332876
  26.5207895  26.1100929  61.8023576  26.3250678  26.7175664  61.2083879
  26.7442241  25.4168873  61.3215250  26.5242536  26.0978455  61.6439657
  24.9186425  22.9955667  61.9204444  25.6409077  23.1596825  61.4608250
  24.4394418  23.7165332  61.8143784  24.9550156  23.1253897  61.8370058
  32.8779933  19.3319466  67.3001129  32.0391034  19.3580745  67.0639392
  32.9484300  19.9790201  67.8806476  32.7648327  19.4315592  67.3510246
  22.5694042  25.4013739  71.0258584  23.0815139  25.6797993  70.3767344
  22.2830385  26.1403033  71.3921397  22.6028905  25.5516093  70.9848462
  31.3249211  16.2304843  62.0328745  32.0275564  16.0312591  61.5548703
  31.0593400  15.4580785  62.3397588  31.3895844  16.0867809  62.0074187
  36.7537457  24.5387453  64.5862371  36.6671431  24.6942879  65.4397150
  36.2987937  25.1825528  64.2121776  36.6740714  24.6563208  64.6569478
  19.6560949  19.9083931  61.3222320  19.7577085  20.7110093  61.6503296
  20.4516835  19.7071267  61.0245401  19.7888854  19.9969830  61.3257676
  30.6263273  21.8598200  63.2087930  30.3797987  21.7793951  64.0424719
  30.9548396  21.0751667  63.0150458  30.6384517  21.7324465  63.3035453
  34.5211322  28.5681559  66.9974712  34.3825681  29.2662605  67.5023454
  33.7411320  28.4130215  66.6410893  34.3854549  28.6481726  67.0200986
  32.8589407  24.8677934  73.2497093  32.8537445  23.9957751  73.2539520
  33.5650401  25.0666103  72.7766549  32.9634411  24.7681808  73.1804129
  26.5860300  24.5954918  72.6210913  26.7303676  25.1756126  71.9854023
  26.9335949  24.9731215  73.3260768  26.6587762  24.7375622  72.6309908
  28.7580218  23.7945087  70.4036045  28.0103532  23.9876101  69.9984323
  28.9121743  22.9690306  70.1660166  28.6702645  23.7010198  70.3081451
  25.6588055  32.7857690  69.4871940  25.8077619  32.2260606  68.8345345
  26.4388057  32.8649692  69.8704459  25.7962149  32.7143256  69.4468889
  36.0164695  27.9259813  57.7591211  35.6371503  27.1396951  57.7520500
  35.3530940  28.4746670  57.6162855  35.8623169  27.8904637  57.7372008
  28.1841356  32.9572333  70.7656431  28.1085027  32.2881143  71.3207219
  28.1131215  33.6590121  71.2797097  28.1621963  32.9617240  70.9233279
  33.4709321  10.8685513  65.1625292  33.5892889  11.3261976  64.4292594
  33.2971496  10.0630774  64.8761509  33.4628492  10.8179285  65.0126225
  28.8411603  31.4773332  61.5980037  29.6061494  31.2082976  61.2762701
  28.7389693  30.9923342  62.3150100  28.9393098  31.3662896  61.6559865
  26.8764373  19.6797741  68.1373273  26.0860447  19.4989201  68.4590608
  27.2724995  18.9024694  68.1203567  26.8181249  19.5385202  68.1825821
  31.3630263  28.5085516  53.5779986  32.1303248  28.5685641  53.1685838
  30.9161572  27.9365957  53.0936305  31.4103691  28.4322091  53.4457697
  32.2608059  27.3140171  65.8632719  31.5853061  27.0825404  66.3646106
  32.2700435  26.7061354  65.2374824  32.1626563  27.1899097  65.8448871
  29.3902203  22.1558000  72.6196772  29.3261344  23.0167957  72.4916908
  29.5299391  21.8389994  71.8192323  29.4017673  22.2358167  72.4824984
  34.2624793  30.1705304  58.0942897  34.3444631  30.9772290  57.7704347
  34.7474536  30.1901263  58.8183670  34.3461951  30.2925966  58.1529795
  28.0721297  24.8490140  66.7612975  27.6483546  25.0494639  66.0251993
  27.8966152  24.0018988  66.8737274  27.9832177  24.7538921  66.6686665
  27.5732990  36.3640653  69.2234432  28.0628920  35.6651442  69.0410096
  27.0017222  36.0664523  69.8110489  27.5617520  36.2166876  69.2835473
  23.3603742  25.3442191  62.1940947  23.5168361  25.2788994  63.0496939
  23.7004335  26.1190744  61.9819627  23.4336977  25.4491389  62.2895541
  29.8982886  24.7200075  61.0634310  30.4398432  24.2170456  61.5272931
  30.2129445  24.6665269  60.2523796  30.0247283  24.6379496  61.0118122
  33.7699994  28.9302722  78.1761222  34.5834859  28.6587871  78.3366355
  33.6094960  28.6310262  77.3721418  33.8669942  28.8457648  78.0806628
  28.0669336  30.1117426  58.3474338  28.1362156  29.2531965  58.4867339
  28.8457791  30.3289307  58.0193363  28.1922186  30.0170290  58.3191496
  31.0472156  19.6136379  71.1156611  31.2614125  18.9747293  70.5619965
  30.4306055  20.0582203  70.6864472  30.9877485  19.5846523  70.9707042
  32.4576824  32.5355128  62.5610832  32.0656615  32.2321843  61.8433698
  32.6129896  33.3724217  62.3715785  32.4230413  32.6138964  62.4267329
  19.9338003  22.5277142  62.5101714  20.3136968  22.9461687  61.8461982
  19.3593368  23.1090597  62.8170558  19.9049328  22.6755000  62.4578455
  33.2111244  21.2225444  72.0539918  32.3987925  20.9151335  72.1353091
  33.6701178  20.7424445  72.6182630  33.1591628  21.1061937  72.1494512
  32.6216498  29.1005116  62.5016862  32.2631153  29.2719759  63.2780895
  32.1355209  29.5618322  61.9444861  32.4975195  29.1944087  62.5342131
  30.4386884  12.7236315  66.1043954  29.5680442  12.6975036  66.0577263
  30.6927226  12.5513507  65.2869799  30.3480444  12.6946459  65.9764090
  27.4104864  24.7804282  55.0417097  27.6997389  25.5569164  55.3160671
  27.4976663  24.2693013  55.7431596  27.4659120  24.8196200  55.1859594
  27.4636025  14.7342543  67.5617424  26.9474513  14.0422735  67.6869003
  26.9029954  15.4013320  67.5080023  27.3042538  14.7305801  67.5723490
  33.7821238  29.9909012  73.4484063  34.4200958  29.4969208  73.1146519
  33.1395329  29.9186413  72.8636290  33.7815464  29.9068021  73.3126418
  35.5078238  21.8398158  68.0149979  35.0805846  21.7524507  67.2598078
  34.8704291  21.9475934  68.6004823  35.3507845  21.8430818  67.9895420
  33.8375494  30.6828821  70.0889420  34.6267872  30.3317885  70.2091501
  34.0119092  31.4965209  69.8266054  33.9795776  30.7514678  70.0677288
  23.5768805  24.0937546  67.1417209  22.7356811  23.9941421  67.3496102
  23.7858813  24.8633027  67.4931529  23.4833497  24.1929590  67.2244524
  21.0544372  21.7157083  64.9701959  20.6601069  21.7900095  64.1952069
  20.4984489  22.1015030  65.5210321  20.9147184  21.7838858  64.9369619
  32.6909318  14.6938377  64.6505838  32.8958912  14.6260685  65.4962835
  32.3635742  15.4997199  64.5827016  32.6724566  14.8024318  64.7665493
  27.3885470  22.0218946  66.3914806  27.0848607  21.4674934  66.9925214
  26.6864890  22.2011156  65.9042840  27.2401679  21.9663728  66.4084512
  26.4451567  19.3319465  60.9559508  26.7211301  18.6138378  60.5437076
  27.0450236  19.9304385  60.7480614  26.5744831  19.3139836  60.8640269
  25.4503821  29.2368666  71.0986904  25.3424176  29.2470728  71.9648962
  25.6599602  30.0623447  70.9091858  25.4653932  29.3609741  71.1990996
  35.9443006  15.2470142  64.1308604  35.3317320  15.7340544  64.5162336
  36.0407181  14.5713632  64.6746255  35.8680904  15.2188450  64.2687462
  29.9462087  17.0032983  59.2306103  30.4005834  17.1743543  59.9553948
  30.4202133  16.3901093  58.8303879  30.0830407  16.9383868  59.2779865
  23.4677613  26.4881309  68.5608842  22.8765546  27.1290807  68.5311857
  24.2298636  26.9118926  68.5340141  23.4925873  26.6457147  68.5523989
  39.5868034  26.3187078  69.5586120  39.6451158  26.7673727  70.3046096
  38.9534502  26.7285891  69.1216200  39.5019329  26.4460813  69.6038668
  33.2267129  31.9390620  65.9940866  33.0286817  32.4281435  65.2997077
  32.6054840  32.1431862  66.5724999  33.1054693  32.0407158  65.9764089
  27.2875107  23.7075517  60.3351110  28.0317152  24.0949793  60.5734060
  27.4335803  22.8632942  60.4991598  27.4185692  23.6405990  60.3945080
  29.2054683  15.5025776  65.3682972  28.3590728  15.6748584  65.2424321
  29.2025815  14.6975120  65.7048800  29.0801833  15.4086805  65.3994099
  30.2752983  19.2800990  66.2345030  29.8012937  18.7542752  66.7450341
  30.6471119  18.7330463  65.6659891  30.2602872  19.1216987  66.2260177
  36.5389714  24.3403366  67.6451810  36.2987937  23.5009781  67.6494237
  37.0181721  24.4203533  68.3692584  36.5741897  24.2284766  67.7526612
  32.2036483  20.1737545  59.2970783  31.6759501  20.2566289  58.6076492
  32.6632191  20.9155416  59.2935428  32.1938333  20.2958207  59.1945479
  38.5394901  21.1204823  65.5981069  38.3004671  21.0800657  64.7601854
  38.7028802  21.9675975  65.7246790  38.5285204  21.2396908  65.4934551
  35.1440931  25.5054773  71.5286114  35.8675130  25.0527299  71.3497134
  34.8790893  25.7859438  70.7458442  35.2122204  25.4805741  71.3864830
  24.0127799  20.1014946  68.2638994  23.3880869  20.1133338  67.6564946
  23.6773394  20.5775121  68.9130234  23.8713291  20.1733463  68.2695562
  24.1969548  18.4440065  54.3211679  23.8482352  19.0959790  54.7843228
  23.7165994  18.4297178  53.5935550  24.0739792  18.5383118  54.2822770
  20.7253475  28.1615406  69.7042758  20.1953399  27.4707845  69.7537733
  20.9978568  28.1525591  68.8755466  20.6878197  28.0582538  69.5890174
  31.7573565  28.7441109  58.4280440  32.4807764  29.2099222  58.2845014
  31.3174156  28.8114718  57.6778037  31.7989257  28.8224945  58.2965222
  30.9259720  25.6038651  69.6781129  30.3116713  25.0596701  69.9729765
  31.4427005  25.0902887  69.1986946  30.9115383  25.4475060  69.6505358
  30.1656017  26.6742921  67.4125428  29.7383625  26.0492639  66.9790863
  30.1580962  26.3917843  68.2384435  30.1015159  26.5395701  67.4705256
  28.4941727  17.5511675  67.6267962  28.5184214  17.0171788  66.9380742
  28.7453201  17.0428984  68.2893553  28.5351646  17.3972579  67.6232607
  16.0049317  24.8343170  67.0611106  15.8992766  24.7890015  66.1963190
  15.2549537  25.1796951  67.3425391  15.8784920  24.8784078  66.9748436
  24.7743049  16.2782494  67.0073706  24.8141421  16.7791700  67.7208414
  23.9492714  16.3692887  66.7379629  24.6582575  16.3664310  67.0724245
  26.1957413  22.7943003  69.3047605  25.3649342  22.9616821  69.0982853
  26.1408930  22.4178954  70.0896491  26.0646828  22.7632735  69.3896134
  24.5693457  21.0698595  59.8337723  24.7096418  21.5671059  60.5366364
  25.0675989  20.3684889  59.9751937  24.6634537  21.0400574  59.9589302
  24.5993679  21.9365706  57.1630300  25.2338758  22.5326131  57.0979762
  24.6819290  21.6369164  57.9776170  24.7050230  21.9806614  57.2733386
  37.5776245  24.4681183  70.0316664  38.1694085  25.1078434  70.0634862
  38.0135239  23.7704220  70.3208731  37.7294676  24.4599534  70.0797497
  26.1772662  17.8679681  57.1375742  26.4988503  17.3882764  56.4835004
  26.4399606  18.6779327  56.9466554  26.2638687  17.9169579  57.0131234
  29.4069635  28.8898556  70.6574558  28.8994726  29.4434403  71.1015189
  29.1096281  28.9506846  69.8393333  29.2874520  28.9804867  70.6023015
  31.5731817  17.2551875  69.4999221  31.9986888  16.8024402  68.8882747
  30.9588810  16.7011946  69.7764008  31.5460462  17.1065852  69.4504246
  21.1046667  24.1333547  60.4319846  21.6138896  24.7298054  60.8131151
  21.5780939  23.8659520  59.7496266  21.2490043  24.1819362  60.3874369
  32.0177415  32.8061813  58.5878502  31.3006725  32.6322676  58.1225739
  32.6684152  32.5714386  58.0553988  32.0079265  32.7457606  58.4407719
  30.0126040  13.7266975  62.9089798  29.3694358  13.5764621  63.4774936
  29.6725447  13.4809320  62.1438903  29.8671117  13.6679098  62.8792813
  34.6025386  21.6826402  62.3319807  33.9316576  22.2256104  62.2032872
  35.2965136  22.1521257  62.0901501  34.6054254  21.8324673  62.2775334
  28.6512120  33.8223114  67.5631565  28.4277774  33.0641943  67.9315591
  28.1621963  33.8521135  66.8412005  28.5455569  33.7145338  67.5108306
  34.7653514  18.1382286  65.2410180  35.1181124  17.7112009  65.9155979
  33.9068315  18.0533129  65.3711256  34.6902958  18.0627026  65.3605190
  23.4637199  20.7689805  63.2993026  22.7449188  21.1853938  63.5665890
  23.8349561  21.3344044  62.7484665  23.4129130  20.9139087  63.2575833
  32.7636779  21.4017654  69.1895022  32.7434707  21.2200949  70.0429801
  32.8115980  22.2729673  69.1654606  32.7671420  21.5034192  69.3118317
  30.7083109  27.9904846  75.1143499  30.6678964  27.3454523  74.5288654
  31.5206427  27.9341464  75.4268911  30.8226263  27.8863813  75.0740448
  27.2990577  34.0423572  65.0168650  26.8850975  33.3797702  64.6272491
  27.9837951  34.1901431  64.4964344  27.3388948  33.9664230  64.8825147
  30.6655871  33.2013657  65.7692266  30.2672154  33.3115928  65.0013086
  30.0507090  33.4095724  66.3518826  30.5154760  33.2487225  65.7423565
  29.2383773  19.8087805  58.6366406  28.6448612  20.1304802  58.0850973
  29.2759051  18.9628901  58.4287512  29.1558162  19.7312133  58.5249177
  36.1977574  13.2600697  66.1694492  35.6908438  12.5529837  66.1015670
  36.9945007  12.9293886  66.2995569  36.2404813  13.1073849  66.1793487
  32.1141590  19.7667310  62.0668156  31.8855283  19.7900011  61.2246514
  32.3739666  18.9424777  62.1863167  32.1187778  19.6483390  61.9593354
  25.1686352  18.3043856  63.3622352  25.6443718  18.6660936  62.7272533
  24.6674952  18.9600324  63.6422494  25.1651711  18.4538045  63.3099093
  38.3997714  27.7765624  59.1535357  38.7831319  28.5256980  59.3833454
  37.6041827  28.0231444  58.8947346  38.3391496  27.9235318  59.1492930
  27.2113005  20.4485056  56.7295736  27.5911970  20.4664685  55.9446850
  26.4705601  20.8939045  56.6086583  27.1581843  20.5166830  56.5959304
  34.8398296  18.7567247  62.3171314  34.8392522  18.6015904  63.1755591
  34.6354476  19.6030234  62.2612700  34.8098074  18.8587868  62.4359254
  16.9015567  22.1807031  66.7330131  16.7237328  21.7283640  67.4585047
  16.6134589  22.9833193  66.9168608  16.8328520  22.2329589  66.8673634
  32.5639148  23.4364749  65.9707521  33.0592813  22.7187744  65.9311542
  31.7538923  23.1335546  65.8562008  32.5183041  23.2862395  65.9481247
  28.0097759  27.2862562  58.1204526  27.2009082  26.9629236  58.0737835
  28.5172668  26.5795784  58.0532774  27.9647426  27.1343878  58.1034820
  18.6388037  24.7134755  63.8451890  17.7733556  24.7020446  63.7334661
  18.7386852  24.5264978  64.6923029  18.5262203  24.6840816  63.9540834
  34.6290967  26.1868436  68.6584650  35.0546038  25.6642858  68.1055075
  34.2647886  26.7849274  68.1373273  34.6377569  26.1978663  68.4993660
  24.2645046  34.4832654  67.4181995  24.5791605  35.2969042  67.4259777
  24.6738460  34.0982872  68.0864155  24.3713144  34.5461356  67.5186087
  31.2169566  29.9002701  64.9885807  31.6880744  30.6142963  65.1575793
  31.5529745  29.3001451  65.5245677  31.3364681  29.9174165  65.0918183
  33.3046551  31.5104014  77.1677880  33.4143516  30.7212575  77.5234627
  33.6337447  31.4209950  76.3652218  33.3698956  31.3809867  77.1020270
  31.8543512  29.6920635  71.7513500  31.3064458  29.0678518  71.4833565
  32.3156541  29.8814907  71.0357579  31.8410722  29.6279685  71.6063931
  34.6637377  17.7605989  69.1364692  34.0800366  18.2615196  68.7242260
  34.9841671  17.2535545  68.5029016  34.6250552  17.7597824  68.9823200
  27.2032176  16.6746584  59.4123367  28.0247870  16.8444897  59.1705062
  26.7401827  16.8293845  58.6889665  27.2563338  16.7228317  59.2695012
  21.6058067  28.4305762  67.0660604  22.2102924  28.3901596  66.4374425
  21.3985379  29.2776914  67.0964660  21.6646964  28.5493765  66.9776720
  31.4201839  30.6971707  68.2822841  32.2400212  30.5534673  68.5439136
  31.1395916  31.3217906  68.8239279  31.4998582  30.7682059  68.4010781
  16.8409349  27.4140380  66.9359527  16.7433627  26.6036651  67.2449584
  17.6238219  27.3932173  66.5505795  16.9425485  27.2907470  66.9246390
  41.0915174  37.4412210  66.0018648  40.2353069  37.6020708  66.0527765
  41.1382828  36.5704274  66.0223709  40.9714285  37.3363012  66.0124714
  44.4008890  43.7098736  75.6079104  45.1075658  43.2150766  75.7366039
  44.5896826  44.1507817  74.8781762  44.5336796  43.7017086  75.5188150
  43.9366995  39.5004254  68.6450300  44.4822955  40.1789341  68.7044269
  43.8783871  39.3591715  67.7851881  44.0082909  39.5796256  68.5262360
  37.0541070  46.9893320  64.0318652  37.1551433  46.1793674  64.3415780
  36.4582815  46.8950267  63.4018331  36.9813608  46.8558348  63.9844891
  36.8941809  51.9070909  65.4333508  37.5379265  52.3484073  65.8229667
  37.2198065  51.1024335  65.3463767  37.0373638  51.8536104  65.4778985
  30.2506114  43.0113607  63.6570986  30.0156299  42.1781259  63.5503255
  30.3891755  43.2918272  62.8432187  30.2361777  42.9297110  63.5213341
  32.5496202  35.1799337  66.5555294  31.9301233  34.5891985  66.3865308
  32.4480065  35.7710773  65.9219617  32.4433877  35.1803420  66.4360283
  39.6464097  36.9198879  60.8887757  40.3444262  37.0987007  61.3809220
  39.9616430  36.3969218  60.2658146  39.7959434  36.8692651  60.8689767
  32.2765335  38.7251619  68.7998862  32.1524031  39.3114065  69.4348681
  32.9283619  38.2311815  69.1011137  32.3538984  38.7390423  68.9384792
  37.3023676  41.9013336  68.0786374  37.9472678  41.4085779  67.7597322
  37.5425453  42.0438123  68.9052452  37.4334261  41.8490778  68.1535907
  39.8409767  44.7468242  67.7293266  40.1233010  43.9519648  67.5080022
  40.5695927  45.2248829  67.7498327  39.9899331  44.7002839  67.6996281
  37.8190961  32.2891276  64.9709031  37.4894291  32.7402419  64.3012730
  37.1435963  32.2107439  65.5182038  37.6701397  32.3442411  64.9532255
  45.0267369  28.2776799  63.2158642  44.7120810  28.9680277  63.6479064
  44.5094310  28.2221581  62.5144143  44.9031839  28.3711687  63.1755591
  36.2579410  42.1744516  58.1303520  35.6736625  42.6794548  58.5369384
  35.8549505  41.9486903  57.3900112  36.1118714  42.2152765  58.0808546
  31.8123439  47.8899277  64.9327192  31.3291017  48.6149767  64.9086776
  32.6246757  48.1875408  65.0437350  31.8614186  48.0401631  64.9454471
  37.8837593  46.6831458  67.5377006  37.3664534  46.3238873  66.9338314
  38.5811984  46.1593633  67.5483073  37.9103174  46.5529146  67.4507265
  41.5401185  47.1326272  73.4993179  41.6284531  46.9452413  74.3471390
  41.9690897  46.4863702  73.0998026  41.6163287  47.0089280  73.5664931
  39.1071645  46.4157432  72.4810842  38.5442479  46.0030042  73.0050503
  39.8692668  46.3410338  72.9003985  39.1366093  46.3434833  72.6203842
  36.0246915  30.3503564  60.4531979  36.7792883  30.7181881  60.2149029
  35.8474449  30.7243119  61.2211159  36.1101393  30.4601752  60.5316867
  34.6667636  48.4055453  65.0847472  35.3688215  47.8907442  65.1420228
  34.5865119  48.7329605  65.8894347  34.7591396  48.3769680  65.2120264
  49.3181814  36.4998005  68.4979518  48.4810235  36.5700192  68.7327113
  49.2870044  36.5022500  67.6253821  49.1900096  36.5108232  68.4039066
  35.7146543  38.6431040  74.2127887  35.8867046  38.5336935  75.0613168
  36.2515900  39.2885446  73.9759079  35.8191547  38.7223042  74.3032984
  34.3803979  32.7573883  57.1510092  34.1979553  32.9745764  56.3251085
  35.2429592  32.8712896  57.2068706  34.4808569  32.8063781  57.0364579
  33.9918411  44.5961805  64.5933080  34.8307311  44.8284738  64.6406841
  34.0230181  43.7266117  64.5240115  34.1200129  44.5018752  64.5897725
  34.6171114  45.0162681  68.8946385  35.1569339  44.8733812  69.5649758
  33.9341061  45.4159431  69.2630412  34.5963268  45.0542352  69.0480807
  40.0603699  29.7600294  60.1859116  40.7889859  29.5816249  59.7397272
  40.1498592  30.6018374  60.3966294  40.1810361  29.8584172  60.1512633
  44.0411999  40.6953681  64.0891410  44.7969514  41.1285196  64.1280318
  44.1474324  40.0458451  64.6626046  44.1682170  40.6631165  64.1789435
  47.0792170  44.5226958  64.8393813  46.6427402  44.5263701  65.5952784
  46.7455086  45.2032457  64.4073390  46.9654790  44.6239414  64.8874645
  41.6521244  46.5635291  76.1636963  42.4361661  46.6766139  76.5292705
  41.4517839  45.7376428  76.3595649  41.7387269  46.4582011  76.2471349
  30.0208260  41.2362971  69.0480807  29.7546675  40.4202088  69.2071797
  30.0346824  41.2816127  68.1776322  29.9832982  41.1219876  68.9434289
  46.9989653  31.5640786  67.0823241  47.6415562  31.6338891  67.6685156
  47.2512674  30.8970009  66.5802783  47.1311785  31.4767135  67.0950520
  34.7706866  34.7741350  71.6947815  34.0778663  34.3038329  71.9408546
  35.3867193  34.5479654  72.2689522  34.7591396  34.6708481  71.8156967
  41.8091637  48.4745393  69.8103419  41.0106883  48.2344893  70.0677287
  42.2577649  48.5259786  70.5570466  41.7566249  48.4467785  69.9588343
  30.4301673  42.0221751  66.3292551  30.2477246  41.9968637  65.4764843
  31.1651342  42.4920689  66.3681460  30.5115737  42.0883113  66.2090470
  46.5001347  42.2573261  63.4725439  46.7356937  42.4018460  62.6452289
  46.6490911  43.0215669  63.8656952  46.5567151  42.3912315  63.4089043
  33.4947425  38.7406754  72.8374660  34.2187397  38.7259784  73.3239555
  33.5963561  39.4502109  72.3396628  33.6165634  38.8431457  72.8353447
  40.8692374  42.2205838  77.7023607  40.0765355  42.5349350  77.8876226
  40.9841301  42.4357307  76.8644391  40.7687785  42.2989675  77.6061942
  41.7976167  42.1226042  72.6408904  42.3715029  41.4853286  72.7957467
  41.7190971  42.1230124  71.7718561  41.8709402  42.0291153  72.5355314
  30.3972584  38.9015251  66.4791618  30.9746086  38.7651702  67.1183863
  29.6986645  38.4451036  66.7337202  30.3793605  38.8137518  66.6113907
  37.1539886  40.5549307  64.6930101  36.8959130  39.7221042  64.6661400
  37.2088369  40.7806920  63.8522601  37.1239664  40.4647078  64.5650238
  42.2340936  32.6577758  64.7934194  41.5297263  32.1686943  64.9518113
  42.2825910  32.6700232  63.9222638  42.1370987  32.5867406  64.6873533
  36.1274598  38.1087070  65.1794996  35.5524189  38.2679238  65.8158957
  35.7510274  37.4722479  64.7163446  35.9877410  38.0384883  65.2049554
  39.7947886  36.5810419  70.0387374  39.4062319  36.1564637  69.3839565
  39.1302585  36.8292569  70.5464401  39.6394814  36.5549140  70.0175242
  49.4371156  36.3385424  62.8135204  49.1807720  35.5265365  62.6233087
  50.2800470  36.3462991  62.5865391  49.5237181  36.2197421  62.7520021
  25.8731417  37.7527144  63.1939436  25.9591669  37.3759013  63.9752966
  26.5007214  37.3787590  62.7159395  25.9787968  37.6412627  63.2384914
  43.6174248  30.2785048  67.5511358  43.9984760  29.5963219  67.9379233
  42.8137532  29.9894650  67.3687023  43.5550710  30.1352096  67.5815414
  47.1196315  43.4935020  72.6493757  46.8834952  42.6623084  72.5305817
  47.7639544  43.4420627  73.2348601  47.1790986  43.3632708  72.7179650
  36.7694733  44.2830541  63.3636493  37.4068680  44.0442288  63.9088287
  37.1949805  44.4867700  62.6289654  36.9270899  44.2781551  63.3353650
  31.4607375  46.5218877  67.2470797  31.5011521  46.7933729  66.4190577
  32.0201899  47.0460786  67.6628585  31.5490721  46.6394633  67.1862685
  37.4097548  39.5032831  57.7011383  37.7942701  39.2840537  58.4527928
  37.1609168  40.3295776  57.8312459  37.4299621  39.5930977  57.8312459
  37.5766088  32.7839246  77.4173967  37.2619530  33.5538809  77.1543529
  37.2556021  32.2209502  76.8326194  37.4825008  32.8149515  77.2915317
  48.1432736  43.2779468  68.7122051  47.8378553  44.0107525  69.0735367
  47.4238951  42.8717398  68.4314837  47.9920078  43.3261201  68.7235188
  39.1516205  44.7602964  65.0430279  39.2255213  44.5978135  65.8972129
  39.9685711  44.9493153  64.7990761  39.2832564  44.7639706  65.1328305
  53.8434528  39.9172469  68.0390395  53.7759028  39.9368428  67.1692982
  53.8290190  40.7602796  68.2646066  53.8313284  40.0446204  67.9442872
  32.9121962  45.1060826  62.0724723  32.0860079  45.3522564  61.9459002
  32.9733953  45.0272907  62.9386781  32.7996129  45.1305775  62.1813667
  35.1297985  31.1729767  63.0320163  34.2620411  31.2452367  63.0977772
  35.4173190  31.9751846  63.2208138  35.0437733  31.3023914  63.0694930
  44.2530874  31.3207627  71.3631485  44.9984466  31.1317437  70.9494910
  43.8368179  31.8465865  70.8045341  44.3015848  31.3709772  71.2196058
  51.6293145  38.6916855  66.3136990  52.1801067  38.0584924  66.5534082
  51.6137260  39.2232248  67.0052494  51.7078341  38.6765803  66.4515848
  38.2815536  42.5255453  70.8596883  37.7827230  43.2371220  70.9381772
  39.0915760  42.8456119  70.8215046  38.3271643  42.6782301  70.8653452
  35.6326706  49.7005089  62.8403903  35.4127002  49.4102444  63.6330570
  35.4121228  49.0420044  62.3121815  35.5674300  49.5604797  62.8792811
  34.5443653  41.7878406  65.1059604  34.2556902  41.1615877  65.6405332
  35.4127002  41.7298693  65.1724285  34.6303905  41.6865950  65.1950559
  45.3321551  36.9313189  65.4241586  44.9886317  36.2103524  65.7748836
  45.4314594  36.7227040  64.5819944  45.2963594  36.7937392  65.3513266
  37.7994662  51.0734479  61.6234595  38.4518720  50.5410921  61.8525621
  37.1020271  50.7203131  62.0102469  37.7925380  50.9424002  61.7146763
  34.7475927  43.4273657  61.0301969  35.5021895  43.8086696  61.2437432
  34.1546540  43.8784800  61.4848666  34.7712640  43.5502484  61.1284848
  37.2082594  35.3836497  76.1559182  36.3982370  35.6894277  76.0449024
  37.6857281  36.1042079  76.2711766  37.1586073  35.5351098  76.1566253
  36.0674153  44.5982218  66.4042085  35.5454907  44.7382510  67.0893949
  36.4548174  43.8392882  66.5944202  36.0477854  44.5067742  66.5343161
  33.0565337  34.6488027  60.4737039  32.7690133  34.2789297  59.7368987
  33.7435806  35.1182882  60.2120744  33.1154235  34.6634996  60.3252115
  37.4940479  41.6286237  61.8023576  37.2983262  42.2360971  61.2083879
  37.7174825  40.9354181  61.3215250  37.4975120  41.6163762  61.6439657
  35.8919009  38.5140975  61.9204444  36.6141661  38.6782133  61.4608250
  35.4127002  39.2350640  61.8143784  35.9282740  38.6439204  61.8370058
  43.8512517  34.8504774  67.3001129  43.0123617  34.8766053  67.0639392
  43.9216884  35.4975509  67.8806476  43.7380910  34.9500900  67.3510246
  33.5426626  40.9199047  71.0258584  34.0547723  41.1983301  70.3767344
  33.2562968  41.6588341  71.3921397  33.5761489  41.0701401  70.9848462
  47.7270040  40.0572760  64.5862371  47.6404015  40.2128187  65.4397150
  47.2720520  40.7010836  64.2121776  47.6473297  40.1748516  64.6569478
  30.6293532  35.4269239  61.3222320  30.7309669  36.2295401  61.6503296
  31.4249419  35.2256575  61.0245401  30.7621438  35.5155138  61.3257676
  37.0610351  33.0125436  71.0859626  36.8693548  33.0280570  71.9359049
  37.9108947  33.2089110  71.0626280  37.1586073  33.0439787  71.2082920
  31.4457264  35.5416417  69.0643442  31.3042756  34.6900358  69.1887950
  31.7297828  35.5845078  68.2405648  31.4665110  35.4216167  68.9611066
  41.5995857  37.3783508  63.2087930  41.3530571  37.2979258  64.0424719
  41.9280980  36.5936975  63.0150458  41.6117100  37.2509773  63.3035453
  45.4943905  44.0866867  66.9974712  45.3558265  44.7847913  67.5023454
  44.7143903  43.9315523  66.6410893  45.3587132  44.1667034  67.0200986
  43.8321991  40.3863242  73.2497093  43.8270029  39.5143059  73.2539520
  44.5382984  40.5851411  72.7766549  43.9366995  40.2867116  73.1804129
  37.5592884  40.1140226  72.6210913  37.7036260  40.6941434  71.9854023
  37.9068532  40.4916523  73.3260768  37.6320345  40.2560930  72.6309908
  39.7312801  39.3130395  70.4036045  38.9836115  39.5061409  69.9984323
  39.8854326  38.4875614  70.1660166  39.6435229  39.2195506  70.3081451
  36.6320639  48.3042998  69.4871940  36.7810203  47.7445914  68.8345345
  37.4120641  48.3835000  69.8704459  36.7694732  48.2328563  69.4468889
  39.1573939  48.4757641  70.7656431  39.0817611  47.8066451  71.3207219
  39.0863799  49.1775429  71.2797097  39.1354546  48.4802548  70.9233279
  39.9714578  33.2080945  71.2931449  40.4287192  33.9404920  71.4204241
  40.0470907  32.7847410  72.0518704  40.0505548  33.2538183  71.4232525
  32.2147569  33.4546765  72.3820892  31.6789759  32.8427123  72.6981660
  32.2765334  34.0294901  73.0354559  32.1443202  33.4493693  72.5256319
  44.4441904  26.3870820  65.1625292  44.5625472  26.8447284  64.4292594
  44.2704080  25.5816082  64.8761509  44.4361075  26.3364593  65.0126225
  37.8496956  35.1983049  68.1373273  37.0593031  35.0174509  68.4590608
  38.2457579  34.4210002  68.1203567  37.7913832  35.0570510  68.1825821
  43.2340642  42.8325479  65.8632719  42.5585644  42.6010712  66.3646106
  43.2433019  42.2246662  65.2374824  43.1359147  42.7084405  65.8448871
  40.3634786  37.6743308  72.6196772  40.2993928  38.5353265  72.4916908
  40.5031974  37.3575301  71.8192323  40.3750256  37.7543475  72.4824984
  39.0453880  40.3675448  66.7612975  38.6216129  40.5679947  66.0251993
  38.8698735  39.5204296  66.8737274  38.9564761  40.2724229  66.6686665
  38.5465574  51.8825961  69.2234432  39.0361504  51.1836750  69.0410096
  37.9749806  51.5849831  69.8110489  38.5350104  51.7352184  69.2835473
  34.3336325  40.8627499  62.1940947  34.4900944  40.7974302  63.0496939
  34.6736918  41.6376052  61.9819627  34.4069560  40.9676697  62.2895541
  44.7432577  44.4488030  78.1761222  45.5567443  44.1773179  78.3366355
  44.5827544  44.1495570  77.3721418  44.8402526  44.3642956  78.0806628
  42.0204739  35.1321687  71.1156611  42.2346709  34.4932601  70.5619965
  41.4038638  35.5767511  70.6864472  41.9610069  35.1031831  70.9707042
  43.4309407  48.0540435  62.5610832  43.0389199  47.7507151  61.8433698
  43.5862479  48.8909525  62.3715785  43.3962997  48.1324272  62.4267329
  30.9070587  38.0462450  62.5101714  31.2869552  38.4646994  61.8461982
  30.3325952  38.6275905  62.8170558  30.8781912  38.1940308  62.4578455
  44.1843827  36.7410752  72.0539918  43.3720509  36.4336643  72.1353091
  44.6433762  36.2609752  72.6182630  44.1324212  36.6247245  72.1494512
  43.5949082  44.6190424  62.5016862  43.2363737  44.7905067  63.2780895
  43.1087793  45.0803630  61.9444861  43.4707779  44.7129395  62.5342131
  41.4119468  28.2421623  66.1043954  40.5413026  28.2160344  66.0577263
  41.6659809  28.0698815  65.2869799  41.3213028  28.2131767  65.9764090
  41.2797335  38.1470824  76.8368620  41.7496966  38.7712940  77.2236494
  41.3259215  37.4787799  77.3961835  41.3565211  38.1405504  76.9768692
  38.4368608  30.2527851  67.5617424  37.9207097  29.5608043  67.6869003
  37.8762537  30.9198628  67.5080023  38.2775122  30.2491109  67.5723490
  40.5060842  30.7920811  69.3910276  40.1192595  30.8169843  70.1723806
  40.0193779  30.2262490  68.9384793  40.3773351  30.7116562  69.4398180
  44.7553821  45.5094320  73.4484063  45.3933542  45.0154516  73.1146519
  44.1127913  45.4371721  72.8636290  44.7548048  45.4253329  73.3126418
  46.4810821  37.3583466  68.0149979  46.0538429  37.2709815  67.2598078
  45.8436874  37.4661242  68.6004823  46.3240429  37.3616126  67.9895420
  40.1717984  27.6787797  71.6820536  40.8011102  28.2148097  71.4041607
  40.3403846  27.5865156  72.5334102  40.2895778  27.7449159  71.7669065
  39.9731898  32.4658991  73.9546948  40.8005328  32.1944140  74.0105562
  39.9939745  33.2619833  74.3110766  40.0984749  32.5438746  74.0162131
  44.8108078  46.2014129  70.0889420  45.6000456  45.8503193  70.2091501
  44.9851676  47.0150517  69.8266054  44.9528360  46.2699986  70.0677288
  34.5501388  39.6122854  67.1417209  33.7089395  39.5126728  67.3496102
  34.7591396  40.3818335  67.4931529  34.4566081  39.7114898  67.2244524
  32.0276955  37.2342391  64.9701959  31.6333653  37.3085403  64.1952069
  31.4717072  37.6200338  65.5210321  31.8879768  37.3024166  64.9369619
  43.6641902  30.2123685  64.6505838  43.8691495  30.1445993  65.4962835
  43.3368326  31.0182506  64.5827016  43.6457150  30.3209626  64.7665493
  38.3618053  37.5404253  66.3914806  38.0581191  36.9860242  66.9925214
  37.6597474  37.7196463  65.9042840  38.2134263  37.4849036  66.4084512
  37.4184150  34.8504773  60.9559508  37.6943885  34.1323686  60.5437076
  38.0182820  35.4489693  60.7480614  37.5477415  34.8325144  60.8640269
  36.4236404  44.7553974  71.0986904  36.3156759  44.7656036  71.9648962
  36.6332186  45.5808755  70.9091858  36.4386515  44.8795049  71.1990996
  46.9175590  30.7655450  64.1308604  46.3049903  31.2525852  64.5162336
  47.0139765  30.0898940  64.6746255  46.8413487  30.7373758  64.2687462
  40.9194671  32.5218291  59.2306103  41.3738417  32.6928851  59.9553948
  41.3934717  31.9086401  58.8303879  41.0562991  32.4569176  59.2779865
  34.4410196  42.0066617  68.5608842  33.8498129  42.6476115  68.5311857
  35.2031220  42.4304234  68.5340141  34.4658457  42.1642455  68.5523989
  34.8370819  33.1668614  69.2276859  35.2972301  33.2407544  69.9651983
  34.8826926  33.9649868  68.8776681  34.9121374  33.2962761  69.2849616
  36.4854169  33.8335309  73.7948886  36.0939734  33.1868656  74.2304664
  36.6540031  34.4246744  74.4143142  36.4525079  33.8249577  73.9511592
  50.5600618  41.8372386  69.5586120  50.6183741  42.2859035  70.3046096
  49.9267085  42.2471199  69.1216200  50.4751913  41.9646121  69.6038668
  44.1999712  47.4575928  65.9940866  44.0019401  47.9466743  65.2997077
  43.5787423  47.6617170  66.5724999  44.0787277  47.5592466  65.9764089
  38.2607691  39.2260825  60.3351110  39.0049736  39.6135101  60.5734060
  38.4068387  38.3818250  60.4991598  38.3918276  39.1591298  60.3945080
  40.1787266  31.0211084  65.3682972  39.3323311  31.1933892  65.2424321
  40.1758399  30.2160428  65.7048800  40.0534416  30.9272113  65.3994099
  41.2485567  34.7986298  66.2345030  40.7745521  34.2728060  66.7450341
  41.6203702  34.2515771  65.6659891  41.2335456  34.6402295  66.2260177
  31.6258597  36.7957805  71.6028575  32.4884210  36.6953514  71.5165905
  31.2950380  36.2152514  71.0414148  31.7043793  36.6949432  71.5073981
  47.5122297  39.8588674  67.6451810  47.2720520  39.0195089  67.6494237
  47.9914304  39.9388841  68.3692584  47.5474481  39.7470074  67.7526612
  49.5127484  36.6390131  65.5981069  49.2737254  36.5985965  64.7601854
  49.6761385  37.4861283  65.7246790  49.5017788  36.7582216  65.4934551
  46.1173514  41.0240080  71.5286114  46.8407713  40.5712607  71.3497134
  45.8523477  41.3044746  70.7458442  46.1854788  40.9991049  71.3864830
  34.9860383  35.6200254  68.2638994  34.3613453  35.6318646  67.6564946
  34.6505978  36.0960429  68.9130234  34.8445875  35.6918771  68.2695562
  31.6986058  43.6800714  69.7042758  31.1685983  42.9893153  69.7537733
  31.9711152  43.6710899  68.8755466  31.6610781  43.5767846  69.5890174
  41.8992304  41.1223959  69.6781129  41.2849297  40.5782009  69.9729765
  42.4159589  40.6088195  69.1986946  41.8847966  40.9660368  69.6505358
  41.1388601  42.1928229  67.4125428  40.7116209  41.5677947  66.9790863
  41.1313545  41.9103151  68.2384435  41.0747742  42.0581009  67.4705256
  34.2551128  37.2293402  70.4813862  34.4144615  36.4736726  70.8865584
  34.0744022  37.7784341  71.1354600  34.2516487  37.1987216  70.6376568
  42.1971431  29.3954637  71.0364652  41.7011992  29.5918312  70.3456218
  42.9540493  29.7947306  70.8653453  42.2358256  29.4832371  70.9084788
  39.4674311  33.0696983  67.6267962  39.4916798  32.5357096  66.9380742
  39.7185784  32.5614292  68.2893553  39.5084229  32.9157887  67.6232607
  26.9781901  40.3528478  67.0611106  26.8725350  40.3075323  66.1963190
  26.2282120  40.6982259  67.3425391  26.8517503  40.3969386  66.9748436
  35.7475633  31.7967802  67.0073706  35.7874005  32.2977008  67.7208414
  34.9225298  31.8878195  66.7379629  35.6315159  31.8849618  67.0724245
  37.9305246  41.3628541  75.1094001  37.0800876  41.5000256  75.2451646
  38.0933374  40.6292320  75.5541703  37.8289109  41.2742643  75.1949600
  37.1689996  38.3128311  69.3047605  36.3381926  38.4802129  69.0982853
  37.1141513  37.9364262  70.0896491  37.0379411  38.2818043  69.3896134
  34.9773780  31.8037204  74.9404016  35.6026483  31.2599337  75.2133448
  34.5224259  31.3232122  74.3711806  35.0022040  31.6526686  74.8965610
  35.5426040  36.5883903  59.8337723  35.6829001  37.0856367  60.5366364
  36.0408573  35.8870197  59.9751937  35.6367121  36.5585882  59.9589302
  35.5726263  37.4551014  57.1630300  36.2071342  38.0511439  57.0979762
  35.6551873  37.1554472  57.9776170  35.6782814  37.4991922  57.2733386
  48.5508828  39.9866491  70.0316664  49.1426669  40.6263742  70.0634862
  48.9867823  39.2889528  70.3208731  48.7027260  39.9784842  70.0797497
  37.1505245  33.3864989  57.1375742  37.4721086  32.9068072  56.4835004
  37.4132189  34.1964635  56.9466554  37.2371271  33.4354887  57.0131234
  40.3802218  44.4083864  70.6574558  39.8727309  44.9619711  71.1015189
  40.0828864  44.4692154  69.8393333  40.2607103  44.4990175  70.6023015
  42.5464400  32.7737183  69.4999221  42.9719472  32.3209710  68.8882747
  41.9321393  32.2197254  69.7764008  42.5193046  32.6251160  69.4504246
  32.0779250  39.6518855  60.4319846  32.5871480  40.2483362  60.8131151
  32.5513523  39.3844828  59.7496266  32.2222626  39.7004670  60.3874369
  40.9858623  29.2452283  62.9089798  40.3426941  29.0949929  63.4774936
  40.6458030  28.9994628  62.1438903  40.8403701  29.1864406  62.8792813
  39.6244703  49.3408422  67.5631565  39.4010358  48.5827251  67.9315591
  39.1354547  49.3706443  66.8412005  39.5188152  49.2330646  67.5108306
  45.7386097  33.6567594  65.2410180  46.0913707  33.2297316  65.9155979
  44.8800899  33.5718437  65.3711256  45.6635542  33.5812334  65.3605190
  34.4369782  36.2875113  63.2993026  33.7181771  36.7039246  63.5665890
  34.8082144  36.8529352  62.7484665  34.3861714  36.4324395  63.2575833
  43.7369363  36.9202962  69.1895022  43.7167290  36.7386257  70.0429801
  43.7848564  37.7914981  69.1654606  43.7404004  37.0219500  69.3118317
  41.6815693  43.5090154  75.1143499  41.6411548  42.8639831  74.5288654
  42.4939011  43.4526772  75.4268911  41.7958846  43.4049121  75.0740448
  38.2723160  49.5608880  65.0168650  37.8583559  48.8983010  64.6272491
  38.9570535  49.7086739  64.4964344  38.3121532  49.4849538  64.8825147
  41.6388454  48.7198965  65.7692266  41.2404738  48.8301236  65.0013086
  41.0239674  48.9281032  66.3518826  41.4887344  48.7672533  65.7423565
  40.2116357  35.3273113  58.6366406  39.6181196  35.6490110  58.0850973
  40.2491634  34.4814209  58.4287512  40.1290746  35.2497441  58.5249177
  47.1710157  28.7786005  66.1694492  46.6641022  28.0715145  66.1015670
  47.9677591  28.4479194  66.2995569  47.2137396  28.6259157  66.1793487
  32.2159116  35.5824666  74.3195618  32.0461707  36.2426041  73.7743825
  31.7725066  35.7931227  75.0408107  32.1258450  35.7110648  74.3457248
  36.1418936  33.8229164  63.3622352  36.6176302  34.1846244  62.7272533
  35.6407535  34.4785632  63.6422494  36.1384295  33.9723353  63.3099093
  41.2462472  35.0611335  74.1095512  41.8033902  34.8325145  73.4773977
  40.9223537  35.8217001  73.8330724  41.2808882  35.1395172  73.9752009
  29.1161181  38.4871532  69.5784108  28.5687900  37.8172177  69.6964976
  29.9053559  38.1201379  69.6427575  29.1513364  38.3336518  69.6052808
  38.9645589  38.1478989  75.0747519  39.7156916  38.4630665  75.3887073
  39.1568166  37.9458160  74.2481441  39.1037003  38.1646370  74.9990915
  45.8130879  34.2752555  62.3171314  45.8125106  34.1201211  63.1755591
  45.6087059  35.1215542  62.2612700  45.7830657  34.3773176  62.4359254
  27.8748150  37.6992339  66.7330131  27.6969911  37.2468948  67.4585047
  27.5867172  38.5018501  66.9168608  27.8061103  37.7514897  66.8673634
  43.5371731  38.9550057  65.9707521  44.0325397  38.2373052  65.9311542
  42.7271507  38.6520854  65.8562008  43.4915625  38.8047703  65.9481247
  29.6120620  40.2320063  63.8451890  28.7466140  40.2205754  63.7334661
  29.7119436  40.0450286  64.6923029  29.4994787  40.2026124  63.9540834
  45.6023550  41.7053744  68.6584650  46.0278622  41.1828166  68.1055075
  45.2380470  42.3034582  68.1373273  45.6110153  41.7163971  68.4993660
  35.2377630  50.0017962  67.4181995  35.5524189  50.8154350  67.4259777
  35.6471043  49.6168180  68.0864155  35.3445728  50.0646664  67.5186087
  42.1902150  45.4188008  64.9885807  42.6613328  46.1328271  65.1575793
  42.5262328  44.8186759  65.5245677  42.3097265  45.4359473  65.0918183
  44.2779134  47.0289322  77.1677880  44.3876100  46.2397882  77.5234627
  44.6070031  46.9395258  76.3652218  44.3431540  46.8995175  77.1020270
  39.1071645  30.1915479  71.9443902  39.2399550  29.3946472  72.2724878
  39.4916797  30.7181882  72.5242178  39.1827973  30.1515396  72.0787405
  42.8276096  45.2105943  71.7513500  42.2797042  44.5863826  71.4833565
  43.2889125  45.4000215  71.0357579  42.8143305  45.1464993  71.6063931
  42.1804000  27.1145805  68.5424996  41.3749963  27.0043535  68.8592834
  42.0510735  27.2158261  67.6854861  42.0424133  27.1129475  68.4633036
  45.6369960  33.2791297  69.1364692  45.0532949  33.7800504  68.7242260
  45.9574254  32.7720853  68.5029016  45.5983136  33.2783132  68.9823200
  38.1764759  32.1931892  59.4123367  38.9980454  32.3630205  59.1705062
  37.7134410  32.3479153  58.6889665  38.2295922  32.2413625  59.2695012
  36.7660091  30.1874654  70.1921796  37.3104504  29.8465781  70.7826138
  36.8197027  31.0460116  70.3343081  36.8549211  30.2629913  70.3003669
  32.5790650  43.9491070  67.0660604  33.1835508  43.9086904  66.4374425
  32.3717963  44.7962222  67.0964660  32.6379547  44.0679073  66.9776720
  42.3934422  46.2157015  68.2822841  43.2132796  46.0719981  68.5439136
  42.1128500  46.8403214  68.8239279  42.4731166  46.2867367  68.4010781
  27.8141932  42.9325688  66.9359527  27.7166210  42.1221959  67.2449584
  28.5970802  42.9117481  66.5505795  27.9158069  42.8092778  66.9246390
  58.8648073  53.8721867  61.2465718  58.8342077  54.7266504  61.4183987
  59.4629421  53.5717160  61.8051861  58.9485231  53.9538364  61.3540520
  52.0647757  52.9597518  66.0018648  51.2085653  53.1206016  66.0527765
  52.1115411  52.0889582  66.0223709  51.9446869  52.8548320  66.0124714
  46.4488897  62.4960236  61.7655880  45.6971797  62.1175774  61.5371925
  46.8974909  62.5278670  61.0174690  46.4038564  62.4445843  61.6213382
  51.9013857  62.9185605  57.1941427  51.5665226  63.5962527  56.7585649
  52.4140728  62.5290917  56.6058298  51.9279438  62.9610184  57.0428218
  51.4418148  64.8699874  63.1352538  51.8257528  65.4386773  62.5957314
  51.3777290  64.1449384  62.6558354  51.4891576  64.8475338  62.9846401
  54.9099579  55.0189562  68.6450300  55.4555539  55.6974649  68.7044269
  54.8516455  54.8777023  67.7851881  54.9815493  55.0981564  68.5262360
  48.0273653  62.5078628  64.0318652  48.1284016  61.6978982  64.3415780
  47.4315399  62.4135574  63.4018331  47.9546192  62.3743656  63.9844891
  56.6864647  56.4474169  59.5184028  56.5704173  57.1981855  59.9476166
  57.4820534  56.1898122  59.7680115  56.7869237  56.5209016  59.6188119
  47.8674393  67.4256217  65.4333508  48.5111848  67.8669381  65.8229667
  48.1930649  66.6209643  65.3463767  48.0106222  67.3721412  65.4778985
  41.2238698  58.5298915  63.6570986  40.9888882  57.6966567  63.5503255
  41.3624338  58.8103580  62.8432187  41.2094360  58.4482418  63.5213341
  43.5228785  50.6984645  66.5555294  42.9033817  50.1077292  66.3865308
  43.4212649  51.2896080  65.9219617  43.4166461  50.6988728  66.4360283
  48.5694973  60.4368192  60.8053370  48.8910814  60.9773399  60.2014678
  49.2167069  59.8664963  60.9375660  48.7121028  60.4327367  60.7360405
  50.6196681  52.4384187  60.8887757  51.3176845  52.6172315  61.3809220
  50.9349013  51.9154526  60.2658146  50.7692018  52.3877959  60.8689767
  43.2497918  54.2436927  68.7998862  43.1256615  54.8299372  69.4348681
  43.9016203  53.7497123  69.1011137  43.3271567  54.2575731  68.9384792
  50.8084616  58.8254632  60.8767548  51.2478252  58.2171733  61.3222321
  50.6589279  58.4462005  60.1053013  50.8506082  58.6793103  60.8286715
  48.2756259  57.4198644  68.0786374  48.9205262  56.9271087  67.7597322
  48.5158036  57.5623430  68.9052452  48.4066844  57.3676086  68.1535907
  50.8142351  60.2653550  67.7293266  51.0965593  59.4704955  67.5080022
  51.5428511  60.7434137  67.7498327  50.9631914  60.2188147  67.6996281
  54.4093953  57.1781813  57.8298317  54.3245248  58.0342780  57.9747886
  54.8978336  56.9026137  58.4980476  54.4682850  57.2639135  57.9500399
  55.9999952  43.7962107  63.2158642  55.6853393  44.4865585  63.6479064
  55.4826894  43.7406889  62.5144143  55.8764423  43.8896995  63.1755591
  55.3412386  53.7966608  59.3296052  54.8123857  54.0126241  59.9893359
  55.8637406  54.4902746  59.2497022  55.3400839  53.9309744  59.4151652
  60.7960439  59.3712912  64.7029097  59.9658142  59.5823556  64.8662513
  60.7469691  58.5449967  64.4271380  60.6667174  59.2802518  64.6866462
  47.2311994  57.6929824  58.1303520  46.6469209  58.1979856  58.5369384
  46.8282089  57.4672211  57.3900112  47.0851298  57.7338073  58.0808546
  42.7856022  63.4084585  64.9327192  42.3023601  64.1335075  64.9086776
  43.5979341  63.7060715  65.0437350  42.8346770  63.5586939  64.9454471
  48.8570176  62.2016766  67.5377006  48.3397118  61.8424181  66.9338314
  49.5544568  61.6778941  67.5483073  48.8835758  62.0714454  67.4507265
  51.6889208  53.9395476  56.6072441  51.9285212  54.1473460  55.7947784
  52.0105049  53.1352985  56.7161386  51.7726366  53.8509578  56.5032994
  45.6400220  63.9240761  65.0847472  46.3420799  63.4092750  65.1420228
  45.5597703  64.2514913  65.8894347  45.7323980  63.8954988  65.2120264
  60.2914397  52.0183313  68.4979518  59.4542818  52.0885500  68.7327113
  60.2602628  52.0207807  67.6253821  60.1632680  52.0293540  68.4039066
  46.6879126  54.1616348  74.2127887  46.8599630  54.0522243  75.0613168
  47.2248484  54.8070754  73.9759079  46.7924130  54.2408350  74.3032984
  44.9650995  60.1147113  64.5933080  45.8039894  60.3470046  64.6406841
  44.9962764  59.2451425  64.5240115  45.0932713  60.0204060  64.5897725
  45.5903698  60.5347989  68.8946385  46.1301923  60.3919120  69.5649758
  44.9073644  60.9344739  69.2630412  45.5695852  60.5727659  69.0480807
  55.0144583  56.2138989  64.0891410  55.7702098  56.6470503  64.1280318
  55.1206907  55.5643759  64.6626046  55.1414754  56.1816473  64.1789435
  58.0524754  60.0412266  64.8393813  57.6159986  60.0449009  65.5952784
  57.7187670  60.7217765  64.4073390  57.9387374  60.1424722  64.8874645
  40.9940843  56.7548279  69.0480807  40.7279258  55.9387396  69.2071797
  41.0079407  56.8001435  68.1776322  40.9565565  56.6405184  68.9434289
  57.9722237  47.0826094  67.0823241  58.6148145  47.1524199  67.6685156
  58.2245258  46.4155317  66.5802783  58.1044369  46.9952443  67.0950520
  45.7439449  50.2926658  71.6947815  45.0511246  49.8223637  71.9408546
  46.3599777  50.0664962  72.2689522  45.7323979  50.1893789  71.8156967
  61.1869100  56.7593186  63.7313450  61.8485534  56.1983855  63.6309358
  60.5460512  56.2645217  64.0566141  61.1897968  56.6029595  63.7645790
  52.0745908  60.0563318  56.0394373  52.4897056  59.7248342  55.3478869
  51.2437838  59.8232220  55.9114510  52.0133917  59.9734574  55.9185221
  41.4034257  57.5407059  66.3292551  41.2209830  57.5153945  65.4764843
  42.1383926  58.0105997  66.3681460  41.4848321  57.6068421  66.2090470
  57.4733931  57.7758569  63.4725439  57.7089520  57.9203768  62.6452289
  57.6223495  58.5400977  63.8656952  57.5299734  57.9097623  63.4089043
  44.4680008  54.2592062  72.8374660  45.1919981  54.2445092  73.3239555
  44.5696145  54.9687417  72.3396628  44.5898217  54.3616765  72.8353447
  59.3024388  56.6160235  61.3095043  59.6332605  57.1487875  60.7035137
  59.8757476  56.6699122  61.9656993  59.4358067  56.7029803  61.3172824
  54.5156277  54.4625137  61.9918623  54.6103131  55.2014431  62.4458248
  53.8915120  54.0342613  62.4253187  54.4365307  54.5086458  62.1226770
  41.3705167  54.4200559  66.4791618  41.9478670  54.2837010  67.1183863
  40.6719229  53.9636344  66.7337202  41.3526188  54.3322826  66.6113907
  54.7679298  56.3073877  55.2255575  54.6859461  56.3776064  56.0910562
  55.4059019  56.8703621  55.0339315  54.8499135  56.4012848  55.3245524
  48.1272469  56.0734615  64.6930101  47.8691714  55.2406350  64.6661400
  48.1820952  56.2992228  63.8522601  48.0972247  55.9832386  64.5650238
  47.1007181  53.6272378  65.1794996  46.5256773  53.7864546  65.8158957
  46.7242858  52.9907787  64.7163446  46.9609994  53.5570190  65.2049554
  50.7680470  52.0995727  70.0387374  50.3794903  51.6749945  69.3839565
  50.1035168  52.3477876  70.5464401  50.6127398  52.0734448  70.0175242
  60.4103739  51.8570731  62.8135204  60.1540304  51.0450673  62.6233087
  61.2533053  51.8648299  62.5865391  60.4969765  51.7382729  62.7520021
  36.8464000  53.2712452  63.1939436  36.9324252  52.8944321  63.9752966
  37.4739798  52.8972898  62.7159395  36.9520551  53.1597934  63.2384914
  54.5906832  45.7970356  67.5511358  54.9717343  45.1148527  67.9379233
  53.7870116  45.5079958  67.3687023  54.5283293  45.6537404  67.5815414
  51.8719408  56.3294331  58.2364181  52.6860047  56.6209224  58.1246952
  51.8078550  55.6754194  57.6622474  51.9822147  56.2759526  58.1353018
  47.7427317  59.8015849  63.3636493  48.3801264  59.5627596  63.9088287
  48.1682388  60.0053008  62.6289654  47.9003483  59.7966859  63.3353650
  42.4339959  62.0404185  67.2470797  42.4744104  62.3119036  66.4190577
  42.9934483  62.5646093  67.6628585  42.5223305  62.1579940  67.1862685
  48.3830132  55.0218139  57.7011383  48.7675284  54.8025845  58.4527928
  48.1341752  55.8481084  57.8312459  48.4032204  55.1116285  57.8312459
  48.5498672  48.3024554  77.4173967  48.2352113  49.0724117  77.1543529
  48.2288605  47.7394810  76.8326194  48.4557591  48.3334823  77.2915317
  50.1248789  60.2788271  65.0430279  50.1987797  60.1163443  65.8972129
  50.9418295  60.4678461  64.7990761  50.2565147  60.2825014  65.1328305
  43.8854545  60.6246134  62.0724723  43.0592663  60.8707871  61.9459002
  43.9466536  60.5458215  62.9386781  43.7728712  60.6491083  62.1813667
  46.1030569  46.6915075  63.0320163  45.2352994  46.7637675  63.0977772
  46.3905773  47.4937154  63.2208138  46.0170317  46.8209222  63.0694930
  55.2263458  46.8392935  71.3631485  55.9717050  46.6502745  70.9494910
  54.8100762  47.3651173  70.8045341  55.2748432  46.8895080  71.2196058
  48.6653374  63.2423015  59.7743753  48.9551673  62.8511996  59.0502979
  49.3956855  63.4239719  60.2149028  48.8160258  63.2116828  59.7326560
  62.6025729  54.2102163  66.3136990  63.1533650  53.5770232  66.5534082
  62.5869844  54.7417556  67.0052494  62.6810925  54.1951111  66.4515848
  49.2548119  58.0440760  70.8596883  48.7559813  58.7556528  70.9381772
  50.0648344  58.3641427  70.8215046  49.3004226  58.1967609  70.8653452
  46.6059290  65.2190397  62.8403903  46.3859585  64.9287752  63.6330570
  46.3853812  64.5605352  62.3121815  46.5406884  65.0790105  62.8792811
  45.5176237  57.3063713  65.1059604  45.2289486  56.6801185  65.6405332
  46.3859585  57.2484001  65.1724285  45.6036489  57.2051258  65.1950559
  56.3054135  52.4498497  65.4241586  55.9618901  51.7288832  65.7748836
  56.4047177  52.2412348  64.5819944  56.2696178  52.3122700  65.3513266
  48.7727246  66.5919787  61.6234595  49.4251304  66.0596229  61.8525621
  48.0752854  66.2388439  62.0102469  48.7657964  66.4609310  61.7146763
  45.7208510  58.9458965  61.0301969  46.4754478  59.3272004  61.2437432
  45.1279123  59.3970108  61.4848666  45.7445224  59.0687792  61.1284848
  56.7667164  58.9124201  60.9665574  57.3325197  59.5717411  60.8824117
  56.1195067  59.2573899  61.4381976  56.7545920  59.0606142  61.0238331
  48.1815177  50.9021805  76.1559182  47.3714953  51.2079585  76.0449024
  48.6589864  51.6227387  76.2711766  48.1318656  51.0536406  76.1566253
  47.0406737  60.1167526  66.4042085  46.5187491  60.2567818  67.0893949
  47.4280757  59.3578190  66.5944202  47.0210438  60.0253050  66.5343161
  44.0297921  50.1673335  60.4737039  43.7422717  49.7974605  59.7368987
  44.7168389  50.6368190  60.2120744  44.0886818  50.1820304  60.3252115
  53.2373742  61.8562985  60.3902653  52.9960418  61.1230846  59.9829718
  53.4175075  62.4049842  59.7368987  53.2281366  61.8285376  60.2332876
  48.4673063  57.1471545  61.8023576  48.2715845  57.7546279  61.2083879
  48.6907408  56.4539489  61.3215250  48.4707704  57.1349070  61.6439657
  46.8651593  54.0326283  61.9204444  47.5874245  54.1967441  61.4608250
  46.3859585  54.7535948  61.8143784  46.9015323  54.1624512  61.8370058
  54.8245100  50.3690082  67.3001129  53.9856201  50.3951360  67.0639392
  54.8949468  51.0160817  67.8806476  54.7113494  50.4686207  67.3510246
  44.5159209  56.4384355  71.0258584  45.0280306  56.7168608  70.3767344
  44.2295552  57.1773649  71.3921397  44.5494072  56.5886709  70.9848462
  58.7002624  55.5758068  64.5862371  58.6136599  55.7313494  65.4397150
  58.2453104  56.2196144  64.2121776  58.6205881  55.6933823  64.6569478
  41.6026116  50.9454547  61.3222320  41.7042252  51.7480708  61.6503296
  42.3982002  50.7441883  61.0245401  41.7354021  51.0340446  61.3257676
  48.0342935  48.5310744  71.0859626  47.8426132  48.5465878  71.9359049
  48.8841531  48.7274418  71.0626280  48.1318657  48.5625095  71.2082920
  42.4189848  51.0601725  69.0643442  42.2775340  50.2085666  69.1887950
  42.7030411  51.1030386  68.2405648  42.4397694  50.9401475  68.9611066
  52.5728440  52.8968815  63.2087930  52.3263154  52.8164566  64.0424719
  52.9013563  52.1122283  63.0150458  52.5849684  52.7695081  63.3035453
  56.4676489  59.6052175  66.9974712  56.3290848  60.3033221  67.5023454
  55.6876487  59.4500831  66.6410893  56.3319716  59.6852341  67.0200986
  48.5325467  55.6325534  72.6210913  48.6768843  56.2126742  71.9854023
  48.8801116  56.0101831  73.3260768  48.6052929  55.7746238  72.6309908
  50.7045385  54.8315702  70.4036045  49.9568699  55.0246717  69.9984323
  50.8586910  54.0060922  70.1660166  50.6167812  54.7380814  70.3081451
  47.6053222  63.8228306  69.4871940  47.7542786  63.2631222  68.8345345
  48.3853224  63.9020308  69.8704459  47.7427316  63.7513871  69.4468889
  57.9629862  58.9630429  57.7591211  57.5836671  58.1767567  57.7520500
  57.2996107  59.5117286  57.6162855  57.8088337  58.9275253  57.7372008
  50.9447162  48.7266253  71.2931449  51.4019776  49.4590227  71.4204241
  51.0203491  48.3032718  72.0518704  51.0238132  48.7723491  71.4232525
  43.1880153  48.9732073  72.3820892  42.6522342  48.3612431  72.6981660
  43.2497918  49.5480209  73.0354559  43.1175786  48.9679001  72.5256319
  55.4174488  41.9056128  65.1625292  55.5358056  42.3632592  64.4292594
  55.2436663  41.1001390  64.8761509  55.4093659  41.8549900  65.0126225
  50.7876770  62.5143948  61.5980037  51.5526661  62.2453591  61.2762701
  50.6854860  62.0293958  62.3150100  50.8858265  62.4033512  61.6559865
  48.8229540  50.7168357  68.1373273  48.0325614  50.5359817  68.4590608
  49.2190163  49.9395310  68.1203567  48.7646416  50.5755818  68.1825821
  53.3095430  59.5456131  53.5779986  54.0768416  59.6056256  53.1685838
  52.8626739  58.9736573  53.0936305  53.3568858  59.4692707  53.4457697
  54.2073226  58.3510787  65.8632719  53.5318228  58.1196019  66.3646106
  54.2165602  57.7431970  65.2374824  54.1091731  58.2269712  65.8448871
  51.3367370  53.1928616  72.6196772  51.2726511  54.0538573  72.4916908
  51.4764558  52.8760609  71.8192323  51.3482840  53.2728783  72.4824984
  56.2089961  61.2075920  58.0942897  56.2909798  62.0142906  57.7704347
  56.6939703  61.2271879  58.8183670  56.2927118  61.3296582  58.1529795
  50.0186464  55.8860756  66.7612975  49.5948713  56.0865255  66.0251993
  49.8431319  55.0389604  66.8737274  49.9297344  55.7909537  66.6686665
  45.3068909  56.3812807  62.1940947  45.4633528  56.3159610  63.0496939
  45.6469502  57.1561360  61.9819627  45.3802144  56.4862005  62.2895541
  51.8448053  55.7570691  61.0634310  52.3863599  55.2541072  61.5272931
  52.1594612  55.7035885  60.2523796  51.9712451  55.6750111  61.0118122
  50.0134503  61.1488042  58.3474338  50.0827323  60.2902581  58.4867339
  50.7922958  61.3659923  58.0193363  50.1387353  61.0540906  58.3191496
  52.9937323  50.6506995  71.1156611  53.2079292  50.0117909  70.5619965
  52.3771222  51.0952819  70.6864472  52.9342652  50.6217139  70.9707042
  54.4041991  63.5725743  62.5610832  54.0121782  63.2692459  61.8433698
  54.5595063  64.4094833  62.3715785  54.3695581  63.6509580  62.4267329
  41.8803170  53.5647757  62.5101714  42.2602135  53.9832302  61.8461982
  41.3058535  54.1461213  62.8170558  41.8514495  53.7125616  62.4578455
  55.1576411  52.2596060  72.0539918  54.3453093  51.9521951  72.1353091
  55.6166345  51.7795060  72.6182630  55.1056796  52.1432553  72.1494512
  54.5681665  60.1375732  62.5016862  54.2096320  60.3090375  63.2780895
  54.0820376  60.5988938  61.9444861  54.4440362  60.2314703  62.5342131
  52.3852051  43.7606931  66.1043954  51.5145609  43.7345652  66.0577263
  52.6392393  43.5884123  65.2869799  52.2945612  43.7317074  65.9764090
  49.3570031  55.8174898  55.0417097  49.6462556  56.5939780  55.3160671
  49.4441830  55.3063629  55.7431596  49.4124287  55.8566816  55.1859594
  49.4101192  45.7713159  67.5617424  48.8939681  45.0793351  67.6869003
  48.8495121  46.4383936  67.5080023  49.2507705  45.7676417  67.5723490
  51.4793425  46.3106119  69.3910276  51.0925179  46.3355151  70.1723806
  50.9926363  45.7447798  68.9384793  51.3505934  46.2301870  69.4398180
  57.4543405  52.8768774  68.0149979  57.0271013  52.7895123  67.2598078
  56.8169458  52.9846550  68.6004823  57.2973012  52.8801434  67.9895420
  51.1450567  43.1973105  71.6820536  51.7743685  43.7333405  71.4041607
  51.3136430  43.1050464  72.5334102  51.2628362  43.2634467  71.7669065
  50.9464482  47.9844299  73.9546948  51.7737911  47.7129448  74.0105562
  50.9672328  48.7805141  74.3110766  51.0717332  48.0624054  74.0162131
  45.5233972  55.1308162  67.1417209  44.6821978  55.0312036  67.3496102
  45.7323980  55.9003642  67.4931529  45.4298664  55.2300206  67.2244524
  43.0009539  52.7527699  64.9701959  42.6066237  52.8270711  64.1952069
  42.4449656  53.1385646  65.5210321  42.8612351  52.8209474  64.9369619
  54.6374486  45.7308993  64.6505838  54.8424079  45.6631301  65.4962835
  54.3100910  46.5367814  64.5827016  54.6189734  45.8394934  64.7665493
  49.3350637  53.0589561  66.3914806  49.0313774  52.5045550  66.9925214
  48.6330058  53.2381771  65.9042840  49.1866847  53.0034344  66.4084512
  47.3968988  60.2739282  71.0986904  47.2889343  60.2841344  71.9648962
  47.6064769  61.0994063  70.9091858  47.4119099  60.3980357  71.1990996
  57.8908173  46.2840757  64.1308604  57.2782487  46.7711160  64.5162336
  57.9872348  45.6084248  64.6746255  57.8146071  46.2559066  64.2687462
  45.4142780  57.5251925  68.5608842  44.8230713  58.1661423  68.5311857
  46.1763803  57.9489542  68.5340141  45.4391040  57.6827763  68.5523989
  45.8103403  48.6853922  69.2276859  46.2704884  48.7592852  69.9651983
  45.8559509  49.4835176  68.8776681  45.8853958  48.8148069  69.2849616
  47.4586752  49.3520617  73.7948886  47.0672317  48.7053964  74.2304664
  47.6272615  49.9432052  74.4143142  47.4257663  49.3434885  73.9511592
  55.1732296  62.9761236  65.9940866  54.9751985  63.4652051  65.2997077
  54.5520007  63.1802478  66.5724999  55.0519860  63.0777774  65.9764089
  49.2340274  54.7446133  60.3351110  49.9782319  55.1320409  60.5734060
  49.3800971  53.9003558  60.4991598  49.3650859  54.6776606  60.3945080
  52.2218150  50.3171606  66.2345030  51.7478104  49.7913368  66.7450341
  52.5936286  49.7701079  65.6659891  52.2068039  50.1587603  66.2260177
  42.5991180  52.3143113  71.6028575  43.4616793  52.2138822  71.5165905
  42.2682963  51.7337822  71.0414148  42.6776377  52.2134740  71.5073981
  58.4854881  55.3773982  67.6451810  58.2453104  54.5380397  67.6494237
  58.9646888  55.4574149  68.3692584  58.5207064  55.2655382  67.7526612
  60.4860068  52.1575439  65.5981069  60.2469838  52.1171273  64.7601854
  60.6493969  53.0046591  65.7246790  60.4750371  52.2767524  65.4934551
  45.9592966  51.1385562  68.2638994  45.3346036  51.1503954  67.6564946
  45.6238561  51.6145737  68.9130234  45.8178458  51.2104079  68.2695562
  42.6718642  59.1986022  69.7042758  42.1418566  58.5078461  69.7537733
  42.9443735  59.1896207  68.8755466  42.6343364  59.0953154  69.5890174
  53.7038732  59.7811724  58.4280440  54.4272931  60.2469837  58.2845014
  53.2639323  59.8485334  57.6778037  53.7454425  59.8595561  58.2965222
  52.8724887  56.6409267  69.6781129  52.2581881  56.0967317  69.9729765
  53.3892172  56.1273503  69.1986946  52.8580550  56.4845676  69.6505358
  52.1121185  57.7113537  67.4125428  51.6848793  57.0863255  66.9790863
  52.1046129  57.4288459  68.2384435  52.0480326  57.5766317  67.4705256
  45.2283712  52.7478710  70.4813862  45.3877198  51.9922034  70.8865584
  45.0476605  53.2969649  71.1354600  45.2249071  52.7172523  70.6376568
  53.1704015  44.9139945  71.0364652  52.6744576  45.1103620  70.3456218
  53.9273077  45.3132614  70.8653453  53.2090839  45.0017679  70.9084788
  50.4406894  48.5882291  67.6267962  50.4649381  48.0542404  66.9380742
  50.6918368  48.0799600  68.2893553  50.4816813  48.4343195  67.6232607
  37.9514484  55.8713786  67.0611106  37.8457933  55.8260631  66.1963190
  37.2014704  56.2167567  67.3425391  37.8250087  55.9154694  66.9748436
  46.7208216  47.3153109  67.0073706  46.7606588  47.8162316  67.7208414
  45.8957881  47.4063503  66.7379629  46.6047742  47.4034926  67.0724245
  48.1422580  53.8313619  69.3047605  47.3114510  53.9987437  69.0982853
  48.0874097  53.4549570  70.0896491  48.0111995  53.8003351  69.3896134
  45.9506363  47.3222512  74.9404016  46.5759067  46.7784645  75.2133448
  45.4956843  46.8417430  74.3711806  45.9754624  47.1711994  74.8965610
  46.5158624  52.1069211  59.8337723  46.6561585  52.6041675  60.5366364
  47.0141157  51.4055505  59.9751937  46.6099705  52.0771190  59.9589302
  46.5458846  52.9736322  57.1630300  47.1803926  53.5696747  57.0979762
  46.6284457  52.6739779  57.9776170  46.6515397  53.0177230  57.2733386
  48.1237829  48.9050297  57.1375742  48.4453670  48.4253380  56.4835004
  48.3864773  49.7149943  56.9466554  48.2103854  48.9540195  57.0131234
  53.5196984  48.2922491  69.4999221  53.9452055  47.8395018  68.8882747
  52.9053977  47.7382562  69.7764008  53.4925629  48.1436467  69.4504246
  43.0511834  55.1704163  60.4319846  43.5604063  55.7668670  60.8131151
  43.5246106  54.9030136  59.7496266  43.1955210  55.2189978  60.3874369
  53.9642582  63.8432429  58.5878502  53.2471892  63.6693292  58.1225739
  54.6149320  63.6085002  58.0553988  53.9544433  63.7828222  58.4407719
  56.5490553  52.7197018  62.3319807  55.8781743  53.2626720  62.2032872
  57.2430304  53.1891873  62.0901501  56.5519421  52.8695289  62.2775334
  50.5977287  64.8593730  67.5631565  50.3742941  64.1012559  67.9315591
  50.1087130  64.8891751  66.8412005  50.4920736  64.7515954  67.5108306
  56.7118681  49.1752901  65.2410180  57.0646291  48.7482624  65.9155979
  55.8533482  49.0903745  65.3711256  56.6368125  49.0997642  65.3605190
  45.4102366  51.8060421  63.2993026  44.6914355  52.2224554  63.5665890
  45.7814728  52.3714660  62.7484665  45.3594297  51.9509703  63.2575833
  54.7101947  52.4388270  69.1895022  54.6899874  52.2571565  70.0429801
  54.7581147  53.3100289  69.1654606  54.7136588  52.5404808  69.3118317
  49.2455744  65.0794188  65.0168650  48.8316143  64.4168318  64.6272491
  49.9303118  65.2272047  64.4964344  49.2854116  65.0034846  64.8825147
  52.6121038  64.2384273  65.7692266  52.2137321  64.3486544  65.0013086
  51.9972258  64.4466340  66.3518826  52.4619927  64.2857841  65.7423565
  58.1442741  44.2971313  66.1694492  57.6373605  43.5900453  66.1015670
  58.9410175  43.9664502  66.2995569  58.1869980  44.1444465  66.1793487
  54.0606757  50.8037926  62.0668156  53.8320450  50.8270627  61.2246514
  54.3204833  49.9795393  62.1863167  54.0652945  50.6854005  61.9593354
  48.3425985  52.6572399  71.6693256  47.8304888  52.0493582  72.0278288
  48.1705481  53.3728991  72.1367232  48.2415622  52.6735698  71.7909480
  43.1891700  51.1009974  74.3195618  43.0194290  51.7611349  73.7743825
  42.7457650  51.3116535  75.0408107  43.0991033  51.2295956  74.3457248
  47.1151519  49.3414472  63.3622352  47.5908885  49.7031552  62.7272533
  46.6140119  49.9970939  63.6422494  47.1116878  49.4908661  63.3099093
  60.3462881  58.8136240  59.1535357  60.7296487  59.5627596  59.3833454
  59.5506994  59.0602060  58.8947346  60.2856663  58.9605934  59.1492930
  52.2195055  50.5796643  74.1095512  52.7766486  50.3510453  73.4773977
  51.8956120  51.3402309  73.8330724  52.2541466  50.6580480  73.9752009
  40.0893764  54.0056839  69.5784108  39.5420484  53.3357485  69.6964976
  40.8786142  53.6386687  69.6427575  40.1245948  53.8521826  69.6052808
  49.1578172  51.4855672  56.7295736  49.5377137  51.5035301  55.9446850
  48.4170768  51.9309660  56.6086583  49.1047010  51.5537446  56.5959304
  56.7863463  49.7937863  62.3171314  56.7857689  49.6386519  63.1755591
  56.5819643  50.6400850  62.2612700  56.7563241  49.8958484  62.4359254
  38.8480734  53.2177647  66.7330131  38.6702495  52.7654256  67.4585047
  38.5599756  54.0203809  66.9168608  38.7793687  53.2700205  66.8673634
  54.5104315  54.4735365  65.9707521  55.0057980  53.7558360  65.9311542
  53.7004091  54.1706162  65.8562008  54.4648208  54.3233011  65.9481247
  49.9562926  58.3233178  58.1204526  49.1474249  57.9999851  58.0737835
  50.4637835  57.6166400  58.0532774  49.9112593  58.1714494  58.1034820
  40.5853204  55.7505371  63.8451890  39.7198723  55.7391061  63.7334661
  40.6852020  55.5635594  64.6923029  40.4727371  55.7211432  63.9540834
  56.5756134  57.2239052  68.6584650  57.0011205  56.7013474  68.1055075
  56.2113054  57.8219890  68.1373273  56.5842736  57.2349279  68.4993660
  46.2110214  65.5203270  67.4181995  46.5256773  66.3339658  67.4259777
  46.6203627  65.1353488  68.0864155  46.3178312  65.5831972  67.5186087
  53.1634733  60.9373316  64.9885807  53.6345911  61.6513579  65.1575793
  53.4994912  60.3372067  65.5245677  53.2829848  60.9544781  65.0918183
  50.0804228  45.7100787  71.9443902  50.2132134  44.9131780  72.2724878
  50.4649381  46.2367190  72.5242178  50.1560557  45.6700704  72.0787405
  53.1536583  42.6331113  68.5424996  52.3482547  42.5228843  68.8592834
  53.0243319  42.7343569  67.6854861  53.0156716  42.6314783  68.4633036
  56.6102544  48.7976605  69.1364692  56.0265533  49.2985812  68.7242260
  56.9306838  48.2906161  68.5029016  56.5715719  48.7968440  68.9823200
  47.7392675  45.7059962  70.1921796  48.2837088  45.3651089  70.7826138
  47.7929611  46.5645424  70.3343081  47.8281794  45.7815221  70.3003669
  43.5523234  59.4676378  67.0660604  44.1568091  59.4272212  66.4374425
  43.3450546  60.3147530  67.0964660  43.6112131  59.5864381  66.9776720
  53.3667006  61.7342323  68.2822841  54.1865380  61.5905289  68.5439136
  53.0861083  62.3588522  68.8239279  53.4463749  61.8052675  68.4010781
  38.7874516  58.4510996  66.9359527  38.6898794  57.6407267  67.2449584
  39.5703386  58.4302789  66.5505795  38.8890652  58.3278086  66.9246390
  61.5929264  67.9569495  60.8887757  62.2909429  68.1357622  61.3809220
  61.9081597  67.4339834  60.2658146  61.7424602  67.9063267  60.8689767
  59.7656128  63.3261892  64.9709031  59.4359458  63.7773035  64.3012730
  59.0901130  63.2478055  65.5182038  59.6166564  63.3813027  64.9532255
  66.9732536  59.3147414  63.2158642  66.6585977  60.0050893  63.6479064
  66.4559477  59.2592197  62.5144143  66.8497006  59.4082303  63.1755591
  58.2044577  73.2115132  58.1303520  57.6201793  73.7165164  58.5369384
  57.8014672  72.9857519  57.3900112  58.0583881  73.2523381  58.0808546
  62.6621792  69.4580784  56.6072441  62.9017795  69.6658768  55.7947784
  62.9837633  68.6538293  56.7161386  62.7458950  69.3694885  56.5032994
  57.9712082  61.3874180  60.4531979  58.7258050  61.7552497  60.2149029
  57.7939617  61.7613734  61.2211159  58.0566560  61.4972368  60.5316867
  56.3269147  63.7944499  57.1510092  56.1444720  64.0116380  56.3251085
  57.1894760  63.9083512  57.2068706  56.4273736  63.8434397  57.0364579
  62.0068866  60.7970910  60.1859116  62.7355026  60.6186865  59.7397272
  62.0963759  61.6388989  60.3966294  62.1275528  60.8954788  60.1512633
  55.8731174  67.0718672  55.6632565  55.1589351  66.7856851  56.0754997
  56.3575142  67.4115297  56.3038952  55.8390537  67.0800321  55.8188200
  63.0478492  75.5748626  56.0394373  63.4629640  75.2433649  55.3478869
  62.2170421  75.3417528  55.9114510  62.9866500  75.4919882  55.9185221
  65.7411882  71.8259185  55.2255575  65.6592044  71.8961372  56.0910562
  66.3791602  72.3888929  55.0339315  65.8231719  71.9198156  55.3245524
  47.8196584  68.7897760  63.1939436  47.9056836  68.4129629  63.9752966
  48.4472381  68.4158206  62.7159395  47.9253135  68.6783242  63.2384914
  62.8451992  71.8479639  58.2364181  63.6592631  72.1394532  58.1246952
  62.7811133  71.1939502  57.6622474  62.9554731  71.7944834  58.1353018
  59.3562715  70.5403447  57.7011383  59.7407868  70.3211153  58.4527928
  59.1074336  71.3666392  57.8312459  59.3764788  70.6301593  57.8312459
  57.0763153  62.2100383  63.0320163  56.2085578  62.2822983  63.0977772
  57.3638357  63.0122462  63.2208138  56.9902901  62.3394530  63.0694930
  55.0030505  65.6858643  60.4737039  54.7155300  65.3159913  59.7368987
  55.6900973  66.1553498  60.2120744  55.0619402  65.7005612  60.3252115
  57.8384176  69.5511591  61.9204444  58.5606828  69.7152749  61.4608250
  57.3592169  70.2721256  61.8143784  57.8747907  69.6809820  61.8370058
  64.2446962  62.7860767  62.0328745  64.9473315  62.5868515  61.5548703
  63.9791151  62.0136709  62.3397588  64.3093594  62.6423733  62.0074187
  52.5758699  66.4639855  61.3222320  52.6774836  67.2666016  61.6503296
  53.3714586  66.2627191  61.0245401  52.7086605  66.5525754  61.3257676
  66.3907071  57.4241436  65.1625292  66.5090639  57.8817900  64.4292594
  66.2169247  56.6186697  64.8761509  66.3826242  57.3735208  65.0126225
  64.2828014  75.0641439  53.5779986  65.0500999  75.1241564  53.1685838
  63.8359323  74.4921881  53.0936305  64.3301441  74.9878015  53.4457697
  52.8535754  69.0833065  62.5101714  53.2334719  69.5017610  61.8461982
  52.2791119  69.6646521  62.8170558  52.8247079  69.2310924  62.4578455
  63.3584635  59.2792239  66.1043954  62.4878193  59.2530960  66.0577263
  63.6124976  59.1069431  65.2869799  63.2678195  59.2502382  65.9764090
  60.3302614  71.3360206  55.0417097  60.6195139  72.1125088  55.3160671
  60.4174413  70.8248937  55.7431596  60.3856871  71.3752124  55.1859594
  59.3649317  65.8875389  60.9559508  59.6409052  65.1694302  60.5437076
  59.9647987  66.4860309  60.7480614  59.4942582  65.8695760  60.8640269
  62.8659838  63.5588907  59.2306103  63.3203584  63.7299467  59.9553948
  63.3399884  62.9457017  58.8303879  63.0028158  63.4939792  59.2779865
  60.2072858  70.2631441  60.3351110  60.9514903  70.6505717  60.5734060
  60.3533554  69.4188866  60.4991598  60.3383443  70.1961914  60.3945080
  62.1252433  62.0581700  65.3682972  61.2788478  62.2304508  65.2424321
  62.1223566  61.2531043  65.7048800  61.9999583  61.9642729  65.3994099
  65.1234233  66.7293469  59.2970783  64.5957252  66.8122213  58.6076492
  65.5829942  67.4711340  59.2935428  65.1136084  66.8514131  59.1945479
  57.1167299  64.9995988  54.3211679  56.7680103  65.6515714  54.7843228
  56.6363744  64.9853101  53.5935550  56.9937543  65.0939042  54.2822770
  57.4891207  67.6254519  59.8337723  57.6294168  68.1226983  60.5366364
  57.9873740  66.9240813  59.9751937  57.5832288  67.5956498  59.9589302
  57.5191430  68.4921630  57.1630300  58.1536509  69.0882055  57.0979762
  57.6017040  68.1925087  57.9776170  57.6247981  68.5362538  57.2733386
  59.0970413  64.4235605  57.1375742  59.4186254  63.9438688  56.4835004
  59.3597356  65.2335251  56.9466554  59.1836438  64.4725503  57.0131234
  54.0244418  70.6889471  60.4319846  54.5336647  71.2853978  60.8131151
  54.4978690  70.4215444  59.7496266  54.1687793  70.7375286  60.3874369
  62.9323790  60.2822899  62.9089798  62.2892108  60.1320545  63.4774936
  62.5923197  60.0365244  62.1438903  62.7868868  60.2235021  62.8792813
  56.3834949  67.3245729  63.2993026  55.6646938  67.7409862  63.5665890
  56.7547312  67.8899968  62.7484665  56.3326881  67.4695011  63.2575833
  62.1581524  66.3643729  58.6366406  61.5646363  66.6860725  58.0850973
  62.1956801  65.5184824  58.4287512  62.0755913  66.2868057  58.5249177
  58.0884103  64.8599780  63.3622352  58.5641469  65.2216860  62.7272533
  57.5872702  65.5156247  63.6422494  58.0849462  65.0093969  63.3099093
  60.1310756  67.0040980  56.7295736  60.5109721  67.0220609  55.9446850
  59.3903352  67.4494968  56.6086583  60.0779594  67.0722754  56.5959304
  60.9295510  73.8418486  58.1204526  60.1206833  73.5185159  58.0737835
  61.4370419  73.1351708  58.0532774  60.8845177  73.6899802  58.1034820
  60.1229927  63.2302508  59.4123367  60.9445621  63.4000821  59.1705062
  59.6599578  63.3849769  58.6889665  60.1761089  63.2784241  59.2695012
  36.6133729  -0.2270618  48.1805764  36.5827734   0.6274019  48.3524034
  37.2115078  -0.5275325  48.7391908  36.6970887  -0.1454121  48.2880567
  29.8133414  -1.1394967  52.9358695  28.9571310  -0.9786468  52.9867812
  29.8601068  -2.0102903  52.9563756  29.6932526  -1.2444165  52.9464761
  24.1974554   8.3967751  48.6995926  23.4457454   8.0183290  48.4711971
  24.6460566   8.4286185  47.9514737  24.1524221   8.3453358  48.5553429
  33.1227131   5.1291559  62.5419151  33.8293898   4.6343590  62.6706085
  33.3115066   5.5700640  61.8121809  33.2555036   5.1209909  62.4528196
  29.6499514   8.8193121  44.1281474  29.3150882   9.4970042  43.6925696
  30.1626384   8.4298432  43.5398345  29.6765095   8.8617699  43.9768265
  29.1903805  10.7707389  50.0692585  29.5743184  11.3394288  49.5297360
  29.1262946  10.0456900  49.5898401  29.2377232  10.7482853  49.9186448
  32.6585235   0.9197077  55.5790346  33.2041195   1.5982164  55.6384316
  32.6002112   0.7784538  54.7191928  32.7301150   0.9989079  55.4602407
  25.7759310   8.4086143  50.9658699  25.8769673   7.5986497  51.2755827
  25.1801055   8.3143090  50.3358377  25.7031849   8.2751171  50.9184937
  34.4350304   2.3481684  46.4524074  34.3189830   3.0989370  46.8816212
  35.2306191   2.0905638  46.7020161  34.5354893   2.4216531  46.5528166
  25.6160050  13.3263733  52.3673555  26.2597505  13.7676897  52.7569713
  25.9416305  12.5217159  52.2803814  25.7591878  13.2728927  52.4119032
  18.9724354   4.4306430  50.5911033  18.7374539   3.5974082  50.4843301
  19.1109995   4.7111096  49.7772234  18.9580017   4.3489933  50.4553388
  26.3180629   6.3375707  47.7393417  26.6396471   6.8780915  47.1354725
  26.9652726   5.7672479  47.8715706  26.4606685   6.3334883  47.6700452
  28.3682338  -1.6608298  47.8227803  29.0662502  -1.4820170  48.3149267
  28.6834670  -2.1837958  47.1998193  28.5177675  -1.7114526  47.8029814
  20.9983575   0.1444442  55.7338909  20.8742272   0.7306888  56.3688728
  21.6501859  -0.3495362  56.0351184  21.0757224   0.1583247  55.8724839
  28.5570273   4.7262147  47.8107595  28.9963908   4.1179248  48.2562368
  28.4074936   4.3469521  47.0393060  28.5991739   4.5800618  47.7626762
  26.0241916   3.3206159  55.0126420  26.6690918   2.8278602  54.6937369
  26.2643693   3.4630946  55.8392499  26.1552501   3.2683601  55.0875954
  28.5628007   6.1661065  54.6633313  28.8451250   5.3712471  54.4420069
  29.2914168   6.6441653  54.6838374  28.7117571   6.1195662  54.6336328
  32.1579609   3.0789329  44.7638364  32.0730905   3.9350295  44.9087933
  32.6463993   2.8033653  45.4320523  32.2168507   3.1646650  44.8840446
  33.0898043  -0.3025877  46.2636099  32.5609514  -0.0866244  46.9233405
  33.6123063   0.3910261  46.1837069  33.0886496  -0.1682740  46.3491698
  38.5446096   5.2720427  51.6369144  37.7143799   5.4831071  51.8002560
  38.4955348   4.4457482  51.3611427  38.4152831   5.1810034  51.6206509
  24.9797650   3.5937340  45.0643567  24.3954866   4.0987371  45.4709431
  24.5767746   3.3679727  44.3240159  24.8336954   3.6345588  45.0148592
  20.5341679   9.3092101  51.8667239  20.0509257  10.0342590  51.8426822
  21.3464997   9.6068231  51.9777396  20.5832427   9.4594454  51.8794518
  26.6055833   8.1024281  54.4717053  26.0882775   7.7431696  53.8678361
  27.3030224   7.5786456  54.4823119  26.6321414   7.9721969  54.3847312
  30.2619425   8.5519096  60.4333226  30.3502771   8.3645236  61.2811437
  30.6909138   7.9056525  60.0338073  30.3381528   8.4282103  60.5004978
  27.8289885   7.8350255  59.4150888  27.2660720   7.4222865  59.9390550
  28.5910908   7.7603161  59.8344032  27.8584334   7.7627656  59.5543889
  29.4374865  -0.1597008  43.5412488  29.6770869   0.0480975  42.7287831
  29.7590706  -0.9639500  43.6501432  29.5212023  -0.2482907  43.4373041
  23.3885876   9.8248277  52.0187519  24.0906456   9.3100266  52.0760275
  23.3083359  10.1522428  52.8234394  23.4809637   9.7962503  52.1460311
  38.0400054  -2.0809172  55.4319565  37.2028475  -2.0106985  55.6667160
  38.0088285  -2.0784677  54.5593867  37.9118336  -2.0698945  55.3379113
  22.7136652   6.0154629  51.5273127  23.5525551   6.2477561  51.5746888
  22.7448421   5.1458940  51.4580162  22.8418369   5.9211575  51.5237771
  23.3389355   6.4355504  55.8286432  23.8787580   6.2926635  56.4989805
  22.6559301   6.8352255  56.1970458  23.3181509   6.4735175  55.9820854
  32.7630240   2.1146504  51.0231457  33.5187755   2.5478019  51.0620365
  32.8692564   1.4651274  51.5966093  32.8900410   2.0823988  51.1129482
  35.8010411   5.9419782  51.7733859  35.3645643   5.9456524  52.5292831
  35.4673326   6.6225281  51.3413437  35.6873031   6.0432237  51.8214692
  30.3739484   7.9828115  63.0977010  31.1579901   8.0958962  63.4632752
  30.1736079   7.1569252  63.2935696  30.4605510   7.8774834  63.1811396
  18.7426500   2.6555795  55.9820854  18.4764915   1.8394911  56.1411844
  18.7565064   2.7008950  55.1116369  18.7051222   2.5412699  55.8774336
  22.6484247  -2.5459121  42.5972612  21.9342424  -2.8320941  43.0095044
  23.1328216  -2.2062495  43.2378999  22.6143610  -2.5377471  42.7528247
  30.5309878   9.8938217  56.7443465  29.7325124   9.6537717  57.0017334
  30.9795889   9.9452609  57.4910513  30.4784489   9.8660608  56.8928390
  38.9354757   2.6600702  50.6653497  39.5971191   2.0991370  50.5649405
  38.2946169   2.1652732  50.9906188  38.9383625   2.5037111  50.6985837
  29.8231565   5.9570833  42.9734420  30.2382713   5.6255857  42.2818916
  28.9923494   5.7239735  42.8454557  29.7619573   5.8742089  42.8525267
  19.1519914   3.4414574  53.2632598  18.9695487   3.4161460  52.4104890
  19.8869582   3.9113512  53.3021507  19.2333977   3.5075936  53.1430516
  35.2219588   3.6766084  50.4065486  35.4575177   3.8211283  49.5792336
  35.3709151   4.4408492  50.7996999  35.2785391   3.8105138  50.3429089
  37.0510044   2.5167750  48.2435089  37.3818262   3.0495390  47.6375184
  37.6243133   2.5706638  48.8997040  37.1843724   2.6037319  48.2512871
  32.2641934   0.3632653  48.9258669  32.3588788   1.1021947  49.3798295
  31.6400777  -0.0649872  49.3593234  32.1850964   0.4093973  49.0566817
  30.5194407   3.5418865  59.5748950  31.0933269   2.9046109  59.7297514
  30.4409211   3.5422948  58.7058608  30.5927642   3.4483977  59.4695361
  19.1190824   0.3208075  53.4131665  19.6964327   0.1844525  54.0523910
  18.4204886  -0.1356141  53.6677249  19.1011845   0.2330341  53.5453954
  32.5164955   2.2081392  42.1595621  32.4345117   2.2783580  43.0250608
  33.1544675   2.7711136  41.9679362  32.5984792   2.3020364  42.2585571
  25.8758126   1.9742130  51.6270148  25.6177370   1.1413865  51.6001447
  25.9306609   2.1999743  50.7862648  25.8457904   1.8839902  51.4990285
  24.8492838  -0.4720107  52.1135042  24.2742429  -0.3127939  52.7499003
  24.4728515  -1.1084698  51.6503493  24.7095651  -0.5422294  52.1389601
  28.5166127  -1.9996758  56.9727421  28.1280560  -2.4242540  56.3179612
  27.8520825  -1.7514608  57.4804448  28.3613055  -2.0258037  56.9515289
  29.6205065   2.2301847  45.1704228  30.4345704   2.5216740  45.0586999
  29.5564206   1.5761709  44.5962521  29.7307804   2.1767041  45.0693065
  35.8414555   4.9127843  59.5833804  35.6053193   4.0815908  59.4645864
  36.4857784   4.8613450  60.1688648  35.9009226   4.7825531  59.6519697
  25.4912973   5.7023364  50.2976540  26.1286920   5.4635112  50.8428333
  25.9168045   5.9060523  49.5629701  25.6489140   5.6974374  50.2693697
  20.1825616   7.9411701  54.1810844  20.2229761   8.2126552  53.3530623
  20.7420140   8.4653609  54.5968632  20.2708962   8.0587456  54.1202732
  26.1315788   0.9225654  44.6351429  26.5160941   0.7033361  45.3867974
  25.8827409   1.7488599  44.7652506  26.1517861   1.0123800  44.7652506
  36.8650976   4.6972292  55.6462098  36.5596793   5.4300348  56.0075414
  36.1457192   4.2910221  55.3654884  36.7138318   4.7454025  55.6575235
  27.8734445   6.1795787  51.9770326  27.9473454   6.0170959  52.8312176
  28.6903952   6.3685976  51.7330808  28.0050804   6.1832529  52.0668352
  42.5652768   1.3365292  54.9730442  42.4977268   1.3561251  54.1033029
  42.5508430   2.1795620  55.1986113  42.5531524   1.4639027  54.8782919
  21.6340202   6.5253650  49.0064770  20.8078320   6.7715387  48.8799049
  21.6952193   6.4465730  49.8726828  21.5214369   6.5498599  49.1153714
  26.4139031   9.1430530  46.7083800  26.7037329   8.7519511  45.9843026
  27.1442512   9.3247235  47.1489075  26.5645915   9.1124344  46.6666607
  40.3511385   0.1109679  53.2477037  40.9019307  -0.5222252  53.4874129
  40.3355501   0.6425071  53.9392541  40.4296582   0.0958627  53.3855895
  27.0033776   3.9448276  57.7936930  26.5045470   4.6564043  57.8721819
  27.8134001   4.2648942  57.7555093  27.0489883   4.0975124  57.7993499
  24.3544947  11.1197912  49.7743949  24.1345242  10.8295267  50.5670616
  24.1339469  10.4612867  49.2461862  24.2892541  10.9797621  49.8132858
  23.2661894   3.2071229  52.0399651  22.9775142   2.5808700  52.5745378
  24.1345242   3.1491516  52.1064332  23.3522146   3.1058773  52.1290606
  34.0539792  -1.6493988  52.3581633  33.7104557  -2.3703653  52.7088883
  34.1532834  -1.8580137  51.5159991  34.0181834  -1.7869785  52.2853313
  26.5212902  12.4927302  48.5574642  27.1736960  11.9603745  48.7865668
  25.8238511  12.1395955  48.9442516  26.5143620  12.3616825  48.6486810
  23.4694167   4.8466480  47.9642016  24.2240135   5.2279519  48.1777479
  22.8764780   5.2977623  48.4188713  23.4930881   4.9695307  48.0624895
  34.5152821   4.8131716  47.9005621  35.0810853   5.4724926  47.8164164
  33.8680724   5.1581414  48.3722023  34.5031577   4.9613658  47.9578378
  24.7892394   6.0175041  53.3382132  24.2673147   6.1575333  54.0233996
  25.1766414   5.2585705  53.5284249  24.7696095   5.9260565  53.4683208
  30.9859399   7.7570500  47.3242700  30.7446075   7.0238361  46.9169765
  31.1660732   8.3057357  46.6709034  30.9767023   7.7292892  47.1672923
  26.2158719   3.0479060  48.7363623  26.0201502   3.6553795  48.1423926
  26.4393065   2.3547004  48.2555296  26.2193360   3.0356586  48.5779703
  24.6137249  -0.0666202  48.8544491  25.3359901   0.0974956  48.3948297
  24.1345242   0.6543463  48.7483831  24.6500980   0.0632028  48.7710105
  32.5730757  -3.7302403  54.2341176  31.7341858  -3.7041124  53.9979439
  32.6435124  -3.0831668  54.8146522  32.4599150  -3.6306277  54.2850293
  22.2644866   2.3391871  57.9598631  22.7765963   2.6176124  57.3107391
  21.9781209   3.0781165  58.3261444  22.2979729   2.4894224  57.9188509
  36.4488281   1.4765584  51.5202418  36.3622255   1.6321010  52.3737196
  35.9938761   2.1203659  51.1461823  36.3691537   1.5941339  51.5909524
  30.3214097  -1.2023669  50.1427977  30.0748811  -1.2827918  50.9764766
  30.6499220  -1.9870201  49.9490505  30.3335340  -1.3297404  50.2375500
  34.2162146   5.5059690  53.9314758  34.0776505   6.2040736  54.4363501
  33.4362144   5.3508347  53.5750940  34.0805373   5.5859857  53.9541032
  32.5540231   1.8056066  60.1837140  32.5488269   0.9335882  60.1879566
  33.2601225   2.0044235  59.7106596  32.6585235   1.7059940  60.1144175
  26.2811124   1.5333049  59.5550960  26.4254500   2.1134258  58.9194070
  26.6286773   1.9109346  60.2600815  26.3538586   1.6753753  59.5649955
  28.4531042   0.7323218  57.3376092  27.7054356   0.9254232  56.9324370
  28.6072567  -0.0931563  57.1000213  28.3653469   0.6388329  57.2421498
  25.3538879   9.7235821  56.4211987  25.5028443   9.1638737  55.7685391
  26.1338881   9.8027823  56.8044506  25.4912973   9.6521387  56.3808936
  35.7115519   4.8637944  44.6931258  35.3322327   4.0775082  44.6860547
  35.0481764   5.4124801  44.5502902  35.5573993   4.8282768  44.6712054
  27.8792180   9.8950464  57.6996478  27.8035851   9.2259275  58.2547266
  27.8082039  10.5968252  58.2137144  27.8572787   9.8995371  57.8573326
  28.5362427   8.4151463  48.5320084  29.3012318   8.1461107  48.2102748
  28.4340517   7.9301473  49.2490147  28.6343922   8.3041028  48.5899911
  26.5715196  -3.3824128  55.0713320  25.7811271  -3.5632667  55.3930655
  26.9675819  -4.1597175  55.0543614  26.5132073  -3.5236667  55.1165868
  31.0581087   5.4463647  40.5120033  31.8254072   5.5063772  40.1025885
  30.6112396   4.8744088  40.0276352  31.1054514   5.3700222  40.3797743
  31.9558883   4.2518303  52.7972765  31.2803885   4.0203535  53.2986152
  31.9651259   3.6439485  52.1714870  31.8577387   4.1277228  52.7788918
  29.0853027  -0.9063868  59.5536818  29.0212168  -0.0453912  59.4256955
  29.2250214  -1.2231875  58.7532370  29.0968497  -0.8263702  59.4165031
  33.9575617   7.1083435  45.0282943  34.0395455   7.9150421  44.7044394
  34.4425360   7.1279394  45.7523717  34.0412775   7.2304097  45.0869842
  27.7672121   1.7868271  53.6953021  27.3434370   1.9872770  52.9592040
  27.5916976   0.9397119  53.8077321  27.6783001   1.6917052  53.6026711
  27.2683814  13.3018784  56.1574479  27.7579744  12.6029573  55.9750143
  26.6968046  13.0042654  56.7450536  27.2568344  13.1545008  56.2175519
  23.0554566   2.2820322  49.1280994  23.2119185   2.2167125  49.9836986
  23.3955159   3.0568875  48.9159673  23.1287800   2.3869520  49.2235588
  29.5933710   1.6578206  47.9974357  30.1349256   1.1548587  48.4612978
  29.9080269   1.6043401  47.1863842  29.7198107   1.5757627  47.9458169
  33.4650818   5.8680853  65.1101269  34.2785683   5.5966002  65.2706402
  33.3045784   5.5688393  64.3061465  33.5620766   5.7835779  65.0146675
  27.7620160   7.0495557  45.2814385  27.8312980   6.1910096  45.4207385
  28.5408615   7.2667438  44.9533410  27.8873010   6.9548421  45.2531542
  30.7422980  -3.4485490  58.0496658  30.9564949  -4.0874575  57.4960012
  30.1256879  -3.0039666  57.6204519  30.6828309  -3.4775346  57.9047089
  32.1527648   9.4733259  49.4950878  31.7607439   9.1699974  48.7773745
  32.3080720  10.3102349  49.3055832  32.1181237   9.5517095  49.3607376
  19.6288827  -0.5344727  49.4441761  20.0087792  -0.1160182  48.7802028
  19.0544192   0.0468728  49.7510604  19.6000152  -0.3866868  49.3918502
  32.9062068  -1.8396424  58.9879965  32.0938749  -2.1470534  59.0693137
  33.3652002  -2.3197424  59.5522677  32.8542452  -1.9559932  59.0834559
  32.3167322   6.0383248  49.4356909  31.9581977   6.2097890  50.2120941
  31.8306033   6.4996453  48.8784907  32.1926019   6.1322219  49.4682178
  27.1055688   1.7182413  41.9757143  27.3948213   2.4947295  42.2500718
  27.1927487   1.2071144  42.6771643  27.1609944   1.7574331  42.1199641
  33.4772062   6.9287143  60.3824110  34.1151782   6.4347339  60.0486566
  32.8346153   6.8564544  59.7976337  33.4766288   6.8446152  60.2466465
  35.2029062  -1.2223711  54.9490025  34.7756670  -1.3097362  54.1938125
  34.5655115  -1.1145935  55.5344870  35.0458669  -1.2191051  54.9235467
  33.5326318   7.6206952  57.0229467  34.3218696   7.2696016  57.1431548
  33.7069916   8.4343340  56.7606100  33.6746600   7.6892809  57.0017335
  23.2719629   1.0315678  54.0757255  22.4307635   0.9319552  54.2836149
  23.4809637   1.8011158  54.4271576  23.1784321   1.1307721  54.1584570
  20.7495196  -1.3464786  51.9042006  20.3551893  -1.2721774  51.1292116
  20.1935312  -0.9606839  52.4550368  20.6098008  -1.2783011  51.8709666
  27.0836294  -1.0402923  53.3254853  26.7799431  -1.5946935  53.9265261
  26.3815714  -0.8610713  52.8382887  26.9352503  -1.0958141  53.3424559
  26.1402391  -3.7302404  47.8899555  26.4162125  -4.4483491  47.4777122
  26.7401060  -3.1317484  47.6820661  26.2695655  -3.7482033  47.7980316
  25.1454645   6.1746797  58.0326951  25.0374999   6.1848860  58.8989009
  25.3550426   7.0001578  57.8431905  25.1604756   6.2987872  58.1331042
  23.1628437   3.4259440  55.4948888  22.5716370   4.0668938  55.4651903
  23.9249460   3.8497057  55.4680188  23.1876697   3.5835278  55.4864036
  39.2818858   3.2565210  56.4926167  39.3401982   3.7051858  57.2386143
  38.6485326   3.6664022  56.0556247  39.1970153   3.3838944  56.5378715
  32.9217953   8.8768751  52.9280913  32.7237641   9.3659566  52.2337124
  32.3005664   9.0809993  53.5065046  32.8005517   8.9785290  52.9104136
  26.9825931   0.6453648  47.2691157  27.7267976   1.0327925  47.5074107
  27.1286627  -0.1988926  47.4331645  27.1136516   0.5784121  47.3285127
  29.9703807  -3.7820878  53.1685076  29.4963761  -4.3079116  53.6790387
  30.3421943  -4.3291406  52.5999938  29.9553696  -3.9404882  53.1600224
  36.2340538   1.2781497  54.5791857  35.9938760   0.4387912  54.5834283
  36.7132545   1.3581664  55.3032630  36.2692721   1.1662897  54.6866659
  31.8987307  -2.8884324  46.2310830  31.3710325  -2.8055580  45.5416539
  32.3583015  -2.1466452  46.2275475  31.8889157  -2.7663661  46.1285525
  38.2345725  -1.9417046  52.5321116  37.9955495  -1.9821211  51.6941901
  38.3979626  -1.0945894  52.6586837  38.2236028  -1.8224961  52.4274598
  34.8391755   2.4432904  58.4626161  35.5625954   1.9905430  58.2837181
  34.5741717   2.7237569  57.6798489  34.9073028   2.4183872  58.3204877
  23.7078623  -2.9606923  55.1979040  23.0831693  -2.9488531  54.5904993
  23.3724218  -2.4846748  55.8470281  23.5664115  -2.8888406  55.2035609
  20.4204299   5.0993537  56.6382805  19.8904223   4.4085976  56.6877779
  20.6929392   5.0903723  55.8095513  20.3829021   4.9960669  56.5230221
  31.4524389   5.6819240  45.3620487  32.1758588   6.1477353  45.2185061
  31.0124980   5.7492849  44.6118084  31.4940081   5.7603076  45.2305269
  30.6210544   2.5416782  56.6121176  30.0067537   1.9974832  56.9069812
  31.1377829   2.0281018  56.1326992  30.6066207   2.3853191  56.5845405
  29.8606841   3.6121052  54.3465475  29.4334449   2.9870771  53.9130910
  29.8531786   3.3295974  55.1724482  29.7965983   3.4773833  54.4045302
  15.7000141   1.7721301  53.9951153  15.5943590   1.7268146  53.1303237
  14.9500361   2.1175082  54.2765438  15.5735744   1.8162210  53.9088483
  25.8908237  -0.2678865  56.2387652  25.0600166  -0.1005047  56.0322900
  25.8359754  -0.6442915  57.0236537  25.7597652  -0.2989134  56.3236180
  24.2644280  -1.9923274  46.7677770  24.4047242  -1.4950810  47.4706411
  24.7626813  -2.6936979  46.9091984  24.3585361  -2.0221295  46.8929349
  24.2944503  -1.1256163  44.0970347  24.9289582  -0.5295738  44.0319808
  24.3770114  -1.4252705  44.9116217  24.4001054  -1.0815255  44.2073433
  37.2727069   1.4059315  56.9656711  37.8644909   2.0456565  56.9974909
  37.7086063   0.7082351  57.2548778  37.4245500   1.3977665  57.0137544
  25.8723486  -5.1942187  44.0715789  26.1939327  -5.6739105  43.4175051
  26.1350429  -4.3842541  43.8806600  25.9589511  -5.1452290  43.9471281
  29.1020459   5.8276687  57.5914605  28.5945550   6.3812534  58.0355235
  28.8047105   5.8884977  56.7733379  28.9825343   5.9182998  57.5363062
  20.7997491   1.0711678  47.3659893  21.3089720   1.6676185  47.7471198
  21.2731763   0.8037652  46.6836312  20.9440866   1.1197493  47.3214415
  31.7128239   9.7439945  45.5218548  30.9957549   9.5700807  45.0565786
  32.3634976   9.5092517  44.9894034  31.7030089   9.6835737  45.3747766
  34.2976210  -1.3795467  49.2659853  33.6267400  -0.8365765  49.1372919
  34.9915960  -0.9100612  49.0241548  34.3005078  -1.2297196  49.2115381
  28.3462944  10.7601245  54.4971612  28.1228598  10.0020074  54.8655638
  27.8572787  10.7899266  53.7752051  28.2406393  10.6523470  54.4448353
  23.1588023  -2.2932064  50.2333073  22.4400012  -1.8767931  50.5005937
  23.5300385  -1.7277825  49.6824711  23.1079954  -2.1482782  50.1915880
  32.4587603  -1.6604215  56.1235069  32.4385531  -1.8420919  56.9769848
  32.5066804  -0.7892196  56.0994653  32.4622244  -1.5587676  56.2458364
  30.4033933   4.9282977  62.0483545  30.3629788   4.2832654  61.4628701
  31.2157251   4.8719595  62.3608957  30.5177087   4.8241944  62.0080495
  26.9941401  10.9801703  51.9508696  26.5801799  10.3175833  51.5612538
  27.6788775  11.1279562  51.4304390  27.0339772  10.9042361  51.8165193
  30.3606695  10.1391789  52.7032313  29.9622978  10.2494059  51.9353133
  29.7457914  10.3473855  53.2858873  30.2105584  10.1865357  52.6763612
  28.9334597  -3.2534064  45.5706453  28.3399436  -2.9317067  45.0191020
  28.9709875  -4.0992968  45.3627559  28.8508986  -3.3309735  45.4589224
  31.8092413  -3.2954559  49.0008203  31.5806106  -3.2721858  48.1586561
  32.0690490  -4.1197092  49.1203213  31.8138601  -3.4138479  48.8933401
  24.8637176  -4.7578013  50.2962399  25.3394542  -4.3960933  49.6612580
  24.3625776  -4.1021545  50.5762541  24.8602535  -4.6083824  50.2439139
  38.0948538   4.7143755  46.0875404  38.4782143   5.4635111  46.3173501
  37.2992651   4.9609575  45.8287393  38.0342320   4.8613449  46.0832977
  26.9063829  -2.6136813  43.6635782  27.2862794  -2.5957184  42.8786897
  26.1656425  -2.1682824  43.5426630  26.8532667  -2.5455038  43.5299351
  32.2589972   0.3742880  52.9047568  32.7543637  -0.3434125  52.8651588
  31.4489747   0.0713678  52.7902055  32.2133865   0.2240526  52.8821294
  27.7048583   4.2240693  45.0544572  26.8959906   3.9007367  45.0077882
  28.2123492   3.5173915  44.9872821  27.6598250   4.0722010  45.0374867
  18.3338860   1.6512886  50.7791937  17.4684380   1.6398577  50.6674708
  18.4337676   1.4643109  51.6263076  18.2213027   1.6218948  50.8880881
  34.3241791   3.1246567  55.5924697  34.7496862   2.6020989  55.0395122
  33.9598710   3.7227405  55.0713320  34.3328393   3.1356794  55.4333707
  23.9595870  11.4210785  54.3522042  24.2742429  12.2347173  54.3599824
  24.3689284  11.0361004  55.0204201  24.0663968  11.4839487  54.4526134
  30.9120390   6.8380832  51.9225854  31.3831568   7.5521094  52.0915839
  31.2480569   6.2379582  52.4585724  31.0315505   6.8552296  52.0258230
  32.9997375   8.4482145  64.1017926  33.1094340   7.6590706  64.4574674
  33.3288271   8.3588081  63.2992264  33.0649780   8.3187998  64.0360317
  31.5494336   6.6298766  58.6853547  31.0015282   6.0056650  58.4173612
  32.0107365   6.8193038  57.9697626  31.5361546   6.5657816  58.5403978
  21.3008890   5.3683893  54.0000651  21.9053748   5.3279728  53.3714471
  21.0936203   6.2155045  54.0304707  21.3597788   5.4871896  53.9116767
  31.1152663   7.6349839  55.2162888  31.9351036   7.4912805  55.4779183
  30.8346740   8.2596037  55.7579326  31.1949406   7.7060191  55.3350828
  16.5360173   4.3518511  53.8699574  16.4384451   3.5414782  54.1789631
  17.3189042   4.3310304  53.4845842  16.6376309   4.2285601  53.8586437
  40.7865998  14.3790341  52.9358695  39.9303893  14.5398840  52.9867812
  40.8333652  13.5082405  52.9563756  40.6665109  14.2741143  52.9464761
  44.0959714  20.6476867  62.5419151  44.8026482  20.1528898  62.6706085
  44.2847650  21.0885948  61.8121809  44.2287620  20.6395217  62.4528196
  43.6317819  16.4382385  55.5790346  44.1773779  17.1167472  55.6384316
  43.5734695  16.2969846  54.7191928  43.7033733  16.5174387  55.4602407
  36.5892633  28.8449040  52.3673555  37.2330089  29.2862205  52.7569713
  36.9148889  28.0402467  52.2803814  36.7324462  28.7914235  52.4119032
  29.9456938  19.9491738  50.5911033  29.7107122  19.1159390  50.4843301
  30.0842579  20.2296404  49.7772234  29.9312600  19.8675241  50.4553388
  32.2447025  12.1177469  53.4895340  31.6252057  11.5270116  53.3205355
  32.1430889  12.7088904  52.8559664  32.1384701  12.1181551  53.3700330
  39.3414921  13.8577010  47.8227803  40.0395086  14.0365138  48.3149267
  39.6567254  13.3347350  47.1998193  39.4910258  13.8070782  47.8029814
  31.9716158  15.6629750  55.7338909  31.8474855  16.2492196  56.3688728
  32.6234443  15.1689946  56.0351184  32.0489808  15.6768555  55.8724839
  39.5302856  20.2447455  47.8107595  39.9696492  19.6364556  48.2562368
  39.3807519  19.8654829  47.0393060  39.5724322  20.0985926  47.7626762
  36.9974499  18.8391467  55.0126420  37.6423502  18.3463910  54.6937369
  37.2376277  18.9816254  55.8392499  37.1285085  18.7868909  55.0875954
  39.5360591  21.6846373  54.6633313  39.8183834  20.8897779  54.4420069
  40.2646751  22.1626960  54.6838374  39.6850155  21.6380970  54.6336328
  37.5141785   9.2269407  51.9049078  37.1845115   9.6780551  51.2352777
  36.8386786   9.1485570  52.4522084  37.3652221   9.2820542  51.8872301
  44.7218192   5.2154930  50.1498689  44.4071633   5.9058408  50.5819111
  44.2045134   5.1599712  49.4484189  44.5982663   5.3089818  50.1095638
  49.5178679  20.7905735  51.6369144  48.6876382  21.0016379  51.8002560
  49.4687931  19.9642790  51.3611427  49.3885415  20.6995342  51.6206509
  35.9530234  19.1122648  45.0643567  35.3687449  19.6172679  45.4709431
  35.5500329  18.8865034  44.3240159  35.8069538  19.1530896  45.0148592
  31.5074263  24.8277409  51.8667239  31.0241841  25.5527898  51.8426822
  32.3197581  25.1253539  51.9777396  31.5565010  24.9779762  51.8794518
  37.5788417  23.6209589  54.4717053  37.0615358  23.2617004  53.8678361
  38.2762808  23.0971764  54.4823119  37.6053998  23.4907277  54.3847312
  41.2352009  24.0704403  60.4333226  41.3235355  23.8830544  61.2811437
  41.6641721  23.4241833  60.0338073  41.3114111  23.9467411  60.5004978
  38.8022468  23.3535563  59.4150888  38.2393303  22.9408173  59.9390550
  39.5643492  23.2788469  59.8344032  38.8316917  23.2812964  59.5543889
  40.4107448  15.3588300  43.5412488  40.6503452  15.5666283  42.7287831
  40.7323289  14.5545808  43.6501432  40.4944606  15.2702401  43.4373041
  35.7197739   7.2881695  47.3872026  36.4743707   7.6560012  47.1489076
  35.5425273   7.6621250  48.1551205  35.8052217   7.3979883  47.4656914
  34.3618460  25.3433585  52.0187519  35.0639039  24.8285574  52.0760275
  34.2815943  25.6707736  52.8234394  34.4542220  25.3147811  52.1460311
  49.0132637  13.4376136  55.4319565  48.1761059  13.5078323  55.6667160
  48.9820868  13.4400631  54.5593867  48.8850920  13.4486363  55.3379113
  35.4097367  15.5809171  61.1467934  35.5817870  15.4715066  61.9953215
  35.9466724  16.2263577  60.9099126  35.5142370  15.6601173  61.2373030
  34.0754803   9.6952014  44.0850139  33.8930377   9.9123895  43.2591132
  34.9380416   9.8091027  44.1408753  34.1759393   9.7441912  43.9704626
  33.6869235  21.5339937  51.5273127  34.5258135  21.7662869  51.5746888
  33.7181005  20.6644248  51.4580162  33.8150953  21.4396883  51.5237771
  34.3121938  21.9540812  55.8286432  34.8520163  21.8111943  56.4989805
  33.6291885  22.3537563  56.1970458  34.2914092  21.9920483  55.9820854
  39.7554523   6.6978425  47.1199163  40.4840683   6.5194380  46.6737319
  39.8449416   7.5396505  47.3306341  39.8761185   6.7962303  47.0852680
  43.7362823  17.6331812  51.0231457  44.4920338  18.0663327  51.0620365
  43.8425148  16.9836582  51.5966093  43.8632994  17.6009296  51.1129482
  46.7742994  21.4605090  51.7733859  46.3378226  21.4641832  52.5292831
  46.4405910  22.1410589  51.3413437  46.6605614  21.5617545  51.8214692
  41.3472068  23.5013422  63.0977010  42.1312485  23.6144270  63.4632752
  41.1468663  22.6754560  63.2935696  41.4338093  23.3960142  63.1811396
  29.7159083  18.1741103  55.9820854  29.4497499  17.3580219  56.1411844
  29.7297648  18.2194258  55.1116369  29.6783806  18.0598007  55.8774336
  46.6940477   8.5018917  54.0163287  47.3366386   8.5717022  54.6025203
  46.9463498   7.8348140  53.5142829  46.8262609   8.4145266  54.0290567
  33.6216830  12.9726187  42.5972612  32.9075008  12.6864366  43.0095044
  34.1060799  13.3122813  43.2378999  33.5876194  12.9807837  42.7528247
  34.4657690  11.7119481  58.6287861  33.7729487  11.2416461  58.8748593
  35.0818017  11.4857785  59.2029569  34.4542220  11.6086613  58.7497014
  41.5042461  25.4123525  56.7443465  40.7057707  25.1723025  57.0017334
  41.9528473  25.4637917  57.4910513  41.4517073  25.3845916  56.8928390
  49.9087341  18.1786010  50.6653497  50.5703775  17.6176678  50.5649405
  49.2678753  17.6838040  50.9906188  49.9116208  18.0222419  50.6985837
  30.1252497  18.9599882  53.2632598  29.9428070  18.9346768  52.4104890
  30.8602166  19.4298820  53.3021507  30.2066561  19.0261244  53.1430516
  46.1952171  19.1951392  50.4065486  46.4307760  19.3396591  49.5792336
  46.3441735  19.9593800  50.7996999  46.2517975  19.3290446  50.3429089
  33.1898249  15.6784885  59.7714707  33.9138221  15.6637915  60.2579601
  33.2914385  16.3880240  59.2736675  33.3116458  15.7809588  59.7693493
  40.5643198  19.1583969  64.6363654  39.7716179  19.4727481  64.8216273
  40.6792125  19.3735438  63.7984438  40.4638609  19.2367806  64.5401988
  43.2374517  15.8817961  48.9258669  43.3321372  16.6207255  49.3798295
  42.6133361  15.4535436  49.3593234  43.1583547  15.9279281  49.0566817
  41.4926991  19.0604173  59.5748950  42.0665853  18.4231417  59.7297514
  41.4141795  19.0608256  58.7058608  41.5660226  18.9669285  59.4695361
  30.0923407  15.8393383  53.4131665  30.6696910  15.7029833  54.0523910
  29.3937469  15.3829167  53.6677249  30.0744429  15.7515649  53.5453954
  36.8490710  17.4927438  51.6270148  36.5909954  16.6599173  51.6001447
  36.9039192  17.7185051  50.7862648  36.8190487  17.4025210  51.4990285
  41.9291760   9.5955889  51.7274240  41.2248087   9.1065074  51.8858160
  41.9776734   9.6078363  50.8562685  41.8321811   9.5245537  51.6213580
  35.8225422  15.0465201  52.1135042  35.2475013  15.2057369  52.7499003
  35.4461098  14.4100610  51.6503493  35.6828234  14.9763014  52.1389601
  39.4898710  13.5188550  56.9727421  39.1013143  13.0942768  56.3179612
  38.8253409  13.7670700  57.4804448  39.3345638  13.4927271  56.9515289
  49.1321980  13.2763555  49.7475251  48.8758544  12.4643496  49.5573134
  49.9751294  13.2841122  49.5205438  49.2188005  13.1575552  49.6860068
  25.5682241  14.6905276  50.1279483  25.6542492  14.3137144  50.9093013
  26.1958038  14.3165721  49.6499441  25.6738792  14.5790758  50.1724960
  43.3125072   7.2163179  54.4851405  43.6935584   6.5341350  54.8719279
  42.5088356   6.9272781  54.3027070  43.2501534   7.0730227  54.5155461
  40.5937649  17.7487155  45.1704228  41.4078288  18.0402047  45.0586999
  40.5296790  17.0947017  44.5962521  40.7040388  17.6952349  45.0693065
  46.8147139  20.4313151  59.5833804  46.5785776  19.6001216  59.4645864
  47.4590368  20.3798758  60.1688648  46.8741810  20.3010839  59.6519697
  36.4645557  21.2208672  50.2976540  37.1019504  20.9820420  50.8428333
  36.8900629  21.4245831  49.5629701  36.6221723  21.2159682  50.2693697
  31.1558199  23.4597009  54.1810844  31.1962345  23.7311860  53.3530623
  31.7152723  23.9838917  54.5968632  31.2441545  23.5772764  54.1202732
  37.1048372  16.4410962  44.6351429  37.4893525  16.2218669  45.3867974
  36.8559992  17.2673907  44.7652506  37.1250445  16.5309108  44.7652506
  37.2716912   9.7217377  64.3514014  36.9570353  10.4916940  64.0883576
  36.9506845   9.1587633  63.7666241  37.1775831   9.7527646  64.2255364
  47.8383559  20.2157600  55.6462098  47.5329377  20.9485656  56.0075414
  47.1189775  19.8095529  55.3654884  47.6870902  20.2639333  55.6575235
  38.8467029  21.6981095  51.9770326  38.9206037  21.5356267  52.8312176
  39.6636535  21.8871284  51.7330808  38.9783388  21.7017837  52.0668352
  53.5385352  16.8550600  54.9730442  53.4709852  16.8746559  54.1033029
  53.5241014  17.6980927  55.1986113  53.5264108  16.9824335  54.8782919
  32.6072786  22.0438958  49.0064770  31.7810903  22.2900695  48.8799049
  32.6684777  21.9651038  49.8726828  32.4946953  22.0683907  49.1153714
  34.8248809   8.1107899  49.9660210  33.9571235   8.1830498  50.0317819
  35.1124014   8.9129977  50.1548185  34.7388557   8.2402046  50.0034977
  43.9481698   8.2585758  58.2971532  44.6935290   8.0695568  57.8834957
  43.5319003   8.7843996  57.7385388  43.9966672   8.3087903  58.1536105
  51.3243969  15.6294986  53.2477037  51.8751891  14.9963055  53.4874129
  51.3088084  16.1610379  53.9392541  51.4029165  15.6143935  53.3855895
  37.9766360  19.4633584  57.7936930  37.4778053  20.1749351  57.8721819
  38.7866584  19.7834250  57.7555093  38.0222467  19.6160432  57.7993499
  34.2394477  18.7256537  52.0399651  33.9507726  18.0994008  52.5745378
  35.1077825  18.6676824  52.1064332  34.3254729  18.6244081  52.1290606
  45.0272375  13.8691320  52.3581633  44.6837141  13.1481655  52.7088883
  45.1265418  13.6605171  51.5159991  44.9914418  13.7315523  52.2853313
  45.4885404  20.3317024  47.9005621  46.0543437  20.9910234  47.8164164
  44.8413308  20.6766722  48.3722023  45.4764161  20.4798965  47.9578378
  36.9033418  12.3214628  63.0899228  36.0933194  12.6272408  62.9789071
  37.3808105  13.0420210  63.2051812  36.8536897  12.4729229  63.0906299
  35.7624977  21.5360349  53.3382132  35.2405731  21.6760641  54.0233996
  36.1498998  20.7771013  53.5284249  35.7428678  21.4445873  53.4683208
  32.7516161  11.5866158  47.4077086  32.4640957  11.2167428  46.6709033
  33.4386630  12.0561013  47.1460791  32.8105059  11.6013127  47.2592162
  37.1891303  18.5664368  48.7363623  36.9934086  19.1739103  48.1423926
  37.4125649  17.8732312  48.2555296  37.1925944  18.5541894  48.5779703
  35.5869833  15.4519106  48.8544491  36.3092485  15.6160264  48.3948297
  35.1077826  16.1728771  48.7483831  35.6233564  15.5817336  48.7710105
  43.5463341  11.7882905  54.2341176  42.7074441  11.8144184  53.9979439
  43.6167708  12.4353640  54.8146522  43.4331734  11.8879031  54.2850293
  33.2377450  17.8577178  57.9598631  33.7498547  18.1361432  57.3107391
  32.9513792  18.5966473  58.3261444  33.2712313  18.0079532  57.9188509
  41.9932619   8.6868282  48.9668792  42.6958972   8.4876030  48.4888750
  41.7276808   7.9144224  49.2737635  42.0579251   8.5431248  48.9414233
  47.4220864  16.9950892  51.5202418  47.3354839  17.1506318  52.3737196
  46.9671344  17.6388967  51.1461823  47.3424121  17.1126647  51.5909524
  30.3244356  12.3647370  48.2562367  30.4260492  13.1673532  48.5843343
  31.1200243  12.1634706  47.9585448  30.4572262  12.4533269  48.2597723
  36.7561175   9.9503567  58.0199672  36.5644372   9.9658701  58.8699096
  37.6059771  10.1467241  57.9966327  36.8536897   9.9817918  58.1422967
  31.1408088  12.4794549  55.9983489  30.9993580  11.6278489  56.1227997
  31.4248651  12.5223209  55.1745695  31.1615934  12.3594299  55.8951113
  41.2946680  14.3161639  50.1427977  41.0481395  14.2357390  50.9764766
  41.6231804  13.5315107  49.9490505  41.3067924  14.1887904  50.2375500
  45.1894729  21.0244998  53.9314758  45.0509089  21.7226044  54.4363501
  44.4094727  20.8693655  53.5750940  45.0537956  21.1045165  53.9541032
  43.5272814  17.3241373  60.1837140  43.5220853  16.4521190  60.1879566
  44.2333808  17.5229543  59.7106596  43.6317818  17.2245248  60.1144175
  37.2543708  17.0518357  59.5550960  37.3987083  17.6319565  58.9194070
  37.6019356  17.4294654  60.2600815  37.3271169  17.1939061  59.5649955
  39.4263625  16.2508526  57.3376092  38.6786939  16.4439540  56.9324370
  39.5805150  15.4253745  57.1000213  39.3386053  16.1573637  57.2421498
  36.3271463  25.2421129  56.4211987  36.4761026  24.6824045  55.7685391
  37.1071465  25.3213131  56.8044506  36.4645556  25.1706695  56.3808936
  38.8524763  25.4135772  57.6996478  38.7768434  24.7444583  58.2547266
  38.7814623  26.1153560  58.2137144  38.8305370  25.4180679  57.8573326
  39.6665402  10.1459076  58.2271495  40.1238016  10.8783051  58.3544288
  39.7421731   9.7225542  58.9858751  39.7456372  10.1916314  58.3572572
  31.9098393  10.3924896  59.3160939  31.3740583   9.7805254  59.6321706
  31.9716158  10.9673032  59.9694606  31.8394026  10.3871824  59.4596366
  44.1392728   3.3248952  52.0965338  44.2576296   3.7825415  51.3632641
  43.9654904   2.5194213  51.8101556  44.1311899   3.2742724  51.9466272
  37.5447780  12.1361180  55.0713320  36.7543855  11.9552640  55.3930655
  37.9408403  11.3588133  55.0543614  37.4864656  11.9948641  55.1165868
  42.9291466  19.7703611  52.7972765  42.2536468  19.5388843  53.2986152
  42.9383842  19.1624793  52.1714870  42.8309971  19.6462536  52.7788918
  40.0585610  14.6121439  59.5536818  39.9944752  15.4731396  59.4256955
  40.1982798  14.2953433  58.7532370  40.0701080  14.6921606  59.4165031
  38.7404704  17.3053579  53.6953021  38.3166953  17.5058078  52.9592040
  38.5649559  16.4582427  53.8077321  38.6515585  17.2102360  53.6026711
  38.2416398  28.8204092  56.1574479  38.7312328  28.1214881  55.9750143
  37.6700630  28.5227962  56.7450536  38.2300928  28.6730315  56.2175519
  34.0287149  17.8005630  49.1280994  34.1851768  17.7352433  49.9836986
  34.3687742  18.5754183  48.9159673  34.1020384  17.9054828  49.2235588
  40.5666294  17.1763514  47.9974357  41.1081839  16.6733895  48.4612978
  40.8812853  17.1228708  47.1863842  40.6930691  17.0942935  47.9458169
  44.4383401  21.3866161  65.1101269  45.2518267  21.1151310  65.2706402
  44.2778368  21.0873701  64.3061465  44.5353350  21.3021087  65.0146675
  41.7155563  12.0699818  58.0496658  41.9297533  11.4310733  57.4960012
  41.0989462  12.5145642  57.6204519  41.6560892  12.0409962  57.9047089
  30.6021411  14.9840581  49.4441761  30.9820376  15.4025126  48.7802028
  30.0276775  15.5654036  49.7510604  30.5732736  15.1318440  49.3918502
  43.8794651  13.6788884  58.9879965  43.0671333  13.3714774  59.0693137
  44.3384586  13.1987884  59.5522677  43.8275036  13.5625376  59.0834559
  43.2899906  21.5568555  49.4356909  42.9314561  21.7283198  50.2120941
  42.8038617  22.0181761  48.8784907  43.1658603  21.6507527  49.4682178
  41.1070292   5.1799754  53.0384000  40.2363850   5.1538475  52.9917310
  41.3610633   5.0076946  52.2209846  41.0163852   5.1509898  52.9104137
  38.0788271  17.2367721  41.9757143  38.3680796  18.0132603  42.2500718
  38.1660070  16.7256452  42.6771643  38.1342528  17.2759639  42.1199641
  40.9748159  15.0848955  63.7708667  41.4447790  15.7091071  64.1576541
  41.0210039  14.4165930  64.3301882  41.0516035  15.0783635  63.9108738
  38.1319432   7.1905982  54.4957471  37.6157921   6.4986174  54.6209050
  37.5713361   7.8576759  54.4420069  37.9725946   7.1869240  54.5063537
  40.2011666   7.7298942  56.3250323  39.8143419   7.7547974  57.1063853
  39.7144603   7.1640621  55.8724840  40.0724175   7.6494693  56.3738227
  44.4504645  22.4472451  60.3824110  45.0884366  21.9532647  60.0486566
  43.8078737  22.3749852  59.7976337  44.4498872  22.3631460  60.2466465
  46.1761645  14.2961597  54.9490025  45.7489253  14.2087946  54.1938125
  45.5387698  14.4039373  55.5344870  46.0191253  14.2994257  54.9235467
  39.8668808   4.6165928  58.6160583  40.4961925   5.1526228  58.3381654
  40.0354670   4.5243287  59.4674149  39.9846602   4.6827290  58.7009111
  39.6682722   9.4037123  60.8886995  40.4956152   9.1322272  60.9445609
  39.6890568  10.1997964  61.2450813  39.7935572   9.4816877  60.9502178
  44.5058902  23.1392260  57.0229467  45.2951280  22.7881324  57.1431548
  44.6802500  23.9528648  56.7606100  44.6479183  23.2078117  57.0017335
  34.2452212  16.5500985  54.0757255  33.4040219  16.4504860  54.2836149
  34.4542220  17.3196466  54.4271576  34.1516905  16.6493029  54.1584570
  31.7227779  14.1720522  51.9042006  31.3284477  14.2463534  51.1292116
  31.1667896  14.5578469  52.4550368  31.5830592  14.2402297  51.8709666
  43.3592726   7.1501816  51.5845885  43.5642319   7.0824124  52.4302882
  43.0319150   7.9560638  51.5167062  43.3407974   7.2587757  51.7005540
  38.0568877  14.4782385  53.3254853  37.7532015  13.9238373  53.9265261
  37.3548298  14.6574595  52.8382887  37.9085087  14.4227167  53.3424559
  37.1134974  11.7882904  47.8899555  37.3894709  11.0701817  47.4777122
  37.7133644  12.3867824  47.6820661  37.2428239  11.7703275  47.7980316
  36.1187228  21.6932105  58.0326951  36.0107583  21.7034167  58.8989009
  36.3283010  22.5186886  57.8431905  36.1337339  21.8173180  58.1331042
  46.6126414   7.7033581  51.0648650  46.0000727   8.1903983  51.4502382
  46.7090589   7.0277072  51.6086302  46.5364311   7.6751889  51.2027509
  40.6145495   9.4596422  46.1646150  41.0689241   9.6306982  46.8893994
  41.0885540   8.8464532  45.7643926  40.7513815   9.3947307  46.2119911
  34.1361020  18.9444748  55.4948888  33.5448953  19.5854246  55.4651903
  34.8982044  19.3682365  55.4680188  34.1609281  19.1020586  55.4864036
  34.5321643  10.1046745  56.1616906  34.9923124  10.1785675  56.8992030
  34.5777750  10.9028000  55.8116727  34.6072198  10.2340893  56.2189662
  36.1804993  10.7713440  60.7288933  35.7890558  10.1246787  61.1644711
  36.3490855  11.3624876  61.3483188  36.1475903  10.7627708  60.8851639
  50.2551442  18.7750517  56.4926167  50.3134565  19.2237166  57.2386143
  49.6217909  19.1849330  56.0556247  50.1702737  18.9024252  56.5378715
  43.8950536  24.3954059  52.9280913  43.6970225  24.8844874  52.2337124
  43.2738247  24.5995301  53.5065046  43.7738101  24.4970598  52.9104136
  37.9558515  16.1638956  47.2691157  38.7000560  16.5513232  47.5074107
  38.1019211  15.3196382  47.4331645  38.0869100  16.0969429  47.3285127
  39.8738090   7.9589215  52.3023018  39.0274135   8.1312023  52.1764368
  39.8709223   7.1538559  52.6388847  39.7485240   7.8650244  52.3334145
  40.9436391  11.7364429  53.1685076  40.4696345  11.2106192  53.6790387
  41.3154526  11.1893902  52.5999938  40.9286280  11.5780426  53.1600224
  31.3209421  13.7335936  58.5368622  32.1835034  13.6331645  58.4505952
  30.9901204  13.1530645  57.9754194  31.3994617  13.6327563  58.4414028
  47.2073121  16.7966805  54.5791857  46.9671344  15.9573220  54.5834283
  47.6865128  16.8766972  55.3032630  47.2425305  16.6848205  54.6866659
  42.8719890  12.6300984  46.2310830  42.3442909  12.7129728  45.5416539
  43.3315598  13.3718856  46.2275475  42.8621741  12.7521646  46.1285525
  49.2078308  13.5768262  52.5321116  48.9688078  13.5364096  51.6941901
  49.3712209  14.4239414  52.6586837  49.1968612  13.6960347  52.4274598
  45.8124338  17.9618212  58.4626161  46.5358537  17.5090738  58.2837181
  45.5474301  18.2422877  57.6798489  45.8805612  17.9369180  58.3204877
  34.6811207  12.5578385  55.1979040  34.0564277  12.5696777  54.5904993
  34.3456802  13.0338560  55.8470281  34.5396699  12.6296902  55.2035609
  34.8652955  10.9003504  41.2551725  34.5165760  11.5523229  41.7183275
  34.3849401  10.8860617  40.5275597  34.7423199  10.9946557  41.2162817
  31.3936882  20.6178845  56.6382805  30.8636807  19.9271284  56.6877779
  31.6661976  20.6089031  55.8095513  31.3561605  20.5145977  56.5230221
  41.5943128  18.0602090  56.6121176  40.9800121  17.5160140  56.9069812
  42.1110413  17.5466326  56.1326992  41.5798790  17.9038499  56.5845405
  40.8339425  19.1306360  54.3465475  40.4067033  18.5056079  53.9130910
  40.8264369  18.8481282  55.1724482  40.7698566  18.9959141  54.4045302
  33.9501952  14.1671533  57.4153909  34.1095439  13.4114857  57.8205631
  33.7694846  14.7162472  58.0694647  33.9467311  14.1365347  57.5716615
  41.8922255   6.3332769  57.9704698  41.3962816   6.5296443  57.2796265
  42.6491317   6.7325437  57.7993500  41.9309080   6.4210502  57.8424835
  39.1625135  10.0075114  54.5608009  39.1867622   9.4735227  53.8720789
  39.4136608   9.4992423  55.2233599  39.2035053   9.8536018  54.5572654
  26.6732724  17.2906609  53.9951153  26.5676174  17.2453454  53.1303237
  25.9232944  17.6360390  54.2765438  26.5468327  17.3347518  53.9088483
  35.4426457   8.7345933  53.9413753  35.4824828   9.2355139  54.6548461
  34.6176122   8.8256326  53.6719676  35.3265983   8.8227749  54.0064291
  37.6256070  18.3006673  62.0434048  36.7751700  18.4378387  62.1791693
  37.7884197  17.5670451  62.4881749  37.5239933  18.2120774  62.1289647
  36.8640820  15.2506442  56.2387652  36.0332750  15.4180260  56.0322900
  36.8092337  14.8742393  57.0236537  36.7330235  15.2196174  56.3236180
  34.6724604   8.7415335  61.8744063  35.2977307   8.1977468  62.1473495
  34.2175083   8.2610253  61.3051853  34.6972864   8.5904817  61.8305657
  35.2376864  13.5262034  46.7677770  35.3779825  14.0234498  47.4706411
  35.7359397  12.8248328  46.9091984  35.3317945  13.4964013  46.8929349
  35.2677086  14.3929145  44.0970347  35.9022166  14.9889570  44.0319808
  35.3502697  14.0932603  44.9116217  35.3733637  14.4370053  44.2073433
  48.2459652  16.9244622  56.9656711  48.8377493  17.5641873  56.9974909
  48.6818647  16.2267659  57.2548778  48.3978083  16.9162973  57.0137544
  36.8456069  10.3243120  44.0715789  37.1671910   9.8446203  43.4175051
  37.1083013  11.1342767  43.8806600  36.9322095  10.3733018  43.9471281
  40.0753042  21.3461995  57.5914605  39.5678133  21.8997842  58.0355235
  39.7779688  21.4070285  56.7733379  39.9557927  21.4368306  57.5363062
  42.2415224   9.7115314  56.4339268  42.6670296   9.2587841  55.8222794
  41.6272217   9.1575385  56.7104055  42.2143870   9.5629291  56.3844293
  31.7730074  16.5896986  47.3659893  32.2822304  17.1861493  47.7471198
  32.2464347  16.3222959  46.6836312  31.9173450  16.6382801  47.3214415
  40.6809447   6.1830414  49.8429845  40.0377765   6.0328061  50.4114983
  40.3408854   5.9372760  49.0778949  40.5354524   6.1242537  49.8132860
  45.2708794  14.1389841  49.2659853  44.5999984  14.6819543  49.1372919
  45.9648544  14.6084696  49.0241548  45.2737661  14.2888112  49.2115381
  39.3195527  26.2786553  54.4971612  39.0961182  25.5205382  54.8655638
  38.8305371  26.3084574  53.7752051  39.2138976  26.1708778  54.4448353
  45.4336921  10.5945725  52.1750227  45.7864531  10.1675448  52.8496025
  44.5751723  10.5096568  52.3051303  45.3586366  10.5190465  52.2945237
  34.1320606  13.2253244  50.2333073  33.4132595  13.6417377  50.5005937
  34.5032968  13.7907483  49.6824711  34.0812538  13.3702526  50.1915880
  43.4320187  13.8581093  56.1235069  43.4118114  13.6764388  56.9769848
  43.4799388  14.7293112  56.0994653  43.4354828  13.9597632  56.2458364
  41.3766517  20.4468285  62.0483545  41.3362372  19.8017962  61.4628701
  42.1889835  20.3904903  62.3608957  41.4909670  20.3427252  62.0080495
  41.3339278  25.6577096  52.7032313  40.9355562  25.7679367  51.9353133
  40.7190498  25.8659163  53.2858873  41.1838168  25.7050664  52.6763612
  39.9067180  12.2651244  45.5706453  39.3132020  12.5868241  45.0191020
  39.9442458  11.4192340  45.3627559  39.8241570  12.1875573  45.4589224
  46.8660981   5.7164137  53.1034539  46.3591846   5.0093276  53.0355717
  47.6628415   5.3857325  53.2335616  46.9088220   5.5637288  53.1133534
  42.7824997  12.2230749  49.0008203  42.5538690  12.2463450  48.1586561
  43.0423073  11.3988216  49.1203213  42.7871185  12.1046829  48.8933401
  37.0644225  14.0765222  58.6033303  36.5523129  13.4686405  58.9618334
  36.8923722  14.7921814  59.0707279  36.9633862  14.0928521  58.7249527
  31.9109940  12.5202797  61.2535665  31.7412530  13.1804172  60.7083871
  31.4675890  12.7309358  61.9748154  31.8209274  12.6488779  61.2797294
  35.8369760  10.7607295  50.2962399  36.3127126  11.1224375  49.6612580
  35.3358359  11.4163763  50.5762541  35.8335119  10.9101484  50.2439139
  40.9413296  11.9989466  61.0435559  41.4984726  11.7703276  60.4114024
  40.6174361  12.7595132  60.7670771  40.9759706  12.0773303  60.9092056
  28.8112005  15.4249663  56.5124155  28.2638724  14.7550308  56.6305023
  29.6004383  15.0579511  56.5767622  28.8464188  15.2714649  56.5392855
  38.6596413  15.0857120  62.0087566  39.4107740  15.4008797  62.3227120
  38.8518990  14.8836291  61.1821487  38.7987827  15.1024502  61.9330961
  37.8796413  12.9048495  43.6635782  38.2595378  12.9228124  42.8786897
  37.1389009  13.3502484  43.5426630  37.8265250  12.9730270  43.5299351
  45.5081703  11.2130686  49.2511361  45.5075930  11.0579343  50.1095638
  45.3037883  12.0593673  49.1952747  45.4781481  11.3151307  49.3699301
  27.5698974  14.6370471  53.6670178  27.3920735  14.1847080  54.3925093
  27.2817996  15.4396632  53.8508655  27.5011927  14.6893028  53.8013681
  43.2322555  15.8928188  52.9047568  43.7276221  15.1751183  52.8651588
  42.4222331  15.5898986  52.7902055  43.1866449  15.7425834  52.8821294
  29.3071444  17.1698194  50.7791937  28.4416964  17.1583885  50.6674708
  29.4070260  16.9828417  51.6263076  29.1945611  17.1404256  50.8880881
  45.2974374  18.6431875  55.5924697  45.7229446  18.1206297  55.0395122
  44.9331294  19.2412713  55.0713320  45.3060977  18.6542102  55.4333707
  34.9328454  26.9396093  54.3522042  35.2475013  27.7532481  54.3599824
  35.3421867  26.5546312  55.0204201  35.0396552  27.0024795  54.4526134
  41.8852974  22.3566140  51.9225854  42.3564152  23.0706402  52.0915839
  42.2213152  21.7564890  52.4585724  42.0048089  22.3737604  52.0258230
  43.9729958  23.9667453  64.1017926  44.0826924  23.1776014  64.4574674
  44.3020855  23.8773389  63.2992264  44.0382364  23.8373306  64.0360317
  38.8022469   7.1293610  58.8783949  38.9350374   6.3324604  59.2064925
  39.1867621   7.6560013  59.4582225  38.8778797   7.0893527  59.0127452
  42.5226920  22.1484074  58.6853547  41.9747866  21.5241957  58.4173612
  42.9839949  22.3378346  57.9697626  42.5094129  22.0843124  58.5403978
  41.8754824   4.0523936  55.4765042  41.0700787   3.9421666  55.7932881
  41.7461559   4.1536392  54.6194908  41.7374957   4.0507606  55.3973083
  45.3320784  10.2169428  56.0704739  44.7483773  10.7178635  55.6582307
  45.6525078   9.7098984  55.4369063  45.2933960  10.2161263  55.9163246
  37.8715583   9.1310023  46.3463414  38.6931278   9.3008336  46.1045109
  37.4085234   9.2857284  45.6229712  37.9246746   9.1791756  46.2035058
  36.4610915   7.1252785  57.1261843  37.0055328   6.7843912  57.7166185
  36.5147851   7.9838247  57.2683127  36.5500035   7.2008045  57.2343716
  32.2741474  20.8869201  54.0000651  32.8786331  20.8465035  53.3714471
  32.0668787  21.7340353  54.0304707  32.3330371  21.0057204  53.9116767
  42.0885246  23.1535146  55.2162888  42.9083620  23.0098113  55.4779183
  41.8079324  23.7781345  55.7579326  42.1681990  23.2245499  55.3350828
  27.5092756  19.8703819  53.8699574  27.4117034  19.0600090  54.1789631
  28.2921626  19.8495612  53.4845842  27.6108893  19.7470909  53.8586437
  58.5598897  30.8099998  48.1805764  58.5292901  31.6644635  48.3524034
  59.1580245  30.5095291  48.7391908  58.6436054  30.8916495  48.2880567
  51.7598581  29.8975649  52.9358695  50.9036477  30.0584147  52.9867812
  51.8066235  29.0267713  52.9563756  51.6397693  29.7926451  52.9464761
  55.0692298  36.1662175  62.5419151  55.7759065  35.6714206  62.6706085
  55.2580233  36.6071256  61.8121809  55.2020204  36.1580525  62.4528196
  54.6050402  31.9567693  55.5790346  55.1506362  32.6352780  55.6384316
  54.5467279  31.8155154  54.7191928  54.6766317  32.0359695  55.4602407
  43.2179609  27.6362776  53.4895340  42.5984641  27.0455424  53.3205355
  43.1163473  28.2274212  52.8559664  43.1117285  27.6366859  53.3700330
  50.3147505  29.3762318  47.8227803  51.0127669  29.5550446  48.3149267
  50.6299837  28.8532658  47.1998193  50.4642842  29.3256090  47.8029814
  42.9448742  31.1815058  55.7338909  42.8207439  31.7677504  56.3688728
  43.5967027  30.6875254  56.0351184  43.0222391  31.1953863  55.8724839
  48.4874368  24.7454715  51.9049078  48.1577698  25.1965858  51.2352777
  47.8119370  24.6670878  52.4522084  48.3384805  24.8005850  51.8872301
  55.6950776  20.7340238  50.1498689  55.3804217  21.4243716  50.5819111
  55.1777718  20.6785020  49.4484189  55.5715246  20.8275126  50.1095638
  60.4911263  36.3091043  51.6369144  59.6608966  36.5201687  51.8002560
  60.4420515  35.4828098  51.3611427  60.3617998  36.2180649  51.6206509
  59.9865221  28.9561444  55.4319565  59.1493642  29.0263631  55.6667160
  59.9553452  28.9585939  54.5593867  59.8583503  28.9671671  55.3379113
  46.3829950  31.0994479  61.1467934  46.5550454  30.9900374  61.9953215
  46.9199308  31.7448885  60.9099126  46.4874954  31.1786481  61.2373030
  57.7475578  36.9790398  51.7733859  57.3110810  36.9827140  52.5292831
  57.4138493  37.6595897  51.3413437  57.6338198  37.0802853  51.8214692
  52.3204652  39.0198730  63.0977010  53.1045068  39.1329578  63.4632752
  52.1201246  38.1939867  63.2935696  52.4070677  38.9145450  63.1811396
  57.6673061  24.0204225  54.0163287  58.3098969  24.0902330  54.6025203
  57.9196082  23.3533448  53.5142829  57.7995193  23.9330574  54.0290567
  45.4390273  27.2304789  58.6287861  44.7462070  26.7601768  58.8748593
  46.0550601  27.0043093  59.2029569  45.4274803  27.1271921  58.7497014
  60.8819924  33.6971317  50.6653497  61.5436358  33.1361986  50.5649405
  60.2411336  33.2023348  50.9906188  60.8848792  33.5407726  50.6985837
  57.1684755  34.7136700  50.4065486  57.4040344  34.8581899  49.5792336
  57.3174319  35.4779108  50.7996999  57.2250558  34.8475754  50.3429089
  44.1630832  31.1970193  59.7714707  44.8870805  31.1823223  60.2579601
  44.2646969  31.9065548  59.2736675  44.2849041  31.2994896  59.7693493
  58.9975212  33.5538366  48.2435089  59.3283429  34.0866006  47.6375184
  59.5708300  33.6077254  48.8997040  59.1308891  33.6407935  48.2512871
  51.5375782  34.6769277  64.6363654  50.7448763  34.9912789  64.8216273
  51.6524709  34.8920746  63.7984438  51.4371192  34.7553114  64.5401988
  52.4659575  34.5789481  59.5748950  53.0398436  33.9416725  59.7297514
  52.3874378  34.5793564  58.7058608  52.5392809  34.4854593  59.4695361
  52.9024343  25.1141197  51.7274240  52.1980670  24.6250382  51.8858160
  52.9509318  25.1263671  50.8562685  52.8054395  25.0430845  51.6213580
  50.4631294  29.0373858  56.9727421  50.0745727  28.6128076  56.3179612
  49.7985992  29.2856008  57.4804448  50.3078222  29.0112579  56.9515289
  60.1054563  28.7948863  49.7475251  59.8491128  27.9828804  49.5573134
  60.9483877  28.8026430  49.5205438  60.1920589  28.6760860  49.6860068
  54.2857656  22.7348487  54.4851405  54.6668167  22.0526658  54.8719279
  53.4820940  22.4458089  54.3027070  54.2234117  22.5915535  54.5155461
  57.7879722  35.9498459  59.5833804  57.5518360  35.1186524  59.4645864
  58.4322951  35.8984066  60.1688648  57.8474393  35.8196147  59.6519697
  48.2449496  25.2402685  64.3514014  47.9302937  26.0102248  64.0883576
  47.9239429  24.6772941  63.7666241  48.1508415  25.2712954  64.2255364
  58.8116143  35.7342907  55.6462098  58.5061960  36.4670964  56.0075414
  58.0922359  35.3280837  55.3654884  58.6603485  35.7824640  55.6575235
  64.5117935  32.3735908  54.9730442  64.4442435  32.3931867  54.1033029
  64.4973598  33.2166235  55.1986113  64.4996692  32.5009643  54.8782919
  45.7981393  23.6293206  49.9660210  44.9303818  23.7015806  50.0317819
  46.0856597  24.4315285  50.1548185  45.7121141  23.7587354  50.0034977
  54.9214282  23.7771066  58.2971532  55.6667874  23.5880876  57.8834957
  54.5051586  24.3029304  57.7385388  54.9699256  23.8273211  58.1536105
  62.2976553  31.1480294  53.2477037  62.8484474  30.5148363  53.4874129
  62.2820668  31.6795687  53.9392541  62.3761749  31.1329243  53.3855895
  48.9498943  34.9818892  57.7936930  48.4510637  35.6934659  57.8721819
  49.7599168  35.3019558  57.7555093  48.9955050  35.1345740  57.7993499
  56.0004959  29.3876628  52.3581633  55.6569725  28.6666963  52.7088883
  56.0998001  29.1790479  51.5159991  55.9647002  29.2500831  52.2853313
  47.8766001  27.8399936  63.0899228  47.0665777  28.1457716  62.9789071
  48.3540688  28.5605518  63.2051812  47.8269480  27.9914537  63.0906299
  54.5195924  27.3068213  54.2341176  53.6807025  27.3329492  53.9979439
  54.5900291  27.9538948  54.8146522  54.4064318  27.4064339  54.2850293
  44.2110033  33.3762486  57.9598631  44.7231130  33.6546740  57.3107391
  43.9246376  34.1151780  58.3261444  44.2444896  33.5264840  57.9188509
  52.9665202  24.2053590  48.9668792  53.6691555  24.0061338  48.4888750
  52.7009391  23.4329532  49.2737635  53.0311835  24.0616556  48.9414233
  58.3953448  32.5136200  51.5202418  58.3087423  32.6691626  52.3737196
  57.9403928  33.1574275  51.1461823  58.3156705  32.6311955  51.5909524
  47.7293759  25.4688875  58.0199672  47.5376956  25.4844009  58.8699096
  48.5792355  25.6652549  57.9966327  47.8269481  25.5003226  58.1422967
  42.1140672  27.9979856  55.9983489  41.9726164  27.1463797  56.1227997
  42.3981235  28.0408517  55.1745695  42.1348518  27.8779606  55.8951113
  52.2679264  29.8346947  50.1427977  52.0213978  29.7542698  50.9764766
  52.5964387  29.0500414  49.9490505  52.2800508  29.7073212  50.2375500
  56.1627313  36.5430306  53.9314758  56.0241672  37.2411352  54.4363501
  55.3827311  36.3878962  53.5750940  56.0270540  36.6230473  53.9541032
  54.5005398  32.8426681  60.1837140  54.4953437  31.9706498  60.1879566
  55.2066392  33.0414851  59.7106596  54.6050402  32.7430556  60.1144175
  48.2276291  32.5703665  59.5550960  48.3719667  33.1504873  58.9194070
  48.5751940  32.9479962  60.2600815  48.3003753  32.7124369  59.5649955
  50.3996209  31.7693834  57.3376092  49.6519523  31.9624848  56.9324370
  50.5537734  30.9439053  57.1000213  50.3118636  31.6758945  57.2421498
  50.6397986  25.6644384  58.2271495  51.0970600  26.3968359  58.3544288
  50.7154314  25.2410850  58.9858751  50.7188956  25.7101622  58.3572572
  42.8830977  25.9110204  59.3160939  42.3473166  25.2990562  59.6321706
  42.9448742  26.4858340  59.9694606  42.8126610  25.9057132  59.4596366
  55.1125312  18.8434260  52.0965338  55.2308880  19.3010723  51.3632641
  54.9387487  18.0379521  51.8101556  55.1044483  18.7928032  51.9466272
  48.5180364  27.6546488  55.0713320  47.7276438  27.4737948  55.3930655
  48.9140986  26.8773441  55.0543614  48.4597240  27.5133949  55.1165868
  51.0318194  30.1306747  59.5536818  50.9677335  30.9916704  59.4256955
  51.1715382  29.8138741  58.7532370  51.0433664  30.2106914  59.4165031
  55.4115985  36.9051469  65.1101269  56.2250850  36.6336618  65.2706402
  55.2510951  36.6059009  64.3061465  55.5085933  36.8206395  65.0146675
  52.6888147  27.5885126  58.0496658  52.9030116  26.9496040  57.4960012
  52.0722046  28.0330950  57.6204519  52.6293476  27.5595270  57.9047089
  54.8527235  29.1974191  58.9879965  54.0403916  28.8900082  59.0693137
  55.3117169  28.7173192  59.5522677  54.8007620  29.0810684  59.0834559
  52.0802875  20.6985062  53.0384000  51.2096433  20.6723783  52.9917310
  52.3343217  20.5262254  52.2209846  51.9896436  20.6695206  52.9104137
  51.9480742  30.6034263  63.7708667  52.4180373  31.2276379  64.1576541
  51.9942622  29.9351238  64.3301882  52.0248618  30.5968943  63.9108738
  49.1052016  22.7091290  54.4957471  48.5890504  22.0171482  54.6209050
  48.5445945  23.3762067  54.4420069  48.9458529  22.7054548  54.5063537
  51.1744249  23.2484250  56.3250323  50.7876003  23.2733282  57.1063853
  50.6877187  22.6825929  55.8724840  51.0456758  23.1680001  56.3738227
  55.4237229  37.9657759  60.3824110  56.0616949  37.4717955  60.0486566
  54.7811320  37.8935160  59.7976337  55.4231455  37.8816768  60.2466465
  57.1494229  29.8146905  54.9490025  56.7221837  29.7273254  54.1938125
  56.5120282  29.9224681  55.5344870  56.9923836  29.8179565  54.9235467
  50.8401391  20.1351236  58.6160583  51.4694509  20.6711536  58.3381654
  51.0087254  20.0428595  59.4674149  50.9579186  20.2012598  58.7009111
  50.6415306  24.9222431  60.8886995  51.4688735  24.6507579  60.9445609
  50.6623152  25.7183272  61.2450813  50.7668156  25.0002185  60.9502178
  55.4791485  38.6577568  57.0229467  56.2683864  38.3066632  57.1431548
  55.6535083  39.4713956  56.7606100  55.6211767  38.7263425  57.0017335
  54.3325310  22.6687124  51.5845885  54.5374903  22.6009432  52.4302882
  54.0051734  23.4745946  51.5167062  54.3140557  22.7773065  51.7005540
  49.0301461  29.9967693  53.3254853  48.7264598  29.4423681  53.9265261
  48.3280881  30.1759903  52.8382887  48.8817670  29.9412475  53.3424559
  57.5858997  23.2218889  51.0648650  56.9733311  23.7089291  51.4502382
  57.6823172  22.5462379  51.6086302  57.5096895  23.1937197  51.2027509
  51.5878078  24.9781730  46.1646150  52.0421825  25.1492290  46.8893994
  52.0618124  24.3649840  45.7643926  51.7246398  24.9132615  46.2119911
  45.5054226  25.6232053  56.1616906  45.9655708  25.6970983  56.8992030
  45.5510333  26.4213307  55.8116727  45.5804782  25.7526200  56.2189662
  47.1537576  26.2898748  60.7288933  46.7623141  25.6432095  61.1644711
  47.3223439  26.8810184  61.3483188  47.1208487  26.2813016  60.8851639
  61.2284025  34.2935825  56.4926167  61.2867149  34.7422474  57.2386143
  60.5950493  34.7034638  56.0556247  61.1435320  34.4209560  56.5378715
  54.8683120  39.9139367  52.9280913  54.6702809  40.4030182  52.2337124
  54.2470831  40.1180609  53.5065046  54.7470684  40.0155906  52.9104136
  50.8470674  23.4774523  52.3023018  50.0006719  23.6497331  52.1764368
  50.8441806  22.6723867  52.6388847  50.7217824  23.3835552  52.3334145
  51.9168974  27.2549737  53.1685076  51.4428928  26.7291499  53.6790387
  52.2887110  26.7079210  52.5999938  51.9018863  27.0965734  53.1600224
  42.2942004  29.2521244  58.5368622  43.1567617  29.1516953  58.4505952
  41.9633787  28.6715953  57.9754194  42.3727201  29.1512871  58.4414028
  58.1805705  32.3152113  54.5791857  57.9403928  31.4758528  54.5834283
  58.6597712  32.3952280  55.3032630  58.2157888  32.2033513  54.6866659
  53.8452474  28.1486292  46.2310830  53.3175492  28.2315036  45.5416539
  54.3048182  28.8904163  46.2275475  53.8354324  28.2706954  46.1285525
  60.1810892  29.0953570  52.5321116  59.9420662  29.0549404  51.6941901
  60.3444793  29.9424722  52.6586837  60.1701195  29.2145655  52.4274598
  56.7856922  33.4803520  58.4626161  57.5091121  33.0276046  58.2837181
  56.5206884  33.7608185  57.6798489  56.8538195  33.4554488  58.3204877
  45.6543790  28.0763693  55.1979040  45.0296860  28.0882085  54.5904993
  45.3189385  28.5523868  55.8470281  45.5129282  28.1482210  55.2035609
  52.5675711  33.5787398  56.6121176  51.9532704  33.0345448  56.9069812
  53.0842996  33.0651634  56.1326992  52.5531374  33.4223807  56.5845405
  44.9234536  29.6856841  57.4153909  45.0828022  28.9300165  57.8205631
  44.7427429  30.2347780  58.0694647  44.9199895  29.6550655  57.5716615
  52.8654839  21.8518076  57.9704698  52.3695400  22.0481751  57.2796265
  53.6223901  22.2510745  57.7993500  52.9041663  21.9395810  57.8424835
  50.1357718  25.5260422  54.5608009  50.1600205  24.9920535  53.8720789
  50.3869192  25.0177731  55.2233599  50.1767637  25.3721326  54.5572654
  46.4159040  24.2531241  53.9413753  46.4557412  24.7540447  54.6548461
  45.5908705  24.3441634  53.6719676  46.2998566  24.3413057  54.0064291
  48.5988653  33.8191981  62.0434048  47.7484284  33.9563695  62.1791693
  48.7616781  33.0855759  62.4881749  48.4972517  33.7306082  62.1289647
  47.8373404  30.7691750  56.2387652  47.0065333  30.9365568  56.0322900
  47.7824921  30.3927701  57.0236537  47.7062819  30.7381482  56.3236180
  45.6457187  24.2600643  61.8744063  46.2709890  23.7162776  62.1473495
  45.1907667  23.7795561  61.3051853  45.6705448  24.1090125  61.8305657
  59.2192236  32.4429930  56.9656711  59.8110076  33.0827181  56.9974909
  59.6551230  31.7452967  57.2548778  59.3710667  32.4348281  57.0137544
  51.0485626  36.8647303  57.5914605  50.5410717  37.4183150  58.0355235
  50.7512272  36.9255593  56.7733379  50.9290511  36.9553614  57.5363062
  53.2147808  25.2300622  56.4339268  53.6402879  24.7773149  55.8222794
  52.6004801  24.6760693  56.7104055  53.1876453  25.0814599  56.3844293
  51.6542031  21.7015722  49.8429845  51.0110349  21.5513369  50.4114983
  51.3141438  21.4558067  49.0778949  51.5087108  21.6427845  49.8132860
  56.2441377  29.6575149  49.2659853  55.5732567  30.2004851  49.1372919
  56.9381127  30.1270004  49.0241548  56.2470245  29.8073420  49.2115381
  56.4069505  26.1131033  52.1750227  56.7597115  25.6860756  52.8496025
  55.5484306  26.0281876  52.3051303  56.3318949  26.0375773  52.2945237
  54.4052770  29.3766401  56.1235069  54.3850698  29.1949696  56.9769848
  54.4531971  30.2478420  56.0994653  54.4087411  29.4782939  56.2458364
  52.3499100  35.9653593  62.0483545  52.3094955  35.3203270  61.4628701
  53.1622419  35.9090211  62.3608957  52.4642254  35.8612560  62.0080495
  50.8799764  27.7836552  45.5706453  50.2864603  28.1053549  45.0191020
  50.9175042  26.9377648  45.3627559  50.7974153  27.7060880  45.4589224
  57.8393565  21.2349444  53.1034539  57.3324429  20.5278584  53.0355717
  58.6360998  20.9042633  53.2335616  57.8820804  21.0822596  53.1133534
  53.7557581  27.7416057  49.0008203  53.5271274  27.7648758  48.1586561
  54.0155657  26.9173524  49.1203213  53.7603769  27.6232137  48.8933401
  48.0376809  29.5950530  58.6033303  47.5255712  28.9871713  58.9618334
  47.8656305  30.3107122  59.0707279  47.9366446  29.6113829  58.7249527
  42.8842524  28.0388105  61.2535665  42.7145114  28.6989480  60.7083871
  42.4408474  28.2494666  61.9748154  42.7941857  28.1674087  61.2797294
  46.8102343  26.2792603  50.2962399  47.2859709  26.6409683  49.6612580
  46.3090943  26.9349071  50.5762541  46.8067702  26.4286792  50.2439139
  60.0413705  35.7514371  46.0875404  60.4247310  36.5005727  46.3173501
  59.2457818  35.9980191  45.8287393  59.9807487  35.8984065  46.0832977
  51.9145879  27.5174774  61.0435559  52.4717310  27.2888584  60.4114024
  51.5906944  28.2780440  60.7670771  51.9492290  27.5958611  60.9092056
  39.7844588  30.9434971  56.5124155  39.2371308  30.2735616  56.6305023
  40.5736966  30.5764819  56.5767622  39.8196772  30.7899957  56.5392855
  49.6328997  30.6042428  62.0087566  50.3840324  30.9194105  62.3227120
  49.8251573  30.4021599  61.1821487  49.7720411  30.6209810  61.9330961
  56.4814287  26.7315994  49.2511361  56.4808513  26.5764651  50.1095638
  56.2770467  27.5778981  49.1952747  56.4514065  26.8336615  49.3699301
  38.5431558  30.1555778  53.6670178  38.3653319  29.7032387  54.3925093
  38.2550580  30.9581940  53.8508655  38.4744511  30.2078336  53.8013681
  54.2055139  31.4113496  52.9047568  54.7008804  30.6936491  52.8651588
  53.3954915  31.1084293  52.7902055  54.1599032  31.2611142  52.8821294
  56.2706958  34.1617183  55.5924697  56.6962029  33.6391605  55.0395122
  55.9063878  34.7598021  55.0713320  56.2793560  34.1727410  55.4333707
  54.9462542  39.4852761  64.1017926  55.0559507  38.6961322  64.4574674
  55.2753438  39.3958697  63.2992264  55.0114948  39.3558614  64.0360317
  49.7755052  22.6478918  58.8783949  49.9082958  21.8509912  59.2064925
  50.1600205  23.1745321  59.4582225  49.8511381  22.6078835  59.0127452
  53.4959503  37.6669382  58.6853547  52.9480449  37.0427265  58.4173612
  53.9572532  37.8563654  57.9697626  53.4826713  37.6028432  58.5403978
  52.8487407  19.5709244  55.4765042  52.0433371  19.4606974  55.7932881
  52.7194143  19.6721700  54.6194908  52.7107540  19.5692914  55.3973083
  56.3053368  25.7354736  56.0704739  55.7216357  26.2363943  55.6582307
  56.6257662  25.2284292  55.4369063  56.2666543  25.7346571  55.9163246
  47.4343499  22.6438093  57.1261843  47.9787912  22.3029220  57.7166185
  47.4880435  23.5023555  57.2683127  47.5232618  22.7193353  57.2343716
  53.0617830  38.6720454  55.2162888  53.8816204  38.5283420  55.4779183
  52.7811907  39.2966653  55.7579326  53.1414573  38.7430806  55.3350828
  69.5331480  46.3285306  48.1805764  69.5025485  47.1829943  48.3524034
  70.1312829  46.0280599  48.7391908  69.6168638  46.4101803  48.2880567
  62.7331165  45.4160957  52.9358695  61.8769061  45.5769455  52.9867812
  62.7798819  44.5453021  52.9563756  62.6130276  45.3111759  52.9464761
  57.1172305  54.9523675  48.6995926  56.3655204  54.5739213  48.4711971
  57.5658316  54.9842109  47.9514737  57.0721972  54.9009282  48.5553429
  66.0424882  51.6847483  62.5419151  66.7491649  51.1899514  62.6706085
  66.2312817  52.1256564  61.8121809  66.1752787  51.6765833  62.4528196
  62.1101556  57.3263313  50.0692585  62.4940935  57.8950212  49.5297360
  62.0460697  56.6012824  49.5898401  62.1574983  57.3038777  49.9186448
  65.5782986  47.4753001  55.5790346  66.1238946  48.1538088  55.6384316
  65.5199862  47.3340462  54.7191928  65.6498900  47.5545003  55.4602407
  58.6957061  54.9642067  50.9658699  58.7967424  54.1542421  51.2755827
  58.0998806  54.8699014  50.3358377  58.6229600  54.8307095  50.9184937
  67.3548055  48.9037608  46.4524074  67.2387581  49.6545294  46.8816212
  68.1503941  48.6461561  46.7020161  67.4552644  48.9772455  46.5528166
  58.5357800  59.8819656  52.3673555  59.1795256  60.3232820  52.7569713
  58.8614056  59.0773083  52.2803814  58.6789629  59.8284851  52.4119032
  59.2378380  52.8931631  47.7393417  59.5594221  53.4336839  47.1354725
  59.8850477  52.3228403  47.8715706  59.3804435  52.8890806  47.6700452
  61.4768024  51.2818071  47.8107595  61.9161659  50.6735172  48.2562368
  61.3272687  50.9025444  47.0393060  61.5189489  51.1356542  47.7626762
  58.9439667  49.8762083  55.0126420  59.5888669  49.3834526  54.6937369
  59.1841444  50.0186870  55.8392499  59.0750252  49.8239525  55.0875954
  61.4825758  52.7216989  54.6633313  61.7649001  51.9268395  54.4420069
  62.2111918  53.1997576  54.6838374  61.6315322  52.6751586  54.6336328
  59.4606952  40.2640023  51.9049078  59.1310282  40.7151166  51.2352777
  58.7851954  40.1856186  52.4522084  59.3117388  40.3191158  51.8872301
  65.0777360  49.6345252  44.7638364  64.9928655  50.4906219  44.9087933
  65.5661743  49.3589577  45.4320523  65.1366257  49.7202574  44.8840446
  66.6683360  36.2525546  50.1498689  66.3536801  36.9429024  50.5819111
  66.1510301  36.1970328  49.4484189  66.5447830  36.3460434  50.1095638
  66.0095793  46.2530047  46.2636099  65.4807265  46.4689680  46.9233405
  66.5320813  46.9466185  46.1837069  66.0084246  46.3873184  46.3491698
  71.4643846  51.8276351  51.6369144  70.6341549  52.0386995  51.8002560
  71.4153099  51.0013406  51.3611427  71.3350582  51.7365957  51.6206509
  53.4539430  55.8648025  51.8667239  52.9707008  56.5898514  51.8426822
  54.2662748  56.1624155  51.9777396  53.5030178  56.0150378  51.8794518
  59.5253584  54.6580205  54.4717053  59.0080526  54.2987620  53.8678361
  60.2227975  54.1342380  54.4823119  59.5519165  54.5277893  54.3847312
  63.1817176  55.1075019  60.4333226  63.2700522  54.9201160  61.2811437
  63.6106888  54.4612449  60.0338073  63.2579278  54.9838027  60.5004978
  60.7487636  54.3906179  59.4150888  60.1858470  53.9778789  59.9390550
  61.5108659  54.3159085  59.8344032  60.7782084  54.3183580  59.5543889
  56.3083627  56.3804200  52.0187519  57.0104206  55.8656190  52.0760275
  56.2281110  56.7078352  52.8234394  56.4007388  56.3518427  52.1460311
  70.9597805  44.4746752  55.4319565  70.1226226  44.5448939  55.6667160
  70.9286036  44.4771247  54.5593867  70.8316087  44.4856979  55.3379113
  57.3562534  46.6179787  61.1467934  57.5283037  46.5085682  61.9953215
  57.8931891  47.2634193  60.9099126  57.4607538  46.6971789  61.2373030
  56.2587106  52.9911428  55.8286432  56.7985331  52.8482559  56.4989805
  55.5757052  53.3908178  56.1970458  56.2379259  53.0291099  55.9820854
  61.7019690  37.7349041  47.1199163  62.4305850  37.5564996  46.6737319
  61.7914583  38.5767121  47.3306341  61.8226352  37.8332919  47.0852680
  65.6827990  48.6702428  51.0231457  66.4385505  49.1033943  51.0620365
  65.7890315  48.0207198  51.5966093  65.8098161  48.6379912  51.1129482
  68.7208162  52.4975706  51.7733859  68.2843393  52.5012448  52.5292831
  68.3871077  53.1781204  51.3413437  68.6070782  52.5988161  51.8214692
  63.2937235  54.5384038  63.0977010  64.0777652  54.6514886  63.4632752
  63.0933830  53.7125175  63.2935696  63.3803261  54.4330758  63.1811396
  68.6405644  39.5389533  54.0163287  69.2831553  39.6087638  54.6025203
  68.8928665  38.8718756  53.5142829  68.7727777  39.4515882  54.0290567
  63.4507628  56.4494140  56.7443465  62.6522874  56.2093640  57.0017334
  63.8993640  56.5008533  57.4910513  63.3982240  56.4216532  56.8928390
  71.8552508  49.2156625  50.6653497  72.5168942  48.6547294  50.5649405
  71.2143920  48.7208656  50.9906188  71.8581375  49.0593034  50.6985837
  62.7429316  52.5126757  42.9734420  63.1580464  52.1811781  42.2818916
  61.9121245  52.2795659  42.8454557  62.6817324  52.4298013  42.8525267
  68.1417338  50.2322008  50.4065486  68.3772928  50.3767207  49.5792336
  68.2906902  50.9964416  50.7996999  68.1983142  50.3661062  50.3429089
  69.9707795  49.0723674  48.2435089  70.3016012  49.6051314  47.6375184
  70.5440883  49.1262561  48.8997040  70.1041474  49.1593243  48.2512871
  62.5108365  50.1954585  64.6363654  61.7181346  50.5098097  64.8216273
  62.6257292  50.4106054  63.7984438  62.4103776  50.2738422  64.5401988
  65.1839684  46.9188576  48.9258669  65.2786539  47.6577871  49.3798295
  64.5598528  46.4906052  49.3593234  65.1048714  46.9649897  49.0566817
  63.4392158  50.0974789  59.5748950  64.0131020  49.4602033  59.7297514
  63.3606962  50.0978871  58.7058608  63.5125393  50.0039900  59.4695361
  65.4362706  48.7637316  42.1595621  65.3542868  48.8339503  43.0250608
  66.0742426  49.3267060  41.9679362  65.5182543  48.8576287  42.2585571
  58.7955877  48.5298054  51.6270148  58.5375121  47.6969789  51.6001447
  58.8504360  48.7555667  50.7862648  58.7655655  48.4395825  51.4990285
  63.8756927  40.6326505  51.7274240  63.1713254  40.1435690  51.8858160
  63.9241901  40.6448979  50.8562685  63.7786979  40.5616153  51.6213580
  61.4363878  44.5559166  56.9727421  61.0478310  44.1313384  56.3179612
  60.7718576  44.8041316  57.4804448  61.2810805  44.5297887  56.9515289
  71.0787147  44.3134171  49.7475251  70.8223712  43.5014112  49.5573134
  71.9216461  44.3211738  49.5205438  71.1653172  44.1946168  49.6860068
  65.2590239  38.2533795  54.4851405  65.6400751  37.5711966  54.8719279
  64.4553523  37.9643397  54.3027070  65.1966701  38.1100843  54.5155461
  68.7612306  51.4683767  59.5833804  68.5250943  50.6371831  59.4645864
  69.4055535  51.4169374  60.1688648  68.8206977  51.3381455  59.6519697
  58.4110724  52.2579288  50.2976540  59.0484671  52.0191035  50.8428333
  58.8365796  52.4616447  49.5629701  58.5686890  52.2530298  50.2693697
  53.1023366  54.4967624  54.1810844  53.1427512  54.7682476  53.3530623
  53.6617891  55.0209533  54.5968632  53.1906712  54.6143380  54.1202732
  59.2182080  40.7587993  64.3514014  58.9035521  41.5287556  64.0883576
  58.8972012  40.1958249  63.7666241  59.1240999  40.7898262  64.2255364
  69.7848727  51.2528215  55.6462098  69.4794544  51.9856272  56.0075414
  69.0654942  50.8466145  55.3654884  69.6336069  51.3009948  55.6575235
  60.7932196  52.7351711  51.9770326  60.8671204  52.5726882  52.8312176
  61.6101702  52.9241900  51.7330808  60.9248555  52.7388453  52.0668352
  75.4850519  47.8921216  54.9730442  75.4175019  47.9117175  54.1033029
  75.4706181  48.7351543  55.1986113  75.4729275  48.0194951  54.8782919
  65.8946865  39.2956374  58.2971532  66.6400457  39.1066184  57.8834957
  65.4784170  39.8214612  57.7385388  65.9431839  39.3458519  58.1536105
  59.3336782  55.6986454  46.7083800  59.6235080  55.3075435  45.9843026
  60.0640263  55.8803159  47.1489075  59.4843666  55.6680267  46.6666607
  73.2709136  46.6665602  53.2477037  73.8217058  46.0333671  53.4874129
  73.2553251  47.1980995  53.9392541  73.3494332  46.6514550  53.3855895
  59.9231527  50.5004200  57.7936930  59.4243221  51.2119967  57.8721819
  60.7331751  50.8204866  57.7555093  59.9687634  50.6531048  57.7993499
  57.2742697  57.6753836  49.7743949  57.0542993  57.3851191  50.5670616
  57.0537219  57.0168791  49.2461862  57.2090292  57.5353544  49.8132858
  66.9737542  44.9061936  52.3581633  66.6302308  44.1852271  52.7088883
  67.0730585  44.6975787  51.5159991  66.9379585  44.7686139  52.2853313
  59.4410653  59.0483226  48.5574642  60.0934711  58.5159668  48.7865668
  58.7436262  58.6951878  48.9442516  59.4341371  58.9172749  48.6486810
  67.4350571  51.3687640  47.9005621  68.0008604  52.0280850  47.8164164
  66.7878475  51.7137338  48.3722023  67.4229328  51.5169581  47.9578378
  58.8498585  43.3585244  63.0899228  58.0398361  43.6643024  62.9789071
  59.3273272  44.0790826  63.2051812  58.8002064  43.5099845  63.0906299
  57.7090145  52.5730965  53.3382132  57.1870898  52.7131257  54.0233996
  58.0964165  51.8141629  53.5284249  57.6893845  52.4816489  53.4683208
  63.9057150  54.3126424  47.3242700  63.6643825  53.5794285  46.9169765
  64.0858482  54.8613281  46.6709034  63.8964773  54.2848815  47.1672923
  59.1356470  49.6034984  48.7363623  58.9399253  50.2109719  48.1423926
  59.3590816  48.9102928  48.2555296  59.1391111  49.5912510  48.5779703
  65.4928508  42.8253521  54.2341176  64.6539608  42.8514800  53.9979439
  65.5632875  43.4724256  54.8146522  65.3796901  42.9249647  54.2850293
  63.9397786  39.7238898  48.9668792  64.6424139  39.5246646  48.4888750
  63.6741975  38.9514840  49.2737635  64.0044418  39.5801864  48.9414233
  69.3686032  48.0321507  51.5202418  69.2820006  48.1876934  52.3737196
  68.9136511  48.6759583  51.1461823  69.2889288  48.1497263  51.5909524
  58.7026342  40.9874183  58.0199672  58.5109539  41.0029317  58.8699096
  59.5524938  41.1837857  57.9966327  58.8002064  41.0188534  58.1422967
  63.2411848  45.3532255  50.1427977  62.9946562  45.2728006  50.9764766
  63.5696971  44.5685722  49.9490505  63.2533091  45.2258520  50.2375500
  67.1359896  52.0615614  53.9314758  66.9974256  52.7596660  54.4363501
  66.3559894  51.9064270  53.5750940  67.0003123  52.1415781  53.9541032
  65.4737982  48.3611989  60.1837140  65.4686020  47.4891806  60.1879566
  66.1798975  48.5600158  59.7106596  65.5782986  48.2615863  60.1144175
  59.2008875  48.0888973  59.5550960  59.3452251  48.6690181  58.9194070
  59.5484523  48.4665270  60.2600815  59.2736336  48.2309677  59.5649955
  61.3728792  47.2879142  57.3376092  60.6252106  47.4810156  56.9324370
  61.5270317  46.4624361  57.1000213  61.2851220  47.1944253  57.2421498
  58.2736630  56.2791745  56.4211987  58.4226194  55.7194661  55.7685391
  59.0536632  56.3583747  56.8044506  58.4110724  56.2077310  56.3808936
  68.6313269  51.4193868  44.6931258  68.2520078  50.6331006  44.6860547
  67.9679515  51.9680725  44.5502902  68.4771744  51.3838692  44.6712054
  60.7989931  56.4506388  57.6996478  60.7233602  55.7815198  58.2547266
  60.7279790  57.1524176  58.2137144  60.7770537  56.4551295  57.8573326
  61.6130569  41.1829692  58.2271495  62.0703183  41.9153667  58.3544288
  61.6886898  40.7596158  58.9858751  61.6921539  41.2286930  58.3572572
  66.0857895  34.3619567  52.0965338  66.2041463  34.8196031  51.3632641
  65.9120071  33.5564829  51.8101556  66.0777066  34.3113340  51.9466272
  61.4560177  54.9707387  48.5320084  62.2210069  54.7017030  48.2102748
  61.3538267  54.4857397  49.2490147  61.5541673  54.8596951  48.5899911
  59.4912947  43.1731796  55.0713320  58.7009022  42.9923256  55.3930655
  59.8873570  42.3958749  55.0543614  59.4329823  43.0319257  55.1165868
  63.9778838  52.0019571  40.5120033  64.7451823  52.0619695  40.1025885
  63.5310147  51.4300012  40.0276352  64.0252265  51.9256146  40.3797743
  64.8756634  50.8074226  52.7972765  64.2001635  50.5759459  53.2986152
  64.8849010  50.1995409  52.1714870  64.7775138  50.6833152  52.7788918
  62.0050777  45.6492055  59.5536818  61.9409919  46.5102012  59.4256955
  62.1447965  45.3324049  58.7532370  62.0166248  45.7292222  59.4165031
  66.8773368  53.6639359  45.0282943  66.9593205  54.4706345  44.7044394
  67.3623110  53.6835318  45.7523717  66.9610526  53.7860021  45.0869842
  60.6869871  48.3424195  53.6953021  60.2632120  48.5428694  52.9592040
  60.5114727  47.4953043  53.8077321  60.5980752  48.2472976  53.6026711
  60.1881565  59.8574708  56.1574479  60.6777495  59.1585497  55.9750143
  59.6165797  59.5598578  56.7450536  60.1766095  59.7100931  56.2175519
  66.3848568  52.4236777  65.1101269  67.1983434  52.1521926  65.2706402
  66.2243535  52.1244317  64.3061465  66.4818517  52.3391703  65.0146675
  60.6817911  53.6051481  45.2814385  60.7510731  52.7466020  45.4207385
  61.4606366  53.8223362  44.9533410  60.8070761  53.5104345  45.2531542
  63.6620730  43.1070434  58.0496658  63.8762700  42.4681348  57.4960012
  63.0454630  43.5516258  57.6204519  63.6026060  43.0780578  57.9047089
  65.0725398  56.0289182  49.4950878  64.6805190  55.7255898  48.7773745
  65.2278470  56.8658272  49.3055832  65.0378988  56.1073019  49.3607376
  65.8259818  44.7159499  58.9879965  65.0136500  44.4085390  59.0693137
  66.2849753  44.2358499  59.5522677  65.7740203  44.5995992  59.0834559
  65.2365073  52.5939171  49.4356909  64.8779728  52.7653814  50.2120941
  64.7503784  53.0552377  48.8784907  65.1123770  52.6878142  49.4682178
  63.0535459  36.2170370  53.0384000  62.1829017  36.1909091  52.9917310
  63.3075800  36.0447562  52.2209846  62.9629019  36.1880514  52.9104137
  62.9213326  46.1219571  63.7708667  63.3912957  46.7461687  64.1576541
  62.9675206  45.4536546  64.3301882  62.9981202  46.1154251  63.9108738
  60.0784599  38.2276598  54.4957471  59.5623088  37.5356790  54.6209050
  59.5178528  38.8947375  54.4420069  59.9191113  38.2239856  54.5063537
  62.1476833  38.7669558  56.3250323  61.7608586  38.7918590  57.1063853
  61.6609770  38.2011237  55.8724840  62.0189342  38.6865309  56.3738227
  66.3969812  53.4843067  60.3824110  67.0349533  52.9903263  60.0486566
  65.7543904  53.4120468  59.7976337  66.3964039  53.4002076  60.2466465
  68.1226812  45.3332213  54.9490025  67.6954421  45.2458562  54.1938125
  67.4852865  45.4409989  55.5344870  67.9656420  45.3364873  54.9235467
  61.8133975  35.6536544  58.6160583  62.4427093  36.1896844  58.3381654
  61.9819837  35.5613903  59.4674149  61.9311769  35.7197906  58.7009111
  61.6147890  40.4407739  60.8886995  62.4421319  40.1692887  60.9445609
  61.6355736  41.2368580  61.2450813  61.7400740  40.5187493  60.9502178
  66.4524069  54.1762876  57.0229467  67.2416447  53.8251940  57.1431548
  66.6267667  54.9899264  56.7606100  66.5944351  54.2448733  57.0017335
  56.1917379  47.5871601  54.0757255  55.3505386  47.4875475  54.2836149
  56.4007387  48.3567082  54.4271576  56.0982072  47.6863645  54.1584570
  65.3057893  38.1872432  51.5845885  65.5107487  38.1194740  52.4302882
  64.9784317  38.9931253  51.5167062  65.2873141  38.2958373  51.7005540
  60.0034044  45.5153001  53.3254853  59.6997182  44.9608989  53.9265261
  59.3013465  45.6945210  52.8382887  59.8550254  45.4597783  53.3424559
  58.0652395  52.7302721  58.0326951  57.9572750  52.7404783  58.8989009
  58.2748177  53.5557502  57.8431905  58.0802506  52.8543796  58.1331042
  68.5591581  38.7404197  51.0648650  67.9465894  39.2274599  51.4502382
  68.6555756  38.0647687  51.6086302  68.4829478  38.7122505  51.2027509
  56.0826187  49.9815364  55.4948888  55.4914121  50.6224862  55.4651903
  56.8447211  50.4052981  55.4680188  56.1074448  50.1391202  55.4864036
  56.4786810  41.1417361  56.1616906  56.9388292  41.2156291  56.8992030
  56.5242917  41.9398615  55.8116727  56.5537365  41.2711508  56.2189662
  58.1270160  41.8084056  60.7288933  57.7355725  41.1617403  61.1644711
  58.2956023  42.3995492  61.3483188  58.0941070  41.7998324  60.8851639
  72.2016609  49.8121133  56.4926167  72.2599733  50.2607782  57.2386143
  71.5683076  50.2219946  56.0556247  72.1167904  49.9394868  56.5378715
  65.8415704  55.4324675  52.9280913  65.6435392  55.9215490  52.2337124
  65.2203415  55.6365917  53.5065046  65.7203268  55.5341213  52.9104136
  61.8203257  38.9959831  52.3023018  60.9739302  39.1682639  52.1764368
  61.8174390  38.1909175  52.6388847  61.6950407  38.9020860  52.3334145
  62.8901558  42.7735045  53.1685076  62.4161512  42.2476807  53.6790387
  63.2619694  42.2264518  52.5999938  62.8751447  42.6151042  53.1600224
  69.1538288  47.8337421  54.5791857  68.9136511  46.9943836  54.5834283
  69.6330295  47.9137588  55.3032630  69.1890472  47.7218821  54.6866659
  64.8185057  43.6671600  46.2310830  64.2908076  43.7500344  45.5416539
  65.2780766  44.4089471  46.2275475  64.8086908  43.7892262  46.1285525
  71.1543475  44.6138878  52.5321116  70.9153245  44.5734712  51.6941901
  71.3177377  45.4610030  52.6586837  71.1433779  44.7330963  52.4274598
  67.7589505  48.9988827  58.4626161  68.4823704  48.5461354  58.2837181
  67.4939468  49.2793493  57.6798489  67.8270779  48.9739796  58.3204877
  64.3722140  52.2375163  45.3620487  65.0956339  52.7033276  45.2185061
  63.9322731  52.3048773  44.6118084  64.4137832  52.3159000  45.2305269
  63.5408295  49.0972706  56.6121176  62.9265288  48.5530756  56.9069812
  64.0575580  48.5836942  56.1326992  63.5263957  48.9409115  56.5845405
  62.7804592  50.1676976  54.3465475  62.3532200  49.5426694  53.9130910
  62.7729536  49.8851898  55.1724482  62.7163733  50.0329756  54.4045302
  63.8387422  37.3703384  57.9704698  63.3427983  37.5667059  57.2796265
  64.5956484  37.7696053  57.7993500  63.8774247  37.4581118  57.8424835
  61.1090302  41.0445730  54.5608009  61.1332789  40.5105843  53.8720789
  61.3601775  40.5363039  55.2233599  61.1500220  40.8906634  54.5572654
  57.3891624  39.7716549  53.9413753  57.4289996  40.2725755  54.6548461
  56.5641289  39.8626942  53.6719676  57.2731150  39.8598365  54.0064291
  59.5721237  49.3377289  62.0434048  58.7216867  49.4749003  62.1791693
  59.7349365  48.6041067  62.4881749  59.4705100  49.2491390  62.1289647
  58.8105987  46.2877058  56.2387652  57.9797917  46.4550876  56.0322900
  58.7557505  45.9113009  57.0236537  58.6795402  46.2566790  56.3236180
  56.6189771  39.7785951  61.8744063  57.2442474  39.2348084  62.1473495
  56.1640251  39.2980869  61.3051853  56.6438031  39.6275433  61.8305657
  70.1924819  47.9615238  56.9656711  70.7842660  48.6012489  56.9974909
  70.6283814  47.2638275  57.2548778  70.3443251  47.9533589  57.0137544
  62.0218209  52.3832611  57.5914605  61.5143300  52.9368458  58.0355235
  61.7244855  52.4440901  56.7733379  61.9023094  52.4738922  57.5363062
  64.1880391  40.7485930  56.4339268  64.6135463  40.2958457  55.8222794
  63.5737385  40.1946001  56.7104055  64.1609037  40.5999907  56.3844293
  64.6325990  56.2995868  45.5218548  63.9155299  56.1256731  45.0565786
  65.2832727  56.0648441  44.9894034  64.6227840  56.2391661  45.3747766
  62.6274614  37.2201030  49.8429845  61.9842932  37.0698676  50.4114983
  62.2874021  36.9743375  49.0778949  62.4819692  37.1613153  49.8132860
  67.2173961  45.1760457  49.2659853  66.5465151  45.7190159  49.1372919
  67.9113711  45.6455312  49.0241548  67.2202828  45.3258728  49.2115381
  61.2660695  57.3157169  54.4971612  61.0426349  56.5575998  54.8655638
  60.7770538  57.3455190  53.7752051  61.1604144  57.2079393  54.4448353
  67.3802088  41.6316341  52.1750227  67.7329698  41.2046063  52.8496025
  66.5216890  41.5467184  52.3051303  67.3051533  41.5561081  52.2945237
  65.3785354  44.8951709  56.1235069  65.3583281  44.7135004  56.9769848
  65.4264555  45.7663728  56.0994653  65.3819995  44.9968247  56.2458364
  63.3231684  51.4838901  62.0483545  63.2827539  50.8388578  61.4628701
  64.1355002  51.4275519  62.3608957  63.4374837  51.3797868  62.0080495
  59.9139151  57.5357627  51.9508696  59.4999550  56.8731757  51.5612538
  60.5986526  57.6835486  51.4304390  59.9537523  57.4598285  51.8165193
  63.2804446  56.6947712  52.7032313  62.8820729  56.8049983  51.9353133
  62.6655665  56.9029779  53.2858873  63.1303335  56.7421280  52.6763612
  68.8126148  36.7534752  53.1034539  68.3057013  36.0463892  53.0355717
  69.6093582  36.4227941  53.2335616  68.8553388  36.6007904  53.1133534
  64.7290164  43.2601365  49.0008203  64.5003857  43.2834066  48.1586561
  64.9888240  42.4358832  49.1203213  64.7336352  43.1417445  48.8933401
  59.0109393  45.1135838  58.6033303  58.4988296  44.5057021  58.9618334
  58.8388889  45.8292430  59.0707279  58.9099030  45.1299137  58.7249527
  53.8575107  43.5573413  61.2535665  53.6877698  44.2174788  60.7083871
  53.4141057  43.7679974  61.9748154  53.7674441  43.6859395  61.2797294
  71.0146288  51.2699679  46.0875404  71.3979894  52.0191035  46.3173501
  70.2190402  51.5165499  45.8287393  70.9540070  51.4169373  46.0832977
  62.8878463  43.0360082  61.0435559  63.4449893  42.8073892  60.4114024
  62.5639528  43.7965748  60.7670771  62.9224873  43.1143919  60.9092056
  60.6061580  46.1227736  62.0087566  61.3572907  46.4379412  62.3227120
  60.7984157  45.9206907  61.1821487  60.7452994  46.1395117  61.9330961
  67.4546870  42.2501302  49.2511361  67.4541097  42.0949959  50.1095638
  67.2503050  43.0964289  49.1952747  67.4246648  42.3521923  49.3699301
  65.1787722  46.9298804  52.9047568  65.6741388  46.2121799  52.8651588
  64.3687498  46.6269601  52.7902055  65.1331616  46.7796450  52.8821294
  67.2439541  49.6802491  55.5924697  67.6694613  49.1576913  55.0395122
  66.8796461  50.2783329  55.0713320  67.2526144  49.6912718  55.4333707
  56.8793621  57.9766709  54.3522042  57.1940180  58.7903097  54.3599824
  57.2887034  57.5916927  55.0204201  56.9861719  58.0395411  54.4526134
  63.8318141  53.3936756  51.9225854  64.3029319  54.1077018  52.0915839
  64.1678319  52.7935506  52.4585724  63.9513256  53.4108220  52.0258230
  65.9195125  55.0038069  64.1017926  66.0292091  54.2146629  64.4574674
  66.2486022  54.9144005  63.2992264  65.9847531  54.8743922  64.0360317
  60.7487636  38.1664226  58.8783949  60.8815541  37.3695220  59.2064925
  61.1332788  38.6930629  59.4582225  60.8243965  38.1264143  59.0127452
  64.4692087  53.1854690  58.6853547  63.9213033  52.5612573  58.4173612
  64.9305116  53.3748962  57.9697626  64.4559297  53.1213740  58.5403978
  63.8219991  35.0894552  55.4765042  63.0165955  34.9792282  55.7932881
  63.6926726  35.1907008  54.6194908  63.6840124  35.0878222  55.3973083
  67.2785951  41.2540044  56.0704739  66.6948940  41.7549251  55.6582307
  67.5990245  40.7469600  55.4369063  67.2399127  41.2531879  55.9163246
  58.4076082  38.1623401  57.1261843  58.9520495  37.8214528  57.7166185
  58.4613018  39.0208863  57.2683127  58.4965202  38.2378661  57.2343716
  54.2206641  51.9239817  54.0000651  54.8251499  51.8835651  53.3714471
  54.0133954  52.7710969  54.0304707  54.2795539  52.0427820  53.9116767
  64.0350413  54.1905762  55.2162888  64.8548787  54.0468728  55.4779183
  63.7544491  54.8151961  55.7579326  64.1147157  54.2616114  55.3350828
  73.7063749  60.9346265  52.9358695  72.8501644  61.0954763  52.9867812
  73.7531402  60.0638329  52.9563756  73.5862860  60.8297067  52.9464761
  76.5515570  62.9938309  55.5790346  77.0971530  63.6723396  55.6384316
  76.4932446  62.8525770  54.7191928  76.6231484  63.0730311  55.4602407
  69.6689644  70.4827375  50.9658699  69.7700007  69.6727729  51.2755827
  69.0731390  70.3884322  50.3358377  69.5962183  70.3492403  50.9184937
  62.8654689  66.5047662  50.5911033  62.6304873  65.6715314  50.4843301
  63.0040329  66.7852327  49.7772234  62.8510351  66.4231165  50.4553388
  65.1644776  58.6733392  53.4895340  64.5449808  58.0826040  53.3205355
  65.0628640  59.2644827  52.8559664  65.0582452  58.6737475  53.3700330
  70.2110964  68.4116939  47.7393417  70.5326805  68.9522146  47.1354725
  70.8583060  67.8413711  47.8715706  70.3537019  68.4076114  47.6700452
  72.2612672  60.4132934  47.8227803  72.9592837  60.5921062  48.3149267
  72.5765004  59.8903273  47.1998193  72.4108009  60.3626706  47.8029814
  64.8913909  62.2185674  55.7338909  64.7672606  62.8048119  56.3688728
  65.5432194  61.7245870  56.0351184  64.9687559  62.2324478  55.8724839
  72.4500607  66.8003379  47.8107595  72.8894243  66.1920480  48.2562368
  72.3005270  66.4210752  47.0393060  72.4922073  66.6541850  47.7626762
  69.9172250  65.3947391  55.0126420  70.5621253  64.9019834  54.6937369
  70.1574027  65.5372178  55.8392499  70.0482835  65.3424833  55.0875954
  72.4558342  68.2402297  54.6633313  72.7381584  67.4453703  54.4420069
  73.1844502  68.7182884  54.6838374  72.6047905  68.1936894  54.6336328
  70.4339535  55.7825331  51.9049078  70.1042865  56.2336474  51.2352777
  69.7584537  55.7041494  52.4522084  70.2849972  55.8376466  51.8872301
  76.0509944  65.1530560  44.7638364  75.9661239  66.0091527  44.9087933
  76.5394327  64.8774884  45.4320523  76.1098841  65.2387882  44.8840446
  77.6415943  51.7710854  50.1498689  77.3269384  52.4614332  50.5819111
  77.1242885  51.7155636  49.4484189  77.5180414  51.8645742  50.1095638
  76.9828377  61.7715355  46.2636099  76.4539848  61.9874988  46.9233405
  77.5053397  62.4651493  46.1837069  76.9816830  61.9058491  46.3491698
  68.8727985  65.6678571  45.0643567  68.2885200  66.1728603  45.4709431
  68.4698080  65.4420958  44.3240159  68.7267289  65.7086820  45.0148592
  64.4272013  71.3833332  51.8667239  63.9439592  72.1083822  51.8426822
  65.2395332  71.6809462  51.9777396  64.4762761  71.5335686  51.8794518
  70.4986167  70.1765513  54.4717053  69.9813109  69.8172928  53.8678361
  71.1960559  69.6527688  54.4823119  70.5251749  70.0463201  54.3847312
  73.3305199  61.9144223  43.5412488  73.5701203  62.1222207  42.7287831
  73.6521040  61.1101732  43.6501432  73.4142357  61.8258325  43.4373041
  68.6395489  53.8437619  47.3872026  69.3941458  54.2115936  47.1489076
  68.4623024  54.2177174  48.1551205  68.7249968  53.9535807  47.4656914
  67.2816211  71.8989508  52.0187519  67.9836790  71.3841497  52.0760275
  67.2013694  72.2263660  52.8234394  67.3739971  71.8703735  52.1460311
  68.3295117  62.1365095  61.1467934  68.5015621  62.0270990  61.9953215
  68.8664475  62.7819501  60.9099126  68.4340121  62.2157097  61.2373030
  66.9952554  56.2507938  44.0850139  66.8128127  56.4679819  43.2591132
  67.8578167  56.3646951  44.1408753  67.0957144  56.2997836  43.9704626
  66.6066986  68.0895860  51.5273127  67.4455886  68.3218793  51.5746888
  66.6378755  67.2200172  51.4580162  66.7348704  67.9952807  51.5237771
  67.2319689  68.5096736  55.8286432  67.7717914  68.3667867  56.4989805
  66.5489635  68.9093486  56.1970458  67.2111843  68.5476406  55.9820854
  72.6752273  53.2534349  47.1199163  73.4038434  53.0750304  46.6737319
  72.7647166  54.0952429  47.3306341  72.7958935  53.3518227  47.0852680
  76.6560574  64.1887736  51.0231457  77.4118089  64.6219251  51.0620365
  76.7622898  63.5392506  51.5966093  76.7830745  64.1565220  51.1129482
  62.6356834  64.7297026  55.9820854  62.3695249  63.9136143  56.1411844
  62.6495398  64.7750182  55.1116369  62.5981557  64.6153931  55.8774336
  66.5414581  59.5282111  42.5972612  65.8272758  59.2420290  43.0095044
  67.0258550  59.8678737  43.2378999  66.5073944  59.5363760  42.7528247
  67.3855441  58.2675405  58.6287861  66.6927237  57.7972384  58.8748593
  68.0015768  58.0413709  59.2029569  67.3739971  58.1642536  58.7497014
  73.7161899  68.0312065  42.9734420  74.1313048  67.6997089  42.2818916
  72.8853829  67.7980967  42.8454557  73.6549908  67.9483321  42.8525267
  63.0450248  65.5155806  53.2632598  62.8625821  65.4902692  52.4104890
  63.7799917  65.9854744  53.3021507  63.1264312  65.5817168  53.1430516
  66.1096000  62.2340809  59.7714707  66.8335972  62.2193839  60.2579601
  66.2112136  62.9436164  59.2736675  66.2314209  62.3365512  59.7693493
  76.1572268  62.4373884  48.9258669  76.2519122  63.1763178  49.3798295
  75.5331111  62.0091360  49.3593234  76.0781298  62.4835205  49.0566817
  63.0121158  62.3949306  53.4131665  63.5894661  62.2585757  54.0523910
  62.3135220  61.9385091  53.6677249  62.9942180  62.3071573  53.5453954
  76.4095289  64.2822624  42.1595621  76.3275452  64.3524811  43.0250608
  77.0475010  64.8452368  41.9679362  76.4915127  64.3761595  42.2585571
  69.7688460  64.0483362  51.6270148  69.5107705  63.2155097  51.6001447
  69.8236943  64.2740975  50.7862648  69.7388238  63.9581133  51.4990285
  74.8489511  56.1511813  51.7274240  74.1445837  55.6620998  51.8858160
  74.8974485  56.1634287  50.8562685  74.7519562  56.0801461  51.6213580
  68.7423173  61.6021125  52.1135042  68.1672764  61.7613293  52.7499003
  68.3658849  60.9656534  51.6503493  68.6025985  61.5318937  52.1389601
  72.4096461  60.0744474  56.9727421  72.0210894  59.6498692  56.3179612
  71.7451160  60.3226623  57.4804448  72.2543389  60.0483195  56.9515289
  58.4879991  61.2461199  50.1279483  58.5740243  60.8693068  50.9093013
  59.1155789  60.8721645  49.6499441  58.5936542  61.1346681  50.1724960
  76.2322823  53.7719103  54.4851405  76.6133334  53.0897274  54.8719279
  75.4286107  53.4828705  54.3027070  76.1699284  53.6286151  54.5155461
  73.5135399  64.3043078  45.1704228  74.3276038  64.5957971  45.0586999
  73.4494541  63.6502941  44.5962521  73.6238138  64.2508273  45.0693065
  69.3843308  67.7764596  50.2976540  70.0217255  67.5376343  50.8428333
  69.8098379  67.9801755  49.5629701  69.5419474  67.7715606  50.2693697
  64.0755950  70.0152932  54.1810844  64.1160095  70.2867783  53.3530623
  64.6350474  70.5394840  54.5968632  64.1639296  70.1328687  54.1202732
  70.0246123  62.9966886  44.6351429  70.4091275  62.7774592  45.3867974
  69.7757743  63.8229831  44.7652506  70.0448195  63.0865032  44.7652506
  70.1914663  56.2773301  64.3514014  69.8768104  57.0472864  64.0883576
  69.8704596  55.7143557  63.7666241  70.0973582  56.3083570  64.2255364
  71.7664780  68.2537019  51.9770326  71.8403788  68.0912190  52.8312176
  72.5834286  68.4427208  51.7330808  71.8981138  68.2573761  52.0668352
  65.5270536  68.5994881  49.0064770  64.7008654  68.8456619  48.8799049
  65.5882528  68.5206962  49.8726828  65.4144703  68.6239830  49.1153714
  67.7446560  54.6663822  49.9660210  66.8768986  54.7386422  50.0317819
  68.0321764  55.4685901  50.1548185  67.6586308  54.7957969  50.0034977
  76.8679449  54.8141682  58.2971532  77.6133041  54.6251492  57.8834957
  76.4516753  55.3399920  57.7385388  76.9164423  54.8643827  58.1536105
  70.3069365  71.2171762  46.7083800  70.5967664  70.8260743  45.9843026
  71.0372846  71.3988466  47.1489075  70.4576250  71.1865575  46.6666607
  70.8964111  66.0189507  57.7936930  70.3975804  66.7305275  57.8721819
  71.7064335  66.3390174  57.7555093  70.9420217  66.1716356  57.7993499
  68.2475281  73.1939144  49.7743949  68.0275576  72.9036499  50.5670616
  68.0269803  72.5354099  49.2461862  68.1822875  73.0538852  49.8132858
  67.1592228  65.2812460  52.0399651  66.8705477  64.6549932  52.5745378
  68.0275576  65.2232748  52.1064332  67.2452480  65.1800005  52.1290606
  77.9470126  60.4247244  52.3581633  77.6034892  59.7037579  52.7088883
  78.0463168  60.2161095  51.5159991  77.9112169  60.2871447  52.2853313
  67.3624501  66.9207712  47.9642016  68.1170469  67.3020751  48.1777479
  66.7695114  67.3718855  48.4188713  67.3861215  67.0436539  48.0624895
  69.8231169  58.8770552  63.0899228  69.0130944  59.1828332  62.9789071
  70.3005855  59.5976134  63.2051812  69.7734647  59.0285153  63.0906299
  68.6822728  68.0916273  53.3382132  68.1603482  68.2316565  54.0233996
  69.0696748  67.3326937  53.5284249  68.6626429  68.0001797  53.4683208
  65.6713912  58.1422082  47.4077086  65.3838708  57.7723352  46.6709033
  66.3584380  58.6116937  47.1460791  65.7302809  58.1569051  47.2592162
  70.1089054  65.1220292  48.7363623  69.9131836  65.7295026  48.1423926
  70.3323399  64.4288236  48.2555296  70.1123695  65.1097817  48.5779703
  68.5067584  62.0075030  48.8544491  69.2290236  62.1716188  48.3948297
  68.0275577  62.7284695  48.7483831  68.5431314  62.1373259  48.7710105
  76.4661091  58.3438829  54.2341176  75.6272192  58.3700108  53.9979439
  76.5365459  58.9909564  54.8146522  76.3529485  58.4434954  54.2850293
  66.1575200  64.4133102  57.9598631  66.6696297  64.6917356  57.3107391
  65.8711543  65.1522396  58.3261444  66.1910064  64.5635456  57.9188509
  74.9130370  55.2424206  48.9668792  75.6156722  55.0431954  48.4888750
  74.6474558  54.4700148  49.2737635  74.9777002  55.0987172  48.9414233
  63.2442107  58.9203294  48.2562367  63.3458243  59.7229456  48.5843343
  64.0397993  58.7190630  47.9585448  63.3770012  59.0089193  48.2597723
  69.6758926  56.5059491  58.0199672  69.4842123  56.5214625  58.8699096
  70.5257522  56.7023165  57.9966327  69.7734648  56.5373842  58.1422967
  64.0605839  59.0350472  55.9983489  63.9191331  58.1834413  56.1227997
  64.3446402  59.0779133  55.1745695  64.0813685  58.9150222  55.8951113
  74.2144431  60.8717563  50.1427977  73.9679145  60.7913313  50.9764766
  74.5429554  60.0871030  49.9490505  74.2265675  60.7443828  50.2375500
  70.1741458  63.6074281  59.5550960  70.3184834  64.1875489  58.9194070
  70.5217107  63.9850578  60.2600815  70.2468920  63.7494985  59.5649955
  72.3461376  62.8064449  57.3376092  71.5984690  62.9995464  56.9324370
  72.5002901  61.9809669  57.1000213  72.2583803  62.7129561  57.2421498
  72.5863153  56.7015000  58.2271495  73.0435767  57.4338975  58.3544288
  72.6619482  56.2781465  58.9858751  72.6654123  56.7472238  58.3572572
  64.8296144  56.9480820  59.3160939  64.2938334  56.3361178  59.6321706
  64.8913909  57.5228956  59.9694606  64.7591777  56.9427748  59.4596366
  77.0590479  49.8804875  52.0965338  77.1774047  50.3381339  51.3632641
  76.8852655  49.0750137  51.8101556  77.0509650  49.8298648  51.9466272
  72.4292761  70.4892695  48.5320084  73.1942652  70.2202338  48.2102748
  72.3270851  70.0042705  49.2490147  72.5274257  70.3782259  48.5899911
  70.4645531  58.6917104  55.0713320  69.6741606  58.5108564  55.3930655
  70.8606154  57.9144057  55.0543614  70.4062407  58.5504565  55.1165868
  74.9511422  67.5204878  40.5120033  75.7184407  67.5805003  40.1025885
  74.5042731  66.9485320  40.0276352  74.9984849  67.4441454  40.3797743
  75.8489217  66.3259534  52.7972765  75.1734219  66.0944767  53.2986152
  75.8581593  65.7180717  52.1714870  75.7507722  66.2018459  52.7788918
  72.9783361  61.1677363  59.5536818  72.9142502  62.0287320  59.4256955
  73.1180549  60.8509356  58.7532370  72.9898831  61.2477530  59.4165031
  71.6602455  63.8609503  53.6953021  71.2364704  64.0614002  52.9592040
  71.4847310  63.0138351  53.8077321  71.5713336  63.7658284  53.6026711
  66.9484900  64.3561554  49.1280994  67.1049519  64.2908357  49.9836986
  67.2885493  65.1310107  48.9159673  67.0218135  64.4610752  49.2235588
  73.4864045  63.7319438  47.9974357  74.0279590  63.2289819  48.4612978
  73.8010604  63.6784632  47.1863842  73.6128442  63.6498859  47.9458169
  71.6550494  69.1236789  45.2814385  71.7243315  68.2651328  45.4207385
  72.4338949  69.3408670  44.9533410  71.7803344  69.0289653  45.2531542
  74.6353314  58.6255742  58.0496658  74.8495283  57.9866656  57.4960012
  74.0187213  59.0701566  57.6204519  74.5758643  58.5965886  57.9047089
  63.5219161  61.5396504  49.4441761  63.9018126  61.9581049  48.7802028
  62.9474526  62.1209960  49.7510604  63.4930486  61.6874363  49.3918502
  76.7992402  60.2344807  58.9879965  75.9869084  59.9270698  59.0693137
  77.2582337  59.7543807  59.5522677  76.7472787  60.1181300  59.0834559
  76.2097657  68.1124479  49.4356909  75.8512311  68.2839122  50.2120941
  75.7236367  68.5737685  48.8784907  76.0856354  68.2063450  49.4682178
  74.0268043  51.7355678  53.0384000  73.1561601  51.7094399  52.9917310
  74.2808384  51.5632870  52.2209846  73.9361603  51.7065821  52.9104137
  70.9986022  63.7923645  41.9757143  71.2878547  64.5688527  42.2500718
  71.0857821  63.2812376  42.6771643  71.0540278  63.8315563  42.1199641
  71.0517183  53.7461906  54.4957471  70.5355672  53.0542098  54.6209050
  70.4911112  54.4132683  54.4420069  70.8923696  53.7425164  54.5063537
  73.1209417  54.2854866  56.3250323  72.7341170  54.3103898  57.1063853
  72.6342354  53.7196545  55.8724840  72.9921925  54.2050617  56.3738227
  72.7866558  51.1721852  58.6160583  73.4159676  51.7082152  58.3381654
  72.9552421  51.0799211  59.4674149  72.9044353  51.2383214  58.7009111
  72.5880473  55.9593046  60.8886995  73.4153902  55.6878195  60.9445609
  72.6088319  56.7553888  61.2450813  72.7133323  56.0372801  60.9502178
  67.1649963  63.1056909  54.0757255  66.3237970  63.0060783  54.2836149
  67.3739971  63.8752390  54.4271576  67.0714656  63.2048953  54.1584570
  64.6425530  60.7276446  51.9042006  64.2482228  60.8019458  51.1292116
  64.0865647  61.1134393  52.4550368  64.5028342  60.7958221  51.8709666
  76.2790477  53.7057740  51.5845885  76.4840070  53.6380048  52.4302882
  75.9516901  54.5116561  51.5167062  76.2605725  53.8143681  51.7005540
  70.9766628  61.0338308  53.3254853  70.6729765  60.4794297  53.9265261
  70.2746049  61.2130518  52.8382887  70.8282838  60.9783091  53.3424559
  70.0332725  58.3438828  47.8899555  70.3092459  57.6257741  47.4777122
  70.6331394  58.9423748  47.6820661  70.1625990  58.3259199  47.7980316
  69.0384979  68.2488029  58.0326951  68.9305334  68.2590091  58.8989009
  69.2480760  69.0742810  57.8431905  69.0535090  68.3729104  58.1331042
  73.5343245  56.0152346  46.1646150  73.9886992  56.1862906  46.8893994
  74.0083291  55.4020456  45.7643926  73.6711566  55.9503231  46.2119911
  67.0558771  65.5000672  55.4948888  66.4646704  66.1410170  55.4651903
  67.8179794  65.9238289  55.4680188  67.0807031  65.6576510  55.4864036
  67.4519394  56.6602669  56.1616906  67.9120875  56.7341599  56.8992030
  67.4975500  57.4583923  55.8116727  67.5269949  56.7896816  56.2189662
  69.1002743  57.3269364  60.7288933  68.7088309  56.6802711  61.1644711
  69.2688606  57.9180799  61.3483188  69.0673654  57.3183632  60.8851639
  70.8756265  62.7194880  47.2691157  71.6198310  63.1069156  47.5074107
  71.0216962  61.8752305  47.4331645  71.0066851  62.6525353  47.3285127
  72.7935841  54.5145139  52.3023018  71.9471886  54.6867947  52.1764368
  72.7906973  53.7094483  52.6388847  72.6682991  54.4206168  52.3334145
  73.8634141  58.2920353  53.1685076  73.3894096  57.7662115  53.6790387
  74.2352277  57.7449826  52.5999938  73.8484030  58.1336350  53.1600224
  64.2407171  60.2891860  58.5368622  65.1032784  60.1887569  58.4505952
  63.9098954  59.7086569  57.9754194  64.3192368  60.1883487  58.4414028
  75.7917641  59.1856908  46.2310830  75.2640660  59.2685652  45.5416539
  76.2513349  59.9274779  46.2275475  75.7819491  59.3077570  46.1285525
  67.6008957  59.1134309  55.1979040  66.9762028  59.1252701  54.5904993
  67.2654552  59.5894484  55.8470281  67.4594449  59.1852826  55.2035609
  67.7850706  57.4559427  41.2551725  67.4363510  58.1079153  41.7183275
  67.3047152  57.4416540  40.5275597  67.6620950  57.5502481  41.2162817
  64.3134633  67.1734769  56.6382805  63.7834557  66.4827208  56.6877779
  64.5859726  67.1644954  55.8095513  64.2759355  67.0701901  56.5230221
  75.3454723  67.7560471  45.3620487  76.0688922  68.2218584  45.2185061
  74.9055314  67.8234081  44.6118084  75.3870416  67.8344308  45.2305269
  74.5140879  64.6158014  56.6121176  73.8997872  64.0716064  56.9069812
  75.0308163  64.1022250  56.1326992  74.4996541  64.4594423  56.5845405
  73.7537176  65.6862284  54.3465475  73.3264784  65.0612002  53.9130910
  73.7462120  65.4037206  55.1724482  73.6896317  65.5515064  54.4045302
  66.8699703  60.7227457  57.4153909  67.0293189  59.9670781  57.8205631
  66.6892596  61.2718396  58.0694647  66.8665062  60.6921271  57.5716615
  74.8120006  52.8888692  57.9704698  74.3160567  53.0852367  57.2796265
  75.5689068  53.2881361  57.7993500  74.8506830  52.9766426  57.8424835
  72.0822885  56.5631038  54.5608009  72.1065373  56.0291151  53.8720789
  72.3334359  56.0548347  55.2233599  72.1232804  56.4091942  54.5572654
  59.5930475  63.8462533  53.9951153  59.4873924  63.8009378  53.1303237
  58.8430695  64.1916314  54.2765438  59.4666078  63.8903441  53.9088483
  68.3624208  55.2901856  53.9413753  68.4022579  55.7911063  54.6548461
  67.5373872  55.3812250  53.6719676  68.2463734  55.3783673  54.0064291
  69.7838571  61.8062366  56.2387652  68.9530501  61.9736184  56.0322900
  69.7290088  61.4298317  57.0236537  69.6527986  61.7752098  56.3236180
  67.5922354  55.2971259  61.8744063  68.2175058  54.7533392  62.1473495
  67.1372834  54.8166177  61.3051853  67.6170615  55.1460741  61.8305657
  68.1574615  60.0817958  46.7677770  68.2977576  60.5790422  47.4706411
  68.6557148  59.3804252  46.9091984  68.2515696  60.0519937  46.8929349
  68.1874837  60.9485069  44.0970347  68.8219917  61.5445494  44.0319808
  68.2700448  60.6488526  44.9116217  68.2931388  60.9925977  44.2073433
  69.7653820  56.8799044  44.0715789  70.0869661  56.4002127  43.4175051
  70.0280764  57.6898690  43.8806600  69.8519845  56.9288942  43.9471281
  75.1612975  56.2671238  56.4339268  75.5868047  55.8143765  55.8222794
  74.5469968  55.7131309  56.7104055  75.1341620  56.1185214  56.3844293
  64.6927825  63.1452910  47.3659893  65.2020054  63.7417417  47.7471198
  65.1662097  62.8778883  46.6836312  64.8371201  63.1938725  47.3214415
  73.6007198  52.7386338  49.8429845  72.9575516  52.5883984  50.4114983
  73.2606605  52.4928683  49.0778949  73.4552275  52.6798461  49.8132860
  67.0518357  59.7809168  50.2333073  66.3330346  60.1973301  50.5005937
  67.4230719  60.3463407  49.6824711  67.0010289  59.9258450  50.1915880
  76.3517938  60.4137017  56.1235069  76.3315865  60.2320312  56.9769848
  76.3997138  61.2849036  56.0994653  76.3552579  60.5153555  56.2458364
  72.8264931  58.8207168  45.5706453  72.2329770  59.1424165  45.0191020
  72.8640209  57.9748263  45.3627559  72.7439320  58.7431496  45.4589224
  75.7022748  58.7786673  49.0008203  75.4736441  58.8019374  48.1586561
  75.9620824  57.9544140  49.1203213  75.7068936  58.6602753  48.8933401
  69.9841976  60.6321146  58.6033303  69.4720879  60.0242329  58.9618334
  69.8121472  61.3477738  59.0707279  69.8831613  60.6484445  58.7249527
  64.8307691  59.0758721  61.2535665  64.6610281  59.7360096  60.7083871
  64.3873641  59.2865282  61.9748154  64.7407024  59.2044703  61.2797294
  68.7567510  57.3163219  50.2962399  69.2324877  57.6780299  49.6612580
  68.2556110  57.9719686  50.5762541  68.7532869  57.4657408  50.2439139
  73.8611047  58.5545390  61.0435559  74.4182477  58.3259200  60.4114024
  73.5372112  59.3151056  60.7670771  73.8957457  58.6329227  60.9092056
  61.7309755  61.9805587  56.5124155  61.1836475  61.3106232  56.6305023
  62.5202134  61.6135434  56.5767622  61.7661939  61.8270573  56.5392855
  70.7994163  59.4604419  43.6635782  71.1793128  59.4784048  42.8786897
  70.0586759  59.9058408  43.5426630  70.7463001  59.5286193  43.5299351
  78.4279454  57.7686610  49.2511361  78.4273680  57.6135266  50.1095638
  78.2235634  58.6149597  49.1952747  78.3979232  57.8707231  49.3699301
  60.4896725  61.1926394  53.6670178  60.3118486  60.7403003  54.3925093
  60.2015747  61.9952556  53.8508655  60.4209678  61.2448952  53.8013681
  76.1520306  62.4484112  52.9047568  76.6473971  61.7307107  52.8651588
  75.3420082  62.1454909  52.7902055  76.1064199  62.2981758  52.8821294
  71.5978918  66.2981925  45.0544572  70.7890240  65.9748598  45.0077882
  72.1053826  65.5915147  44.9872821  71.5528584  66.1463241  45.0374867
  62.2269195  63.7254118  50.7791937  61.3614714  63.7139809  50.6674708
  62.3268011  63.5384341  51.6263076  62.1143362  63.6960179  50.8880881
  67.8526205  73.4952017  54.3522042  68.1672764  74.3088405  54.3599824
  68.2619618  73.1102235  55.0204201  67.9594303  73.5580719  54.4526134
  74.8050724  68.9122063  51.9225854  75.2761902  69.6262326  52.0915839
  75.1410903  68.3120814  52.4585724  74.9245839  68.9293528  52.0258230
  71.7220219  53.6849534  58.8783949  71.8548125  52.8880527  59.2064925
  72.1065372  54.2115937  59.4582225  71.7976548  53.6449451  59.0127452
  74.7952574  50.6079860  55.4765042  73.9898538  50.4977590  55.7932881
  74.6659310  50.7092316  54.6194908  74.6572707  50.6063530  55.3973083
  78.2518535  56.7725352  56.0704739  77.6681524  57.2734559  55.6582307
  78.5722829  56.2654908  55.4369063  78.2131710  56.7717187  55.9163246
  70.7913334  55.6865947  46.3463414  71.6129028  55.8564260  46.1045109
  70.3282985  55.8413208  45.6229712  70.8444496  55.7347680  46.2035058
  69.3808666  53.6808709  57.1261843  69.9253079  53.3399836  57.7166185
  69.4345602  54.5394171  57.2683127  69.4697785  53.7563968  57.2343716
  65.1939225  67.4425125  54.0000651  65.7984082  67.4020959  53.3714471
  64.9866537  68.2896277  54.0304707  65.2528122  67.5613128  53.9116767
  60.4290507  66.4259743  53.8699574  60.3314785  65.6156014  54.1789631
  61.2119377  66.4051536  53.4845842  60.5306644  66.3026833  53.8586437
  34.8657962   0.8531190  35.6335973  34.1140861   0.4746729  35.4052018
  35.3143973   0.8849624  34.8854784  34.8207628   0.8016797  35.4893475
  40.3182921   1.2756560  31.0621520  39.9834290   1.9533481  30.6265742
  40.8309792   0.8861871  30.4738392  40.3448503   1.3181138  30.9108312
  39.8587213   3.2270829  37.0032632  40.2426592   3.7957727  36.4637407
  39.7946354   2.5020339  36.5238448  39.9060640   3.2046292  36.8526494
  36.4442718   0.8649582  37.8998746  36.5453081   0.0549936  38.2095874
  35.8484463   0.7706529  37.2698424  36.3715256   0.7314611  37.8524984
  36.2843457   5.7827172  39.3013602  36.9280913   6.2240336  39.6909760
  36.6099713   4.9780598  39.2143861  36.4275286   5.7292366  39.3459079
  29.6407762  -3.1130131  37.5251079  29.4057946  -3.9462479  37.4183348
  29.7793403  -2.8325465  36.7112280  29.6263424  -3.1946628  37.3893434
  36.9864037  -1.2060853  34.6733464  37.3079878  -0.6655646  34.0694772
  37.6336134  -1.7764082  34.8055753  37.1290092  -1.2101678  34.6040499
  31.2025087   1.7655540  38.8007286  30.7192665   2.4906029  38.7766869
  32.0148405   2.0631670  38.9117443  31.2515834   1.9157894  38.8134565
  37.2739241   0.5587721  41.4057100  36.7566182   0.1995136  40.8018408
  37.9713632   0.0349895  41.4163166  37.3004822   0.4285408  41.3187359
  40.9302833   1.0082535  47.3673273  41.0186179   0.8208675  48.2151483
  41.3592545   0.3619964  46.9678120  41.0064935   0.8845542  47.4345025
  38.4973292   0.2913695  46.3490935  37.9344127  -0.1213696  46.8730596
  39.2594316   0.2166600  46.7684079  38.5267741   0.2191095  46.4883936
  34.0569284   2.2811716  38.9527565  34.7589863   1.7663705  39.0100322
  33.9766767   2.6085867  39.7574441  34.1493044   2.2525942  39.0800358
  33.3820059  -1.5281932  38.4613173  34.2208959  -1.2958999  38.5086935
  33.4131828  -2.3977621  38.3920209  33.5101777  -1.6224986  38.4577818
  34.0072762  -1.1081057  42.7626479  34.5470987  -1.2509926  43.4329851
  33.3242709  -0.7084306  43.1310505  33.9864916  -1.0701386  42.9160901
  41.0422892   0.4391554  50.0317057  41.8263309   0.5522401  50.3972799
  40.8419486  -0.3867309  50.2275742  41.1288917   0.3338273  50.1151443
  41.1993285   2.3501656  43.6783512  40.4008531   2.1101156  43.9357381
  41.6479297   2.4016049  44.4250560  41.1467897   2.3224047  43.8268436
  29.8203321  -4.1021987  40.1972645  29.6378894  -4.1275101  39.3444937
  30.5552990  -3.6323049  40.2361554  29.9017385  -4.0360625  40.0770563
  30.8509023   0.3975140  41.1150891  30.8913169   0.6689991  40.2870670
  31.4103547   0.9217048  41.5308678  30.9392369   0.5150895  41.0542779
  38.5417853  -1.3640774  38.9110373  38.6156861  -1.5265602  39.7652223
  39.3587359  -1.1750585  38.6670855  38.6734211  -1.3604032  39.0008399
  32.3023610  -1.0182911  35.9404817  31.4761727  -0.7721174  35.8139095
  32.3635601  -1.0970830  36.8066875  32.1897777  -0.9937962  36.0493761
  37.0822439   1.5993969  33.6423846  37.3720737   1.2082950  32.9183073
  37.8125919   1.7810674  34.0829122  37.2329323   1.5687783  33.6006653
  35.0228354   3.5761351  36.7083996  34.8028650   3.2858706  37.5010663
  34.8022876   2.9176306  36.1801909  34.9575948   3.4361060  36.7472905
  37.1896310   4.9490741  35.4914689  37.8420368   4.4167184  35.7205715
  36.4921919   4.5959394  35.8782563  37.1827028   4.8180264  35.5826856
  34.1377575  -2.6970081  34.8982063  34.8923543  -2.3157042  35.1117525
  33.5448187  -2.2458937  35.3528759  34.1614288  -2.5741254  34.9964941
  35.4575801  -1.5261520  40.2722178  34.9356555  -1.3861228  40.9574043
  35.8449822  -2.2850855  40.4624296  35.4379502  -1.6175996  40.4023255
  41.6542806   0.2133940  34.2582747  41.4129482  -0.5198200  33.8509812
  41.8344139   0.7620797  33.6049080  41.6450430   0.1856331  34.1012970
  36.0222287   2.1799260  43.3552034  36.1711850   1.6202176  42.7025438
  36.8022289   2.2591262  43.7384553  36.1596380   2.1084826  43.3148983
  38.5475587   2.3513903  44.6336525  38.4719258   1.6822714  45.1887313
  38.4765446   3.0531691  45.1477191  38.5256194   2.3558811  44.7913373
  39.2045834   0.8714902  35.4660131  39.9695725   0.6024546  35.1442795
  39.1023924   0.3864912  36.1830193  39.3027330   0.7604467  35.5239958
  37.9367222   5.7582223  43.0914525  38.4263152   5.0593012  42.9090190
  37.3651454   5.4606093  43.6790583  37.9251752   5.6108447  43.1515566
  38.4303567  -0.4941003  32.2154432  38.4996388  -1.3526465  32.3547432
  39.2092023  -0.2769123  31.8873456  38.5556418  -0.5888140  32.1871589
  42.8211055   1.9296698  36.4290925  42.4290847   1.6263413  35.7113791
  42.9764127   2.7665788  36.2395879  42.7864645   2.0080535  36.2947422
  35.8138052  -1.3689763  44.9666998  35.7058407  -1.3587701  45.8329056
  36.0233834  -0.5434983  44.7771951  35.8288163  -1.2448689  45.0671089
  43.5901360   1.3332191  39.8620960  43.3921049   1.8223005  39.1677171
  42.9689071   1.5373432  40.4405093  43.4688925   1.4348729  39.8444183
  31.0887706  -2.4443024  43.5722851  30.5587631  -3.1350585  43.6217826
  31.3612800  -2.4532838  42.7435560  31.0512428  -2.5475892  43.4570267
  26.3683548  -5.7715259  40.9291200  26.2626997  -5.8168415  40.0643284
  25.6183768  -5.4261479  41.2105485  26.2419151  -5.7274351  40.8428529
  39.7703866  -1.7159874  44.5254652  39.2628957  -1.1624027  44.9695282
  39.4730512  -1.6551584  43.7073426  39.6508751  -1.6253563  44.4703108
  42.3811646   2.2003384  32.4558595  41.6640956   2.0264246  31.9905832
  43.0318384   1.9655956  31.9234081  42.3713497   2.1399176  32.3087813
  39.0146351   3.2164684  41.4311658  38.7912006   2.4583514  41.7995685
  38.5256195   3.2462705  40.7092098  38.9089800   3.1086909  41.3788399
  37.6624808   3.4365142  38.8848743  37.2485207   2.7739273  38.4952585
  38.3472182   3.5843001  38.3644437  37.7023180   3.3605801  38.7505240
  41.0290102   2.5955228  39.6372360  40.6306386   2.7057498  38.8693180
  40.4141322   2.8037294  40.2198919  40.8788992   2.6428796  39.6103659
  34.6279278   3.8774224  41.2862089  34.9425837   4.6910613  41.2939871
  35.0372691   3.4924443  41.9544248  34.7347376   3.9402926  41.3866181
  43.6680782   0.9045584  51.0357973  43.7777748   0.1154145  51.3914720
  43.9971679   0.8151520  50.2332311  43.7333188   0.7751437  50.9700364
  31.9692298  -2.1752667  40.9340698  32.5737155  -2.2156833  40.3054518
  31.7619611  -1.3281515  40.9644753  32.0281195  -2.0564665  40.8456814
  41.7836070   0.0913278  42.1502935  42.6034444  -0.0523756  42.4119230
  41.5030148   0.7159477  42.6919373  41.8632814   0.1623630  42.2690874
  27.2043580  -3.1918050  40.8039621  27.1067858  -4.0021778  41.1129677
  27.9872450  -3.2126257  40.4185889  27.3059717  -3.3150960  40.7926484
  58.2549721   7.7478129  35.1145811  58.2243725   8.6022766  35.2864081
  58.8531069   7.4473422  35.6731955  58.3386878   7.8294626  35.2220614
  51.4549405   6.8353780  39.8698742  50.5987301   6.9962279  39.9207858
  51.5017059   5.9645844  39.8903803  51.3348517   6.7304582  39.8804808
  54.7643122  13.1040306  49.4759198  55.4709889  12.6092337  49.6046132
  54.9531057  13.5449388  48.7461856  54.8971028  13.0958656  49.3868243
  51.2915505  16.7941868  31.0621520  50.9566873  17.4718789  30.6265742
  51.8042375  16.4047179  30.4738392  51.3181086  16.8366446  30.9108312
  50.8319796  18.7456136  37.0032632  51.2159176  19.3143035  36.4637407
  50.7678937  18.0205647  36.5238448  50.8793223  18.7231600  36.8526494
  54.3001226   8.8945824  42.5130393  54.8457186   9.5730911  42.5724363
  54.2418103   8.7533285  41.6531975  54.3717141   8.9737826  42.3942454
  56.0766295  10.3230431  33.3864121  55.9605821  11.0738117  33.8156259
  56.8722182  10.0654385  33.6360208  56.1770884  10.3965278  33.4868213
  40.6140346  12.4055177  37.5251079  40.3790530  11.5722829  37.4183348
  40.7525986  12.6859843  36.7112280  40.5996008  12.3238680  37.3893434
  42.9130433   4.5740908  40.4235387  42.2935465   3.9833555  40.2545402
  42.8114297   5.1652343  39.7899710  42.8068109   4.5744990  40.3040377
  50.0098329   6.3140449  34.7567850  50.7078493   6.4928577  35.2489313
  50.3250661   5.7910789  34.1338240  50.1593666   6.2634221  34.7369860
  42.6399566   8.1193189  42.6678956  42.5158263   8.7055635  43.3028775
  43.2917851   7.6253385  42.9691231  42.7173215   8.1331994  42.8064885
  47.6657907  11.2954906  41.9466467  48.3106910  10.8027349  41.6277416
  47.9059684  11.4379693  42.7732545  47.7968492  11.2432348  42.0216000
  50.2043998  14.1409812  41.5973360  50.4867241  13.3461218  41.3760116
  50.9330159  14.6190400  41.6178421  50.3533562  14.0944409  41.5676375
  48.1825192   1.6832846  38.8389125  47.8528522   2.1343990  38.1692824
  47.5070194   1.6049009  39.3862131  48.0335629   1.7383981  38.8212348
  53.7995601  11.0538076  31.6978411  53.7146896  11.9099042  31.8427980
  54.2879984  10.7782400  32.3660570  53.8584498  11.1395397  31.8180492
  54.7314034   7.6722870  33.1976146  54.2025505   7.8882503  33.8573452
  55.2539054   8.3659008  33.1177115  54.7302487   7.8066007  33.2831745
  60.1862087  13.2469174  38.5709191  59.3559790  13.4579818  38.7342607
  60.1371339  12.4206229  38.2951474  60.0568822  13.1558781  38.5546556
  46.6213642  11.5686087  31.9983614  46.0370857  12.0736118  32.4049478
  46.2183737  11.3428474  31.2580206  46.4752945  11.6094335  31.9488639
  51.9035416  16.5267843  47.3673273  51.9918762  16.3393983  48.2151483
  52.3325129  15.8805272  46.9678120  51.9797519  16.4030850  47.4345025
  51.0790856   7.8151739  30.4752535  51.3186860   8.0229722  29.6627878
  51.4006697   7.0109247  30.5841479  51.1628014   7.7265840  30.3713088
  59.6816045   5.8939575  42.3659612  58.8444466   5.9641762  42.6007206
  59.6504276   5.8964070  41.4933914  59.5534327   5.9049802  42.2719160
  46.0780774   8.0372611  48.0807981  46.2501278   7.9278505  48.9293262
  46.6150132   8.6827016  47.8439173  46.1825778   8.1164612  48.1713077
  44.7438211   2.1515453  31.0190186  44.5613784   2.3687334  30.1931178
  45.6063824   2.2654466  31.0748800  44.8442800   2.2005351  30.9044673
  54.4046231  10.0895251  37.9571503  55.1603746  10.5226766  37.9960412
  54.5108555   9.4400021  38.5306139  54.5316401  10.0572735  38.0469529
  57.4426402  13.9168529  38.7073906  57.0061634  13.9205271  39.4632878
  57.1089317  14.5974028  38.2753484  57.3289022  14.0180985  38.7554739
  52.0155476  15.9576862  50.0317057  52.7995892  16.0707709  50.3972799
  51.8152070  15.1317999  50.2275742  52.1021501  15.8523581  50.1151443
  40.3842491  10.6304542  42.9160901  40.1180906   9.8143658  43.0751891
  40.3981055  10.6757697  42.0456416  40.3467213  10.5161446  42.8114382
  44.2900238   5.4289626  29.5312659  43.5758415   5.1427806  29.9435091
  44.7744207   5.7686252  30.1719046  44.2559601   5.4371276  29.6868294
  45.1341097   4.1682920  45.5627908  44.4412894   3.6979900  45.8088640
  45.7501425   3.9421224  46.1369615  45.1225627   4.0650052  45.6837061
  60.5770748  10.6349449  37.5993544  61.2387182  10.0740117  37.4989452
  59.9362160  10.1401479  37.9246235  60.5799616  10.4785858  37.6325884
  51.4647556  13.9319580  29.9074467  51.8798704  13.6004604  29.2158963
  50.6339486  13.6988482  29.7794603  51.4035565  13.8490836  29.7865314
  40.7935905  11.4163321  40.1972645  40.6111478  11.3910207  39.3444937
  41.5285574  11.8862259  40.2361554  40.8749969  11.4824683  40.0770563
  56.8635579  11.6514831  37.3405532  57.0991168  11.7960030  36.5132383
  57.0125142  12.4157239  37.7337046  56.9201382  11.7853885  37.2769136
  43.8581656   8.1348324  46.7054753  44.5821629   8.1201355  47.1919648
  43.9597793   8.8443679  46.2076722  43.9799865   8.2373027  46.7033540
  58.6926036  10.4916497  35.1775136  59.0234253  11.0244137  34.5715231
  59.2659124  10.5455385  35.8337087  58.8259715  10.5786066  35.1852918
  51.2326606  11.6147409  51.5703700  50.4399587  11.9290920  51.7556320
  51.3475533  11.8298877  50.7324485  51.1322016  11.6931245  51.4742035
  53.9057925   8.3381400  35.8598716  54.0004779   9.0770694  36.3138342
  53.2816768   7.9098875  36.2933281  53.8266955   8.3842720  35.9906864
  52.1610399  11.5167612  46.5088997  52.7349260  10.8794856  46.6637561
  52.0825202  11.5171695  45.6398655  52.2343633  11.4232724  46.4035408
  40.7606815   8.2956822  40.3471711  41.3380318   8.1593273  40.9863957
  40.0620877   7.8392606  40.6017296  40.7427836   8.2079088  40.4794001
  54.1580946  10.1830139  29.0935668  54.0761109  10.2532327  29.9590655
  54.7960666  10.7459883  28.9019409  54.2400783  10.2769111  29.1925618
  47.5174117   9.9490877  38.5610195  47.2593361   9.1162612  38.5341494
  47.5722600  10.1748490  37.7202695  47.4873895   9.8588649  38.4330331
  46.4908829   7.5028640  39.0475089  45.9158421   7.6620808  39.6839050
  46.1144506   6.8664049  38.5843540  46.3511642   7.4326453  39.0729648
  50.1582118   5.9751989  43.9067468  49.7696551   5.5506207  43.2519659
  49.4936816   6.2234139  44.4144494  50.0029046   5.9490710  43.8855336
  36.2365648   7.1468715  37.0619530  36.3225900   6.7700583  37.8433060
  36.8641446   6.7729160  36.5839488  36.3422199   7.0354197  37.1065007
  51.2621056  10.2050594  32.1044275  52.0761695  10.4965487  31.9927046
  51.1980197   9.5510456  31.5302568  51.3723795  10.1515788  32.0033112
  57.4830546  12.8876590  46.5173850  57.2469184  12.0564655  46.3985911
  58.1273775  12.8362197  47.1028695  57.5425217  12.7574278  46.5859744
  47.7731779   8.8974401  31.5691476  48.1576932   8.6782108  32.3208021
  47.5243400   9.7237346  31.6992553  47.7933852   8.9872547  31.6992553
  47.9400320   2.1780816  51.2854060  47.6253761   2.9480379  51.0223623
  47.6190252   1.6151072  50.7006287  47.8459239   2.2091085  51.1595410
  58.5066967  12.6721039  42.5802145  58.2012784  13.4049095  42.9415460
  57.7873183  12.2658968  42.2994931  58.3554309  12.7202772  42.5915282
  64.2068759   9.3114039  41.9070489  64.1393259   9.3309998  41.0373076
  64.1924422  10.1544367  42.1326160  64.1947516   9.4387774  41.8122966
  43.2756193  14.5002397  35.9404817  42.4494311  14.7464134  35.8139095
  43.3368184  14.4214478  36.8066875  43.1630360  14.5247346  36.0493761
  45.4932217   0.5671338  36.9000257  44.6254642   0.6393937  36.9657866
  45.7807421   1.3693417  37.0888232  45.4071965   0.6965485  36.9375023
  61.9927376   8.0858426  40.1817084  62.5435298   7.4526495  40.4214176
  61.9771492   8.6173818  40.8732588  62.0712573   8.0707374  40.3195942
  48.6449767  11.9197023  44.7276977  48.1461461  12.6312791  44.8061865
  49.4549992  12.2397689  44.6895139  48.6905874  12.0723871  44.7333545
  44.9077885  11.1819976  38.9739698  44.6191134  10.5557447  39.5085425
  45.7761233  11.1240263  39.0404378  44.9938137  11.0807520  39.0630652
  55.6955783   6.3254759  39.2921680  55.3520549   5.6045094  39.6428929
  55.7948825   6.1168610  38.4500038  55.6597826   6.1878962  39.2193360
  45.1110158  12.8215227  34.8982063  45.8656126  13.2028266  35.1117525
  44.5180771  13.2726371  35.3528759  45.1346872  12.9444054  34.9964941
  56.1568812  12.7880463  34.8345668  56.7226844  13.4473673  34.7504211
  55.5096715  13.1330161  35.3062070  56.1447568  12.9362405  34.8918424
  47.5716825   4.7778067  50.0239275  46.7616601   5.0835847  49.9129117
  48.0491512   5.4983650  50.1391859  47.5220304   4.9292668  50.0246346
  43.4199569   4.0429597  34.3417133  43.1324365   3.6730867  33.6049080
  44.1070037   4.5124452  34.0800838  43.4788466   4.0576566  34.1932209
  52.6275390  15.7319247  34.2582747  52.3862066  14.9987108  33.8509812
  52.8076723  16.2806104  33.6049080  52.6183014  15.7041639  34.1012970
  46.2553241   7.9082545  35.7884538  46.9775892   8.0723703  35.3288344
  45.7761233   8.6292210  35.6823877  46.2916971   8.0380775  35.7050152
  54.2146748   4.2446344  41.1681223  53.3757849   4.2707623  40.9319486
  54.2851115   4.8917079  41.7486569  54.1015142   4.3442470  41.2190339
  43.9060857  10.3140618  44.8938678  44.4181954  10.5924871  44.2447437
  43.6197200  11.0529912  45.2601491  43.9395720  10.4642971  44.8528556
  58.0904272   9.4514331  38.4542464  58.0038246   9.6069757  39.3077243
  57.6354752  10.0952406  38.0801869  58.0107529   9.5690086  38.5249571
  40.9927764   4.8210809  35.1902414  41.0943900   5.6236971  35.5183389
  41.7883650   4.6198145  34.8925495  41.1255669   4.9096708  35.1937769
  47.4244583   2.4067006  44.9539719  47.2327780   2.4222141  45.8039143
  48.2743179   2.6030680  44.9306374  47.5220305   2.4381357  45.0763014
  41.8091496   4.9357988  42.9323536  41.6676987   4.0841928  43.0568044
  42.0932059   4.9786648  42.1085742  41.8299342   4.8157738  42.8291160
  51.9630088   6.7725078  37.0768024  51.7164802   6.6920829  37.9104813
  52.2915211   5.9878546  36.8830551  51.9751332   6.6451343  37.1715547
  55.8578137  13.4808437  40.8654805  55.7192496  14.1789483  41.3703548
  55.0778135  13.3257094  40.5090987  55.7221364  13.5608604  40.8881079
  54.1956222   9.7804813  47.1177187  54.1904260   8.9084629  47.1219613
  54.9017216   9.9792982  46.6446643  54.3001226   9.6808687  47.0484222
  47.9227115   9.5081796  46.4891007  48.0670491  10.0883005  45.8534117
  48.2702764   9.8858093  47.1940862  47.9954577   9.6502500  46.4990002
  50.0947033   8.7071965  44.2716139  49.3470347   8.9002979  43.8664417
  50.2488558   7.8817184  44.0340260  50.0069460   8.6137076  44.1761544
  57.3531510  12.8386691  31.6271304  56.9738318  12.0523829  31.6200594
  56.6897755  13.3873548  31.4842949  57.1989984  12.8031515  31.6052101
  50.3348810   2.6022515  45.1611542  50.7921424   3.3346490  45.2884335
  50.4105138   2.1788981  45.9198798  50.4139780   2.6479754  45.2912619
  42.5781801   2.8488335  46.2500986  42.0423990   2.2368693  46.5661753
  42.6399566   3.4236471  46.9034653  42.5077434   2.8435263  46.3936413
  48.2131188   4.5924619  42.0053366  47.4227262   4.4116080  42.3270702
  48.6091810   3.8151572  41.9883661  48.1548064   4.4512080  42.0505915
  52.6997078  13.4212394  27.4460080  53.4670063  13.4812519  27.0365932
  52.2528387  12.8492835  26.9616398  52.7470506  13.3448969  27.3137790
  53.5974874  12.2267050  39.7312812  52.9219876  11.9952282  40.2326199
  53.6067250  11.6188233  39.1054917  53.4993378  12.1025975  39.7128964
  50.7269018   7.0684879  46.4876865  50.6628159   7.9294835  46.3597002
  50.8666206   6.7516872  45.6872417  50.7384488   7.1485045  46.3505078
  55.5991608  15.0832182  31.9622990  55.6811446  15.8899168  31.6384441
  56.0841351  15.1028141  32.6863764  55.6828766  15.2052844  32.0209889
  49.4088112   9.7617018  40.6293068  48.9850361   9.9621517  39.8932086
  49.2332967   8.9145866  40.7417368  49.3198992   9.6665799  40.5366758
  44.6970557  10.2569069  36.0621041  44.8535176  10.1915872  36.9177033
  45.0371150  11.0317622  35.8499720  44.7703792  10.3618267  36.1575635
  51.2349701   9.6326953  34.9314404  51.7765247   9.1297334  35.3953024
  51.5496260   9.5792148  34.1203889  51.3614098   9.5506374  34.8798216
  55.1066809  13.8429600  52.0441316  55.9201674  13.5714749  52.2046449
  54.9461775  13.5437140  51.2401512  55.2036757  13.7584526  51.9486722
  52.3838971   4.5263257  44.9836704  52.5980940   3.8874172  44.4300058
  51.7672870   4.9709081  44.5544566  52.3244300   4.4973401  44.8387135
  53.7943639  17.4482006  36.4290925  53.4023430  17.1448721  35.7113791
  53.9496711  18.2851096  36.2395879  53.7597228  17.5265842  36.2947422
  41.2704818   7.4404020  36.3781808  41.6503783   7.8588565  35.7142075
  40.6960183   8.0217475  36.6850651  41.2416143   7.5881879  36.3258549
  54.5478059   6.1352323  45.9220011  53.7354740   5.8278213  46.0033184
  55.0067993   5.6551323  46.4862724  54.4958443   6.0188815  46.0174606
  53.9583313  14.0131995  36.3696956  53.5997968  14.1846637  37.1460988
  53.4722024  14.4745200  35.8124954  53.8342010  14.1070966  36.4022225
  48.7471679   9.6931160  28.9097190  49.0364204  10.4696042  29.1840764
  48.8343478   9.1819891  29.6111689  48.8025935   9.7323078  29.0539688
  51.6431566   7.5412394  50.7048714  52.1131197   8.1654510  51.0916588
  51.6893446   6.8729370  51.2641928  51.7199442   7.5347074  50.8448785
  55.1188053  14.9035891  47.3164157  55.7567773  14.4096086  46.9826613
  54.4762144  14.8313291  46.7316383  55.1182279  14.8194899  47.1806512
  56.8445053   6.7525036  41.8830072  56.4172661   6.6651385  41.1278172
  56.2071106   6.8602812  42.4684916  56.6874660   6.7557696  41.8575514
  55.1742309  15.5955699  43.9569513  55.9634687  15.2444764  44.0771595
  55.3485907  16.4092087  43.6946147  55.3162591  15.6641556  43.9357381
  44.9135620   9.0064425  41.0097302  44.0723626   8.9068299  41.2176196
  45.1225628   9.7759905  41.3611623  44.8200312   9.1056468  41.0924617
  42.3911187   6.6283961  38.8382053  41.9967884   6.7026973  38.0632163
  41.8351304   7.0141908  39.3890415  42.2513999   6.6965736  38.8049713
  48.7252285   6.9345824  40.2594900  48.4215422   6.3801812  40.8605307
  48.0231705   7.1138034  39.7722934  48.5768494   6.8790606  40.2764605
  47.7818382   4.2446344  34.8239602  48.0578116   3.5265256  34.4117169
  48.3817051   4.8431263  34.6160708  47.9111646   4.2266714  34.7320363
  44.8044428  11.4008187  42.4288935  44.2132361  12.0417685  42.3991950
  45.5665451  11.8245804  42.4020235  44.8292688  11.5584025  42.4204082
  45.2005050   2.5610185  43.0956953  45.6606532   2.6349114  43.8332077
  45.2461157   3.3591439  42.7456774  45.2755606   2.6904332  43.1529709
  46.8488400   3.2276879  47.6628980  46.4573965   2.5810227  48.0984758
  47.0174263   3.8188315  48.2823235  46.8159310   3.2191147  47.8191686
  60.9234849  11.2313957  43.4266213  60.9817973  11.6800605  44.1726190
  60.2901317  11.6412769  42.9896293  60.8386144  11.3587691  43.4718762
  54.5633944  16.8517498  39.8620960  54.3653633  17.3408313  39.1677171
  53.9421655  17.0558740  40.4405093  54.4421508  16.9534037  39.8444183
  48.6241922   8.6202395  34.2031204  49.3683967   9.0076672  34.4414154
  48.7702618   7.7759821  34.3671692  48.7552507   8.5532868  34.2625174
  51.6119798   4.1927869  40.1025123  51.1379752   3.6669631  40.6130434
  51.9837934   3.6457341  39.5339985  51.5969687   4.0343865  40.0940270
  41.9892828   6.1899375  45.4708669  42.8518441   6.0895084  45.3845999
  41.6584611   5.6094085  44.9094241  42.0678025   6.0891002  45.3754075
  57.8756529   9.2530244  41.5131904  57.6354752   8.4136659  41.5174330
  58.3548536   9.3330411  42.2372677  57.9108712   9.1411644  41.6206706
  53.5403298   5.0864423  33.1650877  53.0126316   5.1693167  32.4756586
  53.9999006   5.8282295  33.1615522  53.5305148   5.2085086  33.0625572
  59.8761716   6.0331701  39.4661163  59.6371486   5.9927536  38.6281947
  60.0395617   6.8802853  39.5926884  59.8652019   6.1523786  39.3614645
  56.4807746  10.4181651  45.3966208  57.2041945   9.9654177  45.2177228
  56.2157708  10.6986316  44.6138536  56.5489019  10.3932619  45.2544923
  45.3494614   5.0141824  42.1319087  44.7247684   5.0260216  41.5245040
  45.0140209   5.4901999  42.7810327  45.2080106   5.0860341  42.1375656
  45.5336363   3.3566943  28.1891772  45.1849167   4.0086668  28.6523322
  45.0532809   3.3424056  27.4615643  45.4106607   3.4509996  28.1502863
  42.0620290  13.0742284  43.5722851  41.5320214  12.3834723  43.6217826
  42.3345383  13.0652470  42.7435560  42.0245012  12.9709416  43.4570267
  53.0940380  13.6567987  32.2960534  53.8174579  14.1226100  32.1525107
  52.6540971  13.7241596  31.5458131  53.1356072  13.7351823  32.1645315
  52.2626535  10.5165529  43.5461223  51.6483528   9.9723579  43.8409858
  52.7793820  10.0029765  43.0667039  52.2482198  10.3601938  43.5185451
  51.5022832  11.5869799  41.2805522  51.0750441  10.9619518  40.8470957
  51.4947777  11.3044721  42.1064529  51.4381974  11.4522580  41.3385349
  44.6185360   6.6234972  44.3493956  44.7778846   5.8678296  44.7545678
  44.4378253   7.1725912  45.0034693  44.6150719   6.5928786  44.5056662
  49.8308542   2.4638554  41.4948056  49.8551029   1.9298666  40.8060836
  50.0820016   1.9555862  42.1573646  49.8718461   2.3099457  41.4912700
  37.3416132   9.7470049  40.9291200  37.2359581   9.7016893  40.0643284
  36.5916352  10.0923829  41.2105485  37.2151735   9.7910957  40.8428529
  46.1109864   1.1909372  40.8753800  46.1508236   1.6918578  41.5888507
  45.2859529   1.2819765  40.6059723  45.9949390   1.2791188  40.9404338
  48.2939477  10.7570112  48.9774095  47.4435108  10.8941826  49.1131739
  48.4567605  10.0233890  49.4221796  48.1923341  10.6684213  49.0629694
  47.5324228   7.7069882  43.1727699  46.7016157   7.8743700  42.9662947
  47.4775745   7.3305832  43.9576584  47.4013643   7.6759613  43.2576227
  45.3408011   1.1978775  48.8084110  45.9660714   0.6540907  49.0813542
  44.8858491   0.7173692  48.2391900  45.3656272   1.0468256  48.7645704
  45.9060272   5.9825473  33.7017817  46.0463233   6.4797937  34.4046458
  46.4042804   5.2811768  33.8432030  46.0001353   5.9527452  33.8269396
  45.9360494   6.8492584  31.0310394  46.5705573   7.4453009  30.9659855
  46.0186105   6.5496042  31.8456264  46.0417045   6.8933492  31.1413480
  58.9143060   9.3808062  43.8996758  59.5060900  10.0205312  43.9314956
  59.3502054   8.6831098  44.1888825  59.0661491   9.3726412  43.9477590
  47.5139477   2.7806560  31.0055836  47.8355318   2.3009642  30.3515098
  47.7766421   3.5906206  30.8146647  47.6005502   2.8296458  30.8811328
  50.7436450  13.8025434  44.5254652  50.2361541  14.3561281  44.9695282
  50.4463096  13.8633724  43.7073426  50.6241335  13.8931745  44.4703108
  42.4413482   9.0460425  34.2999940  42.9505711   9.6424932  34.6811245
  42.9147754   8.7786399  33.6176359  42.5856858   9.0946240  34.2554462
  53.3544230  17.7188692  32.4558595  52.6373540  17.5449554  31.9905832
  54.0050968  17.4841264  31.9234081  53.3446080  17.6584484  32.3087813
  55.9392201   6.5953280  36.1999900  55.2683391   7.1382982  36.0712966
  56.6331951   7.0648136  35.9581595  55.9421069   6.7451551  36.1455428
  44.8004014   5.6816684  37.1673120  44.0816003   6.0980816  37.4345983
  45.1716376   6.2470922  36.6164758  44.7495945   5.8265965  37.1255927
  54.1003594   6.3144532  43.0575116  54.0801522   6.1327828  43.9109895
  54.1482795   7.1856551  43.0334699  54.1038235   6.4161071  43.1798410
  52.0449924  12.9031724  48.9823592  52.0045779  12.2581401  48.3968748
  52.8573243  12.8468342  49.2949004  52.1593078  12.7990691  48.9420541
  52.0022686  18.1140536  39.6372360  51.6038969  18.2242806  38.8693180
  51.3873906  18.3222602  40.2198919  51.8521575  18.1614104  39.6103659
  50.5750588   4.7214683  32.5046499  49.9815427   5.0431680  31.9531066
  50.6125866   3.8755779  32.2967606  50.4924977   4.6439012  32.3929271
  53.4508405   4.6794188  35.9348250  53.2222098   4.7026889  35.0926608
  53.7106481   3.8551655  36.0543260  53.4554593   4.5610268  35.8273447
  47.7327633   6.5328661  45.5373350  47.2206536   5.9249844  45.8958381
  47.5607129   7.2485253  46.0047326  47.6317270   6.5491960  45.6589574
  42.5793348   4.9766236  48.1875712  42.4095938   5.6367611  47.6423918
  42.1359298   5.1872798  48.9088201  42.4892681   5.1052218  48.2137341
  46.5053167   3.2170734  37.2302445  46.9810533   3.5787814  36.5952626
  46.0041767   3.8727202  37.5102588  46.5018526   3.3664923  37.1779186
  59.7364529  12.6892502  33.0215450  60.1198134  13.4383858  33.2513547
  58.9408642  12.9358322  32.7627439  59.6758311  12.8362196  33.0173024
  51.6096703   4.4552906  47.9775605  52.1668133   4.2266715  47.3454071
  51.2857768   5.2158571  47.7010818  51.6443114   4.5336742  47.8432103
  39.4795412   7.8813102  43.4464201  38.9322132   7.2113747  43.5645070
  40.2687790   7.5142950  43.5107669  39.5147596   7.7278088  43.4732902
  49.3279821   7.5420559  48.9427613  50.0791148   7.8572236  49.2567167
  49.5202397   7.3399730  48.1161534  49.4671235   7.5587941  48.8671008
  48.5479820   5.3611934  30.5975829  48.9278785   5.3791563  29.8126944
  47.8072416   5.8065923  30.4766677  48.4948658   5.4293709  30.4639397
  38.2382382   7.0933910  40.6010225  38.0604143   6.6410519  41.3265140
  37.9501404   7.8960071  40.7848702  38.1695335   7.1456467  40.7353727
  53.9005963   8.3491627  39.8387615  54.3959628   7.6314622  39.7991635
  53.0905739   8.0462425  39.7242102  53.8549856   8.1989273  39.8161341
  49.3464574  12.1989440  31.9884619  48.5375897  11.8756114  31.9417929
  49.8539483  11.4922662  31.9212868  49.3014241  12.0470757  31.9714914
  39.9754852   9.6261633  37.7131984  39.1100371   9.6147324  37.6014755
  40.0753667   9.4391856  38.5603123  39.8629019   9.5967695  37.8220928
  55.9657782  11.0995314  42.5264744  56.3912853  10.5769736  41.9735169
  55.6014702  11.6976152  42.0053367  55.9744384  11.1105542  42.3673753
  52.5536381  14.8129579  38.8565901  53.0247559  15.5269841  39.0255886
  52.8896560  14.2128329  39.3925771  52.6731496  14.8301043  38.9598277
  54.6413366  16.4230892  51.0357973  54.7510331  15.6339453  51.3914720
  54.9704262  16.3336828  50.2332311  54.7065771  16.2936745  50.9700364
  53.1910327  14.6047513  45.6193594  52.6431273  13.9805397  45.3513659
  53.6523356  14.7941785  44.9037673  53.1777537  14.5406563  45.4744025
  48.5398991   1.5873462  33.2803461  49.3614685   1.7571775  33.0385156
  48.0768642   1.7420723  32.5569758  48.5930153   1.6355195  33.1375105
  42.9424882  13.3432640  40.9340698  43.5469739  13.3028475  40.3054518
  42.7352194  14.1903792  40.9644753  43.0013779  13.4620643  40.8456814
  52.7568654  15.6098586  42.1502935  53.5767028  15.4661552  42.4119230
  52.4762731  16.2344784  42.6919373  52.8365397  15.6808938  42.2690874
  38.1776164  12.3267258  40.8039621  38.0800442  11.5163529  41.1129677
  38.9605034  12.3059051  40.4185889  38.2792300  12.2034348  40.7926484
  69.2282304  23.2663437  35.1145811  69.1976308  24.1208074  35.2864081
  69.8263653  22.9658730  35.6731955  69.3119462  23.3479934  35.2220614
  62.4281989  22.3539088  39.8698742  61.5719884  22.5147587  39.9207858
  62.4749643  21.4831152  39.8903803  62.3081100  22.2489890  39.8804808
  65.7375705  28.6225614  49.4759198  66.4442473  28.1277645  49.6046132
  65.9263641  29.0634695  48.7461856  65.8703611  28.6143964  49.3868243
  62.2648089  32.3127176  31.0621520  61.9299457  32.9904097  30.6265742
  62.7774959  31.9232487  30.4738392  62.2913670  32.3551754  30.9108312
  61.8052380  34.2641444  37.0032632  62.1891759  34.8328343  36.4637407
  61.7411521  33.5390955  36.5238448  61.8525807  34.2416908  36.8526494
  65.2733810  24.4131132  42.5130393  65.8189770  25.0916219  42.5724363
  65.2150686  24.2718593  41.6531975  65.3449724  24.4923134  42.3942454
  58.3907885  31.9020198  37.8998746  58.4918248  31.0920552  38.2095874
  57.7949630  31.8077145  37.2698424  58.3180423  31.7685226  37.8524984
  67.0498879  25.8415739  33.3864121  66.9338405  26.5923425  33.8156259
  67.8454765  25.5839693  33.6360208  67.1503468  25.9150586  33.4868213
  53.8863017  20.0926216  40.4235387  53.2668048  19.5018863  40.2545402
  53.7846880  20.6837651  39.7899710  53.7800692  20.0930298  40.3040377
  58.9329204  29.8309762  34.6733464  59.2545045  30.3714970  34.0694772
  59.5801301  29.2606534  34.8055753  59.0755259  29.8268938  34.6040499
  60.9830912  21.8325757  34.7567850  61.6811077  22.0113885  35.2489313
  61.2983245  21.3096097  34.1338240  61.1326249  21.7819529  34.7369860
  53.6132150  23.6378497  42.6678956  53.4890846  24.2240943  43.3028775
  54.2650434  23.1438693  42.9691231  53.6905799  23.6517302  42.8064885
  61.1718848  28.2196202  34.7447642  61.6112483  27.6113303  35.1902414
  61.0223510  27.8403576  33.9733107  61.2140313  28.0734673  34.6966809
  58.6390491  26.8140214  41.9466467  59.2839493  26.3212657  41.6277416
  58.8792268  26.9565001  42.7732545  58.7701076  26.7617656  42.0216000
  61.1776582  29.6595120  41.5973360  61.4599825  28.8646526  41.3760116
  61.9062742  30.1375707  41.6178421  61.3266146  29.6129717  41.5676375
  59.1557776  17.2018154  38.8389125  58.8261106  17.6529298  38.1692824
  58.4802778  17.1234317  39.3862131  59.0068212  17.2569289  38.8212348
  64.7728184  26.5723384  31.6978411  64.6879479  27.4284350  31.8427980
  65.2612567  26.2967708  32.3660570  64.8317081  26.6580705  31.8180492
  66.3634184  13.1903677  37.0838736  66.0487625  13.8807155  37.5159158
  65.8461125  13.1348459  36.3824236  66.2398654  13.2838565  37.0435685
  65.7046617  23.1908178  33.1976146  65.1758089  23.4067811  33.8573452
  66.2271637  23.8844316  33.1177115  65.7035070  23.3251315  33.2831745
  71.1594670  28.7654482  38.5709191  70.3292373  28.9765126  38.7342607
  71.1103923  27.9391537  38.2951474  71.0301406  28.6744089  38.5546556
  57.5946225  27.0871395  31.9983614  57.0103440  27.5921426  32.4049478
  57.1916320  26.8613781  31.2580206  57.4485529  27.1279643  31.9488639
  59.2204408  31.5958336  41.4057100  58.7031349  31.2365751  40.8018408
  59.9178799  31.0720511  41.4163166  59.2469989  31.4656024  41.3187359
  62.8768000  32.0453150  47.3673273  62.9651346  31.8579291  48.2151483
  63.3057712  31.3990580  46.9678120  62.9530102  31.9216158  47.4345025
  60.4438460  31.3284310  46.3490935  59.8809294  30.9156920  46.8730596
  61.2059483  31.2537216  46.7684079  60.4732908  31.2561711  46.4883936
  62.0523440  23.3337047  30.4752535  62.2919443  23.5415030  29.6627878
  62.3739281  22.5294555  30.5841479  62.1360597  23.2451148  30.3713088
  57.3613730  15.2630442  34.3212073  58.1159698  15.6308759  34.0829123
  57.1841264  15.6369997  35.0891252  57.4468208  15.3728630  34.3996961
  70.6548629  21.4124883  42.3659612  69.8177050  21.4827070  42.6007206
  70.6236860  21.4149378  41.4933914  70.5266911  21.4235110  42.2719160
  57.0513358  23.5557919  48.0807981  57.2233861  23.4463813  48.9293262
  57.5882715  24.2012324  47.8439173  57.1558362  23.6349920  48.1713077
  55.7170795  17.6700761  31.0190186  55.5346368  17.8872642  30.1931178
  56.5796408  17.7839774  31.0748800  55.8175384  17.7190659  30.9044673
  55.9537929  29.9289559  42.7626479  56.4936154  29.7860690  43.4329851
  55.2707876  30.3286310  43.1310505  55.9330083  29.9669230  42.9160901
  61.3970514  14.6727172  34.0539209  62.1256674  14.4943127  33.6077366
  61.4865407  15.5145252  34.2646388  61.5177176  14.7711050  34.0192727
  65.3778814  25.6080559  37.9571503  66.1336329  26.0412074  37.9960412
  65.4841139  24.9585329  38.5306139  65.5048985  25.5758043  38.0469529
  68.4158985  29.4353837  38.7073906  67.9794217  29.4390579  39.4632878
  68.0821901  30.1159336  38.2753484  68.3021605  29.5366292  38.7554739
  62.9888059  31.4762169  50.0317057  63.7728476  31.5893017  50.3972799
  62.7884654  30.6503307  50.2275742  63.0754085  31.3708889  50.1151443
  51.3575075  26.1489850  42.9160901  51.0913490  25.3328966  43.0751891
  51.3713639  26.1943005  42.0456416  51.3199797  26.0346754  42.8114382
  68.3356468  16.4767664  40.9503334  68.9782377  16.5465769  41.5365250
  68.5879489  15.8096887  40.4482876  68.4678601  16.3894013  40.9630614
  55.2632822  20.9474934  29.5312659  54.5490999  20.6613114  29.9435091
  55.7476790  21.2871560  30.1719046  55.2292185  20.9556584  29.6868294
  56.1073681  19.6868228  45.5627908  55.4145478  19.2165208  45.8088640
  56.7234008  19.4606532  46.1369615  56.0958211  19.5835360  45.6837061
  63.1458452  33.3872272  43.6783512  62.3473698  33.1471772  43.9357381
  63.5944464  33.4386664  44.4250560  63.0933064  33.3594663  43.8268436
  71.5503332  26.1534757  37.5993544  72.2119766  25.5925425  37.4989452
  70.9094744  25.6586787  37.9246235  71.5532199  25.9971166  37.6325884
  62.4380139  29.4504888  29.9074467  62.8531288  29.1189912  29.2158963
  61.6072069  29.2173790  29.7794603  62.3768148  29.3676144  29.7865314
  67.8368162  27.1700139  37.3405532  68.0723752  27.3145338  36.5132383
  67.9857726  27.9342547  37.7337046  67.8933966  27.3039193  37.2769136
  54.8314240  23.6533632  46.7054753  55.5554212  23.6386663  47.1919648
  54.9330376  24.3628987  46.2076722  54.9532449  23.7558335  46.7033540
  69.6658619  26.0101805  35.1775136  69.9966836  26.5429445  34.5715231
  70.2391707  26.0640693  35.8337087  69.7992298  26.0971374  35.1852918
  62.2059189  27.1332716  51.5703700  61.4132170  27.4476228  51.7556320
  62.3208116  27.3484185  50.7324485  62.1054600  27.2116553  51.4742035
  64.8790508  23.8566708  35.8598716  64.9737363  24.5956002  36.3138342
  64.2549352  23.4284183  36.2933281  64.7999538  23.9028028  35.9906864
  63.1342982  27.0352920  46.5088997  63.7081844  26.3980164  46.6637561
  63.0557786  27.0357003  45.6398655  63.2076217  26.9418032  46.4035408
  65.1313530  25.7015447  29.0935668  65.0493692  25.7717635  29.9590655
  65.7693250  26.2645191  28.9019409  65.2133367  25.7954418  29.1925618
  58.4906701  25.4676185  38.5610195  58.2325945  24.6347920  38.5341494
  58.5455184  25.6933798  37.7202695  58.4606479  25.3773957  38.4330331
  63.5707751  17.5704636  38.6614287  62.8664078  17.0813822  38.8198206
  63.6192725  17.5827110  37.7902732  63.4737802  17.4994284  38.5553627
  57.4641413  23.0213948  39.0475089  56.8891004  23.1806116  39.6839050
  57.0877089  22.3849357  38.5843540  57.3244225  22.9511761  39.0729648
  61.1314702  21.4937297  43.9067468  60.7429134  21.0691515  43.2519659
  60.4669400  21.7419447  44.4144494  60.9761629  21.4676018  43.8855336
  70.7737971  21.2512302  36.6815298  70.5174535  20.4392243  36.4913181
  71.6167285  21.2589869  36.4545485  70.8603996  21.1324299  36.6200115
  64.9541063  15.1911926  41.4191452  65.3351575  14.5090097  41.8059326
  64.1504347  14.9021528  41.2367116  64.8917525  15.0478974  41.4495508
  62.2353640  25.7235902  32.1044275  63.0494279  26.0150794  31.9927046
  62.1712781  25.0695764  31.5302568  62.3456379  25.6701096  32.0033112
  68.4563130  28.4061898  46.5173850  68.2201767  27.5749963  46.3985911
  69.1006359  28.3547505  47.1028695  68.5157801  28.2759586  46.5859744
  58.1061548  29.1957419  37.2316587  58.7435495  28.9569167  37.7768380
  58.5316620  29.3994578  36.4969747  58.2637714  29.1908429  37.2033744
  58.7464363  24.4159709  31.5691476  59.1309516  24.1967416  32.3208021
  58.4975983  25.2422654  31.6992553  58.7666436  24.5057855  31.6992553
  58.9132903  17.6966124  51.2854060  58.5986345  18.4665687  51.0223623
  58.5922836  17.1336380  50.7006287  58.8191823  17.7276393  51.1595410
  69.4799551  28.1906347  42.5802145  69.1745368  28.9234403  42.9415460
  68.7605766  27.7844276  42.2994931  69.3286893  28.2388080  42.5915282
  60.4883020  29.6729842  38.9110373  60.5622028  29.5105014  39.7652223
  61.3052526  29.8620031  38.6670855  60.6199379  29.6766584  39.0008399
  75.1801343  24.8299347  41.9070489  75.1125843  24.8495306  41.0373076
  75.1657005  25.6729674  42.1326160  75.1680099  24.9573082  41.8122966
  56.4664800  16.0856646  36.9000257  55.5987226  16.1579245  36.9657866
  56.7540005  16.8878725  37.0888232  56.3804549  16.2150793  36.9375023
  65.5897689  16.2334505  45.2311579  66.3351281  16.0444315  44.8175004
  65.1734994  16.7592743  44.6725435  65.6382663  16.2836650  45.0876152
  59.0287606  32.6364585  33.6423846  59.3185904  32.2453566  32.9183073
  59.7591087  32.8181290  34.0829122  59.1794490  32.6058399  33.6006653
  72.9659960  23.6043733  40.1817084  73.5167882  22.9711802  40.4214176
  72.9504075  24.1359126  40.8732588  73.0445156  23.5892682  40.3195942
  59.6182351  27.4382331  44.7276977  59.1194045  28.1498098  44.8061865
  60.4282575  27.7582997  44.6895139  59.6638458  27.5909179  44.7333545
  55.8810469  26.7005284  38.9739698  55.5923717  26.0742755  39.5085425
  56.7493817  26.6425571  39.0404378  55.9670720  26.5992828  39.0630652
  66.6688366  21.8440067  39.2921680  66.3253132  21.1230402  39.6428929
  66.7681409  21.6353918  38.4500038  66.6330409  21.7064270  39.2193360
  59.1361477  35.9861357  35.4914689  59.7885535  35.4537799  35.7205715
  58.4387086  35.6330009  35.8782563  59.1292195  35.8550880  35.5826856
  56.0842742  28.3400535  34.8982063  56.8388710  28.7213574  35.1117525
  55.4913355  28.7911678  35.3528759  56.1079455  28.4629362  34.9964941
  67.1301395  28.3065771  34.8345668  67.6959428  28.9658981  34.7504211
  66.4829299  28.6515469  35.3062070  67.1180152  28.4547713  34.8918424
  58.5449409  20.2963375  50.0239275  57.7349185  20.6021155  49.9129117
  59.0224096  21.0168957  50.1391859  58.4952888  20.4477976  50.0246346
  57.4040968  29.5109096  40.2722178  56.8821722  29.6509388  40.9574043
  57.7914989  28.7519760  40.4624296  57.3844669  29.4194620  40.4023255
  63.6007973  31.2504555  34.2582747  63.3594649  30.5172416  33.8509812
  63.7809306  31.7991412  33.6049080  63.5915597  31.2226947  34.1012970
  58.8307294  26.5413115  35.6703669  58.6350077  27.1487850  35.0763972
  59.0541640  25.8481059  35.1895343  58.8341935  26.5290641  35.5119750
  57.2285824  23.4267853  35.7884538  57.9508476  23.5909011  35.3288344
  56.7493817  24.1477518  35.6823877  57.2649555  23.5566083  35.7050152
  65.1879332  19.7631652  41.1681223  64.3490432  19.7892931  40.9319486
  65.2583699  20.4102387  41.7486569  65.0747725  19.8627778  41.2190339
  54.8793441  25.8325925  44.8938678  55.3914538  26.1110179  44.2447437
  54.5929783  26.5715220  45.2601491  54.9128304  25.9828279  44.8528556
  63.6348610  16.6617029  35.9008839  64.3374963  16.4624777  35.4228797
  63.3692799  15.8892971  36.2077682  63.6995242  16.5179995  35.8754280
  69.0636856  24.9699639  38.4542464  68.9770830  25.1255065  39.3077243
  68.6087335  25.6137714  38.0801869  68.9840112  25.0875394  38.5249571
  51.9660347  20.3396117  35.1902414  52.0676484  21.1422279  35.5183389
  52.7616234  20.1383453  34.8925495  52.0988253  20.4282016  35.1937769
  58.3977166  17.9252314  44.9539719  58.2060363  17.9407449  45.8039143
  59.2475762  18.1215988  44.9306374  58.4952888  17.9566665  45.0763014
  52.7824079  20.4543296  42.9323536  52.6409571  19.6027236  43.0568044
  53.0664643  20.4971956  42.1085742  52.8031925  20.3343046  42.8291160
  62.9362672  22.2910386  37.0768024  62.6897386  22.2106137  37.9104813
  63.2647795  21.5063854  36.8830551  62.9483915  22.1636651  37.1715547
  66.8310720  28.9993745  40.8654805  66.6925080  29.6974791  41.3703548
  66.0510718  28.8442402  40.5090987  66.6953947  29.0793912  40.8881079
  65.1688806  25.2990120  47.1177187  65.1636844  24.4269937  47.1219613
  65.8749799  25.4978290  46.6446643  65.2733810  25.1993995  47.0484222
  58.8959699  25.0267104  46.4891007  59.0403075  25.6068312  45.8534117
  59.2435347  25.4043401  47.1940862  58.9687160  25.1687808  46.4990002
  61.0679616  24.2257273  44.2716139  60.3202930  24.4188287  43.8664417
  61.2221141  23.4002492  44.0340260  60.9802044  24.1322384  44.1761544
  57.9687454  33.2169876  43.3552034  58.1177018  32.6572792  42.7025438
  58.7487456  33.2961878  43.7384553  58.1061547  33.1455442  43.3148983
  68.3264093  28.3571999  31.6271304  67.9470902  27.5709137  31.6200594
  67.6630339  28.9058856  31.4842949  68.1722568  28.3216823  31.6052101
  60.4940754  33.3884519  44.6336525  60.4184426  32.7193330  45.1887313
  60.4230614  34.0902307  45.1477191  60.4721361  33.3929426  44.7913373
  61.3081393  18.1207823  45.1611542  61.7654007  18.8531798  45.2884335
  61.3837722  17.6974289  45.9198798  61.3872363  18.1665062  45.2912619
  53.5514384  18.3673643  46.2500986  53.0156574  17.7554001  46.5661753
  53.6132149  18.9421779  46.9034653  53.4810017  18.3620571  46.3936413
  65.7808719  11.2997699  39.0305385  65.8992287  11.7574162  38.2972688
  65.6070895  10.4942960  38.7441603  65.7727890  11.2491471  38.8806319
  61.1511001  31.9085518  35.4660131  61.9160893  31.6395162  35.1442795
  61.0489091  31.4235528  36.1830193  61.2492497  31.7975083  35.5239958
  59.1863771  20.1109927  42.0053366  58.3959846  19.9301387  42.3270702
  59.5824394  19.3336880  41.9883661  59.1280647  19.9697388  42.0505915
  63.6729662  28.9397702  27.4460080  64.4402647  28.9997827  27.0365932
  63.2260971  28.3678143  26.9616398  63.7203089  28.8634277  27.3137790
  64.5707457  27.7452358  39.7312812  63.8952459  27.5137590  40.2326199
  64.5799834  27.1373540  39.1054917  64.4725962  27.6211283  39.7128964
  61.7001601  22.5870186  46.4876865  61.6360743  23.4480143  46.3597002
  61.8398789  22.2702180  45.6872417  61.7117071  22.6670353  46.3505078
  66.5724192  30.6017490  31.9622990  66.6544029  31.4084476  31.6384441
  67.0573934  30.6213449  32.6863764  66.6561350  30.7238152  32.0209889
  60.3820695  25.2802326  40.6293068  59.9582944  25.4806825  39.8932086
  60.2065551  24.4331174  40.7417368  60.2931576  25.1851107  40.5366758
  55.6703140  25.7754377  36.0621041  55.8267759  25.7101180  36.9177033
  56.0103733  26.5502930  35.8499720  55.7436375  25.8803575  36.1575635
  62.2082285  25.1512261  34.9314404  62.7497830  24.6482642  35.3953024
  62.5228844  25.0977456  34.1203889  62.3346682  25.0691682  34.8798216
  66.0799392  29.3614908  52.0441316  66.8934258  29.0900057  52.2046449
  65.9194359  29.0622448  51.2401512  66.1769341  29.2769834  51.9486722
  60.3768735  30.5429612  32.2154432  60.4461555  29.6844151  32.3547432
  61.1557190  30.7601493  31.8873456  60.5021585  30.4482476  32.1871589
  63.3571554  20.0448565  44.9836704  63.5713524  19.4059480  44.4300058
  62.7405453  20.4894389  44.5544566  63.2976884  20.0158709  44.8387135
  64.7676222  32.9667314  36.4290925  64.3756014  32.6634029  35.7113791
  64.9229294  33.8036404  36.2395879  64.7329812  33.0451150  36.2947422
  52.2437402  22.9589328  36.3781808  52.6236367  23.3773873  35.7142075
  51.6692767  23.5402783  36.6850651  52.2148727  23.1067187  36.3258549
  65.5210642  21.6537631  45.9220011  64.7087324  21.3463521  46.0033184
  65.9800577  21.1736631  46.4862724  65.4691027  21.5374123  46.0174606
  64.9315897  29.5317303  36.3696956  64.5730552  29.7031945  37.1460988
  64.4454608  29.9930508  35.8124954  64.8074594  29.6256274  36.4022225
  62.7486283  13.1548501  39.9724047  61.8779841  13.1287222  39.9257357
  63.0026624  12.9825693  39.1549893  62.6579843  13.1258645  39.8444184
  59.7204262  25.2116468  28.9097190  60.0096787  25.9881350  29.1840764
  59.8076061  24.7005199  29.6111689  59.7758519  25.2508386  29.0539688
  62.6164150  23.0597702  50.7048714  63.0863781  23.6839818  51.0916588
  62.6626030  22.3914677  51.2641928  62.6932026  23.0532382  50.8448785
  59.7735423  15.1654729  41.4297518  59.2573912  14.4734921  41.5549097
  59.2129352  15.8325506  41.3760116  59.6141937  15.1617987  41.4403584
  61.8427657  15.7047689  43.2590370  61.4559410  15.7296721  44.0403900
  61.3560594  15.1389368  42.8064887  61.7140166  15.6243440  43.3078274
  66.0920636  30.4221198  47.3164157  66.7300357  29.9281394  46.9826613
  65.4494728  30.3498599  46.7316383  66.0914863  30.3380207  47.1806512
  67.8177636  22.2710344  41.8830072  67.3905244  22.1836693  41.1278172
  67.1803689  22.3788120  42.4684916  67.6607244  22.2743004  41.8575514
  61.5084799  12.5914675  45.5500630  62.1377917  13.1274975  45.2721700
  61.6770661  12.4992034  46.4014196  61.6262593  12.6576037  45.6349158
  61.3098713  17.3785870  47.8227042  62.1372143  17.1071019  47.8785656
  61.3306560  18.1746711  48.1790860  61.4351564  17.4565624  47.8842225
  66.1474893  31.1141007  43.9569513  66.9367271  30.7630071  44.0771595
  66.3218491  31.9277395  43.6946147  66.2895175  31.1826864  43.9357381
  55.8868203  24.5249732  41.0097302  55.0456210  24.4253607  41.2176196
  56.0958211  25.2945213  41.3611623  55.7932896  24.6241776  41.0924617
  53.3643770  22.1469269  38.8382053  52.9700468  22.2212281  38.0632163
  52.8083887  22.5327216  39.3890415  53.2246583  22.2151044  38.8049713
  65.0008717  15.1250563  38.5185932  65.2058310  15.0572871  39.3642929
  64.6735141  15.9309385  38.4507109  64.9823965  15.2336504  38.6345587
  59.6984868  22.4531132  40.2594900  59.3948006  21.8987120  40.8605307
  58.9964289  22.6323342  39.7722934  59.5501078  22.3975914  40.2764605
  58.7550965  19.7631651  34.8239602  59.0310700  19.0450564  34.4117169
  59.3549635  20.3616571  34.6160708  58.8844230  19.7452022  34.7320363
  57.7603219  29.6680852  44.9666998  57.6523574  29.6782915  45.8329056
  57.9699001  30.4935633  44.7771951  57.7753330  29.7921927  45.0671089
  68.2542405  15.6782328  37.9988697  67.6416718  16.1652730  38.3842429
  68.3506580  15.0025819  38.5426348  68.1780302  15.6500636  38.1367555
  62.2561486  17.4345169  33.0986197  62.7105232  17.6055729  33.8234041
  62.7301532  16.8213280  32.6983972  62.3929806  17.3696054  33.1459958
  55.7777011  26.9193495  42.4288935  55.1864944  27.5602993  42.3991950
  56.5398035  27.3431112  42.4020235  55.8025272  27.0769333  42.4204082
  56.1737634  18.0795493  43.0956953  56.6339116  18.1534422  43.8332077
  56.2193741  18.8776747  42.7456774  56.2488189  18.2089640  43.1529709
  57.8220984  18.7462187  47.6628980  57.4306549  18.0995535  48.0984758
  57.9906846  19.3373623  48.2823235  57.7891894  18.7376455  47.8191686
  71.8967433  26.7499264  43.4266213  71.9550556  27.1985913  44.1726190
  71.2633900  27.1598077  42.9896293  71.8118728  26.8772999  43.4718762
  65.5366527  32.3702806  39.8620960  65.3386216  32.8593621  39.1677171
  64.9154238  32.5744048  40.4405093  65.4154092  32.4719345  39.8444183
  59.5974506  24.1387703  34.2031204  60.3416551  24.5261979  34.4414154
  59.7435202  23.2945129  34.3671692  59.7285091  24.0718176  34.2625174
  61.5154081  15.9337962  39.2363065  60.6690126  16.1060770  39.1104415
  61.5125214  15.1287306  39.5728894  61.3901231  15.8398991  39.2674192
  62.5852382  19.7113176  40.1025123  62.1112336  19.1854939  40.6130434
  62.9570517  19.1642649  39.5339985  62.5702271  19.5529173  40.0940270
  52.9625412  21.7084683  45.4708669  53.8251025  21.6080392  45.3845999
  52.6317195  21.1279392  44.9094241  53.0410608  21.6076310  45.3754075
  68.8489112  24.7715552  41.5131904  68.6087335  23.9321967  41.5174330
  69.3281119  24.8515719  42.2372677  68.8841296  24.6596952  41.6206706
  64.5135881  20.6049731  33.1650877  63.9858900  20.6878475  32.4756586
  64.9731589  21.3467603  33.1615522  64.5037732  20.7270393  33.0625572
  70.8494299  21.5517009  39.4661163  70.6104069  21.5112844  38.6281947
  71.0128201  22.3988161  39.5926884  70.8384603  21.6709094  39.3614645
  67.4540329  25.9366959  45.3966208  68.1774528  25.4839485  45.2177228
  67.1890292  26.2171624  44.6138536  67.5221603  25.9117927  45.2544923
  56.3227198  20.5327132  42.1319087  55.6980268  20.5445524  41.5245040
  55.9872793  21.0087307  42.7810327  56.1812690  20.6045649  42.1375656
  56.5068946  18.8752251  28.1891772  56.1581751  19.5271976  28.6523322
  56.0265392  18.8609364  27.4615643  56.3839190  18.9695304  28.1502863
  53.0352873  28.5927592  43.5722851  52.5052798  27.9020031  43.6217826
  53.3077967  28.5837778  42.7435560  52.9977596  28.4894724  43.4570267
  64.0672964  29.1753295  32.2960534  64.7907163  29.6411408  32.1525107
  63.6273555  29.2426904  31.5458131  64.1088656  29.2537131  32.1645315
  63.2359119  26.0350837  43.5461223  62.6216112  25.4908887  43.8409858
  63.7526404  25.5215073  43.0667039  63.2214781  25.8787246  43.5185451
  62.4755416  27.1055107  41.2805522  62.0483024  26.4804826  40.8470957
  62.4680360  26.8230029  42.1064529  62.4114557  26.9707888  41.3385349
  55.5917943  22.1420280  44.3493956  55.7511430  21.3863604  44.7545678
  55.4110837  22.6911220  45.0034693  55.5883302  22.1114094  44.5056662
  63.5338246  14.3081516  44.9044745  63.0378807  14.5045190  44.2136312
  64.2907308  14.7074184  44.7333547  63.5725071  14.3959249  44.7764882
  60.8041126  17.9823861  41.4948056  60.8283613  17.4483974  40.8060836
  61.0552599  17.4741170  42.1573646  60.8451044  17.8284765  41.4912700
  59.2672061  26.2755420  48.9774095  58.4167691  26.4127134  49.1131739
  59.4300189  25.5419198  49.4221796  59.1655924  26.1869521  49.0629694
  58.5056811  23.2255190  43.1727699  57.6748741  23.3929008  42.9662947
  58.4508329  22.8491140  43.9576584  58.3746226  23.1944921  43.2576227
  56.3140595  16.7164082  48.8084110  56.9393298  16.1726215  49.0813542
  55.8591075  16.2359000  48.2391900  56.3388855  16.5653564  48.7645704
  56.8792855  21.5010781  33.7017817  57.0195816  21.9983245  34.4046458
  57.3775388  20.7997075  33.8432030  56.9733936  21.4712760  33.8269396
  56.9093078  22.3677892  31.0310394  57.5438157  22.9638317  30.9659855
  56.9918688  22.0681350  31.8456264  57.0149629  22.4118800  31.1413480
  69.8875643  24.8993369  43.8996758  70.4793484  25.5390620  43.9314956
  70.3234638  24.2016406  44.1888825  70.0394075  24.8911720  43.9477590
  58.4872060  18.2991868  31.0055836  58.8087901  17.8194950  30.3515098
  58.7499004  19.1091514  30.8146647  58.5738086  18.3481765  30.8811328
  61.7169033  29.3210742  44.5254652  61.2094124  29.8746589  44.9695282
  61.4195679  29.3819032  43.7073426  61.5973918  29.4117053  44.4703108
  63.8831215  17.6864061  43.3679315  64.3086287  17.2336588  42.7562841
  63.2688209  17.1324132  43.6444102  63.8559861  17.5378038  43.3184340
  53.4146065  24.5645733  34.2999940  53.9238295  25.1610240  34.6811245
  53.8880338  24.2971707  33.6176359  53.5589441  24.6131548  34.2554462
  64.3276814  33.2374000  32.4558595  63.6106123  33.0634862  31.9905832
  64.9783551  33.0026572  31.9234081  64.3178664  33.1769792  32.3087813
  62.3225438  14.1579161  36.7769892  61.6793756  14.0076808  37.3455030
  61.9824845  13.9121507  36.0118996  62.1770516  14.0991284  36.7472907
  66.9124785  22.1138588  36.1999900  66.2415975  22.6568290  36.0712966
  67.6064535  22.5833443  35.9581595  66.9153652  22.2636859  36.1455428
  60.9611518  34.2535300  41.4311658  60.7377173  33.4954129  41.7995685
  60.4721362  34.2833321  40.7092098  60.8554967  34.1457525  41.3788399
  67.0752912  18.5694472  39.1090273  67.4280522  18.1424195  39.7836072
  66.2167714  18.4845315  39.2391350  67.0002357  18.4939212  39.2285284
  55.7736597  21.2001991  37.1673120  55.0548586  21.6166124  37.4345983
  56.1448959  21.7656230  36.6164758  55.7228529  21.3451273  37.1255927
  65.0736178  21.8329840  43.0575116  65.0534105  21.6513136  43.9109895
  65.1215379  22.7041859  43.0334699  65.0770819  21.9346379  43.1798410
  63.0182508  28.4217032  48.9823592  62.9778363  27.7766709  48.3968748
  63.8305826  28.3653650  49.2949004  63.1325661  28.3175999  48.9420541
  59.6089975  34.4735758  38.8848743  59.1950374  33.8109888  38.4952585
  60.2937350  34.6213617  38.3644437  59.6488347  34.3976416  38.7505240
  62.9755270  33.6325843  39.6372360  62.5771553  33.7428114  38.8693180
  62.3606489  33.8407910  40.2198919  62.8254159  33.6799412  39.6103659
  61.5483172  20.2399991  32.5046499  60.9548011  20.5616988  31.9531066
  61.5858449  19.3941087  32.2967606  61.4657561  20.1624320  32.3929271
  68.5076972  13.6912884  40.0374586  68.0007837  12.9842023  39.9695763
  69.3044406  13.3606072  40.1675662  68.5504211  13.5386035  40.0473581
  64.4240988  20.1979496  35.9348250  64.1954681  20.2212197  35.0926608
  64.6839064  19.3736963  36.0543260  64.4287176  20.0795576  35.8273447
  58.7060217  22.0513969  45.5373350  58.1939120  21.4435152  45.8958381
  58.5339713  22.7670561  46.0047326  58.6049854  22.0677268  45.6589574
  53.5525931  20.4951544  48.1875712  53.3828522  21.1552919  47.6423918
  53.1091881  20.7058105  48.9088201  53.4625265  20.6237526  48.2137341
  57.4785751  18.7356042  37.2302445  57.9543117  19.0973122  36.5952626
  56.9774350  19.3912510  37.5102588  57.4751110  18.8850231  37.1779186
  70.7097112  28.2077810  33.0215450  71.0930718  28.9569166  33.2513547
  69.9141226  28.4543630  32.7627439  70.6490894  28.3547504  33.0173024
  62.5829287  19.9738214  47.9775605  63.1400717  19.7452023  47.3454071
  62.2590352  20.7343879  47.7010818  62.6175697  20.0522050  47.8432103
  60.3012404  23.0605867  48.9427613  61.0523731  23.3757544  49.2567167
  60.4934981  22.8585038  48.1161534  60.4403818  23.0773249  48.8671008
  59.5212404  20.8797242  30.5975829  59.9011369  20.8976871  29.8126944
  58.7805000  21.3251231  30.4766677  59.4681242  20.9479017  30.4639397
  67.1497694  19.1879433  36.1851408  67.1491921  19.0328090  37.0435684
  66.9453874  20.0342420  36.1292794  67.1197472  19.2900054  36.3039347
  64.8738546  23.8676935  39.8387615  65.3692212  23.1499930  39.7991635
  64.0638322  23.5647733  39.7242102  64.8282440  23.7174581  39.8161341
  60.3197158  27.7174748  31.9884619  59.5108481  27.3941422  31.9417929
  60.8272067  27.0107970  31.9212868  60.2746825  27.5656065  31.9714914
  66.9390365  26.6180622  42.5264744  67.3645437  26.0955044  41.9735169
  66.5747285  27.2161460  42.0053367  66.9476968  26.6290849  42.3673753
  63.5268965  30.3314887  38.8565901  63.9980143  31.0455149  39.0255886
  63.8629143  29.7313637  39.3925771  63.6464080  30.3486351  38.9598277
  65.6145949  31.9416200  51.0357973  65.7242915  31.1524761  51.3914720
  65.9436846  31.8522136  50.2332311  65.6798355  31.8122053  50.9700364
  60.4438460  15.1042357  45.8123996  60.5766365  14.3073351  46.1404971
  60.8283612  15.6308760  46.3922271  60.5194788  15.0642274  45.9467499
  64.1642911  30.1232821  45.6193594  63.6163857  29.4990704  45.3513659
  64.6255940  30.3127093  44.9037673  64.1510120  30.0591871  45.4744025
  63.5170815  12.0272683  42.4105089  62.7116779  11.9170413  42.7272927
  63.3877550  12.1285139  41.5534955  63.3790948  12.0256353  42.3313130
  66.9736775  18.1918175  43.0044786  66.3899764  18.6927382  42.5922353
  67.2941069  17.6847731  42.3709109  66.9349951  18.1910010  42.8503293
  59.5131574  17.1058770  33.2803461  60.3347269  17.2757083  33.0385156
  59.0501225  17.2606031  32.5569758  59.5662737  17.1540503  33.1375105
  58.1026906  15.1001532  44.0601890  58.6471319  14.7592659  44.6506231
  58.1563842  15.9586994  44.2023174  58.1916026  15.1756792  44.1683763
  53.9157465  28.8617948  40.9340698  54.5202323  28.8213783  40.3054518
  53.7084778  29.7089100  40.9644753  53.9746362  28.9805951  40.8456814
  63.7301237  31.1283894  42.1502935  64.5499611  30.9846860  42.4119230
  63.4495315  31.7530092  42.6919373  63.8097981  31.1994246  42.2690874
  73.4014573  37.8724396  39.8698742  72.5452468  38.0332895  39.9207858
  73.4482226  37.0016460  39.8903803  73.2813684  37.7675198  39.8804808
  67.7855712  47.4087114  35.6335973  67.0338612  47.0302652  35.4052018
  68.2341724  47.4405548  34.8854784  67.7405379  47.3572721  35.4893475
  76.7108289  44.1410922  49.4759198  77.4175056  43.6462953  49.6046132
  76.8996224  44.5820003  48.7461856  76.8436195  44.1329272  49.3868243
  73.2380672  47.8312484  31.0621520  72.9032041  48.5089405  30.6265742
  73.7507543  47.4417795  30.4738392  73.2646253  47.8737062  30.9108312
  72.7784963  49.7826752  37.0032632  73.1624343  50.3513651  36.4637407
  72.7144105  49.0576263  36.5238448  72.8258391  49.7602216  36.8526494
  76.2466394  39.9316440  42.5130393  76.7922354  40.6101527  42.5724363
  76.1883270  39.7903901  41.6531975  76.3182308  40.0108442  42.3942454
  69.3640468  47.4205506  37.8998746  69.4650831  46.6105860  38.2095874
  68.7682214  47.3262453  37.2698424  69.2913007  47.2870534  37.8524984
  69.2041208  52.3383095  39.3013602  69.8478663  52.7796259  39.6909760
  69.5297464  51.5336522  39.2143861  69.3473037  52.2848290  39.3459079
  64.8595600  35.6111523  40.4235387  64.2400632  35.0204171  40.2545402
  64.7579464  36.2022959  39.7899710  64.7533276  35.6115606  40.3040377
  69.9061788  45.3495070  34.6733464  70.2277629  45.8900278  34.0694772
  70.5533884  44.7791842  34.8055753  70.0487843  45.3454245  34.6040499
  71.9563496  37.3511065  34.7567850  72.6543660  37.5299193  35.2489313
  72.2715828  36.8281405  34.1338240  72.1058833  37.3004837  34.7369860
  72.1451431  43.7381510  34.7447642  72.5845067  43.1298611  35.1902414
  71.9956094  43.3588884  33.9733107  72.1872897  43.5919981  34.6966809
  69.6123074  42.3325522  41.9466467  70.2572077  41.8397965  41.6277416
  69.8524851  42.4750309  42.7732545  69.7433659  42.2802964  42.0216000
  72.1509166  45.1780428  41.5973360  72.4332408  44.3831834  41.3760116
  72.8795326  45.6561015  41.6178421  72.2998729  45.1315025  41.5676375
  70.1290359  32.7203462  38.8389125  69.7993689  33.1714605  38.1692824
  69.4535361  32.6419625  39.3862131  69.9800796  32.7754597  38.8212348
  75.7460768  42.0908692  31.6978411  75.6612063  42.9469658  31.8427980
  76.2345151  41.8153016  32.3660570  75.8049665  42.1766013  31.8180492
  77.3366767  28.7088985  37.0838736  77.0220208  29.3992463  37.5159158
  76.8193709  28.6533767  36.3824236  77.2131238  28.8023873  37.0435685
  76.6779201  38.7093486  33.1976146  76.1490672  38.9253119  33.8573452
  77.2004221  39.4029624  33.1177115  76.6767654  38.8436623  33.2831745
  68.5678809  42.6056703  31.9983614  67.9836024  43.1106734  32.4049478
  68.1648904  42.3799089  31.2580206  68.4218113  42.6464951  31.9488639
  64.1222837  48.3211464  38.8007286  63.6390416  49.0461953  38.7766869
  64.9346156  48.6187594  38.9117443  64.1713585  48.4713817  38.8134565
  70.1936991  47.1143644  41.4057100  69.6763933  46.7551059  40.8018408
  70.8911383  46.5905819  41.4163166  70.2202573  46.9841332  41.3187359
  73.8500583  47.5638458  47.3673273  73.9383929  47.3764599  48.2151483
  74.2790296  46.9175888  46.9678120  73.9262686  47.4401466  47.4345025
  71.4171043  46.8469618  46.3490935  70.8541878  46.4342228  46.8730596
  72.1792067  46.7722524  46.7684079  71.4465492  46.7747019  46.4883936
  73.0256023  38.8522355  30.4752535  73.2652027  39.0600338  29.6627878
  73.3471864  38.0479863  30.5841479  73.1093181  38.7636456  30.3713088
  68.3346313  30.7815750  34.3212073  69.0892281  31.1494067  34.0829123
  68.1573848  31.1555305  35.0891252  68.4200792  30.8913938  34.3996961
  66.9767035  48.8367640  38.9527565  67.6787614  48.3219629  39.0100322
  66.8964518  49.1641791  39.7574441  67.0690795  48.8081866  39.0800358
  68.0245941  39.0743226  48.0807981  68.1966445  38.9649121  48.9293262
  68.5615299  39.7197632  47.8439173  68.1290945  39.1535228  48.1713077
  66.6903378  33.1886069  31.0190186  66.5078951  33.4057950  30.1931178
  67.5528991  33.3025082  31.0748800  66.7907968  33.2375967  30.9044673
  66.9270513  45.4474867  42.7626479  67.4668738  45.3045998  43.4329851
  66.2440459  45.8471618  43.1310505  66.9062667  45.4854538  42.9160901
  72.3703097  30.1912480  34.0539209  73.0989258  30.0128435  33.6077366
  72.4597990  31.0330560  34.2646388  72.4909759  30.2896358  34.0192727
  76.3511398  41.1265867  37.9571503  77.1068913  41.5597382  37.9960412
  76.4573722  40.4770637  38.5306139  76.4781569  41.0943351  38.0469529
  73.9620643  46.9947477  50.0317057  74.7461059  47.1078325  50.3972799
  73.7617237  46.1688615  50.2275742  74.0486668  46.8894197  50.1151443
  66.2365405  36.4660242  29.5312659  65.5223582  36.1798421  29.9435091
  66.7209374  36.8056868  30.1719046  66.2024768  36.4741892  29.6868294
  67.0806265  35.2053536  45.5627908  66.3878061  34.7350516  45.8088640
  67.6966592  34.9791840  46.1369615  67.0690794  35.1020668  45.6837061
  74.1191036  48.9057579  43.6783512  73.3206282  48.6657080  43.9357381
  74.5677048  48.9571972  44.4250560  74.0665647  48.8779971  43.8268436
  73.4112723  44.9690196  29.9074467  73.8263872  44.6375220  29.2158963
  72.5804653  44.7359098  29.7794603  73.3500732  44.8861452  29.7865314
  65.8046823  39.1718940  46.7054753  66.5286796  39.1571970  47.1919648
  65.9062960  39.8814295  46.2076722  65.9265033  39.2743643  46.7033540
  73.1791773  42.6518024  51.5703700  72.3864754  42.9661536  51.7556320
  73.2940700  42.8669493  50.7324485  73.0787183  42.7301861  51.4742035
  75.8523092  39.3752016  35.8598716  75.9469946  40.1141310  36.3138342
  75.2281935  38.9469491  36.2933281  75.7732122  39.4213336  35.9906864
  74.1075566  42.5538228  46.5088997  74.6814427  41.9165472  46.6637561
  74.0290369  42.5542311  45.6398655  74.1808801  42.4603340  46.4035408
  76.1046113  41.2200755  29.0935668  76.0226276  41.2902942  29.9590655
  76.7425834  41.7830499  28.9019409  76.1865951  41.3139726  29.1925618
  69.4639284  40.9861493  38.5610195  69.2058529  40.1533228  38.5341494
  69.5187767  41.2119106  37.7202695  69.4339062  40.8959265  38.4330331
  74.5440334  33.0889944  38.6614287  73.8396661  32.5999129  38.8198206
  74.5925309  33.1012418  37.7902732  74.4470386  33.0179592  38.5553627
  68.4373996  38.5399256  39.0475089  67.8623588  38.6991424  39.6839050
  68.0609673  37.9034665  38.5843540  68.2976809  38.4697069  39.0729648
  72.1047285  37.0122605  43.9067468  71.7161718  36.5876823  43.2519659
  71.4401983  37.2604755  44.4144494  71.9494213  36.9861326  43.8855336
  75.9273647  30.7097234  41.4191452  76.3084158  30.0275405  41.8059326
  75.1236931  30.4206836  41.2367116  75.8650108  30.5664282  41.4495508
  73.2086223  41.2421210  32.1044275  74.0226862  41.5336102  31.9927046
  73.1445365  40.5881072  31.5302568  73.3188962  41.1886404  32.0033112
  69.0794132  44.7142727  37.2316587  69.7168079  44.4754475  37.7768380
  69.5049203  44.9179886  36.4969747  69.2370298  44.7093737  37.2033744
  69.7196947  39.9345017  31.5691476  70.1042099  39.7152724  32.3208021
  69.4708567  40.7607962  31.6992553  69.7399019  40.0243163  31.6992553
  69.8865487  33.2151432  51.2854060  69.5718928  33.9850995  51.0223623
  69.5655420  32.6521688  50.7006287  69.7924406  33.2461701  51.1595410
  71.4615604  45.1915150  38.9110373  71.5354612  45.0290322  39.7652223
  72.2785110  45.3805339  38.6670855  71.5931962  45.1951892  39.0008399
  67.4397384  31.6041954  36.9000257  66.5719809  31.6764553  36.9657866
  67.7272588  32.4064032  37.0888232  67.3537132  31.7336101  36.9375023
  76.5630273  31.7519813  45.2311579  77.3083865  31.5629623  44.8175004
  76.1467577  32.2778051  44.6725435  76.6115247  31.8021958  45.0876152
  70.0020189  48.1549893  33.6423846  70.2918488  47.7638874  32.9183073
  70.7323670  48.3366598  34.0829122  70.1527073  48.1243707  33.6006653
  70.5914934  42.9567639  44.7276977  70.0926628  43.6683406  44.8061865
  71.4015159  43.2768305  44.6895139  70.6371041  43.1094487  44.7333545
  67.9426105  50.1317275  36.7083996  67.7226400  49.8414630  37.5010663
  67.7220627  49.4732230  36.1801909  67.8773699  49.9916984  36.7472905
  77.6420950  37.3625375  39.2921680  77.2985716  36.6415710  39.6428929
  77.7413992  37.1539226  38.4500038  77.6062993  37.2249578  39.2193360
  70.1094061  51.5046665  35.4914689  70.7618119  50.9723107  35.7205715
  69.4119669  51.1515317  35.8782563  70.1024779  51.3736188  35.5826856
  69.5181992  35.8148683  50.0239275  68.7081768  36.1206463  49.9129117
  69.9956679  36.5354265  50.1391859  69.4685471  35.9663284  50.0246346
  68.3773552  45.0294404  40.2722178  67.8554306  45.1694696  40.9574043
  68.7647572  44.2705068  40.4624296  68.3577253  44.9379928  40.4023255
  65.3664736  35.0800213  34.3417133  65.0789532  34.7101483  33.6049080
  66.0535204  35.5495068  34.0800838  65.4253633  35.0947182  34.1932209
  74.5740557  46.7689863  34.2582747  74.3327233  46.0357724  33.8509812
  74.7541890  47.3176720  33.6049080  74.5648181  46.7412254  34.1012970
  69.8039878  42.0598423  35.6703669  69.6082660  42.6673158  35.0763972
  70.0274223  41.3666367  35.1895343  69.8074519  42.0475949  35.5119750
  68.2018408  38.9453161  35.7884538  68.9241060  39.1094319  35.3288344
  67.7226400  39.6662826  35.6823877  68.2382138  39.0751391  35.7050152
  76.1611915  35.2816960  41.1681223  75.3223016  35.3078239  40.9319486
  76.2316283  35.9287695  41.7486569  76.0480309  35.3813086  41.2190339
  65.8526024  41.3511233  44.8938678  66.3647121  41.6295487  44.2447437
  65.5662367  42.0900527  45.2601491  65.8860888  41.5013587  44.8528556
  74.6081194  32.1802337  35.9008839  75.3107546  31.9810085  35.4228797
  74.3425382  31.4078279  36.2077682  74.6727826  32.0365303  35.8754280
  62.9392931  35.8581425  35.1902414  63.0409067  36.6607587  35.5183389
  63.7348817  35.6568761  34.8925495  63.0720836  35.9467324  35.1937769
  69.3709750  33.4437622  44.9539719  69.1792947  33.4592756  45.8039143
  70.2208346  33.6401296  44.9306374  69.4685472  33.4751973  45.0763014
  63.7556663  35.9728603  42.9323536  63.6142155  35.1212544  43.0568044
  64.0397226  36.0157264  42.1085742  63.7764509  35.8528354  42.8291160
  73.9095255  37.8095694  37.0768024  73.6629969  37.7291445  37.9104813
  74.2380378  37.0249162  36.8830551  73.9216499  37.6821959  37.1715547
  77.8043304  44.5179053  40.8654805  77.6657663  45.2160099  41.3703548
  77.0243302  44.3627709  40.5090987  77.6686531  44.5979220  40.8881079
  76.1421389  40.8175428  47.1177187  76.1369428  39.9455245  47.1219613
  76.8482383  41.0163598  46.6446643  76.2466393  40.7179303  47.0484222
  69.8692282  40.5452412  46.4891007  70.0135658  41.1253620  45.8534117
  70.2167931  40.9228709  47.1940862  69.9419744  40.6873116  46.4990002
  72.0412200  39.7442581  44.2716139  71.2935514  39.9373595  43.8664417
  72.1953725  38.9187800  44.0340260  71.9534627  39.6507692  44.1761544
  68.9420037  48.7355184  43.3552034  69.0909601  48.1758100  42.7025438
  69.7220040  48.8147186  43.7384553  69.0794131  48.6640750  43.3148983
  71.4673338  48.9069827  44.6336525  71.3917009  48.2378638  45.1887313
  71.3963197  49.6087615  45.1477191  71.4453945  48.9114734  44.7913373
  72.2813977  33.6393131  45.1611542  72.7386591  34.3717106  45.2884335
  72.3570306  33.2159597  45.9198798  72.3604947  33.6850369  45.2912619
  64.5246968  33.8858951  46.2500986  63.9889158  33.2739309  46.5661753
  64.5864733  34.4607087  46.9034653  64.4542601  33.8805879  46.3936413
  76.7541303  26.8183007  39.0305385  76.8724871  27.2759470  38.2972688
  76.5803478  26.0128268  38.7441603  76.7460474  26.7676779  38.8806319
  72.1243585  47.4270826  35.4660131  72.8893476  47.1580470  35.1442795
  72.0221675  46.9420836  36.1830193  72.2225080  47.3160390  35.5239958
  70.1596355  35.6295235  42.0053366  69.3692429  35.4486695  42.3270702
  70.5556978  34.8522188  41.9883661  70.1013231  35.4882696  42.0505915
  74.6462246  44.4583010  27.4460080  75.4135231  44.5183135  27.0365932
  74.1993554  43.8863451  26.9616398  74.6935673  44.3819585  27.3137790
  75.5440041  43.2637665  39.7312812  74.8685043  43.0322898  40.2326199
  75.5532417  42.6558848  39.1054917  75.4458546  43.1396591  39.7128964
  72.6734185  38.1055494  46.4876865  72.6093326  38.9665451  46.3597002
  72.8131373  37.7887488  45.6872417  72.6849655  38.1855661  46.3505078
  77.5456776  46.1202798  31.9622990  77.6276613  46.9269784  31.6384441
  78.0306518  46.1398757  32.6863764  77.6293933  46.2423460  32.0209889
  71.3553279  40.7987634  40.6293068  70.9315528  40.9992133  39.8932086
  71.1798134  39.9516482  40.7417368  71.2664160  40.7036415  40.5366758
  70.8564972  52.3138147  43.0914525  71.3460903  51.6148936  42.9090190
  70.2849205  52.0162017  43.6790583  70.8449502  52.1664370  43.1515566
  66.6435724  41.2939685  36.0621041  66.8000343  41.2286488  36.9177033
  66.9836317  42.0688238  35.8499720  66.7168959  41.3988883  36.1575635
  73.1814868  40.6697569  34.9314404  73.7230414  40.1667950  35.3953024
  73.4961428  40.6162763  34.1203889  73.3079266  40.5876990  34.8798216
  77.0531976  44.8800216  52.0441316  77.8666841  44.6085365  52.2046449
  76.8926942  44.5807756  51.2401512  77.1501924  44.7955142  51.9486722
  71.3501318  46.0614920  32.2154432  71.4194139  45.2029459  32.3547432
  72.1289773  46.2786801  31.8873456  71.4754168  45.9667784  32.1871589
  74.3304138  35.5633873  44.9836704  74.5446107  34.9244787  44.4300058
  73.7138037  36.0079697  44.5544566  74.2709467  35.5344017  44.8387135
  75.7408806  48.4852622  36.4290925  75.3488598  48.1819337  35.7113791
  75.8961878  49.3221712  36.2395879  75.7062396  48.5636458  36.2947422
  63.2169985  38.4774636  36.3781808  63.5968950  38.8959181  35.7142075
  62.6425350  39.0588091  36.6850651  63.1881310  38.6252494  36.3258549
  76.4943226  37.1722938  45.9220011  75.6819908  36.8648829  46.0033184
  76.9533160  36.6921939  46.4862724  76.4423611  37.0559431  46.0174606
  75.9048481  45.0502610  36.3696956  75.5463135  45.2217253  37.1460988
  75.4187191  45.5115816  35.8124954  75.7807177  45.1441582  36.4022225
  73.7218867  28.6733809  39.9724047  72.8512424  28.6472530  39.9257357
  73.9759208  28.5011001  39.1549893  73.6312427  28.6443953  39.8444184
  70.6936846  40.7301776  28.9097190  70.9829371  41.5066658  29.1840764
  70.7808645  40.2190507  29.6111689  70.7491102  40.7693694  29.0539688
  73.5896733  38.5783010  50.7048714  74.0596365  39.2025126  51.0916588
  73.6358614  37.9099985  51.2641928  73.6664609  38.5717690  50.8448785
  70.7468007  30.6840037  41.4297518  70.2306496  29.9920229  41.5549097
  70.1861936  31.3510814  41.3760116  70.5874520  30.6803295  41.4403584
  72.8160240  31.2232997  43.2590370  72.4291994  31.2482029  44.0403900
  72.3293178  30.6574676  42.8064887  72.6872749  31.1428748  43.3078274
  77.0653220  45.9406506  47.3164157  77.7032940  45.4466702  46.9826613
  76.4227311  45.8683907  46.7316383  77.0647446  45.8565515  47.1806512
  72.4817382  28.1099983  45.5500630  73.1110500  28.6460283  45.2721700
  72.6503245  28.0177342  46.4014196  72.5995177  28.1761345  45.6349158
  72.2831297  32.8971178  47.8227042  73.1104726  32.6256326  47.8785656
  72.3039143  33.6932019  48.1790860  72.4084147  32.9750932  47.8842225
  77.1207476  46.6326315  43.9569513  77.9099855  46.2815379  44.0771595
  77.2951074  47.4462703  43.6946147  77.2627758  46.7012172  43.9357381
  66.8600787  40.0435040  41.0097302  66.0188793  39.9438915  41.2176196
  67.0690795  40.8130521  41.3611623  66.7665479  40.1427084  41.0924617
  64.3376354  37.6654577  38.8382053  63.9433052  37.7397589  38.0632163
  63.7816471  38.0512524  39.3890415  64.1979166  37.7336352  38.8049713
  75.9741301  30.6435871  38.5185932  76.1790894  30.5758179  39.3642929
  75.6467725  31.4494693  38.4507109  75.9556549  30.7521812  38.6345587
  70.6717452  37.9716440  40.2594900  70.3680589  37.4172428  40.8605307
  69.9696873  38.1508650  39.7722934  70.5233662  37.9161222  40.2764605
  69.7283549  35.2816959  34.8239602  70.0043283  34.5635872  34.4117169
  70.3282218  35.8801879  34.6160708  69.8576813  35.2637330  34.7320363
  68.7335803  45.1866160  44.9666998  68.6256158  45.1968222  45.8329056
  68.9431584  46.0120941  44.7771951  68.7485914  45.3107235  45.0671089
  73.2294069  32.9530477  33.0986197  73.6837816  33.1241037  33.8234041
  73.7034115  32.3398587  32.6983972  73.3662390  32.8881362  33.1459958
  67.1470218  33.5980800  43.0956953  67.6071699  33.6719730  43.8332077
  67.1926324  34.3962054  42.7456774  67.2220773  33.7274948  43.1529709
  68.7953567  34.2647495  47.6628980  68.4039132  33.6180842  48.0984758
  68.9639430  34.8558931  48.2823235  68.7624478  34.2561763  47.8191686
  76.5099111  47.8888114  39.8620960  76.3118800  48.3778929  39.1677171
  75.8886822  48.0929356  40.4405093  76.3886675  47.9904653  39.8444183
  70.5707089  39.6573011  34.2031204  71.3149134  40.0447287  34.4414154
  70.7167786  38.8130436  34.3671692  70.7017674  39.5903484  34.2625174
  72.4886665  31.4523270  39.2363065  71.6422710  31.6246078  39.1104415
  72.4857797  30.6472614  39.5728894  72.3633815  31.3584299  39.2674192
  73.5584965  35.2298484  40.1025123  73.0844919  34.7040246  40.6130434
  73.9303101  34.6827957  39.5339985  73.5434854  35.0714481  40.0940270
  63.9357995  37.2269991  45.4708669  64.7983608  37.1265700  45.3845999
  63.6049778  36.6464700  44.9094241  64.0143192  37.1261618  45.3754075
  75.4868465  36.1235039  33.1650877  74.9591483  36.2063783  32.4756586
  75.9464173  36.8652910  33.1615522  75.4770315  36.2455701  33.0625572
  67.2959781  36.0512440  42.1319087  66.6712851  36.0630832  41.5245040
  66.9605376  36.5272615  42.7810327  67.1545273  36.1230957  42.1375656
  67.4801530  34.3937559  28.1891772  67.1314334  35.0457284  28.6523322
  66.9997976  34.3794672  27.4615643  67.3571774  34.4880612  28.1502863
  75.0405547  44.6938603  32.2960534  75.7639746  45.1596716  32.1525107
  74.6006138  44.7612212  31.5458131  75.0821240  44.7722439  32.1645315
  74.2091702  41.5536145  43.5461223  73.5948696  41.0094195  43.8409858
  74.7258987  41.0400381  43.0667039  74.1947365  41.3972554  43.5185451
  73.4488000  42.6240415  41.2805522  73.0215608  41.9990134  40.8470957
  73.4412944  42.3415337  42.1064529  73.3847141  42.4893196  41.3385349
  66.5650527  37.6605588  44.3493956  66.7244013  36.9048912  44.7545678
  66.3843420  38.2096527  45.0034693  66.5615886  37.6299402  44.5056662
  74.5070830  29.8266823  44.9044745  74.0111391  30.0230498  44.2136312
  75.2639892  30.2259492  44.7333547  74.5457654  29.9144557  44.7764882
  71.7773709  33.5009169  41.4948056  71.8016196  32.9669282  40.8060836
  72.0285183  32.9926478  42.1573646  71.8183628  33.3470073  41.4912700
  68.0575032  32.2279988  40.8753800  68.0973403  32.7289194  41.5888507
  67.2324696  32.3190381  40.6059723  67.9414557  32.3161804  40.9404338
  70.2404644  41.7940728  48.9774095  69.3900275  41.9312442  49.1131739
  70.4032772  41.0604506  49.4221796  70.1388508  41.7054829  49.0629694
  69.4789395  38.7440497  43.1727699  68.6481325  38.9114315  42.9662947
  69.4240912  38.3676448  43.9576584  69.3478810  38.7130229  43.2576227
  67.2873178  32.2349390  48.8084110  67.9125882  31.6911523  49.0813542
  66.8323658  31.7544308  48.2391900  67.3121439  32.0838872  48.7645704
  67.8525439  37.0196089  33.7017817  67.9928400  37.5168553  34.4046458
  68.3507972  36.3182383  33.8432030  67.9466520  36.9898068  33.8269396
  67.8825661  37.8863200  31.0310394  68.5170741  38.4823625  30.9659855
  67.9651272  37.5866658  31.8456264  67.9882212  37.9304108  31.1413480
  69.4604644  33.8177175  31.0055836  69.7820485  33.3380258  30.3515098
  69.7231588  34.6276822  30.8146647  69.5470669  33.8667073  30.8811328
  72.6901617  44.8396050  44.5254652  72.1826708  45.3931897  44.9695282
  72.3928263  44.9004340  43.7073426  72.5706502  44.9302361  44.4703108
  74.8563799  33.2049369  43.3679315  75.2818871  32.7521896  42.7562841
  74.2420792  32.6509440  43.6444102  74.8292444  33.0563346  43.3184340
  75.3009397  48.7559307  32.4558595  74.5838707  48.5820170  31.9905832
  75.9516135  48.5211880  31.9234081  75.2911248  48.6955100  32.3087813
  73.2958022  29.6764469  36.7769892  72.6526340  29.5262116  37.3455030
  72.9557429  29.4306814  36.0118996  73.1503099  29.6176592  36.7472907
  77.8857368  37.6323896  36.1999900  77.2148558  38.1753598  36.0712966
  78.5797119  38.1018751  35.9581595  77.8886236  37.7822167  36.1455428
  71.9344102  49.7720608  41.4311658  71.7109756  49.0139437  41.7995685
  71.4453945  49.8018629  40.7092098  71.8287551  49.6642833  41.3788399
  78.0485496  34.0879780  39.1090273  78.4013106  33.6609503  39.7836072
  77.1900297  34.0030623  39.2391350  77.9734940  34.0124520  39.2285284
  66.7469181  36.7187299  37.1673120  66.0281170  37.1351432  37.4345983
  67.1181543  37.2841538  36.6164758  66.6961113  36.8636581  37.1255927
  76.0468762  37.3515148  43.0575116  76.0266689  37.1698443  43.9109895
  76.0947962  38.2227167  43.0334699  76.0503403  37.4531687  43.1798410
  73.9915091  43.9402340  48.9823592  73.9510946  43.2952017  48.3968748
  74.8038410  43.8838958  49.2949004  74.1058245  43.8361307  48.9420541
  70.5822559  49.9921066  38.8848743  70.1682958  49.3295196  38.4952585
  71.2669933  50.1398925  38.3644437  70.6220931  49.9161724  38.7505240
  73.9487853  49.1511151  39.6372360  73.5504136  49.2613422  38.8693180
  73.3339073  49.3593218  40.2198919  73.7986742  49.1984719  39.6103659
  72.5215755  35.7585299  32.5046499  71.9280594  36.0802296  31.9531066
  72.5591033  34.9126395  32.2967606  72.4390144  35.6809628  32.3929271
  75.3973572  35.7164804  35.9348250  75.1687265  35.7397505  35.0926608
  75.6571648  34.8922271  36.0543260  75.4019760  35.5980884  35.8273447
  69.6792800  37.5699277  45.5373350  69.1671703  36.9620460  45.8958381
  69.5072296  38.2855869  46.0047326  69.5782437  37.5862576  45.6589574
  64.5258515  36.0136852  48.1875712  64.3561105  36.6738227  47.6423918
  64.0824465  36.2243413  48.9088201  64.4357848  36.1422834  48.2137341
  68.4518334  34.2541350  37.2302445  68.9275700  34.6158430  36.5952626
  67.9506934  34.9097818  37.5102588  68.4483693  34.4035539  37.1779186
  73.5561870  35.4923521  47.9775605  74.1133301  35.2637331  47.3454071
  73.2322935  36.2529187  47.7010818  73.5908281  35.5707358  47.8432103
  71.2744988  38.5791175  48.9427613  72.0256315  38.8942852  49.2567167
  71.4667564  38.3770346  48.1161534  71.4136402  38.5958557  48.8671008
  70.4944987  36.3982550  30.5975829  70.8743952  36.4162179  29.8126944
  69.7537583  36.8436539  30.4766677  70.4413825  36.4664324  30.4639397
  78.1230278  34.7064741  36.1851408  78.1224504  34.5513398  37.0435684
  77.9186458  35.5527728  36.1292794  78.0930056  34.8085362  36.3039347
  75.8471130  39.3862243  39.8387615  76.3424795  38.6685238  39.7991635
  75.0370906  39.0833041  39.7242102  75.8015023  39.2359889  39.8161341
  71.2929741  43.2360056  31.9884619  70.4841064  42.9126730  31.9417929
  71.8004650  42.5293278  31.9212868  71.2479408  43.0841372  31.9714914
  77.9122949  42.1365930  42.5264744  78.3378020  41.6140352  41.9735169
  77.5479869  42.7346768  42.0053367  77.9209551  42.1476157  42.3673753
  67.5477029  50.4330148  41.2862089  67.8623588  51.2466536  41.2939871
  67.9570442  50.0480367  41.9544248  67.6545127  50.4958850  41.3866181
  74.5001548  45.8500195  38.8565901  74.9712726  46.5640457  39.0255886
  74.8361727  45.2498945  39.3925771  74.6196663  45.8671659  38.9598277
  76.5878533  47.4601508  51.0357973  76.6975498  46.6710069  51.3914720
  76.9169429  47.3707444  50.2332311  76.6530939  47.3307361  50.9700364
  71.4171043  30.6227665  45.8123996  71.5498949  29.8258659  46.1404971
  71.8016196  31.1494068  46.3922271  71.4927372  30.5827582  45.9467499
  75.1375495  45.6418129  45.6193594  74.5896441  45.0176012  45.3513659
  75.5988523  45.8312401  44.9037673  75.1242704  45.5777179  45.4744025
  74.4903398  27.5457991  42.4105089  73.6849362  27.4355721  42.7272927
  74.3610134  27.6470447  41.5534955  74.3523531  27.5441661  42.3313130
  77.9469359  33.7103483  43.0044786  77.3632348  34.2112690  42.5922353
  78.2673653  33.2033039  42.3709109  77.9082534  33.7095318  42.8503293
  70.4864158  32.6244078  33.2803461  71.3079852  32.7942391  33.0385156
  70.0233809  32.7791339  32.5569758  70.5395320  32.6725811  33.1375105
  69.0759490  30.6186840  44.0601890  69.6203903  30.2777967  44.6506231
  69.1296426  31.4772302  44.2023174  69.1648609  30.6942100  44.1683763
  74.7033821  46.6469201  42.1502935  75.5232195  46.5032167  42.4119230
  74.4227899  47.2715400  42.6919373  74.7830564  46.7179553  42.2690874
  73.5338096  58.9611101  37.5251079  73.2988281  58.1278753  37.4183348
  73.6723737  59.2415766  36.7112280  73.5193759  58.8794604  37.3893434
  75.8328184  51.1296831  40.4235387  75.2133215  50.5389479  40.2545402
  75.7312047  51.7208267  39.7899710  75.7265859  51.1300914  40.3040377
  75.5597317  54.6749113  42.6678956  75.4356014  55.2611559  43.3028775
  76.2115601  54.1809309  42.9691231  75.6370966  54.6887918  42.8064885
  75.0955421  63.8396772  38.8007286  74.6122999  64.5647261  38.7766869
  75.9078739  64.1372902  38.9117443  75.1446169  63.9899125  38.8134565
  77.6635962  48.7071377  31.0190186  77.4811535  48.9243258  30.1931178
  78.5261575  48.8210390  31.0748800  77.7640551  48.7561275  30.9044673
  77.2750394  60.5459299  38.4613173  78.1139293  60.7782232  38.5086935
  77.3062163  59.6763611  38.3920209  77.4032111  60.4516246  38.4577818
  77.9003097  60.9660175  42.7626479  78.4401322  60.8231306  43.4329851
  77.2173043  61.3656925  43.1310505  77.8795251  61.0039846  42.9160901
  73.3040242  57.1860465  42.9160901  73.0378657  56.3699582  43.0751891
  73.3178806  57.2313621  42.0456416  73.2664964  57.0717370  42.8114382
  77.2097989  51.9845550  29.5312659  76.4956166  51.6983729  29.9435091
  77.6941957  52.3242176  30.1719046  77.1757352  51.9927200  29.6868294
  73.7133655  57.9719245  40.1972645  73.5309229  57.9466131  39.3444937
  74.4483324  58.4418183  40.2361554  73.7947719  58.0380607  40.0770563
  76.7779407  54.6904248  46.7054753  77.5019379  54.6757278  47.1919648
  76.8795544  55.3999603  46.2076722  76.8997616  54.7928951  46.7033540
  73.6804566  54.8512746  40.3471711  74.2578068  54.7149196  40.9863957
  72.9818627  54.3948530  40.6017296  73.6625587  54.7635012  40.4794001
  69.1563399  53.7024638  37.0619530  69.2423651  53.3256507  37.8433060
  69.7839196  53.3285084  36.5839488  69.2619950  53.5910121  37.1065007
  74.7439358  62.4716371  41.1150891  74.7843503  62.7431223  40.2870670
  75.3033882  62.9958280  41.5308678  74.8322704  62.5892127  41.0542779
  76.1953944  61.0558320  35.9404817  75.3692062  61.3020058  35.8139095
  76.2565935  60.9770401  36.8066875  76.0828111  61.0803269  36.0493761
  76.3397320  50.5985521  34.3417133  76.0522115  50.2286791  33.6049080
  77.0267788  51.0680376  34.0800838  76.3986217  50.6132490  34.1932209
  76.8258608  56.8696541  44.8938678  77.3379705  57.1480795  44.2447437
  76.5394951  57.6085835  45.2601491  76.8593471  57.0198895  44.8528556
  73.9125514  51.3766733  35.1902414  74.0141651  52.1792895  35.5183389
  74.7081401  51.1754069  34.8925495  74.0453420  51.4652632  35.1937769
  74.7289246  51.4913911  42.9323536  74.5874738  50.6397852  43.0568044
  75.0129810  51.5342572  42.1085742  74.7497092  51.3713661  42.8291160
  75.4979552  49.4044259  46.2500986  74.9621741  48.7924617  46.5661753
  75.5597316  49.9792395  46.9034653  75.4275184  49.3991187  46.3936413
  77.6168307  56.8124993  36.0621041  77.7732927  56.7471796  36.9177033
  77.9568901  57.5873546  35.8499720  77.6901542  56.9174191  36.1575635
  74.1902569  53.9959944  36.3781808  74.5701534  54.4144489  35.7142075
  73.6157934  54.5773399  36.6850651  74.1613894  54.1437802  36.3258549
  77.8333370  55.5620348  41.0097302  76.9921377  55.4624223  41.2176196
  78.0423378  56.3315829  41.3611623  77.7398063  55.6612392  41.0924617
  75.3108937  53.1839885  38.8382053  74.9165635  53.2582897  38.0632163
  74.7549054  53.5697832  39.3890415  75.1711750  53.2521660  38.8049713
  77.7242178  57.9564111  42.4288935  77.1330112  58.5973609  42.3991950
  78.4863202  58.3801728  42.4020235  77.7490439  58.1139949  42.4204082
  78.1202801  49.1166108  43.0956953  78.5804283  49.1905038  43.8332077
  78.1658908  49.9147362  42.7456774  78.1953356  49.2460255  43.1529709
  74.9090579  52.7455299  45.4708669  75.7716192  52.6451008  45.3845999
  74.5782362  52.1650008  44.9094241  74.9875775  52.6446926  45.3754075
  78.2692365  51.5697748  42.1319087  77.6445435  51.5816140  41.5245040
  77.9337960  52.0457923  42.7810327  78.1277857  51.6416265  42.1375656
  78.4534114  49.9122867  28.1891772  78.1046918  50.5642592  28.6523322
  77.9730559  49.8979980  27.4615643  78.3304358  50.0065920  28.1502863
  74.9818040  59.6298208  43.5722851  74.4517965  58.9390647  43.6217826
  75.2543134  59.6208393  42.7435560  74.9442763  59.5265340  43.4570267
  77.5383110  53.1790896  44.3493956  77.6976597  52.4234220  44.7545678
  77.3576004  53.7281835  45.0034693  77.5348469  53.1484710  44.5056662
  70.2613883  56.3025972  40.9291200  70.1557332  56.2572817  40.0643284
  69.5114103  56.6479753  41.2105485  70.1349486  56.3466880  40.8428529
  75.3611233  55.6016349  34.2999940  75.8703462  56.1980856  34.6811245
  75.8345505  55.3342322  33.6176359  75.5054608  55.6502164  34.2554462
  77.7201764  52.2372607  37.1673120  77.0013753  52.6536740  37.4345983
  78.0914127  52.8026846  36.6164758  77.6693696  52.3821889  37.1255927
  75.4991098  51.5322160  48.1875712  75.3293689  52.1923535  47.6423918
  75.0557048  51.7428721  48.9088201  75.4090432  51.6608142  48.2137341
  72.3993163  54.4369026  43.4464201  71.8519882  53.7669671  43.5645070
  73.1885541  54.0698873  43.5107669  72.4345347  54.2834012  43.4732902
  71.1580132  53.6489833  40.6010225  70.9801894  53.1966442  41.3265140
  70.8699155  54.4515995  40.7848702  71.0893086  53.7012391  40.7353727
  72.8952602  56.1817557  37.7131984  72.0298122  56.1703248  37.6014755
  72.9951418  55.9947780  38.5603123  72.7826769  56.1523618  37.8220928
  75.8622632  59.8988564  40.9340698  76.4667490  59.8584398  40.3054518
  75.6549945  60.7459716  40.9644753  75.9211530  60.0176567  40.8456814
  71.0973915  58.8823182  40.8039621  70.9998193  58.0719453  41.1129677
  71.8802784  58.8614975  40.4185889  71.1990051  58.7590272  40.7926484
  56.5073953   8.8279937  22.5676020  55.7556852   8.4495476  22.3392065
  56.9559964   8.8598371  21.8194830  56.4623619   8.7765545  22.4233522
  61.9598912   9.2505307  17.9961567  61.6250281   9.9282228  17.5605789
  62.4725783   8.8610618  17.4078439  61.9864494   9.2929885  17.8448359
  61.5003204  11.2019576  23.9372679  61.8842583  11.7706474  23.3977454
  61.4362345  10.4769086  23.4578495  61.5476631  11.1795039  23.7866541
  58.0858709   8.8398330  24.8338793  58.1869072   8.0298683  25.1435920
  57.4900454   8.7455276  24.2038471  58.0131247   8.7063358  24.7865031
  57.9259448  13.7575919  26.2353649  58.5696904  14.1989083  26.6249807
  58.2515704  12.9529345  26.1483907  58.0691277  13.7041113  26.2799126
  51.2823753   4.8618616  24.4591126  51.0473937   4.0286268  24.3523395
  51.4209394   5.1423282  23.6452327  51.2679416   4.7802119  24.3233481
  58.6280028   6.7687894  21.6073510  58.9495869   7.3093101  21.0034818
  59.2752125   6.1984665  21.7395800  58.7706083   6.7647069  21.5380546
  60.8727406   6.5973251  28.5313407  61.1550649   5.8024657  28.3100162
  61.6013566   7.0753839  28.5518468  61.0216970   6.5507848  28.5016422
  52.8441078   9.7404287  25.7347332  52.3608656  10.4654777  25.7106916
  53.6564396  10.0380417  25.8457490  52.8931825   9.8906641  25.7474612
  58.9155232   8.5336468  28.3397147  58.3982173   8.1743883  27.7358455
  59.6129623   8.0098642  28.3503213  58.9420813   8.4034156  28.2527406
  62.5718824   8.9831282  34.3013320  62.6602170   8.7957422  35.1491530
  63.0008536   8.3368711  33.9018167  62.6480926   8.8594289  34.3685071
  60.1389284   8.2662442  33.2830982  59.5760118   7.8535051  33.8070643
  60.9010307   8.1915347  33.7024125  60.1683732   8.1939842  33.4223982
  55.6985275  10.2560463  25.8867612  56.4005854   9.7412452  25.9440369
  55.6182758  10.5834614  26.6914487  55.7909035  10.2274689  26.0140404
  55.0236050   6.4466815  25.3953220  55.8624950   6.6789748  25.4426982
  55.0547820   5.5771126  25.3260256  55.1517768   6.3523761  25.3917865
  55.6488753   6.8667690  29.6966526  56.1886978   6.7238821  30.3669898
  54.9658700   7.2664441  30.0650552  55.6280907   6.9047361  29.8500948
  62.6838883   8.4140301  36.9657103  63.4679300   8.5271148  37.3312846
  62.4835478   7.5881438  37.1615789  62.7704908   8.3087020  37.0491489
  51.0525898   3.0867981  29.8500947  50.7864314   2.2707097  30.0091938
  51.0664463   3.1321136  28.9796463  51.0150621   2.9724886  29.7454429
  62.8409276  10.3250403  30.6123559  62.0424522  10.0849903  30.8697428
  63.2895288  10.3764796  31.3590607  62.7883888  10.2972794  30.7608483
  51.4619312   3.8726760  27.1312692  51.2794885   3.8473646  26.2784984
  52.1968981   4.3425698  27.1701600  51.5433376   3.9388122  27.0110610
  57.8012372   6.1335550  24.1656634  58.4386319   5.8947298  24.7108427
  58.2267444   6.3372709  23.4309794  57.9588538   6.1286561  24.1373791
  52.4925014   8.3723887  28.0490937  52.5329160   8.6438738  27.2210717
  53.0519538   8.8965795  28.4648725  52.5808360   8.4899642  27.9882826
  60.1833844   6.6107973  25.8450420  60.2572852   6.4483145  26.6992270
  61.0003350   6.7998163  25.6010902  60.3150203   6.6144715  25.9348446
  53.9439601   6.9565836  22.8744863  53.1177718   7.2027573  22.7479142
  54.0051592   6.8777917  23.7406921  53.8313768   6.9810785  22.9833808
  58.7238430   9.5742716  20.5763893  59.0136728   9.1831697  19.8523120
  59.4541910   9.7559421  21.0169169  58.8745314   9.5436530  20.5346700
  56.6644345  11.5510098  23.6424043  56.4444641  11.2607453  24.4350710
  56.4438867  10.8925053  23.1141955  56.5991939  11.4109807  23.6812952
  58.8312301  12.9239488  22.4254735  59.4836359  12.3915931  22.6545761
  58.1337910  12.5708141  22.8122609  58.8243019  12.7929011  22.5166903
  55.7793566   5.2778666  21.8322110  56.5339534   5.6591705  22.0457572
  55.1864178   5.7289810  22.2868806  55.8030279   5.4007493  21.9304988
  57.0991792   6.4487227  27.2062225  56.5772546   6.5887519  27.8914090
  57.4865813   5.6897892  27.3964342  57.0795493   6.3572751  27.3363302
  63.2958797   8.1882687  21.1922794  63.0545473   7.4550547  20.7849859
  63.4760130   8.7369544  20.5389127  63.2866421   8.1605078  21.0353017
  57.6638278  10.1548007  30.2892081  57.8127842   9.5950923  29.6365485
  58.4438280  10.2340009  30.6724599  57.8012371  10.0833573  30.2489030
  60.1891578  10.3262650  31.5676571  60.1135250   9.6571461  32.1227360
  60.1181438  11.0280438  32.0817238  60.1672185  10.3307558  31.7253420
  60.8461825   8.8463649  22.4000177  61.6111716   8.5773293  22.0782842
  60.7439915   8.3613659  23.1170240  60.9443321   8.7353214  22.4580005
  59.5783213  13.7330970  30.0254572  60.0679143  13.0341759  29.8430237
  59.0067445  13.4354840  30.6130630  59.5667743  13.5857194  30.0855613
  60.0719559   7.4807744  19.1494479  60.1412379   6.6222282  19.2887479
  60.8508014   7.6979624  18.8213503  60.1972409   7.3860608  19.1211636
  64.4627046   9.9045445  23.3630972  64.0706838   9.6012160  22.6453838
  64.6180118  10.7414535  23.1735926  64.4280636   9.9829282  23.2287469
  65.8425717   8.0519138  30.8909560  66.6318095   7.7008203  31.0111642
  66.0169315   8.8655526  30.6286194  65.9845999   8.1204995  30.8697428
  57.4554043   6.6058984  31.9007044  57.3474398   6.6161046  32.7669102
  57.6649825   7.4313764  31.7111998  57.4704154   6.7300058  32.0011136
  55.4727835   3.8571626  29.3628982  54.8815768   4.4981124  29.3331997
  56.2348859   4.2809243  29.3360281  55.4976096   4.0147464  29.3544129
  65.2317351   9.3080938  26.7961006  65.0337040   9.7971752  26.1017218
  64.6105062   9.5122179  27.3745140  65.1104916   9.4097476  26.7784230
  52.7303697   5.5305723  30.5062898  52.2003622   4.8398162  30.5557873
  53.0028791   5.5215909  29.6775607  52.6928420   5.4272855  30.3910314
  48.0099539   2.2033488  27.8631247  47.9042989   2.1580332  26.9983331
  47.2599759   2.5487268  28.1445531  47.8835142   2.2474396  27.7768576
  61.4119857   6.2588873  31.4594698  60.9044948   6.8124720  31.9035329
  61.1146503   6.3197163  30.6413473  61.2924742   6.3495184  31.4043155
  64.0227637  10.1752131  19.3898642  63.3056947  10.0012993  18.9245879
  64.6734375   9.9404703  18.8574128  64.0129488  10.1147923  19.2427860
  60.6562342  11.1913431  28.3651705  60.4327997  10.4332261  28.7335732
  60.1672186  11.2211452  27.6432145  60.5505791  11.0835656  28.3128446
  59.3040799  11.4113889  25.8188790  58.8901198  10.7488020  25.4292632
  59.9888174  11.5591748  25.2984484  59.3439171  11.3354548  25.6845287
  62.6706093  10.5703975  26.5712406  62.2722377  10.6806245  25.8033227
  62.0557313  10.7786041  27.1538966  62.5204983  10.6177543  26.5443706
  56.2695269  11.8522971  28.2202136  56.5841828  12.6659360  28.2279918
  56.6788682  11.4673190  28.8884295  56.3763367  11.9151673  28.3206228
  63.2219789   7.2693018  25.7905948  63.6930967   7.9833280  25.9595933
  63.5579967   6.6691768  26.3265817  63.3414904   7.2864482  25.8938324
  65.3096773   8.8794331  37.9698020  65.4193739   8.0902892  38.3254767
  65.6387670   8.7900267  37.1672358  65.3749179   8.7500184  37.9040411
  53.6108289   5.7996080  27.8680744  54.2153146   5.7591914  27.2394565
  53.4035602   6.6467232  27.8984800  53.6697186   5.9184082  27.7796861
  63.4252061   8.0662025  29.0842982  64.2450435   7.9224991  29.3459277
  63.1446139   8.6908224  29.6259420  63.5048805   8.1372377  29.2030921
  48.8459571   4.7830697  27.7379667  48.7483849   3.9726969  28.0469724
  49.6288441   4.7622490  27.3525936  48.9475708   4.6597787  27.7266530
  73.0965396  14.8102527  26.8038789  72.2403292  14.9711026  26.8547905
  73.1433050  13.9394591  26.8243850  72.9764508  14.7053329  26.8144855
  67.4806536  24.3465245  22.5676020  66.7289436  23.9680784  22.3392065
  67.9292548  24.3783679  21.8194830  67.4356203  24.2950852  22.4233522
  76.4059113  21.0789053  36.4099245  77.1125880  20.5841084  36.5386179
  76.5947048  21.5198135  35.6801903  76.5387019  21.0707403  36.3208290
  72.9331496  24.7690615  17.9961567  72.5982865  25.4467536  17.5605789
  73.4458366  24.3795926  17.4078439  72.9597077  24.8115193  17.8448359
  72.4735787  26.7204883  23.9372679  72.8575167  27.2891782  23.3977454
  72.4094929  25.9954394  23.4578495  72.5209215  26.6980347  23.7866541
  75.9417217  16.8694571  29.4470440  76.4873178  17.5479658  29.5064410
  75.8834094  16.7282032  28.5872022  76.0133132  16.9486573  29.3282501
  69.0591292  24.3583637  24.8338793  69.1601655  23.5483991  25.1435920
  68.4633038  24.2640584  24.2038471  68.9863831  24.2248666  24.7865031
  77.7182286  18.2979178  20.3204168  77.6021812  19.0486865  20.7496306
  78.5138173  18.0403132  20.5700255  77.8186876  18.3714025  20.4208260
  68.8992032  29.2761227  26.2353649  69.5429487  29.7174391  26.6249807
  69.2248287  28.4714653  26.1483907  69.0423861  29.2226421  26.2799126
  62.2556337  20.3803924  24.4591126  62.0206521  19.5471576  24.3523395
  62.3941977  20.6608590  23.6452327  62.2411999  20.2987427  24.3233481
  64.5546424  12.5489655  27.3575434  63.9351456  11.9582302  27.1885449
  64.4530288  13.1401090  26.7239757  64.4484100  12.5493737  27.2380423
  69.6012612  22.2873201  21.6073510  69.9228453  22.8278409  21.0034818
  70.2484708  21.7169973  21.7395800  69.7438667  22.2832377  21.5380546
  71.6514320  14.2889196  21.6907897  72.3494484  14.4677324  22.1829360
  71.9666652  13.7659536  21.0678286  71.8009657  14.2382969  21.6709907
  64.2815557  16.0941936  29.6019003  64.1574254  16.6804382  30.2368822
  64.9333842  15.6002132  29.9031278  64.3589206  16.1080741  29.7404932
  71.8402255  20.6759641  21.6787688  72.2795891  20.0676742  22.1242461
  71.6906918  20.2967015  20.9073154  71.8823721  20.5298113  21.6306856
  69.3073898  19.2703653  28.8806514  69.9522901  18.7776096  28.5617463
  69.5475675  19.4128440  29.7072592  69.4384483  19.2181095  28.9556047
  71.8459989  22.1158559  28.5313407  72.1283232  21.3209965  28.3100162
  72.5746150  22.5939147  28.5518468  71.9949553  22.0693156  28.5016422
  69.8241183   9.6581593  25.7729172  69.4944513  10.1092737  25.1032870
  69.1486185   9.5797756  26.3202178  69.6751620   9.7132728  25.7552395
  75.4411592  19.0286823  18.6318458  75.3562887  19.8847789  18.7768027
  75.9295975  18.7531147  19.3000617  75.5000489  19.1144144  18.7520539
  76.3730025  15.6471617  20.1316193  75.8441496  15.8631250  20.7913499
  76.8955045  16.3407755  20.0517162  76.3718478  15.7814754  20.2171792
  68.2629633  19.5434834  18.9323661  67.6786848  20.0484865  19.3389525
  67.8599728  19.3177221  18.1920253  68.1168937  19.5843082  18.8828686
  63.8173661  25.2589595  25.7347332  63.3341240  25.9840084  25.7106916
  64.6296980  25.5565725  25.8457490  63.8664409  25.4091949  25.7474612
  69.8887815  24.0521776  28.3397147  69.3714757  23.6929191  27.7358455
  70.5862207  23.5283950  28.3503213  69.9153397  23.9219463  28.2527406
  73.5451407  24.5016590  34.3013320  73.6334753  24.3142730  35.1491530
  73.9741120  23.8554019  33.9018167  73.6213510  24.3779597  34.3685071
  71.1121867  23.7847750  33.2830982  70.5492702  23.3720359  33.8070643
  71.8742891  23.7100655  33.7024125  71.1416316  23.7125150  33.4223982
  72.7206847  15.7900486  17.4092581  72.9602851  15.9978469  16.5967925
  73.0422688  14.9857994  17.5181526  72.8044005  15.7014587  17.3053135
  66.6717859  25.7745771  25.8867612  67.3738438  25.2597760  25.9440369
  66.5915342  26.1019922  26.6914487  66.7641619  25.7459997  26.0140404
  67.7196765  16.0121358  35.0148027  67.8917269  15.9027252  35.8633309
  68.2566123  16.6575763  34.7779220  67.8241769  16.0913359  35.1053124
  66.3854202  10.1264200  17.9530232  66.2029775  10.3436081  17.1271225
  67.2479815  10.2403213  18.0088847  66.4858791  10.1754098  17.8384719
  65.9968634  21.9652123  25.3953220  66.8357533  22.1975055  25.4426982
  66.0280403  21.0956434  25.3260256  66.1250352  21.8709069  25.3917865
  66.6221337  22.3852998  29.6966526  67.1619562  22.2424129  30.3669898
  65.9391283  22.7849749  30.0650552  66.6013491  22.4232669  29.8500948
  76.0462222  18.0643999  24.8911550  76.8019737  18.4975513  24.9300459
  76.1524546  17.4148768  25.4646186  76.1732392  18.0321482  24.9809576
  73.6571467  23.9325609  36.9657103  74.4411883  24.0456456  37.3312846
  73.4568061  23.1066746  37.1615789  73.7437492  23.8272328  37.0491489
  62.0258482  18.6053289  29.8500947  61.7596897  17.7892405  30.0091938
  62.0397046  18.6506444  28.9796463  61.9883204  18.4910193  29.7454429
  65.9316229  13.4038373  16.4652705  65.2174406  13.1176553  16.8775138
  66.4160198  13.7434999  17.1059093  65.8975592  13.4120023  16.6208340
  66.7757088  12.1431667  32.4967955  66.0828885  11.6728647  32.7428687
  67.3917416  11.9169971  33.0709662  66.7641618  12.0398799  32.6177108
  73.8141860  25.8435711  30.6123559  73.0157106  25.6035211  30.8697428
  74.2627871  25.8950104  31.3590607  73.7616471  25.8158102  30.7608483
  73.1063547  21.9068327  16.8414514  73.5214695  21.5753351  16.1499009
  72.2755477  21.6737229  16.7134650  73.0451556  21.8239583  16.7205361
  62.4351896  19.3912068  27.1312692  62.2527469  19.3658954  26.2784984
  63.1701565  19.8611006  27.1701600  62.5165960  19.4573430  27.0110610
  65.4997647  16.1097071  33.6394800  66.2237620  16.0950102  34.1259695
  65.6013784  16.8192426  33.1416768  65.6215856  16.2121774  33.6373587
  72.8742597  19.5896156  38.5043747  72.0815578  19.9039667  38.6896367
  72.9891524  19.8047624  37.6664532  72.7738007  19.6679992  38.4082082
  75.5473916  16.3130147  22.7938763  75.6420770  17.0519441  23.2478389
  74.9232759  15.8847622  23.2273328  75.4682946  16.3591467  22.9246911
  73.8026390  19.4916359  33.4429044  74.3765251  18.8543604  33.5977608
  73.7241193  19.4920442  32.5738702  73.8759624  19.3981471  33.3375455
  62.4022806  16.2705569  27.2811758  62.9796309  16.1342020  27.9204004
  61.7036868  15.8141353  27.5357343  62.3843827  16.1827835  27.4134048
  69.1590108  17.9239624  25.4950241  68.9009353  17.0911359  25.4681541
  69.2138591  18.1497237  24.6542742  69.1289886  17.8337396  25.3670378
  68.1324820  15.4777387  25.9815136  67.5574412  15.6369555  26.6179097
  67.7560497  14.8412796  25.5183587  67.9927633  15.4075200  26.0069695
  71.7998109  13.9500736  30.8407515  71.4112542  13.5254954  30.1859706
  71.1352807  14.1982886  31.3484541  71.6445037  13.9239457  30.8195383
  57.8781639  15.1217462  23.9959577  57.9641891  14.7449330  24.7773107
  58.5057437  14.7477907  23.5179535  57.9838190  15.0102944  24.0405054
  72.9037047  18.1799341  19.0384322  73.7177686  18.4714234  18.9267093
  72.8396189  17.5259203  18.4642615  73.0139786  18.1264536  18.9373159
  68.7744956  21.6520858  24.1656634  69.4118902  21.4132606  24.7108427
  69.2000027  21.8558017  23.4309794  68.9321122  21.6471868  24.1373791
  63.4657598  23.8909195  28.0490937  63.5061743  24.1624046  27.2210717
  64.0252122  24.4151103  28.4648725  63.5540944  24.0084950  27.9882826
  69.4147771  16.8723148  18.5031523  69.7992923  16.6530855  19.2548068
  69.1659391  17.6986093  18.6332599  69.4349843  16.9621294  18.6332599
  69.5816311  10.1529563  38.2194107  69.2669752  10.9229126  37.9563670
  69.2606244   9.5899819  37.6346334  69.4875230  10.1839832  38.0935457
  71.1566428  22.1293281  25.8450420  71.2305436  21.9668453  26.6992270
  71.9735934  22.3183470  25.6010902  71.2882786  22.1330023  25.9348446
  64.9172184  22.4751144  22.8744863  64.0910302  22.7212881  22.7479142
  64.9784175  22.3963225  23.7406921  64.8046351  22.4996093  22.9833808
  67.1348208   8.5420085  23.8340304  66.2670633   8.6142684  23.8997913
  67.4223412   9.3442164  24.0228279  67.0487956   8.6714232  23.8715070
  69.6971013  25.0928024  20.5763893  69.9869312  24.7017005  19.8523120
  70.4274494  25.2744729  21.0169169  69.8477897  25.0621838  20.5346700
  70.2865758  19.8945770  31.6617024  69.7877452  20.6061538  31.7401912
  71.0965983  20.2146436  31.6235186  70.3321865  20.0472618  31.6673592
  67.6376929  27.0695406  23.6424043  67.4177224  26.7792761  24.4350710
  67.4171451  26.4110361  23.1141955  67.5724523  26.9295115  23.6812952
  66.5493876  19.1568723  25.9079745  66.2607125  18.5306194  26.4425472
  67.4177224  19.0989010  25.9744425  66.6354128  19.0556267  25.9970699
  77.3371774  14.3003506  26.2261727  76.9936540  13.5793841  26.5768976
  77.4364816  14.0917357  25.3840085  77.3013817  14.1627709  26.1533407
  69.8044885  28.4424796  22.4254735  70.4568943  27.9101239  22.6545761
  69.1070493  28.0893449  22.8122609  69.7975602  28.3114319  22.5166903
  66.7526149  20.7963974  21.8322110  67.5072117  21.1777013  22.0457572
  66.1596762  21.2475118  22.2868806  66.7762863  20.9192801  21.9304988
  77.7984803  20.7629210  21.7685715  78.3642836  21.4222420  21.6844258
  77.1512706  21.1078908  22.2402117  77.7863559  20.9111152  21.8258471
  69.2132816  12.7526814  36.9579322  68.4032592  13.0584594  36.8469164
  69.6907503  13.4732397  37.0731906  69.1636295  12.9041415  36.9586393
  68.0724376  21.9672535  27.2062225  67.5505130  22.1072827  27.8914090
  68.4598396  21.2083200  27.3964342  68.0528077  21.8758059  27.3363302
  65.0615560  12.0178344  21.2757180  64.7740356  11.6479614  20.5389127
  65.7486028  12.4873199  21.0140885  65.1204457  12.0325313  21.1272256
  74.2691381  23.7067994  21.1922794  74.0278057  22.9735855  20.7849859
  74.4492714  24.2554851  20.5389127  74.2599005  23.6790386  21.0353017
  69.4990702  18.9976554  22.6043716  69.3033484  19.6051289  22.0104019
  69.7225047  18.3044498  22.1235390  69.5025343  18.9854080  22.4459797
  67.8969232  15.8831292  22.7224585  68.6191884  16.0472450  22.2628391
  67.4177224  16.6040957  22.6163924  67.9332962  16.0129522  22.6390199
  75.8562739  12.2195091  28.1021269  75.0173840  12.2456370  27.8659533
  75.9267106  12.8665826  28.6826616  75.7431133  12.3191217  28.1530386
  65.5476848  18.2889365  31.8278724  66.0597945  18.5673618  31.1787484
  65.2613191  19.0278659  32.1941537  65.5811711  18.4391718  31.7868602
  62.6343755  12.7959556  22.1242461  62.7359891  13.5985718  22.4523436
  63.4299641  12.5946892  21.8265541  62.7671660  12.8845455  22.1277816
  69.0660574  10.3815753  31.8879766  68.8743771  10.3970888  32.7379189
  69.9159170  10.5779427  31.8646421  69.1636296  10.4130104  32.0103061
  63.4507487  12.9106735  29.8663582  63.3092979  12.0590675  29.9908090
  63.7348050  12.9535395  29.0425788  63.4715333  12.7906485  29.7631207
  73.6046079  14.7473825  24.0108071  73.3580793  14.6669576  24.8444860
  73.9331202  13.9627293  23.8170598  73.6167323  14.6200090  24.1055594
  77.4994128  21.4557184  27.7994852  77.3608487  22.1538230  28.3043594
  76.7194126  21.3005841  27.4431034  77.3637355  21.5357351  27.8221126
  75.8372213  17.7553560  34.0517234  75.8320252  16.8833376  34.0559660
  76.5433207  17.9541729  33.5786689  75.9417217  17.6557434  33.9824269
  69.5643106  17.4830543  33.4231054  69.7086482  18.0631752  32.7874164
  69.9118755  17.8606840  34.1280908  69.6370568  17.6251247  33.4330049
  71.7363024  16.6820712  31.2056185  70.9886338  16.8751726  30.8004463
  71.8904549  15.8565931  30.9680307  71.6485451  16.5885823  31.1101591
  68.6370861  25.6733315  30.2892081  68.7860425  25.1136231  29.6365485
  69.4170863  25.7525317  30.6724599  68.7744955  25.6018881  30.2489030
  71.1624162  25.8447958  31.5676571  71.0867833  25.1756769  32.1227360
  71.0914021  26.5465746  32.0817238  71.1404769  25.8492865  31.7253420
  71.9764801  10.5771263  32.0951589  72.4337415  11.3095237  32.2224381
  72.0521130  10.1537728  32.8538845  72.0555771  10.6228501  32.2252666
  64.2197792  10.8237082  33.1841033  63.6839981  10.2117440  33.5001800
  64.2815557  11.3985218  33.8374699  64.1493425  10.8184010  33.3276460
  71.8194409  24.3648957  22.4000177  72.5844300  24.0958601  22.0782842
  71.7172499  23.8798967  23.1170240  71.9175904  24.2538522  22.4580005
  69.8547179  12.5673366  28.9393413  69.0643253  12.3864827  29.2610749
  70.2507802  11.7900319  28.9223708  69.7964055  12.4260827  28.9845961
  75.2390865  20.2015797  26.6652859  74.5635867  19.9701029  27.1666246
  75.2483241  19.5936980  26.0394964  75.1409370  20.0774722  26.6469011
  72.3685009  15.0433626  33.4216912  72.3044150  15.9043582  33.2937049
  72.5082197  14.7265619  32.6212463  72.3800479  15.1233792  33.2845125
  77.2407600  23.0580929  18.8963037  77.3227437  23.8647915  18.5724488
  77.7257342  23.0776888  19.6203810  77.3244757  23.1801591  18.9549936
  71.0504103  17.7365765  27.5633115  70.6266352  17.9370264  26.8272133
  70.8748958  16.8894613  27.6757415  70.9614983  17.6414546  27.4706805
  70.5515796  29.2516278  30.0254572  71.0411727  28.5527067  29.8430237
  69.9800029  28.9540148  30.6130630  70.5400326  29.1042502  30.0855613
  66.3386548  18.2317816  22.9961087  66.4951167  18.1664619  23.8517080
  66.6787141  19.0066369  22.7839767  66.4119783  18.3367014  23.0915682
  72.8765692  17.6075700  21.8654451  73.4181238  17.1046081  22.3293071
  73.1912251  17.5540895  21.0543936  73.0030090  17.5255121  21.8138263
  76.7482800  21.8178347  38.9781363  77.5617665  21.5463496  39.1386495
  76.5877766  21.5185887  38.1741559  76.8452748  21.7333273  38.8826769
  71.0452142  22.9993051  19.1494479  71.1144962  22.1407590  19.2887479
  71.8240597  23.2164932  18.8213503  71.1704992  22.9045915  19.1211636
  74.0254962  12.5012004  31.9176751  74.2396931  11.8622919  31.3640105
  73.4088861  12.9457828  31.4884613  73.9660291  12.4722148  31.7727182
  75.4359630  25.4230753  23.3630972  75.0439421  25.1197468  22.6453838
  75.5912702  26.2599843  23.1735926  75.4013220  25.5014589  23.2287469
  62.9120809  15.4152767  23.3121855  63.2919774  15.8337312  22.6482122
  62.3376174  15.9966223  23.6190698  62.8832134  15.5630626  23.2598596
  76.1894050  14.1101070  32.8560058  75.3770732  13.8026960  32.9373231
  76.6483984  13.6300070  33.4202770  76.1374435  13.9937562  32.9514652
  75.5999304  21.9880742  23.3037003  75.2413959  22.1595384  24.0801035
  75.1138015  22.4493947  22.7465001  75.4758001  22.0819713  23.3362272
  70.3887670  17.6679907  15.8437237  70.6780195  18.4444790  16.1180811
  70.4759469  17.1568638  16.5451736  70.4441926  17.7071825  15.9879735
  73.2847557  15.5161141  37.6388761  73.7547188  16.1403257  38.0256635
  73.3309437  14.8478117  38.1981975  73.3615433  15.5095821  37.7788832
  76.7604044  22.8784638  34.2504203  77.3983764  22.3844833  33.9166660
  76.1178135  22.8062038  33.6656430  76.7598270  22.7943646  34.1146558
  78.4861044  14.7273784  28.8170119  78.0588652  14.6400132  28.0618219
  77.8487097  14.8351559  29.4024963  78.3290651  14.7306443  28.7915561
  76.8158300  23.5704446  30.8909560  77.6050679  23.2193511  31.0111642
  76.9901898  24.3840834  30.6286194  76.9578582  23.6390303  30.8697428
  66.5551611  16.9813172  27.9437349  65.7139617  16.8817046  28.1516243
  66.7641619  17.7508652  28.2951670  66.4616303  17.0805215  28.0264664
  64.0327178  14.6032709  25.7722100  63.6383876  14.6775720  24.9972209
  63.4767295  14.9890655  26.3230461  63.8929990  14.6714483  25.7389760
  70.3668276  14.9094571  27.1934947  70.0631413  14.3550559  27.7945354
  69.6647696  15.0886781  26.7062981  70.2184486  14.8539353  27.2104652
  69.4234373  12.2195091  21.7579648  69.6994107  11.5014003  21.3457216
  70.0233042  12.8180010  21.5500755  69.5527637  12.2015461  21.6660410
  68.4286627  22.1244291  31.9007044  68.3206982  22.1346354  32.7669102
  68.6382408  22.9499072  31.7111998  68.4436738  22.2485366  32.0011136
  66.4460419  19.3756934  29.3628982  65.8548352  20.0166432  29.3331997
  67.2081442  19.7994551  29.3360281  66.4708679  19.5332772  29.3544129
  66.8421042  10.5358932  30.0297000  67.3022523  10.6097861  30.7672123
  66.8877148  11.3340186  29.6796821  66.9171597  10.6653079  30.0869756
  68.4904391  11.2025627  34.5969027  68.0989956  10.5558974  35.0324804
  68.6590254  11.7937062  35.2163282  68.4575302  11.1939894  34.7531733
  76.2049935  24.8266245  26.7961006  76.0069624  25.3157060  26.1017218
  75.5837646  25.0307487  27.3745140  76.0837499  24.9282784  26.7784230
  70.2657913  16.5951142  21.1371251  71.0099958  16.9825419  21.3754201
  70.4118609  15.7508568  21.3011738  70.3968498  16.5281615  21.1965220
  73.2535789  12.1676616  27.0365170  72.7795743  11.6418378  27.5470481
  73.6253925  11.6206088  26.4680032  73.2385678  12.0092612  27.0280317
  63.6308819  14.1648122  32.4048716  64.4934432  14.0643832  32.3186046
  63.3000602  13.5842832  31.8434288  63.7094016  14.0639749  32.3094122
  66.9910605  12.9890571  29.0659134  66.3663675  13.0008963  28.4585087
  66.6556200  13.4650746  29.7150374  66.8496097  13.0609088  29.0715703
  67.1752354  11.3315690  15.1231819  66.8265158  11.9835415  15.5863368
  66.6948800  11.3172803  14.3955690  67.0522598  11.4258743  15.0842910
  63.7036281  21.0491031  30.5062898  63.1736205  20.3583470  30.5557873
  63.9761374  21.0401217  29.6775607  63.6661003  20.9458163  30.3910314
  74.7356371  21.6316734  19.2300581  75.4590570  22.0974847  19.0865154
  74.2956962  21.6990343  18.4798178  74.7772064  21.7100570  19.0985362
  73.9042526  18.4914276  30.4801270  73.2899519  17.9472326  30.7749905
  74.4209811  17.9778512  30.0007086  73.8898189  18.3350685  30.4525498
  73.1438824  19.5618546  28.2145568  72.7166432  18.9368265  27.7811004
  73.1363768  19.2793468  29.0404576  73.0797965  19.4271327  28.2725396
  66.2601351  14.5983719  31.2834002  66.4194837  13.8427043  31.6885724
  66.0794244  15.1474659  31.9374740  66.2566710  14.5677533  31.4396708
  71.4724533  10.4387301  28.4288102  71.4967020   9.9047413  27.7400882
  71.7236007   9.9304609  29.0913693  71.5134452  10.2848205  28.4252747
  58.9832123  17.7218796  27.8631247  58.8775572  17.6765640  26.9983331
  58.2332343  18.0672576  28.1445531  58.8567726  17.7659704  27.7768576
  67.7525855   9.1658119  27.8093847  67.7924227   9.6667325  28.5228554
  66.9275520   9.2568513  27.5399770  67.6365381   9.2539935  27.8744385
  69.9355468  18.7318859  35.9114141  69.0851099  18.8690573  36.0471786
  70.0983596  17.9982637  36.3561843  69.8339332  18.6432960  35.9969741
  69.1740219  15.6818629  30.1067746  68.3432149  15.8492447  29.9002994
  69.1191736  15.3054579  30.8916631  69.0429634  15.6508360  30.1916274
  66.9824002   9.1727522  35.7424157  67.6076706   8.6289654  36.0153589
  66.5274482   8.6922439  35.1731947  67.0072263   9.0217003  35.6985750
  67.5476263  13.9574220  20.6357864  67.6879224  14.4546684  21.3386505
  68.0458795  13.2560515  20.7772077  67.6417344  13.9276199  20.7609443
  67.5776485  14.8241331  17.9650440  68.2121565  15.4201756  17.8999902
  67.6602096  14.5244789  18.7796310  67.6833036  14.8682239  18.0753527
  69.1555468  10.7555307  17.9395882  69.4771309  10.2758389  17.2855145
  69.4182412  11.5654953  17.7486694  69.2421493  10.8045205  17.8151374
  72.3852441  21.7774181  31.4594698  71.8777532  22.3310028  31.9035329
  72.0879087  21.8382471  30.6413473  72.2657326  21.8680492  31.4043155
  64.0829473  17.0209172  21.2339986  64.5921702  17.6173680  21.6151292
  64.5563745  16.7535146  20.5516406  64.2272849  17.0694987  21.1894509
  74.9960221  25.6937439  19.3898642  74.2789531  25.5198301  18.9245879
  75.6466959  25.4590011  18.8574128  74.9862071  25.6333231  19.2427860
  77.5808192  14.5702027  23.1339947  76.9099382  15.1131729  23.0053013
  78.2747942  15.0396883  22.8921642  77.5837060  14.7200298  23.0795475
  71.6294926  26.7098739  28.3651705  71.4060580  25.9517568  28.7335732
  71.1404769  26.7396760  27.6432145  71.5238375  26.6020964  28.3128446
  66.4420005  13.6565431  24.1013167  65.7231994  14.0729563  24.3686030
  66.8132367  14.2219669  23.5504805  66.3911936  13.8014712  24.0595974
  75.7419586  14.2893279  29.9915162  75.7217513  14.1076575  30.8449941
  75.7898786  15.1605298  29.9674746  75.7454227  14.3909818  30.1138457
  73.6865915  20.8780471  35.9163639  73.6461770  20.2330148  35.3308795
  74.4989234  20.8217089  36.2289051  73.8009069  20.7739438  35.8760588
  70.2773383  26.9299197  25.8188790  69.8633782  26.2673328  25.4292632
  70.9620757  27.0777056  25.2984484  70.3171755  26.8539856  25.6845287
  73.6438677  26.0889283  26.5712406  73.2454960  26.1991553  25.8033227
  73.0289897  26.2971349  27.1538966  73.4937566  26.1362851  26.5443706
  72.2166579  12.6963430  19.4386546  71.6231418  13.0180427  18.8871113
  72.2541857  11.8504526  19.2307652  72.1340968  12.6187759  19.3269318
  75.0924396  12.6542935  22.8688296  74.8638089  12.6775636  22.0266655
  75.3522472  11.8300402  22.9883307  75.0970584  12.5359015  22.7613494
  69.3743624  14.5077408  32.4713397  68.8622527  13.8998591  32.8298428
  69.2023120  15.2234001  32.9387372  69.2733261  14.5240707  32.5929620
  64.2209339  12.9514983  35.1215758  64.0511929  13.6116358  34.5763965
  63.7775289  13.1621545  35.8428248  64.1308672  13.0800965  35.1477388
  68.1469158  11.1919481  24.1642492  68.6226524  11.5536561  23.5292673
  67.6457758  11.8475949  24.4442635  68.1434517  11.3413670  24.1119233
  73.2512694  12.4301653  34.9115652  73.8084125  12.2015462  34.2794118
  72.9273759  13.1907318  34.6350865  73.2859105  12.5085489  34.7772149
  61.1211403  15.8561849  30.3804248  60.5738123  15.1862494  30.4985117
  61.9103781  15.4891697  30.4447716  61.1563587  15.7026835  30.4072949
  70.9695812  15.5169306  35.8767659  71.7207139  15.8320983  36.1907214
  71.1618388  15.3148477  35.0501581  71.1087226  15.5336688  35.8011055
  70.1895811  13.3360681  17.5315876  70.5694776  13.3540310  16.7466991
  69.4488407  13.7814670  17.4106723  70.1364649  13.4042456  17.3979444
  59.8798373  15.0682657  27.5350271  59.7020134  14.6159266  28.2605187
  59.5917395  15.8708818  27.7188749  59.8111326  15.1205214  27.6693774
  75.5421954  16.3240374  26.7727662  76.0375619  15.6063369  26.7331682
  74.7321730  16.0211172  26.6582149  75.4965847  16.1738020  26.7501387
  70.9880565  20.1738187  18.9224666  70.1791888  19.8504861  18.8757976
  71.4955474  19.4671409  18.8552915  70.9430232  20.0219504  18.9054960
  61.6170843  17.6010380  24.6472030  60.7516362  17.5896071  24.5354802
  61.7169659  17.4140603  25.4943170  61.5045010  17.5716442  24.7560975
  77.6073773  19.0744062  29.4604790  78.0328844  18.5518483  28.9075215
  77.2430693  19.6724899  28.9393413  77.6160375  19.0854289  29.3013800
  67.2427853  27.3708279  28.2202136  67.5574412  28.1844667  28.2279918
  67.6521266  26.9858498  28.8884295  67.3495951  27.4336981  28.3206228
  74.1952372  22.7878326  25.7905948  74.6663550  23.5018588  25.9595933
  74.5312551  22.1877076  26.3265817  74.3147487  22.8049790  25.8938324
  76.2829357  24.3979639  37.9698020  76.3926322  23.6088200  38.3254767
  76.6120253  24.3085575  37.1672358  76.3481763  24.2685492  37.9040411
  74.8326319  22.5796260  32.5533641  74.2847264  21.9554144  32.2853706
  75.2939347  22.7690532  31.8377720  74.8193528  22.5155310  32.4084072
  70.1814982   9.5622209  20.2143508  71.0030676   9.7320522  19.9725203
  69.7184633   9.7169470  19.4909805  70.2346144   9.6103942  20.0715152
  64.5840873  21.3181387  27.8680744  65.1885730  21.2777222  27.2394565
  64.3768185  22.1652539  27.8984800  64.6429770  21.4369390  27.7796861
  74.3984645  23.5847333  29.0842982  75.2183019  23.4410299  29.3459277
  74.1178722  24.2093532  29.6259420  74.4781388  23.6557685  29.2030921
  59.8192155  20.3016005  27.7379667  59.7216433  19.4912276  28.0469724
  60.6021025  20.2807798  27.3525936  59.9208291  20.1783095  27.7266530
  73.2288920  35.8989232  24.4591126  72.9939105  35.0656884  24.3523395
  73.3674561  36.1793898  23.6452327  73.2144583  35.8172735  24.3233481
  75.5279008  28.0674963  27.3575434  74.9084039  27.4767610  27.1885449
  75.4262871  28.6586398  26.7239757  75.4216683  28.0679045  27.2380423
  75.2548141  31.6127244  29.6019003  75.1306838  32.1989690  30.2368822
  75.9066425  31.1187440  29.9031278  75.3321790  31.6266049  29.7404932
  74.7906245  40.7774903  25.7347332  74.3073823  41.5025392  25.7106916
  75.6029563  41.0751033  25.8457490  74.8396993  40.9277256  25.7474612
  77.6450442  41.2931079  25.8867612  78.3471021  40.7783068  25.9440369
  77.5647925  41.6205230  26.6914487  77.7374203  41.2645305  26.0140404
  77.3586786  25.6449508  17.9530232  77.1762359  25.8621389  17.1271225
  78.2212399  25.7588521  18.0088847  77.4591375  25.6939406  17.8384719
  76.9701218  37.4837431  25.3953220  77.8090117  37.7160363  25.4426982
  77.0012987  36.6141742  25.3260256  77.0982935  37.3894377  25.3917865
  77.5953921  37.9038306  29.6966526  78.1352146  37.7609437  30.3669898
  76.9123867  38.3035057  30.0650552  77.5746074  37.9417977  29.8500948
  72.9991066  34.1238597  29.8500947  72.7329481  33.3077713  30.0091938
  73.0129630  34.1691752  28.9796463  72.9615788  34.0095501  29.7454429
  76.9048813  28.9223681  16.4652705  76.1906990  28.6361861  16.8775138
  77.3892781  29.2620307  17.1059093  76.8708176  28.9305331  16.6208340
  77.7489672  27.6616975  32.4967955  77.0561469  27.1913955  32.7428687
  78.3649999  27.4355279  33.0709662  77.7374202  27.5584107  32.6177108
  73.4084479  34.9097376  27.1312692  73.2260053  34.8844262  26.2784984
  74.1434148  35.3796314  27.1701600  73.4898543  34.9758738  27.0110610
  76.4730231  31.6282379  33.6394800  77.1970203  31.6135410  34.1259695
  76.5746368  32.3377734  33.1416768  76.5948440  31.7307082  33.6373587
  73.3755390  31.7890877  27.2811758  73.9528892  31.6527327  27.9204004
  72.6769451  31.3326661  27.5357343  73.3576411  31.7013143  27.4134048
  68.8514223  30.6402770  23.9959577  68.9374475  30.2634638  24.7773107
  69.4790020  30.2663215  23.5179535  68.9570774  30.5288252  24.0405054
  74.4390182  39.4094503  28.0490937  74.4794327  39.6809354  27.2210717
  74.9984706  39.9336411  28.4648725  74.5273527  39.5270258  27.9882826
  75.8904768  37.9936452  22.8744863  75.0642885  38.2398189  22.7479142
  75.9516759  37.9148532  23.7406921  75.7778935  38.0181401  22.9833808
  78.1080792  24.0605393  23.8340304  77.2403217  24.1327992  23.8997913
  78.3955996  24.8627472  24.0228279  78.0220540  24.1899540  23.8715070
  78.6109512  42.5880714  23.6424043  78.3909808  42.2978069  24.4350710
  78.3904034  41.9295669  23.1141955  78.5457107  42.4480423  23.6812952
  77.5226460  34.6754031  25.9079745  77.2339708  34.0491502  26.4425472
  78.3909808  34.6174318  25.9744425  77.6086711  34.5741575  25.9970699
  77.7258733  36.3149282  21.8322110  78.4804701  36.6962321  22.0457572
  77.1329346  36.7660425  22.2868806  77.7495447  36.4378109  21.9304988
  76.0348144  27.5363652  21.2757180  75.7472939  27.1664922  20.5389127
  76.7218612  28.0058507  21.0140885  76.0937041  27.5510621  21.1272256
  76.5209432  33.8074673  31.8278724  77.0330529  34.0858926  31.1787484
  76.2345775  34.5463967  32.1941537  76.5544295  33.9577026  31.7868602
  73.6076338  28.3144864  22.1242461  73.7092475  29.1171026  22.4523436
  74.4032225  28.1132200  21.8265541  73.7404244  28.4030763  22.1277816
  74.4240070  28.4292043  29.8663582  74.2825562  27.5775983  29.9908090
  74.7080634  28.4720703  29.0425788  74.4447916  28.3091793  29.7631207
  75.1930376  26.3422390  33.1841033  74.6572565  25.7302748  33.5001800
  75.2548140  26.9170526  33.8374699  75.1226008  26.3369318  33.3276460
  77.3119131  33.7503124  22.9961087  77.4683751  33.6849927  23.8517080
  77.6519725  34.5251677  22.7839767  77.3852366  33.8552322  23.0915682
  73.8853393  30.9338075  23.3121855  74.2652358  31.3522620  22.6482122
  73.3108758  31.5151530  23.6190698  73.8564718  31.0815934  23.2598596
  77.5284194  32.4998480  27.9437349  76.6872201  32.4002354  28.1516243
  77.7374202  33.2693960  28.2951670  77.4348887  32.5990523  28.0264664
  75.0059761  30.1218016  25.7722100  74.6116459  30.1961028  24.9972209
  74.4499878  30.5075963  26.3230461  74.8662574  30.1899791  25.7389760
  77.4193002  34.8942242  29.3628982  76.8280936  35.5351740  29.3331997
  78.1814026  35.3179859  29.3360281  77.4441263  35.0518080  29.3544129
  77.8153625  26.0544240  30.0297000  78.2755107  26.1283169  30.7672123
  77.8609732  26.8525494  29.6796821  77.8904180  26.1838387  30.0869756
  74.6041403  29.6833430  32.4048716  75.4667016  29.5829139  32.3186046
  74.2733186  29.1028140  31.8434288  74.6826599  29.5825057  32.3094122
  77.9643189  28.5075879  29.0659134  77.3396259  28.5194271  28.4585087
  77.6288784  28.9836054  29.7150374  77.8228681  28.5794396  29.0715703
  78.1484938  26.8500998  15.1231819  77.7997742  27.5020723  15.5863368
  77.6681383  26.8358111  14.3955690  78.0255181  26.9444051  15.0842910
  74.6768864  36.5676339  30.5062898  74.1468789  35.8768778  30.5557873
  74.9493958  36.5586525  29.6775607  74.6393587  36.4643471  30.3910314
  77.2333934  30.1169027  31.2834002  77.3927421  29.3612351  31.6885724
  77.0526828  30.6659967  31.9374740  77.2299293  30.0862841  31.4396708
  69.9564707  33.2404103  27.8631247  69.8508156  33.1950948  26.9983331
  69.2064927  33.5857884  28.1445531  69.8300310  33.2845012  27.7768576
  77.9556586  24.6912830  35.7424157  78.5809289  24.1474962  36.0153589
  77.5007066  24.2107747  35.1731947  77.9804846  24.5402311  35.6985750
  75.0562057  32.5394480  21.2339986  75.5654286  33.1358987  21.6151292
  75.5296329  32.2720454  20.5516406  75.2005432  32.5880295  21.1894509
  77.4152588  29.1750738  24.1013167  76.6964577  29.5914871  24.3686030
  77.7864951  29.7404977  23.5504805  77.3644520  29.3200020  24.0595974
  75.1941922  28.4700291  35.1215758  75.0244513  29.1301666  34.5763965
  74.7507872  28.6806852  35.8428248  75.1041256  28.5986273  35.1477388
  72.0943987  31.3747157  30.3804248  71.5470706  30.7047802  30.4985117
  72.8836365  31.0077005  30.4447716  72.1296171  31.2212143  30.4072949
  70.8530956  30.5867965  27.5350271  70.6752717  30.1344574  28.2605187
  70.5649978  31.3894126  27.7188749  70.7843910  30.6390522  27.6693774
  72.5903426  33.1195688  24.6472030  71.7248946  33.1081379  24.5354802
  72.6902242  32.9325911  25.4943170  72.4777593  33.0901750  24.7560975
  78.2160436  42.8893587  28.2202136  78.5306995  43.7029975  28.2279918
  78.6253849  42.5043806  28.8884295  78.3228534  42.9522289  28.3206228
  75.5573456  36.8366695  27.8680744  76.1618314  36.7962530  27.2394565
  75.3500769  37.6837847  27.8984800  75.6162354  36.9554698  27.7796861
  70.7924739  35.8201313  27.7379667  70.6949017  35.0097584  28.0469724
  71.5753608  35.7993106  27.3525936  70.8940875  35.6968403  27.7266530
   4.3850688  22.5617906  60.9731078   4.3544692  23.4162543  61.1449347
   4.9832037  22.2613199  61.5317222   4.4687846  22.6434403  61.0805880
   2.2067263  25.1370208  59.2449388   2.0906788  25.8877894  59.6741526
   3.0023149  24.8794162  59.4945475   2.3071852  25.2105055  59.3453480
   0.8615001  22.4862647  59.0561413   0.3326473  22.7022280  59.7158719
   1.3840021  23.1798785  58.9762382   0.8603454  22.6205784  59.1417012
   6.3163054  28.0608951  64.4294457   5.4860757  28.2719595  64.5927874
   6.2672307  27.2346006  64.1536741   6.1869790  27.9698558  64.4131823
   3.5727369  28.7308306  64.5659173   3.1362601  28.7345048  65.3218145
   3.2390285  29.4113805  64.1338751   3.4589989  28.8320762  64.6140006
   6.7071716  25.4489226  63.4578810   7.3688150  24.8879894  63.3574719
   6.0663128  24.9541256  63.7831502   6.7100583  25.2925635  63.4911151
   2.9936546  26.4654608  63.1990799   3.2292136  26.6099807  62.3717650
   3.1426110  27.2297016  63.5922313   3.0502350  26.5993662  63.1354403
   4.8227003  25.3056274  61.0360403   5.1535220  25.8383914  60.4300498
   5.3960091  25.3595162  61.6922354   4.9560682  25.3925843  61.0438185
   2.2869779  27.6020240  60.6930935   2.8527812  28.2613450  60.6089478
   1.6397683  27.9469938  61.1647337   2.2748536  27.7502182  60.7503691
   3.4832477  27.6526468  57.4856571   3.1039286  26.8663606  57.4785861
   2.8198723  28.2013325  57.3428215   3.3290952  27.6171292  57.4637368
   1.7292576  29.8971959  57.8208257   1.8112413  30.7038945  57.4969708
   2.2142318  29.9167918  58.5449031   1.8129734  30.0192621  57.8795156
   5.8665496  27.5032279  58.8800717   6.2499102  28.2523635  59.1098814
   5.0709609  27.7498099  58.6212706   5.8059278  27.6501973  58.8758291
  15.3583272  38.0803214  60.9731078  15.3277276  38.9347851  61.1449347
  15.9564620  37.7798507  61.5317222  15.4420430  38.1619711  61.0805880
   8.5582956  37.1678865  65.7284009   7.7020852  37.3287364  65.7793125
   8.6050610  36.2970929  65.7489070   8.4382068  37.0629667  65.7390075
   2.9424096  46.7041583  61.4921240   2.1906996  46.3257122  61.2637285
   3.3910108  46.7360017  60.7440050   2.8973763  46.6527190  61.3478742
  11.8676673  43.4365391  75.3344465  12.5743440  42.9417422  75.4631399
  12.0564608  43.8774472  74.6047123  12.0004579  43.4283741  75.2453510
   8.3949056  47.1266953  56.9206787   8.0600425  47.8043874  56.4851009
   8.9075926  46.7372264  56.3323659   8.4214637  47.1691531  56.7693579
   7.9353347  49.0781221  62.8617899   8.3192727  49.6468120  62.3222674
   7.8712489  48.3530732  62.3823715   7.9826775  49.0556685  62.7111761
  11.4034777  39.2270909  68.3715660  11.9490738  39.9055996  68.4309630
  11.3451654  39.0858370  67.5117242  11.4750692  39.3062911  68.2527721
   4.5208852  46.7159975  63.7584013   4.6219215  45.9060329  64.0681140
   3.9250598  46.6216922  63.1283691   4.4481391  46.5825003  63.7110251
  13.1799846  40.6555516  59.2449388  13.0639372  41.4063202  59.6741526
  13.9755733  40.3979470  59.4945475  13.2804436  40.7290363  59.3453480
   4.3609592  51.6337565  65.1598869   5.0047047  52.0750729  65.5495027
   4.6865847  50.8290991  65.0729127   4.5041421  51.5802759  65.2044346
   5.0630172  44.6449539  60.5318730   5.3846013  45.1854747  59.9280038
   5.7102268  44.0746311  60.6641020   5.2056227  44.6408715  60.4625766
   7.1131880  36.6465534  60.6153117   7.8112044  36.8253662  61.1074580
   7.4284212  36.1235874  59.9923506   7.2627217  36.5959306  60.5955127
   7.3019815  43.0335979  60.6032909   7.7413451  42.4253080  61.0487681
   7.1524478  42.6543353  59.8318374   7.3441281  42.8874450  60.5552076
   4.7691458  41.6279991  67.8051734   5.4140461  41.1352434  67.4862683
   5.0093235  41.7704778  68.6317812   4.9002043  41.5757433  67.8801267
   7.3077549  44.4734897  67.4558627   7.5900792  43.6786303  67.2345382
   8.0363710  44.9515484  67.4763688   7.4567113  44.4269494  67.4261642
   5.2858743  32.0157931  64.6974392   4.9562073  32.4669075  64.0278090
   4.6103745  31.9374094  65.2447398   5.1369180  32.0709066  64.6797615
  10.9029152  41.3863161  57.5563678  10.8180447  42.2424127  57.7013247
  11.3913535  41.1107485  58.2245837  10.9618049  41.4720482  57.6765759
  12.4935151  28.0043454  62.9424002  12.1788592  28.6946932  63.3744425
  11.9762093  27.9488236  62.2409503  12.3699622  28.0978342  62.9020951
  11.8347585  38.0047955  59.0561413  11.3059056  38.2207588  59.7158719
  12.3572605  38.6984093  58.9762382  11.8336038  38.1391092  59.1417012
  17.2895638  43.5794259  64.4294457  16.4593341  43.7904903  64.5927874
  17.2404890  42.7531314  64.1536741  17.1602373  43.4883866  64.4131823
   3.7247193  41.9011172  57.8568881   3.1404408  42.4061203  58.2634745
   3.3217288  41.6753558  57.1165473   3.5786497  41.9419420  57.8073906
   5.3505375  46.4098113  67.2642367   4.8332317  46.0505528  66.6603675
   6.0479767  45.8860288  67.2748433   5.3770957  46.2795801  67.1772626
   9.0068967  46.8592927  73.2258540   9.0952313  46.6719068  74.0736750
   9.4358680  46.2130357  72.8263387   9.0831070  46.7355935  73.2930291
   6.5739427  46.1424087  72.2076202   6.0110262  45.7296697  72.7315863
   7.3360451  46.0676993  72.6269345   6.6033876  46.0701488  72.3469202
   8.1824407  38.1476824  56.3337801   8.4220411  38.3554807  55.5213145
   8.5040248  37.3434332  56.4426746   8.2661565  38.0590925  56.2298355
   3.4914697  30.0770219  60.1797339   4.2460665  30.4448536  59.9414390
   3.3142232  30.4509774  60.9476519   3.5769176  30.1868407  60.2582228
   2.1335419  48.1322109  64.8112832   2.8355998  47.6174098  64.8685589
   2.0532902  48.4596260  65.6159707   2.2259179  48.1036335  64.9385624
  16.7849596  36.2264660  68.2244879  15.9478017  36.2966847  68.4592473
  16.7537827  36.2289155  67.3519181  16.6567879  36.2374887  68.1304427
   1.8471762  32.4840538  56.8775452   1.6647335  32.7012419  56.0516445
   2.7097375  32.5979551  56.9334067   1.9476352  32.5330436  56.7629939
   1.4586194  44.3228461  64.3198440   2.2975093  44.5551393  64.3672202
   1.4897963  43.4532772  64.2505476   1.5867912  44.2285407  64.3163085
   2.0838897  44.7429336  68.6211746   2.6237122  44.6000467  69.2915118
   1.4008843  45.1426087  68.9895772   2.0631051  44.7809007  68.7746168
   7.5271481  29.4866949  59.9124476   8.2557642  29.3082904  59.4662632
   7.6166374  30.3285029  60.1231654   7.6478143  29.5850827  59.8777994
  11.5079782  40.4220336  63.8156770  12.2637297  40.8551851  63.8545679
  11.6142106  39.7725106  64.3891406  11.6349952  40.3897820  63.9054796
  14.5459953  44.2493614  64.5659173  14.1095185  44.2530356  65.3218145
  14.2122868  44.9299113  64.1338751  14.4322573  44.3506069  64.6140006
  14.4657436  31.2907441  66.8088601  15.1083344  31.3605546  67.3950516
  14.7180457  30.6236664  66.3068143  14.5979568  31.2033790  66.8215880
   1.3933789  35.7614711  55.3897925   0.6791966  35.4752891  55.8020358
   1.8777758  36.1011337  56.0304313   1.3593152  35.7696361  55.5453560
   9.2759420  48.2012049  69.5368779   8.4774666  47.9611549  69.7942648
   9.7245431  48.2526441  70.2835827   9.2234031  48.1734440  69.6853703
  17.6804299  40.9674534  63.4578810  18.3420733  40.4065202  63.3574719
  17.0395711  40.4726564  63.7831502  17.6833167  40.8110943  63.4911151
   8.5681107  44.2644665  55.7659734   8.9832255  43.9329689  55.0744229
   7.7373037  44.0313567  55.6379870   8.5069116  44.1815921  55.6450581
  13.9669130  41.9839916  63.1990799  14.2024719  42.1285115  62.3717650
  14.1158694  42.7482324  63.5922313  14.0234933  42.1178970  63.1354403
  15.7959587  40.8241582  61.0360403  16.1267804  41.3569222  60.4300498
  16.3692675  40.8780470  61.6922354  15.9293266  40.9111151  61.0438185
  11.0091476  38.6706485  61.7183983  11.1038330  39.4095779  62.1723609
  10.3850319  38.2423960  62.1518548  10.9300506  38.7167805  61.8492131
   9.2643950  41.8492697  72.3674264   9.8382811  41.2119941  72.5222828
   9.1858753  41.8496780  71.4983922   9.3377184  41.7557809  72.2620675
  11.2614497  40.5155224  54.9520935  11.1794660  40.5857412  55.8175922
  11.8994218  41.0784968  54.7604676  11.3434334  40.6094195  55.0510885
   4.6207668  40.2815962  64.4195461   4.3626913  39.4487697  64.3926761
   4.6756151  40.5073575  63.5787962   4.5907446  40.1913734  64.2915598
   9.7008718  32.3844413  64.5199554   8.9965045  31.8953599  64.6783473
   9.7493693  32.3966887  63.6487999   9.6038770  32.3134061  64.4138894
   3.5942380  37.8353725  64.9060356   3.0191972  37.9945893  65.5424317
   3.2178057  37.1989134  64.4428807   3.4545193  37.7651538  64.9314915
   7.2615669  36.3077074  69.7652735   6.8730102  35.8831292  69.1104926
   6.5970367  36.5559224  70.2729761   7.1062597  36.2815795  69.7440603
  16.9038938  36.0652079  62.5400565  16.6475503  35.2532020  62.3498447
  17.7468252  36.0729646  62.3130752  16.9904964  35.9464076  62.4785382
  11.0842031  30.0051703  67.2776719  11.4652542  29.3229874  67.6644593
  10.2805315  29.7161305  67.0952383  11.0218492  29.8618751  67.3080775
   8.3654607  40.5375679  57.9629542   9.1795246  40.8290571  57.8512313
   8.3013749  39.8835541  57.3887835   8.4757346  40.4840873  57.8618379
  14.5864097  43.2201675  72.3759117  14.3502735  42.3889740  72.2571178
  15.2307326  43.1687282  72.9613961  14.6458768  43.0899363  72.4445011
   4.2362516  44.0097196  63.0901854   4.8736462  43.7708944  63.6353647
   4.6617587  44.2134355  62.3555014   4.3938682  44.0048206  63.0619011
   4.8765331  39.2299486  57.4276743   5.2610483  39.0107193  58.1793288
   4.6276951  40.0562431  57.5577819   4.8967403  39.3197632  57.5577819
  15.6100518  43.0046124  68.4387412  15.3046335  43.7374180  68.8000727
  14.8906734  42.5984053  68.1580198  15.4587860  43.0527857  68.4500549
   6.6183988  44.4869619  64.7695640   6.6922996  44.3244791  65.6237490
   7.4353494  44.6759808  64.5256122   6.7500346  44.4906361  64.8593666
  21.3102310  39.6439124  67.7655756  21.2426811  39.6635083  66.8958343
  21.2957973  40.4869451  67.9911427  21.2981067  39.7712859  67.6708233
   2.5965768  30.8996423  62.7585524   1.7288193  30.9719022  62.8243133
   2.8840972  31.7018502  62.9473499   2.5105516  31.0290570  62.7960290
  11.7198657  31.0474282  71.0896845  12.4652249  30.8584092  70.6760271
  11.3035961  31.5732520  70.5310702  11.7683631  31.0976427  70.9461419
   5.1588573  47.4504362  59.5009113   5.4486872  47.0593343  58.7768340
   5.8892054  47.6321067  59.9414389   5.3095457  47.4198176  59.4591920
  19.0960928  38.4183510  66.0402350  19.6468849  37.7851579  66.2799442
  19.0805043  38.9498903  66.7317855  19.1746124  38.4032459  66.1781209
   5.7483318  42.2522108  70.5862244   5.2495012  42.9637875  70.6647132
   6.5583543  42.5722774  70.5480406   5.7939425  42.4048956  70.5918812
   3.0994489  49.4271744  62.5669263   2.8794784  49.1369099  63.3595930
   2.8789011  48.7686699  62.0387175   3.0342083  49.2871453  62.6058172
   2.0111436  41.5145061  64.8324965   1.7224685  40.8882532  65.3670692
   2.8794784  41.4565348  64.8989645   2.0971688  41.4132605  64.9215919
  12.7989334  36.6579844  65.1506947  12.4554100  35.9370179  65.5014196
  12.8982376  36.4493695  64.3085305  12.7631377  36.5204047  65.0778627
   5.2662445  50.8001134  61.3499955   5.9186503  50.2677576  61.5790981
   4.5688053  50.4469786  61.7367829   5.2593162  50.6690657  61.4412123
   2.2143709  43.1540312  60.7567330   2.9689677  43.5353351  60.9702792
   1.6214322  43.6051455  61.2114026   2.2380423  43.2769139  60.8550208
  13.2602363  43.1205548  60.6930935  13.8260396  43.7798758  60.6089478
  12.6130266  43.4655246  61.1647337  13.2481119  43.2687489  60.7503691
   3.5341936  44.3248873  66.1307445   3.0122690  44.4649165  66.8159310
   3.9215956  43.5659537  66.3209562   3.5145637  44.2334397  66.2608522
   9.7308941  46.0644332  60.1168014   9.4895617  45.3312193  59.7095079
   9.9110274  46.6131189  59.4634347   9.7216565  46.0366724  59.9598237
   4.9608262  41.3552892  61.5288936   4.7651044  41.9627627  60.9349239
   5.1842607  40.6620836  61.0480610   4.9642903  41.3430418  61.3705017
   3.3586792  38.2407630  61.6469805   4.0809444  38.4048788  61.1873611
   2.8794784  38.9617295  61.5409144   3.3950522  38.3705860  61.5635419
  11.3180299  34.5771429  67.0266489  10.4791400  34.6032708  66.7904753
  11.3884666  35.2242164  67.6071836  11.2048693  34.6767555  67.0775606
   9.7649577  31.4756806  61.7594105  10.4675930  31.2764554  61.2814064
   9.4993766  30.7032748  62.0662949   9.8296210  31.3319772  61.7339547
  15.1937823  39.7839416  64.3127731  15.1071798  39.9394842  65.1662510
  14.7388303  40.4277491  63.9387136  15.1141080  39.9015171  64.3834838
   9.0663639  37.1050163  62.9353291   8.8198353  37.0245914  63.7690080
   9.3948762  36.3203631  62.7415818   9.0784883  36.9776428  63.0300814
  12.9611688  43.8133522  66.7240072  12.8226047  44.5114568  67.2288814
  12.1811686  43.6582179  66.3676254  12.8254915  43.8933689  66.7466346
  11.2989773  40.1129897  72.9762454  11.2937812  39.2409714  72.9804880
  12.0050767  40.3118067  72.5031909  11.4034777  40.0133772  72.9069489
   5.0260666  39.8406881  72.3476274   5.1704042  40.4208089  71.7119384
   5.3736315  40.2183178  73.0526128   5.0988128  39.9827585  72.3575269
   7.1980584  39.0397050  70.1301405   6.4503898  39.2328064  69.7249683
   7.3522109  38.2142269  69.8925527   7.1103011  38.9462161  70.0346811
   4.0988421  48.0309653  69.2137301   4.2477985  47.4712569  68.5610705
   4.8788423  48.1101655  69.5969819   4.2362515  47.9595219  69.1734250
  14.4565061  43.1711776  57.4856571  14.0771869  42.3848914  57.4785861
  13.7931306  43.7198633  57.3428215  14.3023536  43.1356600  57.4637368
   6.6241722  48.2024296  70.4921791   6.5485393  47.5333107  71.0472580
   6.5531581  48.9042084  71.0062458   6.6022329  48.2069203  70.6498640
  11.9109687  26.1137476  64.8890652  12.0293255  26.5713939  64.1557955
  11.7371862  25.3082737  64.6026870  11.9028858  26.0631248  64.7391586
   7.2811969  46.7225295  61.3245397   8.0461860  46.4534939  61.0028062
   7.1790059  46.2375305  62.0415460   7.3793464  46.6114860  61.3825225
   5.3164739  34.9249704  67.8638633   4.5260813  34.7441164  68.1855969
   5.7125362  34.1476657  67.8468928   5.2581615  34.7837165  67.9091182
   9.8030629  43.7537479  53.3045347  10.5703615  43.8137604  52.8951199
   9.3561938  43.1817920  52.8201665   9.8504057  43.6774054  53.1723057
  10.7008425  42.5592135  65.5898079  10.0253427  42.3277367  66.0911466
  10.7100801  41.9513317  64.9640184  10.6026930  42.4351060  65.5714231
   7.8302569  37.4009963  72.3462132   7.7661710  38.2619920  72.2182269
   7.9699757  37.0841957  71.5457683   7.8418039  37.4810130  72.2090345
  12.7025160  45.4157267  57.8208257  12.7844997  46.2224253  57.4969708
  13.1874902  45.4353226  58.5449031  12.7862317  45.5377929  57.8795156
   6.5121663  40.0942103  66.4878335   6.0883912  40.2946602  65.7517353
   6.3366518  39.2470951  66.6002635   6.4232543  39.9990884  66.3952025
   1.8004108  40.5894154  61.9206307   1.9568727  40.5240957  62.7762300
   2.1404701  41.3642707  61.7084987   1.8737343  40.6943352  62.0160902
   8.3383252  39.9652038  60.7899671   8.8798798  39.4622419  61.2538291
   8.6529811  39.9117233  59.9789156   8.4647650  39.8831459  60.7383483
  12.2100360  44.1754685  77.9026583  13.0235225  43.9039834  78.0631715
  12.0495326  43.8762225  77.0986779  12.3070308  44.0909611  77.8071989
   6.5069702  45.3569389  58.0739699   6.5762522  44.4983928  58.2132699
   7.2858157  45.5741270  57.7458723   6.6322552  45.2622253  58.0456856
   9.4872522  34.8588342  70.8421971   9.7014491  34.2199257  70.2885325
   8.8706421  35.3034166  70.4129833   9.4277851  34.8298486  70.6972402
  10.8977190  47.7807091  62.2876192  10.5056981  47.4773806  61.5699058
  11.0530262  48.6176181  62.0981146  10.8630780  47.8590927  62.1532689
  11.6511610  36.4677408  71.7805278  10.8388292  36.1603298  71.8618451
  12.1101544  35.9876408  72.3447990  11.5991995  36.3513900  71.8759872
  11.0616864  44.3457079  62.2282223  10.7031519  44.5171722  63.0046255
  10.5755575  44.8070285  61.6710221  10.9375561  44.4396051  62.2607492
   8.8787250  27.9688278  65.8309314   8.0080808  27.9426999  65.7842623
   9.1327592  27.7965470  65.0135160   8.7880811  27.9398422  65.7029451
   5.8505230  40.0256245  54.7682457   6.1397755  40.8021127  55.0426031
   5.9377029  39.5144976  55.4696956   5.9059486  40.0648163  54.9124955
   5.9036391  29.9794506  67.2882784   5.3874880  29.2874698  67.4134363
   5.3430320  30.6465283  67.2345383   5.7442904  29.9757764  67.2988850
  12.2221604  45.2360975  73.1749423  12.8601324  44.7421171  72.8411880
  11.5795695  45.1638376  72.5901650  12.2215830  45.1519984  73.0391778
  13.9478604  37.0850121  67.7415339  13.5206212  36.9976470  66.9863439
  13.3104657  37.1927897  68.3270183  13.7908211  37.0882781  67.7160781
  12.2775860  45.9280784  69.8154780  13.0668239  45.5769848  69.9356862
  12.4519458  46.7417172  69.5531414  12.4196142  45.9966641  69.7942648
   2.0169171  39.3389509  66.8682569   1.1757177  39.2393384  67.0761463
   2.2259179  40.1084990  67.2196890   1.9233863  39.4381553  66.9509884
  11.1309685  29.9390340  64.3771199  11.3359278  29.8712648  65.2228196
  10.8036109  30.7449162  64.3092376  11.1124932  30.0476281  64.4930854
   5.8285836  37.2670909  66.1180167   5.5248973  36.7126897  66.7190574
   5.1265256  37.4463119  65.6308201   5.6802046  37.2115691  66.1349872
   4.8851933  34.5771428  60.6824868   5.1611667  33.8590341  60.2702436
   5.4850602  35.1756348  60.4745975   5.0145197  34.5591799  60.5905630
  14.3843372  30.4922105  63.8573964  13.7717686  30.9792507  64.2427696
  14.4807547  29.8165596  64.4011615  14.3081270  30.4640413  63.9952822
   8.3862453  32.2484946  58.9571463   8.8406200  32.4195506  59.6819308
   8.8602499  31.6353056  58.5569239   8.5230773  32.1835831  59.0045225
   1.9077979  41.7333272  68.2874202   1.3165912  42.3742770  68.2577217
   2.6699002  42.1570889  68.2605501   1.9326239  41.8909110  68.2789349
  18.0268400  41.5639041  69.2851480  18.0851524  42.0125690  70.0311457
  17.3934868  41.9737854  68.8481560  17.9419695  41.6912776  69.3304029
  11.6667495  47.1842583  65.7206226  11.4687184  47.6733398  65.0262438
  11.0455206  47.3883825  66.2990360  11.5455059  47.2859122  65.7029450
   5.7275473  38.9527480  60.0616471   6.4717518  39.3401756  60.2999421
   5.8736169  38.1084906  60.2256958   5.8586058  38.8857953  60.1210440
   7.6455049  30.7477739  65.0948332   6.7991094  30.9200547  64.9689682
   7.6426181  29.9427083  65.4314160   7.5202199  30.6538768  65.1259459
   8.7153349  34.5252953  65.9610390   8.2413303  33.9994716  66.4715701
   9.0871485  33.9782426  65.3925252   8.7003238  34.3668950  65.9525537
  14.9790080  39.5855329  67.3717171  14.7388303  38.7461744  67.3759597
  15.4582087  39.6655496  68.0957944  15.0142263  39.4736729  67.4791973
  10.6436849  35.4189508  59.0236144  10.1159867  35.5018252  58.3341853
  11.1032557  36.1607380  59.0200788  10.6338699  35.5410170  58.9210839
  16.9795267  36.3656786  65.3246430  16.7405037  36.3252621  64.4867214
  17.1429168  37.2127938  65.4512151  16.9685570  36.4848871  65.2199912
  13.5841297  40.7506736  71.2551475  14.3075496  40.2979262  71.0762495
  13.3191259  41.0311401  70.4723803  13.6522570  40.7257704  71.1130190
   2.4528165  35.3466909  67.9904354   1.8281235  35.3585301  67.3830307
   2.1173760  35.8227084  68.6395594   2.3113657  35.4185426  67.9960923
   2.6369914  33.6892028  54.0477039   2.2882718  34.3411753  54.5108588
   2.1566360  33.6749141  53.3200910   2.5140158  33.7835081  54.0088130
  10.1973931  43.9893072  58.1545801  10.9208130  44.4551185  58.0110374
   9.7574522  44.0566681  57.4043398  10.2389624  44.0676908  58.0230582
   9.3660086  40.8490614  69.4046490   8.7517079  40.3048664  69.6995125
   9.8827371  40.3354850  68.9252306   9.3515749  40.6927023  69.3770718
   8.6056384  41.9194884  67.1390788   8.1783992  41.2944603  66.7056224
   8.5981328  41.6369806  67.9649796   8.5415525  41.7847665  67.1970616
   6.9342093  32.7963638  67.3533322   6.9584580  32.2623751  66.6646102
   7.1853567  32.2880947  68.0158913   6.9752012  32.6424542  67.3497967
   3.2143415  31.5234457  66.7339067   3.2541787  32.0243663  67.4473774
   2.3893080  31.6144850  66.4644990   3.0982941  31.6116273  66.7989605
   4.6357779  38.0394967  69.0312966   3.8049709  38.2068785  68.8248214
   4.5809296  37.6630917  69.8161851   4.5047194  38.0084698  69.1161494
   3.0394045  37.1817669  56.8895660   3.6739125  37.7778094  56.8245122
   3.1219656  36.8821127  57.7041530   3.1450596  37.2258577  56.9998747
  16.0176611  39.7133146  69.7582025  16.6094451  40.3530397  69.7900223
  16.4535605  39.0156183  70.0474091  16.1695042  39.7051497  69.8062857
   4.6173028  33.1131644  56.8641102   4.9388869  32.6334727  56.2100365
   4.8799972  33.9231291  56.6731914   4.7039053  33.1621542  56.7396594
   7.8470001  44.1350519  70.3839918   7.3395092  44.6886366  70.8280549
   7.5496647  44.1958809  69.5658693   7.7274886  44.2256830  70.3288375
  10.0132183  32.5003838  69.2264581  10.4387254  32.0476365  68.6148108
   9.3989176  31.9463909  69.5029369   9.9860828  32.3517815  69.1769607
  10.4577781  48.0513777  58.3143862   9.7407091  47.8774639  57.8491099
  11.1084519  47.8166349  57.7819348  10.4479632  47.9909569  58.1673080
   8.4526406  28.9718938  62.6355158   7.8094724  28.8216585  63.2040297
   8.1125813  28.7261284  61.8704263   8.3071483  28.9131061  62.6058174
  13.0425752  36.9278365  62.0585167  12.3716942  37.4708067  61.9298233
  13.7365502  37.3973220  61.8166862  13.0454620  37.0776636  62.0040695
   7.0912486  49.0675077  67.2896925   6.8678140  48.3093906  67.6580952
   6.6022329  49.0973098  66.5677365   6.9855935  48.9597302  67.2373666
  13.2053880  33.3834249  64.9675540  13.5581490  32.9563972  65.6421339
  12.3468681  33.2985092  65.0976617  13.1303324  33.3078989  65.0870551
   1.9037565  36.0141768  63.0258387   1.1849554  36.4305901  63.2931250
   2.2749927  36.5796007  62.4750025   1.8529496  36.1591050  62.9841194
  11.2037146  36.6469617  68.9160383  11.1835073  36.4652912  69.7695161
  11.2516346  37.5181636  68.8919966  11.2071787  36.7486156  69.0383677
   9.1483475  43.2356809  74.8408859   9.1079330  42.5906486  74.2554015
   9.9606794  43.1793427  75.1534271   9.2626629  43.1315776  74.8005808
   5.7390943  49.2875535  64.7434010   5.3251342  48.6249665  64.3537852
   6.4238317  49.4353394  64.2229704   5.7789315  49.2116193  64.6090507
   9.1056237  48.4465620  65.4957627   8.7072520  48.5567891  64.7278447
   8.4907457  48.6547687  66.0784186   8.9555126  48.4939189  65.4688926
   7.6784139  35.0539768  58.3631766   7.0848978  35.3756765  57.8116333
   7.7159417  34.2080864  58.1552872   7.5958528  34.9764097  58.2514538
  14.6377940  28.5052661  65.8959853  14.1308804  27.7981800  65.8281030
  15.4345374  28.1745849  66.0260929  14.6805179  28.3525812  65.9058848
  10.5541956  35.0119273  61.7933516  10.3255649  35.0351974  60.9511875
  10.8140032  34.1876740  61.9128527  10.5588144  34.8935353  61.6858714
   3.6086718  33.5495819  63.0887712   4.0844084  33.9112899  62.4537893
   3.1075318  34.2052287  63.3687855   3.6052077  33.6990008  63.0364453
  16.8398080  43.0217587  58.8800717  17.2231686  43.7708943  59.1098814
  16.0442193  43.2683407  58.6212706  16.7791862  43.1687281  58.8758291
   5.6513371  35.6937019  56.4561096   6.0312336  35.7116648  55.6712211
   4.9105967  36.1391008  56.3351943   5.5982209  35.7618794  56.3224664
  13.2798662  34.0019210  62.0436675  13.2792888  33.8467867  62.9020951
  13.0754842  34.8482197  61.9878060  13.2498440  34.1039831  62.1624614
  11.0039514  38.6816712  65.6972882  11.4993179  37.9639707  65.6576902
  10.1939290  38.3787510  65.5827369  10.9583407  38.5314358  65.6746608
  13.0691333  41.4320399  68.3850010  13.4946404  40.9094821  67.8320435
  12.7048253  42.0301237  67.8638633  13.0777935  41.4430626  68.2259020
   2.7045413  49.7284617  67.1447356   3.0191972  50.5421005  67.1525138
   3.1138826  49.3434836  67.8129515   2.8113511  49.7913319  67.2451448
   9.6569932  45.1454664  64.7151168  10.1281110  45.8594926  64.8841153
   9.9930111  44.5453414  65.2511037   9.7765047  45.1626128  64.8183544
  10.2943879  44.9372598  71.4778861   9.7464824  44.3130481  71.2098926
  10.7556907  45.1266870  70.7622940  10.2811088  44.8731648  71.3329292
  13.1037743  33.0057952  68.8630053  12.5200732  33.5067159  68.4507620
  13.4242037  32.4987508  68.2294376  13.0650918  33.0049787  68.7088560
   5.6432542  31.9198547  59.1388728   6.4648236  32.0896860  58.8970423
   5.1802193  32.0745808  58.4155025   5.6963704  31.9680280  58.9960372
   9.8602205  45.9423671  68.0088202  10.6800579  45.7986637  68.2704497
   9.5796282  46.5669869  68.5504640   9.9398948  46.0134023  68.1276141
  26.3315855  53.5988522  60.9731078  26.3009860  54.4533159  61.1449347
  26.9297204  53.2983815  61.5317222  26.4153013  53.6805019  61.0805880
  19.5315540  52.6864173  65.7284009  18.6753436  52.8472671  65.7793125
  19.5783194  51.8156237  65.7489070  19.4114651  52.5814975  65.7390075
  13.9156680  62.2226891  61.4921240  13.1639579  61.8442429  61.2637285
  14.3642691  62.2545325  60.7440050  13.8706347  62.1712498  61.3478742
  22.8409257  58.9550699  75.3344465  23.5476024  58.4602730  75.4631399
  23.0297192  59.3959780  74.6047123  22.9737162  58.9469049  75.2453510
  19.3681640  62.6452261  56.9206787  19.0333008  63.3229182  56.4851009
  19.8808510  62.2557572  56.3323659  19.3947221  62.6876839  56.7693579
  18.9085931  64.5966529  62.8617899  19.2925310  65.1653428  62.3222674
  18.8445072  63.8716040  62.3823715  18.9559358  64.5741993  62.7111761
  22.3767361  54.7456217  68.3715660  22.9223321  55.4241304  68.4309630
  22.3184237  54.6043678  67.5117242  22.4483275  54.8248219  68.2527721
  15.4941436  62.2345283  63.7584013  15.5951799  61.4245637  64.0681140
  14.8983181  62.1402230  63.1283691  15.4213975  62.1010311  63.7110251
  24.1532430  56.1740824  59.2449388  24.0371956  56.9248510  59.6741526
  24.9488316  55.9164778  59.4945475  24.2537019  56.2475671  59.3453480
  15.3342176  67.1522872  65.1598869  15.9779631  67.5936036  65.5495027
  15.6598431  66.3476299  65.0729127  15.4774004  67.0988067  65.2044346
   8.6906480  58.2565570  63.3836346   8.4556665  57.4233222  63.2768615
   8.8292121  58.5370236  62.5697547   8.6762143  58.1749073  63.2478701
  10.9896568  50.4251300  66.2820654  10.3701599  49.8343948  66.1130669
  10.8880431  51.0162736  65.6484977  10.8834243  50.4255383  66.1625643
  16.0362755  60.1634847  60.5318730  16.3578596  60.7040055  59.9280038
  16.6834852  59.5931619  60.6641020  16.1788810  60.1594022  60.4625766
  18.0864463  52.1650842  60.6153117  18.7844628  52.3438970  61.1074580
  18.4016796  51.6421182  59.9923506  18.2359800  52.1144614  60.5955127
  10.7165701  53.9703582  68.5264223  10.5924398  54.5566028  69.1614042
  11.3683985  53.4763778  68.8276498  10.7939350  53.9842387  68.6650152
  18.2752399  58.5521287  60.6032909  18.7146034  57.9438388  61.0487681
  18.1257062  58.1728661  59.8318374  18.3173864  58.4059758  60.5552076
  15.7424042  57.1465299  67.8051734  16.3873044  56.6537742  67.4862683
  15.9825819  57.2890086  68.6317812  15.8734627  57.0942741  67.8801267
  18.2810133  59.9920205  67.4558627  18.5633376  59.1971611  67.2345382
  19.0096293  60.4700792  67.4763688  18.4299697  59.9454802  67.4261642
  16.2591327  47.5343239  64.6974392  15.9294657  47.9854382  64.0278090
  15.5836329  47.4559402  65.2447398  16.1101763  47.5894374  64.6797615
  21.8761735  56.9048469  57.5563678  21.7913030  57.7609435  57.7013247
  22.3646118  56.6292793  58.2245837  21.9350633  56.9905790  57.6765759
  23.4667735  43.5228762  62.9424002  23.1521176  44.2132240  63.3744425
  22.9494676  43.4673544  62.2409503  23.3432205  43.6163650  62.9020951
  22.8080168  53.5233263  59.0561413  22.2791640  53.7392896  59.7158719
  23.3305188  54.2169401  58.9762382  22.8068621  53.6576400  59.1417012
  28.2628221  59.0979567  64.4294457  27.4325924  59.3090211  64.5927874
  28.2137474  58.2716622  64.1536741  28.1334957  59.0069173  64.4131823
  14.6979776  57.4196479  57.8568881  14.1136991  57.9246511  58.2634745
  14.2949871  57.1938866  57.1165473  14.5519080  57.4604728  57.8073906
  10.2523805  63.1351241  64.6592552   9.7691383  63.8601730  64.6352136
  11.0647123  63.4327371  64.7702710  10.3014553  63.2853594  64.6719832
  16.3237959  61.9283421  67.2642367  15.8064901  61.5690836  66.6603675
  17.0212350  61.4045596  67.2748433  16.3503540  61.7981109  67.1772626
  19.9801551  62.3778235  73.2258540  20.0684897  62.1904376  74.0736750
  20.4091263  61.7315665  72.8263387  20.0563653  62.2541243  73.2930291
  17.5472011  61.6609395  72.2076202  16.9842846  61.2482005  72.7315863
  18.3093034  61.5862301  72.6269345  17.5766459  61.5886796  72.3469202
  19.1556991  53.6662132  56.3337801  19.3952994  53.8740115  55.5213145
  19.4772832  52.8619640  56.4426746  19.2394149  53.5776233  56.2298355
  14.4647281  45.5955527  60.1797339  15.2193249  45.9633844  59.9414390
  14.2874816  45.9695082  60.9476519  14.5501759  45.7053715  60.2582228
  13.1068002  63.6507417  64.8112832  13.8088581  63.1359406  64.8685589
  13.0265485  63.9781568  65.6159707  13.1991763  63.6221643  64.9385624
  27.7582180  51.7449968  68.2244879  26.9210601  51.8152155  68.4592473
  27.7270411  51.7474463  67.3519181  27.6300462  51.7560195  68.1304427
  14.1546909  53.8883003  73.9393247  14.3267412  53.7788898  74.7878529
  14.6916266  54.5337409  73.7024440  14.2591913  53.9675005  74.0298344
  12.8204346  48.0025846  56.8775452  12.6379919  48.2197727  56.0516445
  13.6829959  48.1164859  56.9334067  12.9208935  48.0515744  56.7629939
  12.4318778  59.8413769  64.3198440  13.2707677  60.0736701  64.3672202
  12.4630547  58.9718080  64.2505476  12.5600495  59.7470715  64.3163085
  13.0571481  60.2614644  68.6211746  13.5969706  60.1185775  69.2915118
  12.3741427  60.6611395  68.9895772  13.0363634  60.2994315  68.7746168
  18.5004065  45.0052257  59.9124476  19.2290225  44.8268212  59.4662632
  18.5898958  45.8470337  60.1231654  18.6210727  45.1036135  59.8777994
  22.4812365  55.9405644  63.8156770  23.2369881  56.3737159  63.8545679
  22.5874690  55.2910414  64.3891406  22.6082536  55.9083128  63.9054796
  25.5192537  59.7678922  64.5659173  25.0827768  59.7715664  65.3218145
  25.1855452  60.4484421  64.1338751  25.4055157  59.8691377  64.6140006
  25.4390019  46.8092749  66.8088601  26.0815928  46.8790854  67.3950516
  25.6913040  46.1421972  66.3068143  25.5712152  46.7219098  66.8215880
  12.3666373  51.2800019  55.3897925  11.6524550  50.9938198  55.8020358
  12.8510341  51.6196645  56.0304313  12.3325736  51.2881669  55.5453560
  13.2107232  50.0193313  71.4213175  12.5179029  49.5490293  71.6673907
  13.8267559  49.7931617  71.9954882  13.1991762  49.9160445  71.5422328
  20.2492004  63.7197356  69.5368779  19.4507249  63.4796857  69.7942648
  20.6978015  63.7711749  70.2835827  20.1966615  63.6919748  69.6853703
  28.6536883  56.4859841  63.4578810  29.3153317  55.9250510  63.3574719
  28.0128295  55.9911872  63.7831502  28.6565750  56.3296251  63.4911151
  19.5413691  59.7829973  55.7659734  19.9564839  59.4514997  55.0744229
  18.7105620  59.5498875  55.6379870  19.4801699  59.7001229  55.6450581
   8.8702039  57.2673714  66.0557912   8.6877613  57.2420600  65.2030204
   9.6051708  57.7372652  66.0946820   8.9516103  57.3335076  65.9355830
  24.9401714  57.5025224  63.1990799  25.1757303  57.6470423  62.3717650
  25.0891277  58.2667632  63.5922313  24.9967517  57.6364278  63.1354403
  11.9347791  53.9858717  72.5640020  12.6587763  53.9711747  73.0504915
  12.0363928  54.6954072  72.0661988  12.0566000  54.0883420  72.5618807
  26.7692170  56.3426890  61.0360403  27.1000387  56.8754530  60.4300498
  27.3425258  56.3965778  61.6922354  26.9025849  56.4296459  61.0438185
  21.9824059  54.1891793  61.7183983  22.0770914  54.9281087  62.1723609
  21.3582903  53.7609268  62.1518548  21.9033089  54.2353113  61.8492131
  20.2376533  57.3678005  72.3674264  20.8115395  56.7305249  72.5222828
  20.1591337  57.3682088  71.4983922  20.3109768  57.2743117  72.2620675
   8.8372950  54.1467215  66.2056978   9.4146452  54.0103665  66.8449224
   8.1387011  53.6902999  66.4602563   8.8193971  54.0589481  66.3379268
  22.2347081  56.0340532  54.9520935  22.1527243  56.1042719  55.8175922
  22.8726801  56.5970276  54.7604676  22.3166918  56.1279503  55.0510885
  15.5940252  55.8001270  64.4195461  15.3359496  54.9673005  64.3926761
  15.6488735  56.0258883  63.5787962  15.5640030  55.7099042  64.2915598
  20.6741302  47.9029721  64.5199554  19.9697629  47.4138906  64.6783473
  20.7226276  47.9152195  63.6487999  20.5771354  47.8319369  64.4138894
  14.5674964  53.3539033  64.9060356  13.9924555  53.5131201  65.5424317
  14.1910640  52.7174442  64.4428807  14.4277776  53.2836846  64.9314915
  18.2348253  51.8262382  69.7652735  17.8462685  51.4016600  69.1104926
  17.5702951  52.0744532  70.2729761  18.0795180  51.8001103  69.7440603
  27.8771522  51.5837387  62.5400565  27.6208087  50.7717328  62.3498447
  28.7200836  51.5914954  62.3130752  27.9637547  51.4649384  62.4785382
   4.3131783  52.9979107  62.9204797   4.3992035  52.6210976  63.7018327
   4.9407580  52.6239553  62.4424755   4.4188334  52.8864590  62.9650274
  22.0574614  45.5237011  67.2776719  22.4385126  44.8415182  67.6644593
  21.2537898  45.2346613  67.0952383  21.9951076  45.3804059  67.3080775
  19.3387191  56.0560987  57.9629542  20.1527830  56.3475879  57.8512313
  19.2746332  55.4020849  57.3887835  19.4489930  56.0026181  57.8618379
  25.5596681  58.7386983  72.3759117  25.3235318  57.9075048  72.2571178
  26.2039910  58.6872590  72.9613961  25.6191352  58.6084671  72.4445011
  15.2095099  59.5282504  63.0901854  15.8469046  59.2894252  63.6353647
  15.6350171  59.7319663  62.3555014  15.3671265  59.5233514  63.0619011
  15.8497914  54.7484794  57.4276743  16.2343067  54.5292501  58.1793288
  15.6009534  55.5747739  57.5577819  15.8699987  54.8382940  57.5577819
  16.0166455  48.0291209  77.1439327  15.7019896  48.7990772  76.8808890
  15.6956387  47.4661465  76.5591554  15.9225374  48.0601478  77.0180677
  26.5833102  58.5231431  68.4387412  26.2778919  59.2559488  68.8000727
  25.8639317  58.1169361  68.1580198  26.4320444  58.5713164  68.4500549
  17.5916571  60.0054927  64.7695640  17.6655579  59.8430099  65.6237490
  18.4086077  60.1945116  64.5256122  17.7232930  60.0091669  64.8593666
  32.2834894  55.1624432  67.7655756  32.2159394  55.1820391  66.8958343
  32.2690556  56.0054759  67.9911427  32.2713650  55.2898167  67.6708233
  11.3522328  60.3512790  61.7990083  10.5260445  60.5974527  61.6724362
  11.4134319  60.2724870  62.6652141  11.2396495  60.3757738  61.9079028
  13.5698352  46.4181731  62.7585524  12.7020777  46.4904330  62.8243133
  13.8573556  47.2203809  62.9473499  13.4838100  46.5475878  62.7960290
  22.6931240  46.5659590  71.0896845  23.4384832  46.3769400  70.6760271
  22.2768545  47.0917828  70.5310702  22.7416215  46.6161735  70.9461419
  16.1321157  62.9689670  59.5009113  16.4219455  62.5778651  58.7768340
  16.8624638  63.1506375  59.9414389  16.2828041  62.9383484  59.4591920
  30.0693511  53.9368818  66.0402350  30.6201433  53.3036887  66.2799442
  30.0537627  54.4684211  66.7317855  30.1478708  53.9217767  66.1781209
  16.7215902  57.7707416  70.5862244  16.2227596  58.4823183  70.6647132
  17.5316126  58.0908082  70.5480406  16.7672009  57.9234264  70.5918812
  14.0727072  64.9457052  62.5669263  13.8527368  64.6554407  63.3595930
  13.8521594  64.2872007  62.0387175  14.0074667  64.8056761  62.6058172
  12.9844020  57.0330369  64.8324965  12.6957268  56.4067840  65.3670692
  13.8527368  56.9750656  64.8989645  13.0704272  56.9317913  64.9215919
  23.7721917  52.1765152  65.1506947  23.4286683  51.4555487  65.5014196
  23.8714960  51.9679003  64.3085305  23.7363960  52.0389355  65.0778627
  16.2395028  66.3186442  61.3499955  16.8919086  65.7862884  61.5790981
  15.5420637  65.9655094  61.7367829  16.2325746  66.1875965  61.4412123
  13.1876293  58.6725620  60.7567330  13.9422261  59.0538659  60.9702792
  12.5946906  59.1236763  61.2114026  13.2113007  58.7954447  60.8550208
  24.2334946  58.6390856  60.6930935  24.7992979  59.2984066  60.6089478
  23.5862850  58.9840554  61.1647337  24.2213703  58.7872797  60.7503691
  15.6482960  50.6288460  75.8824542  14.8382736  50.9346240  75.7714384
  16.1257647  51.3494042  75.9977126  15.5986439  50.7803061  75.8831613
  14.5074520  59.8434181  66.1307445  13.9855273  59.9834473  66.8159310
  14.8948540  59.0844845  66.3209562  14.4878220  59.7519705  66.2608522
  11.4965704  49.8939990  60.2002400  11.2090499  49.5241260  59.4634347
  12.1836172  50.3634845  59.9386105  11.5554601  49.9086959  60.0517476
  20.7041525  61.5829640  60.1168014  20.4628200  60.8497501  59.7095079
  20.8842857  62.1316497  59.4634347  20.6949149  61.5552031  59.9598237
  15.9340845  56.8738200  61.5288936  15.7383628  57.4812935  60.9349239
  16.1575191  56.1806144  61.0480610  15.9375486  56.8615726  61.3705017
  14.3319375  53.7592938  61.6469805  15.0542027  53.9234096  61.1873611
  13.8527368  54.4802603  61.5409144  14.3683106  53.8891168  61.5635419
  22.2912883  50.0956737  67.0266489  21.4523983  50.1218016  66.7904753
  22.3617250  50.7427472  67.6071836  22.1781276  50.1952863  67.0775606
  20.7382161  46.9942114  61.7594105  21.4408514  46.7949862  61.2814064
  20.4726350  46.2218056  62.0662949  20.8028793  46.8505080  61.7339547
  26.1670407  55.3024724  64.3127731  26.0804381  55.4580150  65.1662510
  25.7120887  55.9462799  63.9387136  26.0873663  55.4200479  64.3834838
   9.0693898  50.6721202  61.0487681   9.1710035  51.4747364  61.3768656
   9.8649785  50.4708538  60.7510761   9.2021804  50.7607101  61.0523036
  15.5010717  48.2577399  70.8124986  15.3093914  48.2732533  71.6624409
  16.3509313  48.4541073  70.7891641  15.5986439  48.2891750  70.9348281
   9.8857630  50.7868380  68.7908802   9.7443122  49.9352321  68.9153310
  10.1698194  50.8297041  67.9671008   9.9065476  50.6668130  68.6876427
  20.0396223  52.6235471  62.9353291  19.7930937  52.5431222  63.7690080
  20.3681346  51.8388939  62.7415818  20.0517466  52.4961736  63.0300814
  23.9344271  59.3318830  66.7240072  23.7958631  60.0299876  67.2288814
  23.1544269  59.1767486  66.3676254  23.7987498  59.4118997  66.7466346
  22.2722357  55.6315205  72.9762454  22.2670395  54.7595022  72.9804880
  22.9783350  55.8303375  72.5031909  22.3767361  55.5319080  72.9069489
  15.9993250  55.3592189  72.3476274  16.1436626  55.9393397  71.7119384
  16.3468899  55.7368486  73.0526128  16.0720711  55.5012893  72.3575269
  18.1713167  54.5582358  70.1301405  17.4236481  54.7513372  69.7249683
  18.3254693  53.7327577  69.8925527  18.0835595  54.4647469  70.0346811
  15.0721005  63.5494961  69.2137301  15.2210569  62.9897877  68.5610705
  15.8521007  63.6286963  69.5969819  15.2095099  63.4780527  69.1734250
  25.4297644  58.6897084  57.4856571  25.0504453  57.9034222  57.4785861
  24.7663890  59.2383941  57.3428215  25.2756119  58.6541908  57.4637368
  17.5974306  63.7209604  70.4921791  17.5217977  63.0518415  71.0472580
  17.5264165  64.4227392  71.0062458  17.5754912  63.7254511  70.6498640
  18.4114944  48.4532908  71.0196809  18.8687558  49.1856883  71.1469601
  18.4871273  48.0299374  71.7784065  18.4905914  48.4990146  71.1497886
  10.6547936  48.6998728  72.1086253  10.1190125  48.0879086  72.4247020
  10.7165700  49.2746864  72.7619919  10.5843568  48.6945656  72.2521680
  22.8842270  41.6322784  64.8890652  23.0025838  42.0899247  64.1557955
  22.7104446  40.8268045  64.6026870  22.8761441  41.5816556  64.7391586
  18.2544553  62.2410603  61.3245397  19.0194444  61.9720247  61.0028062
  18.1522642  61.7560613  62.0415460  18.3526048  62.1300167  61.3825225
  16.2897322  50.4435012  67.8638633  15.4993397  50.2626472  68.1855969
  16.6857945  49.6661965  67.8468928  16.2314198  50.3022473  67.9091182
  20.7763213  59.2722787  53.3045347  21.5436198  59.3322912  52.8951199
  20.3294522  58.7003228  52.8201665  20.8236640  59.1959362  53.1723057
  21.6741009  58.0777442  65.5898079  20.9986010  57.8462675  66.0911466
  21.6833385  57.4698625  64.9640184  21.5759513  57.9536368  65.5714231
  18.8035153  52.9195271  72.3462132  18.7394294  53.7805228  72.2182269
  18.9432340  52.6027265  71.5457683  18.8150623  52.9995438  72.2090345
  23.6757743  60.9342575  57.8208257  23.7577581  61.7409561  57.4969708
  24.1607485  60.9538534  58.5449031  23.7594901  61.0563237  57.8795156
  17.4854246  55.6127411  66.4878335  17.0616496  55.8131910  65.7517353
  17.3099102  54.7656259  66.6002635  17.3965127  55.5176192  66.3952025
  12.7736691  56.1079462  61.9206307  12.9301311  56.0426265  62.7762300
  13.1137285  56.8828015  61.7084987  12.8469926  56.2128660  62.0160902
  19.3115836  55.4837346  60.7899671  19.8531381  54.9807727  61.2538291
  19.6262395  55.4302540  59.9789156  19.4380233  55.4016767  60.7383483
  23.1832943  59.6939993  77.9026583  23.9967809  59.4225142  78.0631715
  23.0227910  59.3947533  77.0986779  23.2802892  59.6094919  77.8071989
  17.4802286  60.8754697  58.0739699  17.5495106  60.0169236  58.2132699
  18.2590741  61.0926578  57.7458723  17.6055136  60.7807561  58.0456856
  20.4605105  50.3773650  70.8421971  20.6747075  49.7384564  70.2885325
  19.8439005  50.8219474  70.4129833  20.4010435  50.3483794  70.6972402
  21.8709773  63.2992399  62.2876192  21.4789565  62.9959114  61.5699058
  22.0262846  64.1361489  62.0981146  21.8363363  63.3776235  62.1532689
   9.3470953  53.2914413  62.2367075   9.7269918  53.7098958  61.5727342
   8.7726318  53.8727868  62.5435918   9.3182278  53.4392271  62.1843816
  22.6244193  51.9862715  71.7805278  21.8120875  51.6788606  71.8618451
  23.0834128  51.5061716  72.3447990  22.5724578  51.8699208  71.8759872
  22.0349448  59.8642387  62.2282223  21.6764103  60.0357030  63.0046255
  21.5488159  60.3255593  61.6710221  21.9108145  59.9581358  62.2607492
  19.8519834  43.4873586  65.8309314  18.9813392  43.4612307  65.7842623
  20.1060175  43.3150778  65.0135160  19.7613394  43.4583730  65.7029451
  16.8237813  55.5441553  54.7682457  17.1130338  56.3206435  55.0426031
  16.9109612  55.0330284  55.4696956  16.8792070  55.5833471  54.9124955
  19.7197701  53.3922787  76.5633981  20.1897332  54.0164903  76.9501855
  19.7659581  52.7239762  77.1227195  19.7965577  53.3857467  76.7034052
  16.8768975  45.4979814  67.2882784  16.3607463  44.8060006  67.4134363
  16.3162903  46.1650591  67.2345383  16.7175488  45.4943072  67.2988850
  18.9461208  46.0372774  69.1175637  18.5592961  46.0621806  69.8989167
  18.4594145  45.4714453  68.6650154  18.8173717  45.9568525  69.1663541
  23.1954187  60.7546283  73.1749423  23.8333908  60.2606479  72.8411880
  22.5528279  60.6823684  72.5901650  23.1948414  60.6705292  73.0391778
  24.9211187  52.6035429  67.7415339  24.4938796  52.5161778  66.9863439
  24.2837240  52.7113205  68.3270183  24.7640795  52.6068089  67.7160781
  18.6118350  42.9239760  71.4085897  19.2411468  43.4600060  71.1306967
  18.7804212  42.8317119  72.2599462  18.7296144  42.9901122  71.4934425
  18.4132265  47.7110955  73.6812308  19.2405694  47.4396103  73.7370923
  18.4340111  48.5071796  74.0376127  18.5385115  47.7890709  73.7427491
  23.2508444  61.4466092  69.8154780  24.0400822  61.0955156  69.9356862
  23.4252042  62.2602480  69.5531414  23.3928726  61.5151949  69.7942648
  12.9901754  54.8574817  66.8682569  12.1489761  54.7578692  67.0761463
  13.1991762  55.6270298  67.2196890  12.8966447  54.9566861  66.9509884
  10.4677321  52.4794354  64.6967320  10.0734019  52.5537366  63.9217429
   9.9117438  52.8652301  65.2475681  10.3280134  52.5476129  64.6634980
  22.1042268  45.4575648  64.3771199  22.3091862  45.3897956  65.2228196
  21.7768692  46.2634470  64.3092376  22.0857516  45.5661589  64.4930854
  16.8018419  52.7856217  66.1180167  16.4981557  52.2312205  66.7190574
  16.0997840  52.9648427  65.6308201  16.6534629  52.7300999  66.1349872
  15.8584516  50.0956736  60.6824868  16.1344251  49.3775649  60.2702436
  16.4583186  50.6941656  60.4745975  15.9877781  50.0777107  60.5905630
  25.3575956  46.0107413  63.8573964  24.7450269  46.4977815  64.2427696
  25.4540131  45.3350903  64.4011615  25.2813854  45.9825721  63.9952822
  19.3595037  47.7670254  58.9571463  19.8138783  47.9380814  59.6819308
  19.8335083  47.1538364  58.5569239  19.4963357  47.7021139  59.0045225
  12.8810562  57.2518580  68.2874202  12.2898496  57.8928078  68.2577217
  13.6431586  57.6756197  68.2605501  12.9058823  57.4094418  68.2789349
  13.2771185  48.4120577  68.9542220  13.7372667  48.4859507  69.6917343
  13.3227292  49.2101831  68.6042041  13.3521740  48.5414725  69.0114976
  14.9254535  49.0787272  73.5214247  14.5340100  48.4320619  73.9570024
  15.0940398  49.6698708  74.1408502  14.8925445  49.0701540  73.6776953
  29.0000984  57.0824349  69.2851480  29.0584108  57.5310998  70.0311457
  28.3667451  57.4923162  68.8481560  28.9152279  57.2098084  69.3304029
  22.6400079  62.7027891  65.7206226  22.4419767  63.1918706  65.0262438
  22.0187790  62.9069133  66.2990360  22.5187643  62.8044430  65.7029450
  16.7008057  54.4712788  60.0616471  17.4450102  54.8587064  60.2999421
  16.8468753  53.6270213  60.2256958  16.8318642  54.4043261  60.1210440
  18.6187632  46.2663047  65.0948332  17.7723677  46.4385855  64.9689682
  18.6158765  45.4612391  65.4314160  18.4934782  46.1724076  65.1259459
  19.6885933  50.0438261  65.9610390  19.2145887  49.5180023  66.4715701
  20.0604069  49.4967734  65.3925252  19.6735822  49.8854258  65.9525537
  10.0658963  52.0409768  71.3293936  10.9284576  51.9405477  71.2431266
   9.7350746  51.4604477  70.7679508  10.1444159  51.9401395  71.2339342
  25.9522663  55.1040637  67.3717171  25.7120886  54.2647052  67.3759597
  26.4314670  55.1840804  68.0957944  25.9874847  54.9922037  67.4791973
  21.6169432  50.9374816  59.0236144  21.0892451  51.0203560  58.3341853
  22.0765141  51.6792687  59.0200788  21.6071283  51.0595478  58.9210839
  27.9527850  51.8842094  65.3246430  27.7137620  51.8437928  64.4867214
  28.1161752  52.7313246  65.4512151  27.9418154  52.0034179  65.2199912
  24.5573880  56.2692044  71.2551475  25.2808079  55.8164570  71.0762495
  24.2923843  56.5496709  70.4723803  24.6255154  56.2443012  71.1130190
  13.4260749  50.8652217  67.9904354  12.8013819  50.8770609  67.3830307
  13.0906344  51.3412392  68.6395594  13.2846241  50.9370734  67.9960923
  13.6102498  49.2077336  54.0477039  13.2615302  49.8597061  54.5108588
  13.1298943  49.1934449  53.3200910  13.4872741  49.3020389  54.0088130
  21.1706515  59.5078380  58.1545801  21.8940714  59.9736493  58.0110374
  20.7307106  59.5751989  57.4043398  21.2122207  59.5862216  58.0230582
  20.3392670  56.3675922  69.4046490  19.7249663  55.8233972  69.6995125
  20.8559955  55.8540158  68.9252306  20.3248332  56.2112331  69.3770718
  19.5788967  57.4380192  67.1390788  19.1516575  56.8129910  66.7056224
  19.5713912  57.1555114  67.9649796  19.5148108  57.3032972  67.1970616
  12.6951494  52.4745365  70.2079222  12.8544981  51.7188689  70.6130944
  12.5144388  53.0236304  70.8619960  12.6916853  52.4439179  70.3641928
  20.6371797  44.6406600  70.7630012  20.1412358  44.8370275  70.0721579
  21.3940859  45.0399269  70.5918814  20.6758622  44.7284334  70.6350149
  17.9074677  48.3148946  67.3533322  17.9317164  47.7809059  66.6646102
  18.1586150  47.8066255  68.0158913  17.9484596  48.1609850  67.3497967
  14.1875999  47.0419765  66.7339067  14.2274371  47.5428971  67.4473774
  13.3625664  47.1330158  66.4644990  14.0715525  47.1301581  66.7989605
  15.6090362  53.5580274  69.0312966  14.7782292  53.7254092  68.8248214
  15.5541880  53.1816225  69.8161851  15.4779777  53.5270006  69.1161494
  13.4174146  47.0489167  74.6669377  14.0426849  46.5051300  74.9398809
  12.9624626  46.5684085  74.0977167  13.4422406  46.8978649  74.6230970
  13.9826406  51.8335866  59.5603084  14.1229367  52.3308330  60.2631725
  14.4808939  51.1322160  59.7017297  14.0767487  51.8037845  59.6854663
  14.0126629  52.7002977  56.8895660  14.6471708  53.2963402  56.8245122
  14.0952239  52.4006435  57.7041530  14.1183180  52.7443885  56.9998747
  26.9909194  55.2318454  69.7582025  27.5827035  55.8715705  69.7900223
  27.4268189  54.5341491  70.0474091  27.1427626  55.2236805  69.8062857
  15.5905612  48.6316952  56.8641102  15.9121453  48.1520035  56.2100365
  15.8532555  49.4416598  56.6731914  15.6771637  48.6806850  56.7396594
  18.8202584  59.6535827  70.3839918  18.3127675  60.2071674  70.8280549
  18.5229230  59.7144117  69.5658693  18.7007469  59.7442138  70.3288375
  20.9864767  48.0189146  69.2264581  21.4119838  47.5661673  68.6148108
  20.3721760  47.4649217  69.5029369  20.9593412  47.8703123  69.1769607
  10.5179617  54.8970818  60.1585206  11.0271846  55.4935325  60.5396512
  10.9913889  54.6296791  59.4761626  10.6622992  54.9456633  60.1139729
  21.4310365  63.5699084  58.3143862  20.7139674  63.3959947  57.8491099
  22.0817102  63.3351657  57.7819348  21.4212215  63.5094877  58.1673080
  19.4258989  44.4904246  62.6355158  18.7827307  44.3401893  63.2040297
  19.0858396  44.2446591  61.8704263  19.2804067  44.4316369  62.6058174
  24.0158336  52.4463673  62.0585167  23.3449526  52.9893375  61.9298233
  24.7098086  52.9158528  61.8166862  24.0187203  52.5961944  62.0040695
  18.0645070  64.5860385  67.2896925  17.8410724  63.8279214  67.6580952
  17.5754913  64.6158406  66.5677365  17.9588519  64.4782610  67.2373666
  24.1786463  48.9019557  64.9675540  24.5314073  48.4749280  65.6421339
  23.3201265  48.8170400  65.0976617  24.1035908  48.8264297  65.0870551
  12.8770148  51.5327076  63.0258387  12.1582137  51.9491209  63.2931250
  13.2482511  52.0981315  62.4750025  12.8262080  51.6776358  62.9841194
  22.1769729  52.1654925  68.9160383  22.1567656  51.9838220  69.7695161
  22.2248930  53.0366944  68.8919966  22.1804370  52.2671464  69.0383677
  20.1216059  58.7542117  74.8408859  20.0811914  58.1091794  74.2554015
  20.9339377  58.6978735  75.1534271  20.2359212  58.6501084  74.8005808
  16.7123526  64.8060843  64.7434010  16.2983925  64.1434973  64.3537852
  17.3970901  64.9538702  64.2229704  16.7521898  64.7301501  64.6090507
  20.0788821  63.9650928  65.4957627  19.6805104  64.0753199  64.7278447
  19.4640040  64.1732995  66.0784186  19.9287710  64.0124496  65.4688926
  18.6516723  50.5725076  58.3631766  18.0581562  50.8942073  57.8116333
  18.6892000  49.7266172  58.1552872  18.5691112  50.4949404  58.2514538
  25.6110523  44.0237968  65.8959853  25.1041388  43.3167108  65.8281030
  26.4077957  43.6931157  66.0260929  25.6537763  43.8711120  65.9058848
  21.5274539  50.5304581  61.7933516  21.2988232  50.5537282  60.9511875
  21.7872615  49.7062048  61.9128527  21.5320727  50.4120661  61.6858714
  15.8093768  52.3839054  71.3958617  15.2972671  51.7760237  71.7543648
  15.6373264  53.0995646  71.8632592  15.7083405  52.4002353  71.5174840
  14.5819302  49.0681127  63.0887712  15.0576668  49.4298207  62.4537893
  14.0807901  49.7237595  63.3687855  14.5784661  49.2175316  63.0364453
  27.8130663  58.5402895  58.8800717  28.1964269  59.2894251  59.1098814
  27.0174777  58.7868715  58.6212706  27.7524446  58.6872589  58.8758291
  19.6862838  50.3063298  73.8360872  20.2434268  50.0777108  73.2039338
  19.3623903  51.0668964  73.5596085  19.7209248  50.3847135  73.7017369
  17.4045955  53.3930952  74.8012879  18.1557282  53.7082629  75.1152434
  17.5968532  53.1910123  73.9746801  17.5437369  53.4098334  74.7256275
  16.6245955  51.2122327  56.4561096  17.0044920  51.2301956  55.6712211
  15.8838551  51.6576316  56.3351943  16.5714793  51.2804101  56.3224664
  24.2531245  49.5204518  62.0436675  24.2525472  49.3653175  62.9020951
  24.0487425  50.3667505  61.9878060  24.2231023  49.6225139  62.1624614
   6.3148516  52.9444302  66.4595491   6.1370277  52.4920911  67.1850407
   6.0267538  53.7470464  66.6433969   6.2461470  52.9966860  66.5938994
  21.9772097  54.2002020  65.6972882  22.4725763  53.4825015  65.6576902
  21.1671873  53.8972818  65.5827369  21.9315991  54.0499666  65.6746608
  17.4230709  58.0499833  57.8469886  16.6142032  57.7266507  57.8003196
  17.9305618  57.3433055  57.7798135  17.3780376  57.8981149  57.8300181
   8.0520986  55.4772026  63.5717250   7.1866506  55.4657717  63.4600022
   8.1519802  55.2902249  64.4188390   7.9395153  55.4478087  63.6806195
  24.0423916  56.9505707  68.3850010  24.4678988  56.4280129  67.8320435
  23.6780836  57.5486545  67.8638633  24.0510519  56.9615934  68.2259020
  13.6777996  65.2469925  67.1447356  13.9924555  66.0606313  67.1525138
  14.0871409  64.8620144  67.8129515  13.7846094  65.3098627  67.2451448
  20.6302516  60.6639972  64.7151168  21.1013694  61.3780234  64.8841153
  20.9662694  60.0638722  65.2511037  20.7497631  60.6811436  64.8183544
  17.5472011  45.4367442  71.6709263  17.6799916  44.6398436  71.9990238
  17.9317163  45.9633845  72.2507538  17.6228340  45.3967359  71.8052766
  21.2676462  60.4557906  71.4778861  20.7197408  59.8315789  71.2098926
  21.7289491  60.6452178  70.7622940  21.2543672  60.3916956  71.3329292
  20.6204366  42.3597768  68.2690356  19.8150330  42.2495498  68.5858194
  20.4911101  42.4610224  67.4120222  20.4824499  42.3581438  68.1898396
  24.0770326  48.5243260  68.8630053  23.4933315  49.0252467  68.4507620
  24.3974621  48.0172816  68.2294376  24.0383502  48.5235095  68.7088560
  16.6165126  47.4383855  59.1388728  17.4380820  47.6082168  58.8970423
  16.1534776  47.5931116  58.4155025  16.6696288  47.4865588  58.9960372
  15.2060457  45.4326617  69.9187156  15.7504870  45.0917744  70.5091498
  15.2597393  46.2912079  70.0608441  15.2949577  45.5081877  70.0269030
  11.0191016  59.1943033  66.7925964  11.6235874  59.1538867  66.1639785
  10.8118329  60.0414185  66.8230020  11.0779914  59.3131036  66.7042081
  20.8334788  61.4608978  68.0088202  21.6533162  61.3171944  68.2704497
  20.5528866  62.0855177  68.5504640  20.9131532  61.5319330  68.1276141
  37.3048439  69.1173830  60.9731078  37.2742443  69.9718467  61.1449347
  37.9029788  68.8169123  61.5317222  37.3885597  69.1990327  61.0805880
  30.5048124  68.2049481  65.7284009  29.6486019  68.3657979  65.7793125
  30.5515777  67.3341545  65.7489070  30.3847235  68.1000283  65.7390075
  33.3499945  70.2641525  68.3715660  33.8955905  70.9426612  68.4309630
  33.2916821  70.1228986  67.5117242  33.4215859  70.3433527  68.2527721
  35.1265013  71.6926132  59.2449388  35.0104539  72.4433818  59.6741526
  35.9220900  71.4350085  59.4945475  35.2269603  71.7660979  59.3453480
  19.6639064  73.7750878  63.3836346  19.4289248  72.9418530  63.2768615
  19.8024705  74.0555543  62.5697547  19.6494726  73.6934381  63.2478701
  21.9629151  65.9436608  66.2820654  21.3434183  65.3529256  66.1130669
  21.8613015  66.5348044  65.6484977  21.8566827  65.9440691  66.1625643
  27.0095339  75.6820155  60.5318730  27.3311180  76.2225363  59.9280038
  27.6567435  75.1116927  60.6641020  27.1521394  75.6779330  60.4625766
  29.0597047  67.6836150  60.6153117  29.7577212  67.8624278  61.1074580
  29.3749379  67.1606490  59.9923506  29.2092384  67.6329922  60.5955127
  21.6898284  69.4888890  68.5264223  21.5656981  70.0751336  69.1614042
  22.3416569  68.9949086  68.8276498  21.7671934  69.5027695  68.6650152
  29.2484982  74.0706595  60.6032909  29.6878618  73.4623696  61.0487681
  29.0989645  73.6913969  59.8318374  29.2906448  73.9245066  60.5552076
  26.7156625  72.6650607  67.8051734  27.3605628  72.1723050  67.4862683
  26.9558402  72.8075394  68.6317812  26.8467210  72.6128049  67.8801267
  29.2542717  75.5105513  67.4558627  29.5365959  74.7156919  67.2345382
  29.9828877  75.9886100  67.4763688  29.4032280  75.4640110  67.4261642
  27.2323910  63.0528547  64.6974392  26.9027240  63.5039690  64.0278090
  26.5568912  62.9744710  65.2447398  27.0834347  63.1079682  64.6797615
  32.8494319  72.4233776  57.5563678  32.7645614  73.2794743  57.7013247
  33.3378702  72.1478101  58.2245837  32.9083216  72.5091098  57.6765759
  34.4400318  59.0414070  62.9424002  34.1253759  59.7317548  63.3744425
  33.9227260  58.9858852  62.2409503  34.3164789  59.1348958  62.9020951
  33.7812752  69.0418571  59.0561413  33.2524224  69.2578204  59.7158719
  34.3037772  69.7354709  58.9762382  33.7801205  69.1761708  59.1417012
  39.2360805  74.6164875  64.4294457  38.4058508  74.8275519  64.5927874
  39.1870057  73.7901930  64.1536741  39.1067540  74.5254481  64.4131823
  25.6712360  72.9381787  57.8568881  25.0869575  73.4431819  58.2634745
  25.2682455  72.7124174  57.1165473  25.5251664  72.9790036  57.8073906
  30.1289574  69.1847439  56.3337801  30.3685578  69.3925423  55.5213145
  30.4505415  68.3804948  56.4426746  30.2126732  69.0961541  56.2298355
  25.4379865  61.1140835  60.1797339  26.1925833  61.4819152  59.9414390
  25.2607399  61.4880390  60.9476519  25.5234343  61.2239023  60.2582228
  38.7314763  67.2635276  68.2244879  37.8943184  67.3337463  68.4592473
  38.7002994  67.2659771  67.3519181  38.6033046  67.2745503  68.1304427
  25.1279492  69.4068311  73.9393247  25.2999996  69.2974206  74.7878529
  25.6648850  70.0522717  73.7024440  25.2324496  69.4860313  74.0298344
  23.7936929  63.5211154  56.8775452  23.6112502  63.7383035  56.0516445
  24.6562542  63.6350167  56.9334067  23.8941519  63.5701052  56.7629939
  23.4051361  75.3599076  64.3198440  24.2440261  75.5922009  64.3672202
  23.4363130  74.4903388  64.2505476  23.5333079  75.2656023  64.3163085
  29.4736648  60.5237565  59.9124476  30.2022809  60.3453520  59.4662632
  29.5631541  61.3655645  60.1231654  29.5943310  60.6221443  59.8777994
  33.4544949  71.4590952  63.8156770  34.2102464  71.8922467  63.8545679
  33.5607274  70.8095722  64.3891406  33.5815120  71.4268436  63.9054796
  36.4925120  75.2864230  64.5659173  36.0560352  75.2900972  65.3218145
  36.1588036  75.9669729  64.1338751  36.3787740  75.3876685  64.6140006
  36.4122603  62.3278057  66.8088601  37.0548512  62.3976162  67.3950516
  36.6645624  61.6607280  66.3068143  36.5444735  62.2404406  66.8215880
  23.3398956  66.7985327  55.3897925  22.6257133  66.5123506  55.8020358
  23.8242925  67.1381953  56.0304313  23.3058320  66.8066977  55.5453560
  24.1839816  65.5378621  71.4213175  23.4911612  65.0675600  71.6673907
  24.8000143  65.3116925  71.9954882  24.1724346  65.4345753  71.5422328
  39.6269466  72.0045149  63.4578810  40.2885900  71.4435818  63.3574719
  38.9860878  71.5097180  63.7831502  39.6298334  71.8481558  63.4911151
  30.5146274  75.3015281  55.7659734  30.9297423  74.9700305  55.0744229
  29.6838204  75.0684183  55.6379870  30.4534283  75.2186537  55.6450581
  19.8434623  72.7859022  66.0557912  19.6610196  72.7605908  65.2030204
  20.5784292  73.2557960  66.0946820  19.9248687  72.8520384  65.9355830
  35.9134297  73.0210532  63.1990799  36.1489886  73.1655731  62.3717650
  36.0623861  73.7852940  63.5922313  35.9700100  73.1549586  63.1354403
  22.9080375  69.5044025  72.5640020  23.6320347  69.4897055  73.0504915
  23.0096511  70.2139380  72.0661988  23.0298584  69.6068728  72.5618807
  37.7424754  71.8612198  61.0360403  38.0732971  72.3939838  60.4300498
  38.3157842  71.9151086  61.6922354  37.8758433  71.9481767  61.0438185
  32.9556643  69.7077100  61.7183983  33.0503497  70.4466395  62.1723609
  32.3315486  69.2794576  62.1518548  32.8765673  69.7538421  61.8492131
  19.8105533  69.6652523  66.2056978  20.3879036  69.5288973  66.8449224
  19.1119595  69.2088307  66.4602563  19.7926555  69.5774789  66.3379268
  33.2079664  71.5525840  54.9520935  33.1259827  71.6228027  55.8175922
  33.8459385  72.1155584  54.7604676  33.2899502  71.6464811  55.0510885
  26.5672835  71.3186578  64.4195461  26.3092080  70.4858313  64.3926761
  26.6221318  71.5444191  63.5787962  26.5372613  71.2284349  64.2915598
  31.6473886  63.4215029  64.5199554  30.9430212  62.9324214  64.6783473
  31.6958860  63.4337503  63.6487999  31.5503937  63.3504677  64.4138894
  25.5407548  68.8724341  64.9060356  24.9657139  69.0316509  65.5424317
  25.1643224  68.2359750  64.4428807  25.4010360  68.8022154  64.9314915
  29.2080836  67.3447690  69.7652735  28.8195269  66.9201908  69.1104926
  28.5435535  67.5929840  70.2729761  29.0527764  67.3186411  69.7440603
  38.8504105  67.1022695  62.5400565  38.5940670  66.2902636  62.3498447
  39.6933419  67.1100262  62.3130752  38.9370131  66.9834692  62.4785382
  15.2864366  68.5164415  62.9204797  15.3724618  68.1396284  63.7018327
  15.9140164  68.1424861  62.4424755  15.3920917  68.4049898  62.9650274
  30.3119774  71.5746295  57.9629542  31.1260413  71.8661187  57.8512313
  30.2478916  70.9206157  57.3887835  30.4222513  71.5211489  57.8618379
  26.1827683  75.0467812  63.0901854  26.8201630  74.8079560  63.6353647
  26.6082754  75.2504971  62.3555014  26.3403849  75.0418822  63.0619011
  26.8230498  70.2670102  57.4276743  27.2075650  70.0477808  58.1793288
  26.5742118  71.0933047  57.5577819  26.8432570  70.3568248  57.5577819
  26.9899038  63.5476517  77.1439327  26.6752479  64.3176080  76.8808890
  26.6688971  62.9846773  76.5591554  26.8957957  63.5786786  77.0180677
  28.5649155  75.5240235  64.7695640  28.6388163  75.3615406  65.6237490
  29.3818661  75.7130424  64.5256122  28.6965513  75.5276977  64.8593666
  24.5430935  61.9367038  62.7585524  23.6753361  62.0089638  62.8243133
  24.8306139  62.7389117  62.9473499  24.4570683  62.0661186  62.7960290
  33.6663824  62.0844898  71.0896845  34.4117416  61.8954708  70.6760271
  33.2501128  62.6103136  70.5310702  33.7148798  62.1347043  70.9461419
  41.0426095  69.4554126  66.0402350  41.5934016  68.8222195  66.2799442
  41.0270210  69.9869519  66.7317855  41.1211291  69.4403074  66.1781209
  27.6948486  73.2892724  70.5862244  27.1960179  74.0008491  70.6647132
  28.5048710  73.6093390  70.5480406  27.7404592  73.4419572  70.5918812
  23.9576603  72.5515677  64.8324965  23.6689852  71.9253148  65.3670692
  24.8259951  72.4935964  64.8989645  24.0436855  72.4503221  64.9215919
  34.7454501  67.6950460  65.1506947  34.4019267  66.9740795  65.5014196
  34.8447543  67.4864311  64.3085305  34.7096544  67.5574663  65.0778627
  24.1608877  74.1910928  60.7567330  24.9154845  74.5723967  60.9702792
  23.5679489  74.6422071  61.2114026  24.1845590  74.3139755  60.8550208
  35.2067530  74.1576164  60.6930935  35.7725563  74.8169374  60.6089478
  34.5595433  74.5025862  61.1647337  35.1946286  74.3058105  60.7503691
  26.6215544  66.1473768  75.8824542  25.8115319  66.4531548  75.7714384
  27.0990230  66.8679350  75.9977126  26.5719022  66.2988369  75.8831613
  25.4807103  75.3619489  66.1307445  24.9587857  75.5019781  66.8159310
  25.8681123  74.6030153  66.3209562  25.4610804  75.2705013  66.2608522
  22.4698287  65.4125298  60.2002400  22.1823083  65.0426568  59.4634347
  23.1568755  65.8820153  59.9386105  22.5287184  65.4272267  60.0517476
  31.6774108  77.1014948  60.1168014  31.4360784  76.3682809  59.7095079
  31.8575441  77.6501805  59.4634347  31.6681732  77.0737339  59.9598237
  26.9073429  72.3923508  61.5288936  26.7116211  72.9998243  60.9349239
  27.1307774  71.6991452  61.0480610  26.9108070  72.3801034  61.3705017
  25.3051959  69.2778246  61.6469805  26.0274611  69.4419404  61.1873611
  24.8259952  69.9987911  61.5409144  25.3415689  69.4076476  61.5635419
  33.2645466  65.6142045  67.0266489  32.4256567  65.6403324  66.7904753
  33.3349834  66.2612780  67.6071836  33.1513860  65.7138171  67.0775606
  31.7114745  62.5127422  61.7594105  32.4141097  62.3135170  61.2814064
  31.4458933  61.7403364  62.0662949  31.7761377  62.3690388  61.7339547
  37.1402990  70.8210032  64.3127731  37.0536965  70.9765458  65.1662510
  36.6853470  71.4648107  63.9387136  37.0606247  70.9385787  64.3834838
  20.0426482  66.1906510  61.0487681  20.1442618  66.9932672  61.3768656
  20.8382369  65.9893846  60.7510761  20.1754387  66.2792409  61.0523036
  26.4743301  63.7762707  70.8124986  26.2826498  63.7917841  71.6624409
  27.3241897  63.9726381  70.7891641  26.5719023  63.8077058  70.9348281
  20.8590214  66.3053688  68.7908802  20.7175706  65.4537629  68.9153310
  21.1430777  66.3482349  67.9671008  20.8798060  66.1853438  68.6876427
  31.0128806  68.1420779  62.9353291  30.7663521  68.0616530  63.7690080
  31.3413929  67.3574246  62.7415818  31.0250050  68.0147044  63.0300814
  34.9076855  74.8504138  66.7240072  34.7691214  75.5485184  67.2288814
  34.1276853  74.6952794  66.3676254  34.7720082  74.9304305  66.7466346
  26.9725834  70.8777497  72.3476274  27.1169209  71.4578705  71.7119384
  27.3201482  71.2553794  73.0526128  27.0453295  71.0198201  72.3575269
  29.1445751  70.0767666  70.1301405  28.3969065  70.2698680  69.7249683
  29.2987276  69.2512885  69.8925527  29.0568178  69.9832777  70.0346811
  36.4030228  74.2082392  57.4856571  36.0237037  73.4219530  57.4785861
  35.7396473  74.7569249  57.3428215  36.2488703  74.1727216  57.4637368
  29.3847528  63.9718216  71.0196809  29.8420142  64.7042191  71.1469601
  29.4603857  63.5484682  71.7784065  29.4638498  64.0175454  71.1497886
  21.6280519  64.2184036  72.1086253  21.0922709  63.6064394  72.4247020
  21.6898284  64.7932172  72.7619919  21.5576152  64.2130964  72.2521680
  33.8574854  57.1508091  64.8890652  33.9758422  57.6084555  64.1557955
  33.6837030  56.3453353  64.6026870  33.8494025  57.1001864  64.7391586
  27.2629906  65.9620320  67.8638633  26.4725981  65.7811780  68.1855969
  27.6590529  65.1847273  67.8468928  27.2046782  65.8207781  67.9091182
  31.7495797  74.7908095  53.3045347  32.5168782  74.8508220  52.8951199
  31.3027106  74.2188536  52.8201665  31.7969224  74.7144670  53.1723057
  32.6473592  73.5962750  65.5898079  31.9718594  73.3647983  66.0911466
  32.6565968  72.9883933  64.9640184  32.5492097  73.4721676  65.5714231
  29.7767736  68.4380579  72.3462132  29.7126877  69.2990536  72.2182269
  29.9164924  68.1212573  71.5457683  29.7883206  68.5180746  72.2090345
  34.6490327  76.4527883  57.8208257  34.7310164  77.2594869  57.4969708
  35.1340069  76.4723842  58.5449031  34.7327485  76.5748545  57.8795156
  28.4586830  71.1312719  66.4878335  28.0349079  71.3317218  65.7517353
  28.2831685  70.2841567  66.6002635  28.3697711  71.0361500  66.3952025
  23.7469275  71.6264770  61.9206307  23.9033894  71.5611573  62.7762300
  24.0869868  72.4013323  61.7084987  23.8202510  71.7313968  62.0160902
  30.2848420  71.0022654  60.7899671  30.8263965  70.4993035  61.2538291
  30.5994979  70.9487848  59.9789156  30.4112817  70.9202075  60.7383483
  28.4534869  76.3940005  58.0739699  28.5227690  75.5354544  58.2132699
  29.2323324  76.6111886  57.7458723  28.5787719  76.2992869  58.0456856
  31.4337689  65.8958958  70.8421971  31.6479659  65.2569872  70.2885325
  30.8171588  66.3404782  70.4129833  31.3743018  65.8669102  70.6972402
  20.3203536  68.8099721  62.2367075  20.7002501  69.2284266  61.5727342
  19.7458901  69.3913176  62.5435918  20.2914861  68.9577579  62.1843816
  33.5976777  67.5048023  71.7805278  32.7853459  67.1973914  71.8618451
  34.0566712  67.0247024  72.3447990  33.5457162  67.3884516  71.8759872
  33.0082032  75.3827695  62.2282223  32.6496686  75.5542338  63.0046255
  32.5220742  75.8440901  61.6710221  32.8840729  75.4766666  62.2607492
  30.8252418  59.0058894  65.8309314  29.9545976  58.9797615  65.7842623
  31.0792759  58.8336086  65.0135160  30.7345978  58.9769038  65.7029451
  27.7970397  71.0626861  54.7682457  28.0862922  71.8391743  55.0426031
  27.8842196  70.5515592  55.4696956  27.8524653  71.1018779  54.9124955
  27.8501558  61.0165122  67.2882784  27.3340047  60.3245314  67.4134363
  27.2895487  61.6835899  67.2345383  27.6908071  61.0128380  67.2988850
  29.9193792  61.5558082  69.1175637  29.5325545  61.5807114  69.8989167
  29.4326729  60.9899761  68.6650154  29.7906300  61.4753833  69.1663541
  35.8943771  68.1220737  67.7415339  35.4671379  68.0347086  66.9863439
  35.2569824  68.2298513  68.3270183  35.7373378  68.1253397  67.7160781
  29.5850933  58.4425068  71.4085897  30.2144051  58.9785368  71.1306967
  29.7536796  58.3502427  72.2599462  29.7028728  58.5086430  71.4934425
  29.3864848  63.2296263  73.6812308  30.2138278  62.9581411  73.7370923
  29.4072694  64.0257104  74.0376127  29.5117698  63.3076017  73.7427491
  23.9634338  70.3760125  66.8682569  23.1222345  70.2764000  67.0761463
  24.1724346  71.1455606  67.2196890  23.8699031  70.4752169  66.9509884
  21.4409905  67.9979662  64.6967320  21.0466603  68.0722674  63.9217429
  20.8850022  68.3837609  65.2475681  21.3012717  68.0661437  64.6634980
  33.0774852  60.9760956  64.3771199  33.2824445  60.9083264  65.2228196
  32.7501276  61.7819778  64.3092376  33.0590100  61.0846897  64.4930854
  27.7751003  68.3041525  66.1180167  27.4714140  67.7497513  66.7190574
  27.0730424  68.4833734  65.6308201  27.6267213  68.2486307  66.1349872
  26.8317100  65.6142044  60.6824868  27.1076834  64.8960957  60.2702436
  27.4315769  66.2126964  60.4745975  26.9610365  65.5962415  60.5905630
  36.3308539  61.5292721  63.8573964  35.7182853  62.0163123  64.2427696
  36.4272714  60.8536211  64.4011615  36.2546437  61.5011029  63.9952822
  30.3327620  63.2855562  58.9571463  30.7871367  63.4566122  59.6819308
  30.8067666  62.6723672  58.5569239  30.4695941  63.2206447  59.0045225
  23.8543146  72.7703888  68.2874202  23.2631079  73.4113386  68.2577217
  24.6164169  73.1941505  68.2605501  23.8791406  72.9279726  68.2789349
  24.2503769  63.9305885  68.9542220  24.7105250  64.0044815  69.6917343
  24.2959875  64.7287139  68.6042041  24.3254324  64.0600032  69.0114976
  25.8987118  64.5972580  73.5214247  25.5072684  63.9505927  73.9570024
  26.0672981  65.1884016  74.1408502  25.8658029  64.5886848  73.6776953
  33.6132662  78.2213199  65.7206226  33.4152351  78.7104014  65.0262438
  32.9920373  78.4254441  66.2990360  33.4920227  78.3229737  65.7029450
  27.6740640  69.9898096  60.0616471  28.4182685  70.3772372  60.2999421
  27.8201337  69.1455521  60.2256958  27.8051226  69.9228569  60.1210440
  29.5920216  61.7848355  65.0948332  28.7456261  61.9571163  64.9689682
  29.5891348  60.9797699  65.4314160  29.4667366  61.6909384  65.1259459
  30.6618516  65.5623569  65.9610390  30.1878471  65.0365331  66.4715701
  31.0336652  65.0153042  65.3925252  30.6468405  65.4039566  65.9525537
  21.0391546  67.5595076  71.3293936  21.9017159  67.4590785  71.2431266
  20.7083329  66.9789785  70.7679508  21.1176743  67.4586703  71.2339342
  36.9255247  70.6225945  67.3717171  36.6853470  69.7832360  67.3759597
  37.4047254  70.7026112  68.0957944  36.9607431  70.5107345  67.4791973
  32.5902016  66.4560124  59.0236144  32.0625035  66.5388868  58.3341853
  33.0497724  67.1977995  59.0200788  32.5803866  66.5780786  58.9210839
  38.9260434  67.4027402  65.3246430  38.6870204  67.3623236  64.4867214
  39.0894335  68.2498554  65.4512151  38.9150737  67.5219487  65.2199912
  24.3993332  66.3837525  67.9904354  23.7746403  66.3955917  67.3830307
  24.0638927  66.8597700  68.6395594  24.2578824  66.4556042  67.9960923
  24.5835081  64.7262644  54.0477039  24.2347885  65.3782369  54.5108588
  24.1031527  64.7119757  53.3200910  24.4605325  64.8205697  54.0088130
  32.1439098  75.0263688  58.1545801  32.8673297  75.4921800  58.0110374
  31.7039690  75.0937297  57.4043398  32.1854791  75.1047524  58.0230582
  31.3125254  71.8861230  69.4046490  30.6982247  71.3419280  69.6995125
  31.8292538  71.3725466  68.9252306  31.2980916  71.7297639  69.3770718
  30.5521551  72.9565500  67.1390788  30.1249159  72.3315218  66.7056224
  30.5446495  72.6740422  67.9649796  30.4880692  72.8218280  67.1970616
  23.6684078  67.9930673  70.2079222  23.8277565  67.2373997  70.6130944
  23.4876971  68.5421612  70.8619960  23.6649437  67.9624487  70.3641928
  31.6104381  60.1591908  70.7630012  31.1144942  60.3555583  70.0721579
  32.3673443  60.5584577  70.5918814  31.6491205  60.2469642  70.6350149
  28.8807260  63.8334254  67.3533322  28.9049748  63.2994367  66.6646102
  29.1318734  63.3251563  68.0158913  28.9217179  63.6795158  67.3497967
  25.1608583  62.5605073  66.7339067  25.2006954  63.0614279  67.4473774
  24.3358247  62.6515466  66.4644990  25.0448109  62.6486889  66.7989605
  26.5822946  69.0765582  69.0312966  25.7514876  69.2439400  68.8248214
  26.5274463  68.7001533  69.8161851  26.4512361  69.0455314  69.1161494
  24.3906729  62.5674475  74.6669377  25.0159433  62.0236608  74.9398809
  23.9357209  62.0869393  74.0977167  24.4154990  62.4163957  74.6230970
  24.9558990  67.3521174  59.5603084  25.0961951  67.8493638  60.2631725
  25.4541523  66.6507468  59.7017297  25.0500071  67.3223153  59.6854663
  24.9859212  68.2188285  56.8895660  25.6204292  68.8148710  56.8245122
  25.0684823  67.9191743  57.7041530  25.0915763  68.2629193  56.9998747
  26.5638195  64.1502260  56.8641102  26.8854036  63.6705343  56.2100365
  26.8265139  64.9601906  56.6731914  26.6504221  64.1992158  56.7396594
  29.7935168  75.1721135  70.3839918  29.2860259  75.7256982  70.8280549
  29.4961814  75.2329425  69.5658693  29.6740053  75.2627446  70.3288375
  31.9597350  63.5374454  69.2264581  32.3852422  63.0846981  68.6148108
  31.3454343  62.9834525  69.5029369  31.9325995  63.3888431  69.1769607
  21.4912200  70.4156126  60.1585206  22.0004429  71.0120633  60.5396512
  21.9646472  70.1482099  59.4761626  21.6355576  70.4641941  60.1139729
  30.3991573  60.0089554  62.6355158  29.7559891  59.8587200  63.2040297
  30.0590980  59.7631899  61.8704263  30.2536650  59.9501677  62.6058174
  34.9890919  67.9648981  62.0585167  34.3182109  68.5078683  61.9298233
  35.6830670  68.4343836  61.8166862  34.9919787  68.1147252  62.0040695
  35.1519047  64.4204865  64.9675540  35.5046657  63.9934588  65.6421339
  34.2933848  64.3355708  65.0976617  35.0768492  64.3449605  65.0870551
  23.8502732  67.0512384  63.0258387  23.1314721  67.4676517  63.2931250
  24.2215094  67.6166623  62.4750025  23.7994664  67.1961666  62.9841194
  33.1502313  67.6840233  68.9160383  33.1300240  67.5023528  69.7695161
  33.1981513  68.5552252  68.8919966  33.1536954  67.7856771  69.0383677
  29.6249306  66.0910384  58.3631766  29.0314146  66.4127381  57.8116333
  29.6624584  65.2451480  58.1552872  29.5423695  66.0134712  58.2514538
  36.5843107  59.5423276  65.8959853  36.0773972  58.8352416  65.8281030
  37.3810541  59.2116465  66.0260929  36.6270346  59.3896428  65.9058848
  32.5007123  66.0489889  61.7933516  32.2720816  66.0722590  60.9511875
  32.7605199  65.2247356  61.9128527  32.5053311  65.9305969  61.6858714
  26.7826351  67.9024362  71.3958617  26.2705254  67.2945545  71.7543648
  26.6105847  68.6180954  71.8632592  26.6815988  67.9187661  71.5174840
  25.5551885  64.5866435  63.0887712  26.0309252  64.9483515  62.4537893
  25.0540485  65.2422903  63.3687855  25.5517244  64.7360624  63.0364453
  38.7863247  74.0588203  58.8800717  39.1696853  74.8079559  59.1098814
  37.9907360  74.3054023  58.6212706  38.7257029  74.2057897  58.8758291
  30.6595422  65.8248606  73.8360872  31.2166852  65.5962416  73.2039338
  30.3356487  66.5854272  73.5596085  30.6941832  65.9032443  73.7017369
  27.5978538  66.7307635  56.4561096  27.9777503  66.7487264  55.6712211
  26.8571135  67.1761624  56.3351943  27.5447376  66.7989409  56.3224664
  35.2263829  65.0389826  62.0436675  35.2258055  64.8838483  62.9020951
  35.0220009  65.8852813  61.9878060  35.1963607  65.1410447  62.1624614
  17.2881100  68.4629610  66.4595491  17.1102861  68.0106219  67.1850407
  17.0000122  69.2655772  66.6433969  17.2194053  68.5152168  66.5938994
  32.9504681  69.7187328  65.6972882  33.4458346  69.0010323  65.6576902
  32.1404457  69.4158125  65.5827369  32.9048574  69.5684974  65.6746608
  28.3963293  73.5685141  57.8469886  27.5874615  73.2451815  57.8003196
  28.9038201  72.8618363  57.7798135  28.3512959  73.4166457  57.8300181
  19.0253570  70.9957334  63.5717250  18.1599089  70.9843025  63.4600022
  19.1252386  70.8087557  64.4188390  18.9127737  70.9663395  63.6806195
  35.0156500  72.4691015  68.3850010  35.4411571  71.9465437  67.8320435
  34.6513420  73.0671853  67.8638633  35.0243102  72.4801242  68.2259020
  31.6035099  76.1825280  64.7151168  32.0746278  76.8965542  64.8841153
  31.9395278  75.5824030  65.2511037  31.7230214  76.1996744  64.8183544
  28.5204594  60.9552750  71.6709263  28.6532500  60.1583744  71.9990238
  28.9049747  61.4819153  72.2507538  28.5960923  60.9152667  71.8052766
  31.5936949  57.8783076  68.2690356  30.7882913  57.7680806  68.5858194
  31.4643685  57.9795532  67.4120222  31.4557082  57.8766746  68.1898396
  35.0502910  64.0428568  68.8630053  34.4665899  64.5437775  68.4507620
  35.3707204  63.5358124  68.2294376  35.0116085  64.0420403  68.7088560
  27.5897709  62.9569163  59.1388728  28.4113404  63.1267476  58.8970423
  27.1267360  63.1116424  58.4155025  27.6428871  63.0050896  58.9960372
  26.1793041  60.9511925  69.9187156  26.7237454  60.6103052  70.5091498
  26.2329977  61.8097387  70.0608441  26.2682160  61.0267185  70.0269030
  31.8067372  76.9794286  68.0088202  32.6265746  76.8357252  68.2704497
  31.5261450  77.6040485  68.5504640  31.8864115  77.0504638  68.1276141
  38.2056494  78.5713855  64.6974392  37.8759824  79.0224998  64.0278090
  37.5301496  78.4930018  65.2447398  38.0566930  78.6264990  64.6797615
  45.4132902  74.5599378  62.9424002  45.0986343  75.2502856  63.3744425
  44.8959843  74.5044160  62.2409503  45.2897372  74.6534266  62.9020951
  36.4112448  76.6326143  60.1797339  37.1658416  77.0004460  59.9414390
  36.2339983  77.0065698  60.9476519  36.4966926  76.7424331  60.2582228
  34.7669513  79.0396462  56.8775452  34.5845086  79.2568343  56.0516445
  35.6295126  79.1535475  56.9334067  34.8674102  79.0886360  56.7629939
  40.4469232  76.0422873  59.9124476  41.1755392  75.8638828  59.4662632
  40.5364125  76.8840953  60.1231654  40.5675894  76.1406751  59.8777994
  35.5163519  77.4552346  62.7585524  34.6485944  77.5274946  62.8243133
  35.8038723  78.2574425  62.9473499  35.4303267  77.5846493  62.7960290
  42.6847328  78.0312730  61.7594105  43.3873681  77.8320478  61.2814064
  42.4191517  77.2588672  62.0662949  42.7493961  77.8875696  61.7339547
  44.8307437  72.6693399  64.8890652  44.9491006  73.1269863  64.1557955
  44.6569613  71.8638661  64.6026870  44.8226608  72.6187172  64.7391586
  41.7985001  74.5244202  65.8309314  40.9278559  74.4982923  65.7842623
  42.0525342  74.3521394  65.0135160  41.7078561  74.4954346  65.7029451
  41.3060204  78.8040870  58.9571463  41.7603951  78.9751430  59.6819308
  41.7800250  78.1908980  58.5569239  41.4428524  78.7391755  59.0045225
  40.5652800  77.3033663  65.0948332  39.7188845  77.4756471  64.9689682
  40.5623932  76.4983007  65.4314160  40.4399949  77.2094692  65.1259459
  43.5634600  81.9745432  59.0236144  43.0357618  82.0574176  58.3341853
  44.0230308  82.7163303  59.0200788  43.5536450  82.0966094  58.9210839
  37.5370779  79.6687568  56.8641102  37.8586620  79.1890651  56.2100365
  37.7997722  80.4787214  56.6731914  37.6236804  79.7177466  56.7396594
  41.3724157  75.5274862  62.6355158  40.7292474  75.3772508  63.2040297
  41.0323563  75.2817207  61.8704263  41.2269234  75.4686985  62.6058174
  38.5630293  78.4754471  59.1388728  39.3845987  78.6452784  58.8970423
  38.0999944  78.6301732  58.4155025  38.6161455  78.5236204  58.9960372
  15.0534096  15.0181345  47.9071125  15.0228100  15.8725982  48.0789394
  15.6515444  14.7176638  48.4657269  15.1371253  15.0997842  48.0145927
   8.2533780  14.1056996  52.6624055   7.3971676  14.2665495  52.7133172
   8.3001434  13.2349060  52.6829116   8.1332892  14.0007798  52.6730121
   2.6374920  23.6419714  48.4261287   1.8857820  23.2635253  48.1977332
   3.0860932  23.6738148  47.6780097   2.5924587  23.5905322  48.2818789
  11.5627497  20.3743522  62.2684511  12.2694264  19.8795553  62.3971446
  11.7515432  20.8152604  61.5387169  11.6955403  20.3661872  62.1793557
   8.0899880  24.0645084  43.8546834   7.7551248  24.7422005  43.4191056
   8.6026750  23.6750395  43.2663706   8.1165461  24.1069662  43.7033625
   7.6304171  26.0159353  49.7957946   8.0143551  26.5846251  49.2562721
   7.5663313  25.2908863  49.3163762   7.6777599  25.9934816  49.6451808
  11.0985601  16.1649040  55.3055707  11.6441561  16.8434127  55.3649677
  11.0402478  16.0236501  54.4457288  11.1701516  16.2441042  55.1867768
   4.2159676  23.6538107  50.6924059   4.3170039  22.8438460  51.0021187
   3.6201422  23.5595053  50.0623738   4.1432215  23.5203135  50.6450298
  12.8750670  17.5933647  46.1789435  12.7590196  18.3441334  46.6081573
  13.6706557  17.3357601  46.4285522  12.9755260  17.6668494  46.2793526
   4.0560416  28.5715696  52.0938915   4.6997871  29.0128860  52.4835074
   4.3816671  27.7669122  52.0069174   4.1992245  28.5180890  52.1384393
   4.7580996  21.5827671  47.4658777   5.0796837  22.1232878  46.8620085
   5.4053092  21.0124442  47.5981067   4.9007051  21.5786846  47.3965813
   6.8082704  13.5843665  47.5493164   7.5062868  13.7631793  48.0414627
   7.1235036  13.0614005  46.9263553   6.9578041  13.5337438  47.5295174
   6.9970639  19.9714111  47.5372955   7.4364275  19.3631211  47.9827728
   6.8475302  19.5921484  46.7658420   7.0392105  19.8252582  47.4892123
   4.4642282  18.5658122  54.7391781   5.1091285  18.0730565  54.4202729
   4.7044059  18.7082909  55.5657859   4.5952867  18.5135565  54.8141314
   7.0028373  21.4113028  54.3898673   7.2851616  20.6164434  54.1685429
   7.7314534  21.8893616  54.4103734   7.1517937  21.3647625  54.3601689
  10.5979976  18.3241292  44.4903725  10.5131271  19.1802258  44.6353293
  11.0864359  18.0485616  45.1585884  10.6568873  18.4098613  44.6105806
  12.1885975   4.9421585  49.8764049  11.8739416   5.6325064  50.3084471
  11.6712917   4.8866367  49.1749550  12.0650445   5.0356474  49.8360998
  11.5298409  14.9426086  45.9901460  11.0009880  15.1585719  46.6498766
  12.0523429  15.6362224  45.9102429  11.5286862  15.0769223  46.0757059
  16.9846462  20.5172390  51.3634504  16.1544165  20.7283034  51.5267921
  16.9355714  19.6909445  51.0876788  16.8553197  20.4261997  51.3471870
   3.4198017  18.8389303  44.7908928   2.8355232  19.3439334  45.1974792
   3.0168112  18.6131690  44.0505520   3.2737320  18.8797551  44.7413953
   5.0456199  23.3476245  54.1982414   4.5283141  22.9883660  53.5943722
   5.7430591  22.8238419  54.2088480   5.0721780  23.2173933  54.1112672
   8.7019791  23.7971059  60.1598587   8.7903137  23.6097199  61.0076797
   9.1309504  23.1508488  59.7603434   8.7781894  23.6734066  60.2270338
   6.2690251  23.0802219  59.1416249   5.7061086  22.6674828  59.6655910
   7.0311275  23.0055124  59.5609392   6.2984700  23.0079619  59.2809249
   7.8775231  15.0854955  43.2677848   8.1171235  15.2932939  42.4553191
   8.1991072  14.2812464  43.3766793   7.9612389  14.9969056  43.1638401
   1.8286243  25.0700240  51.7452879   2.5306822  24.5552229  51.8025636
   1.7483726  25.3974391  52.5499754   1.9210003  25.0414466  51.8725671
  16.4800420  13.1642791  55.1584926  15.6428841  13.2344978  55.3932520
  16.4488651  13.1667286  54.2859228  16.3518702  13.1753018  55.0644474
   1.1537018  21.2606592  51.2538487   1.9925917  21.4929525  51.3012249
   1.1848787  20.3910903  51.1845523   1.2818736  21.1663538  51.2503132
   1.7789721  21.6807467  55.5551793   2.3187946  21.5378598  56.2255165
   1.0959667  22.0804218  55.9235819   1.7581875  21.7187138  55.7086214
  11.2030606  17.3598468  50.7496817  11.9588121  17.7929982  50.7885726
  11.3092930  16.7103237  51.3231453  11.3300776  17.3275951  50.8394843
   8.8139851  23.2280078  62.8242370   9.5980267  23.3410925  63.1898112
   8.6136445  22.4021215  63.0201056   8.9005876  23.1226797  62.9076756
  14.1608260   8.2285573  53.7428648  14.8034168   8.2983677  54.3290563
  14.4131281   7.5614796  53.2408190  14.2930392   8.1411921  53.7555927
   1.0884613  12.6992842  42.3237972   0.3742790  12.4131022  42.7360405
   1.5728582  13.0389468  42.9644360   1.0543976  12.7074492  42.4793607
   8.9710244  25.1390180  56.4708826   8.1725490  24.8989680  56.7282695
   9.4196255  25.1904573  57.2175874   8.9184855  25.1112571  56.6193750
  17.3755123  17.9052665  50.3918857  18.0371557  17.3443333  50.2914766
  16.7346535  17.4104695  50.7171548  17.3783991  17.7489074  50.4251197
   8.2631931  21.2022796  42.6999780   8.6783079  20.8707820  42.0084276
   7.4323861  20.9691698  42.5719917   8.2019940  21.1194052  42.5790628
  13.6619954  18.9218047  50.1330846  13.8975543  19.0663246  49.3057697
  13.8109518  19.6860455  50.5262360  13.7185757  19.0557102  50.0694450
  15.4910411  17.7619713  47.9700450  15.8218628  18.2947353  47.3640545
  16.0643499  17.8158601  48.6262401  15.6244090  17.8489282  47.9778232
  10.7042300  15.6084616  48.6524030  10.7989154  16.3473910  49.1063655
  10.0801143  15.1802091  49.0858594  10.6251330  15.6545936  48.7832177
   8.9594774  18.7870828  59.3014311   9.5333635  18.1498073  59.4562875
   8.8809577  18.7874911  58.4323968   9.0328008  18.6935940  59.1960722
  10.9565321  17.4533356  41.8860982  10.8745484  17.5235543  42.7515969
  11.5945042  18.0163099  41.6944723  11.0385158  17.5472327  41.9850931
   4.3158492  17.2194094  51.3535508   4.0577736  16.3865828  51.3266808
   4.3706975  17.4451706  50.5128009   4.2858270  17.1291865  51.2255645
   9.3959542   9.3222544  51.4539601   8.6915869   8.8331730  51.6123520
   9.4444517   9.3345019  50.5828045   9.2989594   9.2512192  51.3478941
   3.2893204  14.7731856  51.8400403   2.7142796  14.9324024  52.4764364
   2.9128881  14.1367265  51.3768854   3.1496017  14.7029669  51.8654961
   6.9566493  13.2455205  56.6992781   6.5680926  12.8209423  56.0444973
   6.2921191  13.4937355  57.2069808   6.8013421  13.2193926  56.6780649
  16.5989762  13.0030210  49.4740611  16.3426327  12.1910151  49.2838494
  17.4419076  13.0107777  49.2470799  16.6855788  12.8842207  49.4125429
  10.7792855   6.9429834  54.2116766  11.1603366   6.2608005  54.5984640
   9.9756139   6.6539436  54.0292430  10.7169316   6.7996883  54.2420822
   8.0605431  17.4753810  44.8969588   8.8746070  17.7668703  44.7852360
   7.9964573  16.8213672  44.3227881   8.1708170  17.4219005  44.7958426
  14.2814921  20.1579806  59.3099164  14.0453559  19.3267871  59.1911225
  14.9258150  20.1065413  59.8954008  14.3409592  20.0277494  59.3785058
   3.9313340  20.9475327  50.0241900   4.5687286  20.7087075  50.5693694
   4.3568411  21.1512486  49.2895061   4.0889506  20.9426338  49.9959058
   4.5716155  16.1677617  44.3616790   4.9561307  15.9485324  45.1133335
   4.3227775  16.9940562  44.4917866   4.5918227  16.2575763  44.4917866
  15.3051342  19.9424255  55.3727459  14.9997159  20.6752312  55.7340774
  14.5857558  19.5362184  55.0920245  15.1538684  19.9905988  55.3840596
   6.3134811  21.4247750  51.7035687   6.3873820  21.2622922  52.5577537
   7.1304318  21.6137939  51.4596168   6.4451170  21.4284492  51.7933712
   4.8539397  24.3882493  46.4349160   5.1437696  23.9971474  45.7108387
   5.5842878  24.5699198  46.8754435   5.0046281  24.3576307  46.3931967
  18.7911752  15.3561642  52.9742397  19.3419673  14.7229711  53.2139489
  18.7755867  15.8877034  53.6657901  18.8696948  15.3410590  53.1121255
   5.4434142  19.1900239  57.5202291   4.9445836  19.9016007  57.5987179
   6.2534367  19.5100905  57.4820453   5.4890249  19.3427088  57.5258859
   2.7945313  26.3649875  49.5009310   2.5745608  26.0747230  50.2935977
   2.5739835  25.7064830  48.9727222   2.7292907  26.2249584  49.5398219
   1.7062260  18.4523192  51.7665012   1.4175509  17.8260663  52.3010739
   2.5745608  18.3943479  51.8329692   1.7922512  18.3510736  51.8555966
  12.4940158  13.5957975  52.0846993  12.1504924  12.8748311  52.4354243
  12.5933200  13.3871826  51.2425352  12.4582201  13.4582179  52.0118673
   4.9613268  27.7379265  48.2840002   5.6137327  27.2055708  48.5131028
   4.2638877  27.3847918  48.6707876   4.9543986  27.6068788  48.3752170
   1.9094533  20.0918443  47.6907377   2.6640501  20.4731482  47.9042839
   1.3165146  20.5429587  48.1454073   1.9331247  20.2147270  47.7890255
  12.9553187  20.0583679  47.6270981  13.5211219  20.7176889  47.5429524
  12.3081090  20.4033377  48.0987384  12.9431943  20.2065621  47.6843738
   3.2292760  21.2627004  53.0647492   2.7073513  21.4027296  53.7499357
   3.6166780  20.5037669  53.2549609   3.2096461  21.1712528  53.1948568
   9.4259765  23.0022464  47.0508061   9.1846441  22.2690324  46.6435126
   9.6061098  23.5509321  46.3974394   9.4167389  22.9744855  46.8938284
   4.6559086  18.2931023  48.4628983   4.4601868  18.9005758  47.8689286
   4.8793431  17.5998967  47.9820657   4.6593727  18.2808549  48.3045064
   3.0537616  15.1785761  48.5809851   3.7760267  15.3426919  48.1213657
   2.5745608  15.8995426  48.4749191   3.0901346  15.3083991  48.4975465
  11.0131123  11.5149560  53.9606536  10.1742224  11.5410839  53.7244800
  11.0835490  12.1620295  54.5411883  10.8999517  11.6145686  54.0115653
   0.7045232  17.5843834  57.6863991   1.2166329  17.8628087  57.0372751
   0.4181575  18.3233128  58.0526804   0.7380095  17.7346187  57.6453869
   9.4600401   8.4134937  48.6934152  10.1626754   8.2142685  48.2154110
   9.1944590   7.6410879  49.0002996   9.5247034   8.2697903  48.6679594
  14.8888647  16.7217547  51.2467778  14.8022622  16.8772973  52.1002557
  14.4339127  17.3655622  50.8727183  14.8091904  16.8393302  51.3174885
   8.7614463  14.0428294  49.8693338   8.5149177  13.9624045  50.7030126
   9.0899586  13.2581762  49.6755865   8.7735707  13.9154559  49.9640861
  12.6562512  20.7511653  53.6580119  12.5176871  21.4492699  54.1628861
  11.8762510  20.5960310  53.3016301  12.5205739  20.8311820  53.6806393
  10.9940597  17.0508029  59.9102500  10.9888635  16.1787845  59.9144927
  11.7001591  17.2496198  59.4371956  11.0985601  16.9511903  59.8409536
   4.7211490  16.7785012  59.2816321   4.8654866  17.3586221  58.6459431
   5.0687139  17.1561309  59.9866175   4.7938952  16.9205717  59.2915316
   6.8931408  15.9775181  57.0641452   6.1454722  16.1706195  56.6589730
   7.0472933  15.1520400  56.8265573   6.8053835  15.8840292  56.9686858
   3.7939245  24.9687784  56.1477347   3.9428809  24.4090700  55.4950752
   4.5739247  25.0479786  56.5309866   3.9313339  24.8973350  56.1074297
  14.1515885  20.1089907  44.4196618  13.7722693  19.3227045  44.4125907
  13.4882130  20.6576764  44.2768262  13.9974359  20.0734731  44.3977415
   6.3192546  25.1402427  57.4261838   6.2436217  24.4711238  57.9812627
   6.2482405  25.8420215  57.9402505   6.2973153  25.1447335  57.5838686
   6.9762793  23.6603426  48.2585444   7.7412684  23.3913070  47.9368108
   6.8740883  23.1753436  48.9755507   7.0744288  23.5492991  48.3165272
   5.0115563  11.8627836  54.7978680   4.2211637  11.6819296  55.1196016
   5.4076185  11.0854788  54.7808974   4.9532439  11.7215296  54.8431228
   9.4981453  20.6915610  40.2385394  10.2654439  20.7515735  39.8291245
   9.0512762  20.1196051  39.7541712   9.5454881  20.6152186  40.1063104
  10.3959249  19.4970266  52.5238126   9.7204251  19.2655498  53.0251513
  10.4051625  18.8891449  51.8980231  10.2977753  19.3729191  52.5054278
   7.5253393  14.3388095  59.2802179   7.4612534  15.1998051  59.1522316
   7.6650581  14.0220088  58.4797730   7.5368863  14.4188261  59.1430392
  12.3975983  22.3535398  44.7548304  12.4795821  23.1602384  44.4309755
  12.8825726  22.3731357  45.4789077  12.4813141  22.4756060  44.8135202
   6.2072487  17.0320234  53.4218382   5.7834736  17.2324733  52.6857400
   6.0317342  16.1849082  53.5342682   6.1183367  16.9369015  53.3292072
   5.7084180  28.5470747  55.8839839   6.1980111  27.8481536  55.7015504
   5.1368413  28.2494617  56.4715896   5.6968710  28.3996971  55.9440880
   1.4954932  17.5272285  48.8546354   1.6519551  17.4619088  49.7102346
   1.8355525  18.3020838  48.6425034   1.5688167  17.6321484  48.9500948
   8.0334076  16.9030169  47.7239718   8.5749622  16.4000550  48.1878338
   8.3480635  16.8495364  46.9129203   8.1598473  16.8209590  47.6723530
  11.9051184  21.1132816  64.8366630  12.7186049  20.8417965  64.9971762
  11.7446150  20.8140356  64.0326826  12.0021132  21.0287742  64.7412036
   6.2020526  22.2947521  45.0079746   6.2713346  21.4362059  45.1472746
   6.9808981  22.5119401  44.6798770   6.3273376  22.2000385  44.9796903
   9.1823346  11.7966474  57.7762018   9.3965315  11.1577388  57.2225372
   8.5657245  12.2412297  57.3469880   9.1228675  11.7676617  57.6312449
  10.5928014  24.7185222  49.2216239  10.2007805  24.4151937  48.5039105
  10.7481086  25.5554312  49.0321193  10.5581603  24.7969059  49.0872736
  11.3462434  13.4055539  58.7145325  10.5339115  13.0981429  58.7958498
  11.8052368  12.9254539  59.2788037  11.2942819  13.2892031  58.8099919
  10.7567688  21.2835211  49.1622269  10.3982343  21.4549854  49.9386302
  10.2706399  21.7448416  48.6050268  10.6326385  21.3774182  49.1947539
   5.5456054  16.9634376  41.7022504   5.8348579  17.7399259  41.9766078
   5.6327853  16.4523108  42.4037003   5.6010310  17.0026294  41.8465002
  11.9172428  22.1739107  60.1089470  12.5552148  21.6799302  59.7751926
  11.2746519  22.1016507  59.5241697  11.9166654  22.0898115  59.9731825
  13.6429428  14.0228253  54.6755386  13.2157036  13.9354601  53.9203485
  13.0055481  14.1306028  55.2610230  13.4859035  14.0260912  54.6500827
  11.9726684  22.8658915  56.7494827  12.7619063  22.5147980  56.8696909
  12.1470282  23.6795303  56.4871461  12.1146966  22.9344772  56.7282695
   1.7119995  16.2767641  53.8022616   0.8708001  16.1771515  54.0101510
   1.9210003  17.0463121  54.1536937   1.6184687  16.3759684  53.8849931
  10.8260509   6.8768472  51.3111245  11.0310102   6.8090779  52.1568243
  10.4986933   7.6827293  51.2432423  10.8075756   6.9854412  51.4270901
   5.5236660  14.2049040  53.0520213   5.2199797  13.6505028  53.6530621
   4.8216080  14.3841250  52.5648248   5.3752869  14.1493822  53.0689919
   4.5802757  11.5149560  47.6164915   4.8562491  10.7968472  47.2042483
   5.1801426  12.1134480  47.4086021   4.7096021  11.4969930  47.5245676
   3.5855011  21.4198761  57.7592311   3.4775366  21.4300823  58.6254369
   3.7950792  22.2453541  57.5697265   3.6005122  21.5439835  57.8596403
  14.0794196   7.4300236  50.7914011  13.4668510   7.9170638  51.1767743
  14.1758371   6.7543727  51.3351662  14.0032094   7.4018545  50.9292869
   8.0813277   9.1863077  45.8911510   8.5357024   9.3573637  46.6159355
   8.5553323   8.5731188  45.4909286   8.2181597   9.1213962  45.9385272
   1.6028803  18.6711403  55.2214249   1.0116736  19.3120901  55.1917264
   2.3649826  19.0949020  55.1945548   1.6277063  18.8287241  55.2129396
  17.7219224  18.5017173  56.2191527  17.7802348  18.9503821  56.9651504
  17.0885692  18.9115985  55.7821607  17.6370519  18.6290907  56.2644075
  11.3618319  24.1220715  52.6546273  11.1638008  24.6111529  51.9602485
  10.7406030  24.3261956  53.2330407  11.2405883  24.2237253  52.6369496
   5.4226297  15.8905611  46.9956518   6.1668342  16.2779888  47.2339467
   5.5686993  15.0463037  47.1597005   5.5536882  15.8236084  47.0550487
   8.4104173  11.4631085  52.8950437   7.9364127  10.9372847  53.4055748
   8.7822309  10.9160558  52.3265298   8.3954062  11.3047081  52.8865584
  14.6740904  16.5233460  54.3057217  14.4339127  15.6839875  54.3099644
  15.1532911  16.6033627  55.0297991  14.7093087  16.4114860  54.4132020
  10.3387673  12.3567639  45.9576191   9.8110691  12.4396383  45.2681899
  10.7983381  13.0985511  45.9540835  10.3289523  12.4788302  45.8550886
  16.6746091  13.3034918  52.2586476  16.4355861  13.2630752  51.4207261
  16.8379992  14.1506070  52.3852198  16.6636394  13.4227003  52.1539958
  13.2792121  17.6884867  58.1891522  14.0026320  17.2357393  58.0102542
  13.0142083  17.9689533  57.4063849  13.3473394  17.6635835  58.0470237
   2.1478989  12.2845040  54.9244401   1.5232059  12.2963432  54.3170353
   1.8124584  12.7605216  55.5735641   2.0064481  12.3563557  54.9300969
   9.8924755  20.9271203  45.0885848  10.6158954  21.3929316  44.9450421
   9.4525346  20.9944812  44.3383445   9.9340447  21.0055040  44.9570629
   9.0610910  17.7868745  56.3386537   8.4467903  17.2426795  56.6335172
   9.5778195  17.2732982  55.8592353   9.0466573  17.6305154  56.3110765
   8.3007208  18.8573015  54.0730835   7.8734816  18.2322734  53.6396271
   8.2932152  18.5747937  54.8989843   8.2366349  18.7225796  54.1310663
   6.6292917   9.7341770  54.2873369   6.6535404   9.2001882  53.5986149
   6.8804391   9.2259078  54.9498960   6.6702836   9.5802674  54.2838014
   4.3308603  14.9773098  55.9653013   3.5000532  15.1446916  55.7588261
   4.2760120  14.6009049  56.7501898   4.1998018  14.9462829  56.0501541
   2.7044647  13.2528689  46.4943130   2.8447608  13.7501154  47.1971772
   3.2027179  12.5514984  46.6357344   2.7985728  13.2230668  46.6194709
   2.7344869  14.1195800  43.8235707   3.3689948  14.7156225  43.7585169
   2.8170480  13.8199258  44.6381577   2.8401420  14.1636708  43.9338794
  15.7127435  16.6511278  56.6922071  16.3045275  17.2908528  56.7240269
  16.1486429  15.9534314  56.9814138  15.8645866  16.6429628  56.7402904
   4.3123852  10.0509776  43.7981149   4.6339693   9.5712858  43.1440411
   4.5750796  10.8609422  43.6071961   4.3989877  10.0999674  43.6736641
   7.5420825  21.0728650  57.3179965   7.0345916  21.6264497  57.7620596
   7.2447471  21.1336940  56.4998740   7.4225710  21.1634961  57.2628422
   9.7083007   9.4381970  56.1604628  10.1338078   8.9854496  55.5488155
   9.0940000   8.8842040  56.4369416   9.6811652   9.2895946  56.1109654
  10.1528605  24.9891908  45.2483909   9.4357915  24.8152770  44.7831146
  10.8035343  24.7544480  44.7159395  10.1430455  24.9287700  45.1013127
  12.7376576  13.8656496  48.9925214  12.0667766  14.4086199  48.8638279
  13.4316326  14.3351352  48.7506909  12.7405444  14.0154768  48.9380742
   6.7863310  26.0053208  54.2236972   6.5628964  25.2472038  54.5920998
   6.2973153  26.0351229  53.5017412   6.6806759  25.8975433  54.1713713
  12.9004704  10.3212380  51.9015587  13.2532314   9.8942103  52.5761386
  12.0419505  10.2363223  52.0316663  12.8254148  10.2457121  52.0210598
   1.5988389  12.9519900  49.9598434   0.8800378  13.3684032  50.2271297
   1.9700751  13.5174138  49.4090072   1.5480320  13.0969181  49.9181241
  10.8987969  13.5847749  55.8500429  10.8785897  13.4031044  56.7035208
  10.9467170  14.4559767  55.8260013  10.9022610  13.6864287  55.9723724
   8.8434299  20.1734941  61.7748906   8.8030154  19.5284617  61.1894062
   9.6557618  20.1171558  62.0874318   8.9577453  20.0693907  61.7345855
   5.4341767  26.2253666  51.6774057   5.0202165  25.5627797  51.2877898
   6.1189141  26.3731525  51.1569751   5.4740139  26.1494325  51.5430554
   8.8007061  25.3843752  52.4297673   8.4023344  25.4946022  51.6618494
   8.1858281  25.5925818  53.0124233   8.6505950  25.4317320  52.4028973
   7.3734963  11.9917900  45.2971813   6.7799802  12.3134896  44.7456380
   7.4110241  11.1458995  45.0892919   7.2909352  11.9142228  45.1854584
  14.3328764   5.4430792  52.8299900  13.8259628   4.7359931  52.7621077
  15.1296197   5.1123981  52.9600976  14.3756003   5.2903943  52.8398895
  10.2492780  11.9497404  48.7273563  10.0206473  11.9730105  47.8851922
  10.5090856  11.1254871  48.8468574  10.2538968  11.8313484  48.6198761
   3.3037542  10.4873950  50.0227759   3.7794908  10.8491030  49.3877940
   2.8026142  11.1430418  50.3027902   3.3002901  10.6368139  49.9704500
  16.5348904  19.9595718  45.8140764  16.9182509  20.7087075  46.0438861
  15.7393017  20.2061538  45.5552753  16.4742686  20.1065412  45.8098338
   5.3464195  12.6315150  43.3901143   5.7263160  12.6494779  42.6052258
   4.6056791  13.0769139  43.2691990   5.2933033  12.6996925  43.2564711
  12.9749486  10.9397341  48.9776722  12.9743712  10.7845998  49.8360998
  12.7705666  11.7860328  48.9218107  12.9449264  11.0417962  49.0964661
  10.6990338  15.6194843  52.6312928  11.1944003  14.9017838  52.5916949
   9.8890114  15.3165641  52.5167415  10.6534231  15.4692489  52.6086654
   6.1448949  19.4692656  44.7809933   5.3360272  19.1459330  44.7343242
   6.6523858  18.7625878  44.7138182   6.0998616  19.3173973  44.7640227
  12.7642157  18.3698531  55.3190057  13.1897228  17.8472952  54.7660482
  12.3999077  18.9679368  54.7978680  12.7728759  18.3808758  55.1599067
   2.3996236  26.6662748  54.0787403   2.7142795  27.4799137  54.0865184
   2.8089650  26.2812967  54.7469562   2.5064334  26.7291450  54.1791494
   9.3520756  22.0832795  51.6491215   9.8231934  22.7973057  51.8181200
   9.6880935  21.4831545  52.1851084   9.4715871  22.1004259  51.7523591
  11.4397741  23.6934108  63.8283287  11.5494706  22.9042669  64.1840034
  11.7688637  23.6040044  63.0257625  11.5050147  23.5639961  63.7625678
   9.9894702  21.8750729  58.4118907   9.4415648  21.2508613  58.1438973
  10.4507731  22.0645001  57.6962987   9.9761912  21.8109779  58.2669338
  12.7988567   9.9436083  55.7970100  12.2151556  10.4445290  55.3847667
  13.1192861   9.4365640  55.1634423  12.7601742   9.9427918  55.6428607
   5.3383366   8.8576678  46.0728774   6.1599060   9.0274991  45.8310469
   4.8753017   9.0123939  45.3495072   5.3914528   8.9058411  45.9300419
  26.0266679  30.5366653  47.9071125  25.9960683  31.3911290  48.0789394
  26.6248028  30.2361946  48.4657269  26.1103837  30.6183150  48.0145927
  19.2266364  29.6242304  52.6624055  18.3704259  29.7850803  52.7133172
  19.2734018  28.7534368  52.6829116  19.1065475  29.5193106  52.6730121
  13.6107504  39.1605022  48.4261287  12.8590403  38.7820561  48.1977332
  14.0593515  39.1923456  47.6780097  13.5657171  39.1090629  48.2818789
  22.5360081  35.8928830  62.2684511  23.2426848  35.3980861  62.3971446
  22.7248016  36.3337912  61.5387169  22.6687986  35.8847180  62.1793557
  19.0632464  39.5830392  43.8546834  18.7283832  40.2607313  43.4191056
  19.5759334  39.1935703  43.2663706  19.0898045  39.6254970  43.7033625
  18.6036755  41.5344660  49.7957946  18.9876134  42.1031559  49.2562721
  18.5395896  40.8094171  49.3163762  18.6510182  41.5120124  49.6451808
  22.0718185  31.6834348  55.3055707  22.6174145  32.3619435  55.3649677
  22.0135061  31.5421809  54.4457288  22.1434099  31.7626350  55.1867768
  15.1892260  39.1723414  50.6924059  15.2902623  38.3623768  51.0021187
  14.5934005  39.0780361  50.0623738  15.1164799  39.0388443  50.6450298
  23.8483254  33.1118955  46.1789435  23.7322780  33.8626642  46.6081573
  24.6439140  32.8542909  46.4285522  23.9487843  33.1853802  46.2793526
  15.0292999  44.0901004  52.0938915  15.6730455  44.5314168  52.4835074
  15.3549255  43.2854430  52.0069174  15.1724828  44.0366198  52.1384393
   8.3857304  35.1943701  50.3176393   8.1507489  34.3611353  50.2108662
   8.5242945  35.4748367  49.5037594   8.3712967  35.1127204  50.1818748
  10.6847392  27.3629432  53.2160701  10.0652423  26.7722079  53.0470716
  10.5831255  27.9540867  52.5825024  10.5785067  27.3633514  53.0965690
  15.7313579  37.1012978  47.4658777  16.0529420  37.6418186  46.8620085
  16.3785676  36.5309750  47.5981067  15.8739634  37.0972154  47.3965813
  17.7815287  29.1028973  47.5493164  18.4795452  29.2817101  48.0414627
  18.0967620  28.5799313  46.9263553  17.9310624  29.0522746  47.5295174
  10.4116525  30.9081713  55.4604270  10.2875221  31.4944159  56.0954089
  11.0634809  30.4141909  55.7616545  10.4890174  30.9220518  55.5990199
  17.9703223  35.4899418  47.5372955  18.4096858  34.8816519  47.9827728
  17.8207885  35.1106792  46.7658420  18.0124688  35.3437890  47.4892123
  15.4374866  34.0843430  54.7391781  16.0823868  33.5915873  54.4202729
  15.6776643  34.2268217  55.5657859  15.5685451  34.0320872  54.8141314
  17.9760957  36.9298336  54.3898673  18.2584200  36.1349742  54.1685429
  18.7047117  37.4078924  54.4103734  18.1250521  36.8832933  54.3601689
  15.9542151  24.4721370  51.6314438  15.6245481  24.9232514  50.9618137
  15.2787153  24.3937533  52.1787445  15.8052587  24.5272505  51.6137662
  21.5712559  33.8426600  44.4903725  21.4863854  34.6987566  44.6353293
  22.0596942  33.5670924  45.1585884  21.6301456  33.9283921  44.6105806
  23.1618559  20.4606893  49.8764049  22.8472000  21.1510372  50.3084471
  22.6445500  20.4051675  49.1749550  23.0383029  20.5541782  49.8360998
  22.5030992  30.4611394  45.9901460  21.9742464  30.6771027  46.6498766
  23.0256012  31.1547532  45.9102429  22.5019445  30.5954531  46.0757059
  14.3930600  34.3574611  44.7908928  13.8087815  34.8624642  45.1974792
  13.9900695  34.1316998  44.0505520  14.2469904  34.3982859  44.7413953
   9.9474629  40.0729372  51.5932599   9.4642207  40.7979861  51.5692183
  10.7597947  40.3705502  51.7042757   9.9965377  40.2231726  51.6059878
  16.0188783  38.8661553  54.1982414  15.5015725  38.5068968  53.5943722
  16.7163174  38.3423727  54.2088480  16.0454364  38.7359240  54.1112672
  19.6752375  39.3156367  60.1598587  19.7635721  39.1282507  61.0076797
  20.1042087  38.6693796  59.7603434  19.7514477  39.1919374  60.2270338
  17.2422835  38.5987527  59.1416249  16.6793669  38.1860136  59.6655910
  18.0043858  38.5240432  59.5609392  17.2717283  38.5264927  59.2809249
  18.8507815  30.6040263  43.2677848  19.0903818  30.8118246  42.4553191
  19.1723656  29.7997771  43.3766793  18.9344973  30.5154364  43.1638401
  14.1598105  22.5333658  47.1137386  14.9144073  22.9011976  46.8754436
  13.9825639  22.9073213  47.8816566  14.2452583  22.6431846  47.1922275
  12.8018826  40.5885548  51.7452879  13.5039405  40.0737537  51.8025636
  12.7216309  40.9159699  52.5499754  12.8942587  40.5599774  51.8725671
  13.8497733  30.8261135  60.8733294  14.0218236  30.7167029  61.7218576
  14.3867090  31.4715540  60.6364486  13.9542737  30.9053136  60.9638391
  12.5155170  24.9403977  43.8115499  12.3330743  25.1575858  42.9856492
  13.3780783  25.0542990  43.8674114  12.6159759  24.9893875  43.6969986
  12.1269602  36.7791900  51.2538487  12.9658501  37.0114832  51.3012249
  12.1581371  35.9096211  51.1845523  12.2551319  36.6848846  51.2503132
  12.7522305  37.1992775  55.5551793  13.2920529  37.0563906  56.2255165
  12.0692251  37.5989526  55.9235819  12.7314458  37.2372446  55.7086214
  18.1954889  21.9430388  46.8464523  18.9241049  21.7646343  46.4002679
  18.2849782  22.7848468  47.0571701  18.3161551  22.0414267  46.8118041
  22.1763189  32.8783776  50.7496817  22.9320704  33.3115290  50.7885726
  22.2825514  32.2288545  51.3231453  22.3033360  32.8461259  50.8394843
  25.2143361  36.7057053  51.4999220  24.7778592  36.7093795  52.2558191
  24.8806276  37.3862552  51.0678797  25.1005980  36.8069509  51.5480053
  19.7872434  38.7465386  62.8242370  20.5712851  38.8596233  63.1898112
  19.5869029  37.9206523  63.0201056  19.8738460  38.6412105  62.9076756
   8.1559450  33.4193066  55.7086214   7.8897865  32.6032182  55.8677204
   8.1698014  33.4646221  54.8381730   8.1184172  33.3049970  55.6039696
  25.1340843  23.7470881  53.7428648  25.7766752  23.8168985  54.3290563
  25.3863864  23.0800103  53.2408190  25.2662976  23.6597229  53.7555927
  12.0617197  28.2178150  42.3237972  11.3475374  27.9316330  42.7360405
  12.5461165  28.5574776  42.9644360  12.0276560  28.2259800  42.4793607
  12.9058056  26.9571444  58.3553222  12.2129853  26.4868424  58.6013953
  13.5218383  26.7309748  58.9294929  12.8942586  26.8538576  58.4762374
  19.9442827  40.6575488  56.4708826  19.1458073  40.4174988  56.7282695
  20.3928839  40.7089881  57.2175874  19.8917439  40.6297879  56.6193750
  19.2364514  36.7208104  42.6999780  19.6515663  36.3893128  42.0084276
  18.4056444  36.4877006  42.5719917  19.1752523  36.6379360  42.5790628
   8.5652863  34.2051845  52.9897958   8.3828436  34.1798731  52.1370251
   9.3002532  34.6750783  53.0286867   8.6466927  34.2713207  52.8695877
  24.6352537  34.4403355  50.1330846  24.8708127  34.5848554  49.3057697
  24.7842101  35.2045763  50.5262360  24.6918341  34.5742409  50.0694450
  11.6298615  30.9236848  59.4980067  12.3538587  30.9089879  59.9844962
  11.7314751  31.6332203  59.0002035  11.7516824  31.0261551  59.4958854
  26.4642994  33.2805021  47.9700450  26.7951211  33.8132661  47.3640545
  27.0376082  33.3343909  48.6262401  26.5976673  33.3674590  47.9778232
  19.0043564  34.4035933  64.3629014  18.2116545  34.7179444  64.5481634
  19.1192491  34.6187401  63.5249799  18.9038975  34.4819769  64.2667349
  21.6774883  31.1269924  48.6524030  21.7721738  31.8659218  49.1063655
  21.0533727  30.6987399  49.0858594  21.5983913  31.1731244  48.7832177
  19.9327357  34.3056136  59.3014311  20.5066219  33.6683381  59.4562875
  19.8542161  34.3060219  58.4323968  20.0060592  34.2121248  59.1960722
   8.5323774  31.0845346  53.1397025   9.1097276  30.9481797  53.7789270
   7.8337835  30.6281130  53.3942609   8.5144795  30.9967612  53.2719315
  21.9297905  32.9718664  41.8860982  21.8478067  33.0420851  42.7515969
  22.5677625  33.5348407  41.6944723  22.0117742  33.0657635  41.9850931
  15.2891076  32.7379401  51.3535508  15.0310320  31.9051136  51.3266808
  15.3439559  32.9637014  50.5128009  15.2590854  32.6477173  51.2255645
  20.3692126  24.8407852  51.4539601  19.6648453  24.3517038  51.6123520
  20.4177100  24.8530327  50.5828045  20.2722177  24.7697500  51.3478941
  14.2625788  30.2917164  51.8400403  13.6875379  30.4509332  52.4764364
  13.8861464  29.6552573  51.3768854  14.1228600  30.2214977  51.8654961
  17.9299077  28.7640513  56.6992781  17.5413509  28.3394731  56.0444973
  17.2653775  29.0122663  57.2069808  17.7746004  28.7379234  56.6780649
  27.5722346  28.5215518  49.4740611  27.3158911  27.7095459  49.2838494
  28.4151660  28.5293085  49.2470799  27.6588371  28.4027515  49.4125429
   4.0082607  29.9357239  49.8544844   4.0942859  29.5589107  50.6358374
   4.6358404  29.5617684  49.3764802   4.1139158  29.8242721  49.8990321
  21.7525438  22.4615142  54.2116766  22.1335950  21.7793313  54.5984640
  20.9488722  22.1724744  54.0292430  21.6901900  22.3182190  54.2420822
  19.0338015  32.9939118  44.8969588  19.8478654  33.2854011  44.7852360
  18.9697156  32.3398980  44.3227881  19.1440754  32.9404313  44.7958426
  25.2547505  35.6765114  59.3099164  25.0186142  34.8453179  59.1911225
  25.8990734  35.6250721  59.8954008  25.3142176  35.5462802  59.3785058
  14.9045923  36.4660635  50.0241900  15.5419870  36.2272383  50.5693694
  15.3300995  36.6697794  49.2895061  15.0622089  36.4611645  49.9959058
   9.5958565  38.7048972  53.9076204   9.6362711  38.9763823  53.0795984
  10.1553090  39.2290880  54.3233992   9.6841911  38.8224727  53.8468092
  15.5448738  31.6862925  44.3616790  15.9293891  31.4670632  45.1133335
  15.2960358  32.5125870  44.4917866  15.5650811  31.7761071  44.4917866
  15.7117279  24.9669340  64.0779374  15.3970720  25.7368903  63.8148937
  15.3907211  24.4039596  63.4931601  15.6176198  24.9979609  63.9520724
  17.2867395  36.9433058  51.7035687  17.3606403  36.7808230  52.5577537
  18.1036901  37.1323247  51.4596168  17.4183754  36.9469800  51.7933712
  11.0473152  37.2890921  48.7330130  10.2211269  37.5352658  48.6064409
  11.1085143  37.2103002  49.5992188  10.9347319  37.3135870  48.8419075
  13.2649175  23.3559862  49.6925570  12.3971601  23.4282461  49.7583180
  13.5524380  24.1581941  49.8813545  13.1788924  23.4854009  49.7300337
  22.3882064  23.5037721  58.0236892  23.1335656  23.3147531  57.6100318
  21.9719369  24.0295959  57.4650749  22.4367038  23.5539866  57.8801465
  15.8271981  39.9067801  46.4349160  16.1170279  39.5156782  45.7108387
  16.5575462  40.0884506  46.8754435  15.9778865  39.8761615  46.3931967
  16.4166726  34.7085547  57.5202291  15.9178420  35.4201315  57.5987179
  17.2266950  35.0286213  57.4820453  16.4622833  34.8612395  57.5258859
  13.7677896  41.8835183  49.5009310  13.5478192  41.5932538  50.2935977
  13.5472418  41.2250138  48.9727222  13.7025491  41.7434892  49.5398219
  12.6794844  33.9708500  51.7665012  12.3908092  33.3445971  52.3010739
  13.5478192  33.9128787  51.8329692  12.7655095  33.8696044  51.8555966
  23.4672741  29.1143283  52.0846993  23.1237507  28.3933618  52.4354243
  23.5665784  28.9057134  51.2425352  23.4314784  28.9767486  52.0118673
  15.9345852  43.2564573  48.2840002  16.5869910  42.7241016  48.5131028
  15.2371461  42.9033226  48.6707876  15.9276570  43.1254096  48.3752170
  12.8827117  35.6103751  47.6907377  13.6373085  35.9916790  47.9042839
  12.2897730  36.0614895  48.1454073  12.9063830  35.7332578  47.7890255
  23.9285770  35.5768987  47.6270981  24.4943803  36.2362197  47.5429524
  23.2813674  35.9218685  48.0987384  23.9164527  35.7250929  47.6843738
  15.3433784  27.5666591  62.8164589  14.5333560  27.8724371  62.7054431
  15.8208471  28.2872174  62.9317173  15.2937263  27.7181192  62.8171660
  14.2025344  36.7812312  53.0647492  13.6806097  36.9212604  53.7499357
  14.5899364  36.0222977  53.2549609  14.1829044  36.6897836  53.1948568
  11.1916528  26.8318121  47.1342447  10.9041323  26.4619391  46.3974394
  11.8786996  27.3012976  46.8726152  11.2505425  26.8465090  46.9857522
  20.3992348  38.5207771  47.0508061  20.1579024  37.7875632  46.6435126
  20.5793681  39.0694628  46.3974394  20.3899972  38.4930163  46.8938284
  15.6291669  33.8116331  48.4628983  15.4334452  34.4191066  47.8689286
  15.8526015  33.1184275  47.9820657  15.6326310  33.7993857  48.3045064
  14.0270199  30.6971069  48.5809851  14.7492851  30.8612227  48.1213657
  13.5478192  31.4180734  48.4749191  14.0633930  30.8269299  48.4975465
  21.9863707  27.0334868  53.9606536  21.1474807  27.0596147  53.7244800
  22.0568074  27.6805603  54.5411883  21.8732100  27.1330994  54.0115653
  11.6777816  33.1029142  57.6863991  12.1898913  33.3813395  57.0372751
  11.3914158  33.8418436  58.0526804  11.7112679  33.2531495  57.6453869
   8.7644722  27.6099333  47.9827728   8.8660859  28.4125495  48.3108703
   9.5600609  27.4086669  47.6850808   8.8972628  27.6985232  47.9863083
  15.1961541  25.1955530  57.7465033  15.0044738  25.2110665  58.5964456
  16.0460137  25.3919204  57.7231688  15.2937263  25.2269881  57.8688328
   9.5808454  27.7246512  55.7248849   9.4393946  26.8730452  55.8493357
   9.8649018  27.7675172  54.9011055   9.6016300  27.6046262  55.6216473
  19.7347047  29.5613602  49.8693338  19.4881761  29.4809353  50.7030126
  20.0632170  28.7767070  49.6755865  19.7468290  29.4339867  49.9640861
  23.6295095  36.2696961  53.6580119  23.4909455  36.9678007  54.1628861
  22.8495093  36.1145618  53.3016301  23.4938322  36.3497128  53.6806393
  21.9673181  32.5693337  59.9102500  21.9621219  31.6973153  59.9144927
  22.6734174  32.7681506  59.4371956  22.0718185  32.4697211  59.8409536
  15.6944074  32.2970320  59.2816321  15.8387450  32.8771529  58.6459431
  16.0419722  32.6746617  59.9866175  15.7671535  32.4391024  59.2915316
  17.8663991  31.4960489  57.0641452  17.1187305  31.6891503  56.6589730
  18.0205516  30.6705708  56.8265573  17.7786419  31.4025600  56.9686858
  14.7671829  40.4873092  56.1477347  14.9161393  39.9276008  55.4950752
  15.5471831  40.5665094  56.5309866  14.9045923  40.4158658  56.1074297
  25.1248468  35.6275215  44.4196618  24.7455277  34.8412353  44.4125907
  24.4614714  36.1762072  44.2768262  24.9706943  35.5920039  44.3977415
  17.2925130  40.6587735  57.4261838  17.2168801  39.9896546  57.9812627
  17.2214989  41.3605523  57.9402505  17.2705736  40.6632642  57.5838686
  18.1065768  25.3911040  57.9536856  18.5638382  26.1235014  58.0809648
  18.1822097  24.9677505  58.7124112  18.1856738  25.4368278  58.0837932
  10.3498759  25.6376859  59.0426300   9.8140949  25.0257217  59.3587067
  10.4116524  26.2124995  59.6959966  10.2794392  25.6323787  59.1861726
  22.5793094  18.5700915  51.8230699  22.6976662  19.0277378  51.0898002
  22.4055270  17.7646176  51.5366916  22.5712265  18.5194687  51.6731633
  17.9495376  39.1788734  48.2585444  18.7145268  38.9098378  47.9368108
  17.8473466  38.6938744  48.9755507  18.0476872  39.0678299  48.3165272
  15.9848146  27.3813143  54.7978680  15.1944221  27.2004604  55.1196016
  16.3808769  26.6040096  54.7808974  15.9265022  27.2400604  54.8431228
  21.3691832  35.0155574  52.5238126  20.6936834  34.7840806  53.0251513
  21.3784209  34.4076757  51.8980231  21.2710337  34.8914499  52.5054278
  18.4985976  29.8573403  59.2802179  18.4345118  30.7183359  59.1522316
  18.6383164  29.5405396  58.4797730  18.5101447  29.9373569  59.1430392
  17.1805070  32.5505542  53.4218382  16.7567319  32.7510041  52.6857400
  17.0049926  31.7034390  53.5342682  17.0915951  32.4554323  53.3292072
  16.6816764  44.0656055  55.8839839  17.1712694  43.3666844  55.7015504
  16.1100996  43.7679925  56.4715896  16.6701294  43.9182279  55.9440880
  12.4687515  33.0457593  48.8546354  12.6252134  32.9804396  49.7102346
  12.8088108  33.8206146  48.6425034  12.5420750  33.1506791  48.9500948
  19.0066660  32.4215477  47.7239718  19.5482205  31.9185858  48.1878338
  19.3213219  32.3680672  46.9129203  19.1331057  32.3394898  47.6723530
  22.8783767  36.6318124  64.8366630  23.6918633  36.3603273  64.9971762
  22.7178734  36.3325664  64.0326826  22.9753716  36.5473050  64.7412036
  17.1753110  37.8132828  45.0079746  17.2445930  36.9547367  45.1472746
  17.9541565  38.0304709  44.6798770  17.3005960  37.7185692  44.9796903
  20.1555929  27.3151781  57.7762018  20.3697899  26.6762696  57.2225372
  19.5389829  27.7597605  57.3469880  20.0961259  27.2861925  57.6312449
  21.5660597  40.2370530  49.2216239  21.1740389  39.9337245  48.5039105
  21.7213669  41.0739620  49.0321193  21.5314187  40.3154366  49.0872736
   9.0421777  30.2292544  49.1707121   9.4220742  30.6477089  48.5067389
   8.4677142  30.8106000  49.4775965   9.0133102  30.3770403  49.1183862
  22.3195017  28.9240847  58.7145325  21.5071699  28.6166737  58.7958498
  22.7784952  28.4439847  59.2788037  22.2675402  28.8077339  58.8099919
  21.7300272  36.8020519  49.1622269  21.3714927  36.9735161  49.9386302
  21.2438983  37.2633724  48.6050268  21.6058969  36.8959490  49.1947539
  19.5470658  20.4251717  52.7649361  18.6764216  20.3990438  52.7182670
  19.8010999  20.2528909  51.9475206  19.4564218  20.3961861  52.6369498
  16.5188637  32.4819684  41.7022504  16.8081162  33.2584567  41.9766078
  16.6060436  31.9708415  42.4037003  16.5742894  32.5211602  41.8465002
  19.4148525  30.3300918  63.4974027  19.8848156  30.9543034  63.8841901
  19.4610405  29.6617894  64.0567242  19.4916401  30.3235598  63.6374099
  16.5719798  22.4357946  54.2222831  16.0558287  21.7438137  54.3474410
  16.0113727  23.1028723  54.1685430  16.4126312  22.4321203  54.2328897
  18.6412032  22.9750906  56.0515684  18.2543785  22.9999937  56.8329214
  18.1544969  22.4092584  55.5990200  18.5124541  22.8946656  56.1003587
  22.8905011  37.6924415  60.1089470  23.5284732  37.1984610  59.7751926
  22.2479103  37.6201815  59.5241697  22.8899238  37.6083423  59.9731825
  24.6162011  29.5413561  54.6755386  24.1889620  29.4539909  53.9203485
  23.9788064  29.6491336  55.2610230  24.4591619  29.5446220  54.6500827
  18.3069174  19.8617891  58.3425944  18.9362292  20.3978191  58.0647014
  18.4755036  19.7695250  59.1939509  18.4246968  19.9279253  58.4274472
  18.1083089  24.6489086  60.6152355  18.9356518  24.3774235  60.6710970
  18.1290935  25.4449927  60.9716173  18.2335939  24.7268840  60.6767538
  22.9459268  38.3844223  56.7494827  23.7351646  38.0333288  56.8696909
  23.1202866  39.1980611  56.4871461  23.0879550  38.4530080  56.7282695
  12.6852578  31.7952949  53.8022616  11.8440585  31.6956823  54.0101510
  12.8942586  32.5648429  54.1536937  12.5917271  31.8944992  53.8849931
  10.1628145  29.4172486  51.6307367   9.7684843  29.4915497  50.8557476
   9.6068262  29.8030432  52.1815728  10.0230958  29.4854260  51.5975026
  21.7993092  22.3953780  51.3111245  22.0042685  22.3276087  52.1568243
  21.4719516  23.2012601  51.2432423  21.7808340  22.5039720  51.4270901
  16.4969243  29.7234348  53.0520213  16.1932381  29.1690336  53.6530621
  15.7948664  29.9026558  52.5648248  16.3485453  29.6679130  53.0689919
  15.5535340  27.0334868  47.6164915  15.8295075  26.3153780  47.2042483
  16.1534010  27.6319787  47.4086021  15.6828605  27.0155238  47.5245676
  14.5587594  36.9384068  57.7592311  14.4507949  36.9486131  58.6254369
  14.7683376  37.7638849  57.5697265  14.5737705  37.0625143  57.8596403
  25.0526780  22.9485544  50.7914011  24.4401093  23.4355946  51.1767743
  25.1490955  22.2729035  51.3351662  24.9764677  22.9203853  50.9292869
  19.0545861  24.7048385  45.8911510  19.5089607  24.8758945  46.6159355
  19.5285907  24.0916496  45.4909286  19.1914181  24.6399270  45.9385272
  12.5761386  34.1896711  55.2214249  11.9849319  34.8306209  55.1917264
  13.3382410  34.6134328  55.1945548  12.6009647  34.3472549  55.2129396
  12.9722009  25.3498709  55.8882266  13.4323491  25.4237638  56.6257390
  13.0178116  26.1479963  55.5382088  13.0472564  25.4792856  55.9455023
  14.6205359  26.0165404  60.4554293  14.2290924  25.3698751  60.8910071
  14.7891222  26.6076839  61.0748549  14.5876269  26.0079671  60.6116999
  22.3350902  39.6406022  52.6546273  22.1370591  40.1296837  51.9602485
  21.7138614  39.8447264  53.2330407  22.2138467  39.7422561  52.6369496
  16.3958881  31.4090919  46.9956518  17.1400926  31.7965196  47.2339467
  16.5419577  30.5648345  47.1597005  16.5269466  31.3421392  47.0550487
  18.3138456  23.2041178  52.0288379  17.4674501  23.3763986  51.9029729
  18.3109589  22.3990522  52.3654207  18.1885606  23.1102207  52.0599506
  19.3836757  26.9816393  52.8950437  18.9096711  26.4558155  53.4055748
  19.7554892  26.4345865  52.3265298  19.3686646  26.8232389  52.8865584
   9.7609787  28.9787899  58.2633983  10.6235400  28.8783609  58.1771312
   9.4301570  28.3982609  57.7019555   9.8394983  28.8779526  58.1679388
  21.3120256  27.8752947  45.9576191  20.7843275  27.9581691  45.2681899
  21.7715964  28.6170819  45.9540835  21.3022107  27.9973610  45.8550886
  27.6478674  28.8220225  52.2586476  27.4088444  28.7816060  51.4207261
  27.8112576  29.6691378  52.3852198  27.6368978  28.9412310  52.1539958
  24.2524704  33.2070175  58.1891522  24.9758903  32.7542701  58.0102542
  23.9874667  33.4874840  57.4063849  24.3205978  33.1821143  58.0470237
  13.1211573  27.8030348  54.9244401  12.4964643  27.8148740  54.3170353
  12.7857168  28.2790523  55.5735641  12.9797065  27.8748865  54.9300969
  13.3053321  26.1455467  40.9817086  12.9566126  26.7975192  41.4448635
  12.8249767  26.1312580  40.2540957  13.1823565  26.2398520  40.9428177
   9.8337248  35.8630808  56.3648165   9.3037173  35.1723247  56.4143140
  10.1062342  35.8540994  55.5360874   9.7961971  35.7597940  56.2495581
  20.8657339  36.4456511  45.0885848  21.5891538  36.9114624  44.9450421
  20.4257930  36.5130120  44.3383445  20.9073031  36.5240347  44.9570629
  20.0343494  33.3054053  56.3386537  19.4200487  32.7612103  56.6335172
  20.5510779  32.7918289  55.8592353  20.0199156  33.1490462  56.3110765
  19.2739791  34.3758323  54.0730835  18.8467399  33.7508042  53.6396271
  19.2664735  34.0933245  54.8989843  19.2098932  34.2411104  54.1310663
  12.3902318  29.4123496  57.1419269  12.5495805  28.6566820  57.5470991
  12.2095212  29.9614436  57.7960007  12.3867677  29.3817310  57.2981975
  20.3322621  21.5784732  57.6970059  19.8363182  21.7748406  57.0061625
  21.0891683  21.9777400  57.5258860  20.3709446  21.6662465  57.5690196
  17.6025501  25.2527078  54.2873369  17.6267988  24.7187190  53.5986149
  17.8536974  24.7444386  54.9498960  17.6435419  25.0987982  54.2838014
   5.1133091  32.5358573  53.7216513   5.0076540  32.4905417  52.8568597
   4.3633311  32.8812353  54.0030798   4.9868694  32.5799481  53.6353843
  13.8826823  23.9797896  53.6679114  13.9225195  24.4807102  54.3813821
  13.0576488  24.0708290  53.3985037  13.7666349  24.0679712  53.7329652
  16.0656436  33.5458636  61.7699408  15.2152066  33.6830350  61.9057053
  16.2284564  32.8122414  62.2147110  15.9640299  33.4572737  61.8555007
  15.3041186  30.4958406  55.9653013  14.4733116  30.6632224  55.7588261
  15.2492704  30.1194356  56.7501898  15.1730601  30.4648137  56.0501541
  13.1124970  23.9867299  61.6009423  13.7377673  23.4429431  61.8738856
  12.6575450  23.5062216  61.0317214  13.1373230  23.8356780  61.5571017
  13.6777230  28.7713997  46.4943130  13.8180191  29.2686461  47.1971772
  14.1759763  28.0700292  46.6357344  13.7718311  28.7415976  46.6194709
  13.7077453  29.6381108  43.8235707  14.3422532  30.2341533  43.7585169
  13.7903063  29.3384566  44.6381577  13.8134004  29.6822016  43.9338794
  26.6860018  32.1696586  56.6922071  27.2777859  32.8093836  56.7240269
  27.1219013  31.4719622  56.9814138  26.8378450  32.1614936  56.7402904
  15.2856435  25.5695084  43.7981149  15.6072277  25.0898166  43.1440411
  15.5483379  26.3794730  43.6071961  15.3722461  25.6184982  43.6736641
  18.5153408  36.5913958  57.3179965  18.0078499  37.1449805  57.7620596
  18.2180054  36.6522248  56.4998740  18.3958293  36.6820269  57.2628422
  20.6815590  24.9567278  56.1604628  21.1070662  24.5039804  55.5488155
  20.0672584  24.4027348  56.4369416  20.6544236  24.8081254  56.1109654
  10.2130440  31.8348949  47.0925253  10.7222670  32.4313457  47.4736559
  10.6864713  31.5674923  46.4101673  10.3573816  31.8834764  47.0479776
  21.1261189  40.5077216  45.2483909  20.4090498  40.3338078  44.7831146
  21.7767926  40.2729788  44.7159395  21.1163039  40.4473008  45.1013127
  19.1209813  21.4282377  49.5695205  18.4778131  21.2780024  50.1380344
  18.7809220  21.1824723  48.8044310  18.9754891  21.3694500  49.5398220
  23.7109160  29.3841804  48.9925214  23.0400350  29.9271506  48.8638279
  24.4048910  29.8536660  48.7506909  23.7138027  29.5340075  48.9380742
  17.7595894  41.5238516  54.2236972  17.5361548  40.7657345  54.5920998
  17.2705737  41.5536537  53.5017412  17.6539343  41.4160741  54.1713713
  23.8737287  25.8397688  51.9015587  24.2264897  25.4127411  52.5761386
  23.0152089  25.7548531  52.0316663  23.7986732  25.7642429  52.0210598
  12.5720972  28.4705208  49.9598434  11.8532961  28.8869340  50.2271297
  12.9433335  29.0359446  49.4090072  12.5212904  28.6154489  49.9181241
  21.8720553  29.1033056  55.8500429  21.8518480  28.9216352  56.7035208
  21.9199754  29.9745075  55.8260013  21.8755194  29.2049595  55.9723724
  19.8166883  35.6920248  61.7748906  19.7762738  35.0469925  61.1894062
  20.6290201  35.6356866  62.0874318  19.9310036  35.5879215  61.7345855
  16.4074350  41.7438974  51.6774057  15.9934749  41.0813105  51.2877898
  17.0921725  41.8916833  51.1569751  16.4472722  41.6679633  51.5430554
  19.7739645  40.9029060  52.4297673  19.3755928  41.0131330  51.6618494
  19.1590864  41.1111126  53.0124233  19.6238534  40.9502628  52.4028973
  18.3467547  27.5103207  45.2971813  17.7532386  27.8320204  44.7456380
  18.3842824  26.6644303  45.0892919  18.2641936  27.4327536  45.1854584
  25.3061347  20.9616100  52.8299900  24.7992212  20.2545239  52.7621077
  26.1028781  20.6309289  52.9600976  25.3488587  20.8089251  52.8398895
  21.2225363  27.4682712  48.7273563  20.9939056  27.4915413  47.8851922
  21.4823439  26.6440179  48.8468574  21.2271551  27.3498792  48.6198761
  15.5044592  29.3217185  58.3298664  14.9923495  28.7138368  58.6883695
  15.3324088  30.0373778  58.7972639  15.4034229  29.3380484  58.4514887
  10.3510306  27.7654760  60.9801025  10.1812897  28.4256135  60.4349232
   9.9076256  27.9761322  61.7013514  10.2609640  27.8940742  61.0062655
  14.2770126  26.0059258  50.0227759  14.7527492  26.3676338  49.3877940
  13.7758725  26.6615726  50.3027902  14.2735485  26.1553447  49.9704500
  27.5081487  35.4781026  45.8140764  27.8915093  36.2272382  46.0438861
  26.7125601  35.7246846  45.5552753  27.4475269  35.6250720  45.8098338
  19.3813662  27.2441430  60.7700919  19.9385092  27.0155239  60.1379384
  19.0574727  28.0047095  60.4936131  19.4160072  27.3225266  60.6357416
   7.2512371  30.6701626  56.2389515   6.7039090  30.0002271  56.3570383
   8.0404749  30.3031474  56.3032982   7.2864554  30.5166612  56.2658216
  17.0996779  30.3309083  61.7352926  17.8508106  30.6460760  62.0492480
  17.2919356  30.1288254  60.9086848  17.2388193  30.3476465  61.6596322
  16.3196779  28.1500458  43.3901143  16.6995744  28.1680087  42.6052258
  15.5789375  28.5954447  43.2691990  16.2665617  28.2182233  43.2564711
  23.9482069  26.4582649  48.9776722  23.9476296  26.3031306  49.8360998
  23.7438249  27.3045636  48.9218107  23.9181847  26.5603270  49.0964661
   6.0099340  29.8822434  53.3935538   5.8321101  29.4299043  54.1190454
   5.7218362  30.6848595  53.5774016   5.9412293  29.9344991  53.5279041
  21.6722921  31.1380151  52.6312928  22.1676587  30.4203146  52.5916949
  20.8622697  30.8350949  52.5167415  21.6266815  30.9877797  52.6086654
  17.1181533  34.9877964  44.7809933  16.3092856  34.6644638  44.7343242
  17.6256442  34.2811186  44.7138182  17.0731200  34.8359281  44.7640227
   7.7471810  32.4150157  50.5057297   6.8817330  32.4035848  50.3940068
   7.8470626  32.2280380  51.3528436   7.6345977  32.3856219  50.6146242
  23.7374740  33.8883839  55.3190057  24.1629812  33.3658260  54.7660482
  23.3731660  34.4864676  54.7978680  23.7461343  33.8994066  55.1599067
  13.3728820  42.1848056  54.0787403  13.6875379  42.9984444  54.0865184
  13.7822233  41.7998275  54.7469562  13.4796918  42.2476758  54.1791494
  20.3253340  37.6018103  51.6491215  20.7964518  38.3158365  51.8181200
  20.6613518  37.0016853  52.1851084  20.4448455  37.6189567  51.7523591
  22.4130324  39.2119416  63.8283287  22.5227290  38.4227977  64.1840034
  22.7421221  39.1225352  63.0257625  22.4782730  39.0825269  63.7625678
  17.2422835  22.3745573  58.6049310  17.3750740  21.5776567  58.9330285
  17.6267987  22.9011976  59.1847585  17.3179164  22.3345490  58.7392812
  20.9627286  37.3936037  58.4118907  20.4148232  36.7693921  58.1438973
  21.4240315  37.5830309  57.6962987  20.9494495  37.3295087  58.2669338
  20.3155190  19.2975900  55.2030403  19.5101154  19.1873629  55.5198241
  20.1861925  19.3988355  54.3460269  20.1775323  19.2959570  55.1238443
  23.7721150  25.4621391  55.7970100  23.1884139  25.9630598  55.3847667
  24.0925444  24.9550948  55.1634423  23.7334326  25.4613226  55.6428607
  16.3115950  24.3761986  46.0728774  17.1331644  24.5460299  45.8310469
  15.8485600  24.5309247  45.3495072  16.3647112  24.4243719  45.9300419
  14.9011281  22.3704748  56.8527203  15.4455694  22.0295875  57.4431545
  14.9548217  23.2290210  56.9948488  14.9900401  22.4460008  56.9609077
  10.7141840  36.1321164  53.7266011  11.3186698  36.0916999  53.0979832
  10.5069153  36.9792316  53.7570067  10.7730737  36.2509167  53.6382128
  20.5285612  38.3987110  54.9428249  21.3483986  38.2550076  55.2044544
  20.2479690  39.0233309  55.4844686  20.6082356  38.4697462  55.0616188
   5.9493122  35.1155782  53.5964934   5.8517401  34.3052053  53.9054991
   6.7321992  35.0947575  53.2111202   6.0509259  34.9922872  53.5851797
  30.1998948  45.1427612  52.6624055  29.3436843  45.3036111  52.7133172
  30.2466601  44.2719676  52.6829116  30.0798059  45.0378414  52.6730121
  24.5840087  54.6790330  48.4261287  23.8322987  54.3005869  48.1977332
  25.0326099  54.7108764  47.6780097  24.5389754  54.6275937  48.2818789
  33.5092664  51.4114138  62.2684511  34.2159431  50.9166169  62.3971446
  33.6980600  51.8523219  61.5387169  33.6420570  51.4032488  62.1793557
  30.0365047  55.1015700  43.8546834  29.7016416  55.7792621  43.4191056
  30.5491918  54.7121011  43.2663706  30.0630628  55.1440278  43.7033625
  29.5769338  57.0529968  49.7957946  29.9608718  57.6216867  49.2562721
  29.5128480  56.3279479  49.3163762  29.6242766  57.0305432  49.6451808
  33.0450769  47.2019656  55.3055707  33.5906729  47.8804743  55.3649677
  32.9867645  47.0607117  54.4457288  33.1166683  47.2811658  55.1867768
  26.1624843  54.6908722  50.6924059  26.2635206  53.8809076  51.0021187
  25.5666589  54.5965669  50.0623738  26.0897382  54.5573750  50.6450298
  26.0025583  59.6086312  52.0938915  26.6463039  60.0499476  52.4835074
  26.3281839  58.8039738  52.0069174  26.1457412  59.5551506  52.1384393
  19.3589888  50.7129009  50.3176393  19.1240072  49.8796661  50.2108662
  19.4975528  50.9933675  49.5037594  19.3445550  50.6312512  50.1818748
  21.6579975  42.8814740  53.2160701  21.0385007  42.2907387  53.0470716
  21.5563839  43.4726175  52.5825024  21.5517651  42.8818822  53.0965690
  26.7046163  52.6198286  47.4658777  27.0262004  53.1603494  46.8620085
  27.3518259  52.0495058  47.5981067  26.8472218  52.6157462  47.3965813
  21.3849108  46.4267021  55.4604270  21.2607805  47.0129467  56.0954089
  22.0367393  45.9327217  55.7616545  21.4622758  46.4405826  55.5990199
  28.9435806  51.0084726  47.5372955  29.3829442  50.4001827  47.9827728
  28.7940469  50.6292100  46.7658420  28.9857272  50.8623197  47.4892123
  26.4107449  49.6028738  54.7391781  27.0556452  49.1101181  54.4202729
  26.6509226  49.7453525  55.5657859  26.5418034  49.5506180  54.8141314
  28.9493541  52.4483644  54.3898673  29.2316783  51.6535050  54.1685429
  29.6779701  52.9264232  54.4103734  29.0983104  52.4018241  54.3601689
  32.5445143  49.3611908  44.4903725  32.4596438  50.2172874  44.6353293
  33.0329526  49.0856232  45.1585884  32.6034040  49.4469229  44.6105806
  25.3663184  49.8759919  44.7908928  24.7820399  50.3809950  45.1974792
  24.9633279  49.6502306  44.0505520  25.2202488  49.9168167  44.7413953
  20.9207212  55.5914680  51.5932599  20.4374791  56.3165169  51.5692183
  21.7330531  55.8890810  51.7042757  20.9697960  55.7417033  51.6059878
  26.9921366  54.3846860  54.1982414  26.4748308  54.0254275  53.5943722
  27.6895758  53.8609035  54.2088480  27.0186948  54.2544548  54.1112672
  30.6484958  54.8341675  60.1598587  30.7368304  54.6467815  61.0076797
  31.0774671  54.1879104  59.7603434  30.7247061  54.7104682  60.2270338
  28.2155418  54.1172834  59.1416249  27.6526253  53.7045444  59.6655910
  28.9776442  54.0425740  59.5609392  28.2449867  54.0450235  59.2809249
  23.7751410  56.1070856  51.7452879  24.4771989  55.5922845  51.8025636
  23.6948893  56.4345007  52.5499754  23.8675170  56.0785082  51.8725671
  24.8230316  46.3446443  60.8733294  24.9950820  46.2352337  61.7218576
  25.3599674  46.9900848  60.6364486  24.9275320  46.4238444  60.9638391
  23.1002185  52.2977208  51.2538487  23.9391085  52.5300140  51.3012249
  23.1313954  51.4281519  51.1845523  23.2283903  52.2034154  51.2503132
  23.7254888  52.7178083  55.5551793  24.2653113  52.5749214  56.2255165
  23.0424834  53.1174834  55.9235819  23.7047042  52.7557754  55.7086214
  33.1495773  48.3969083  50.7496817  33.9053288  48.8300598  50.7885726
  33.2558097  47.7473853  51.3231453  33.2765944  48.3646567  50.8394843
  36.1875944  52.2242361  51.4999220  35.7511176  52.2279103  52.2558191
  35.8538860  52.9047860  51.0678797  36.0738564  52.3254816  51.5480053
  30.7605018  54.2650694  62.8242370  31.5445434  54.3781541  63.1898112
  30.5601612  53.4391831  63.0201056  30.8471043  54.1597413  62.9076756
  19.1292033  48.9378374  55.7086214  18.8630448  48.1217490  55.8677204
  19.1430597  48.9831529  54.8381730  19.0916755  48.8235278  55.6039696
  23.8790640  42.4756752  58.3553222  23.1862436  42.0053732  58.6013953
  24.4950967  42.2495056  58.9294929  23.8675169  42.3723884  58.4762374
  30.9175411  56.1760796  56.4708826  30.1190657  55.9360296  56.7282695
  31.3661423  56.2275188  57.2175874  30.8650022  56.1483187  56.6193750
  30.2097098  52.2393412  42.6999780  30.6248247  51.9078436  42.0084276
  29.3789028  52.0062314  42.5719917  30.1485107  52.1564668  42.5790628
  19.5385447  49.7237153  52.9897958  19.3561020  49.6984039  52.1370251
  20.2735116  50.1936091  53.0286867  19.6199511  49.7898515  52.8695877
  22.6031198  46.4422156  59.4980067  23.3271171  46.4275187  59.9844962
  22.7047335  47.1517511  59.0002035  22.7249408  46.5446859  59.4958854
  29.9776148  49.9221240  64.3629014  29.1849129  50.2364752  64.5481634
  30.0925075  50.1372709  63.5249799  29.8771558  50.0005077  64.2667349
  30.9059941  49.8241444  59.3014311  31.4798802  49.1868688  59.4562875
  30.8274744  49.8245527  58.4323968  30.9793176  49.7306556  59.1960722
  19.5056357  46.6030654  53.1397025  20.0829860  46.4667104  53.7789270
  18.8070419  46.1466438  53.3942609  19.4877379  46.5152920  53.2719315
  26.2623659  48.2564709  51.3535508  26.0042904  47.4236444  51.3266808
  26.3172142  48.4822322  50.5128009  26.2323437  48.1662481  51.2255645
  25.2358372  45.8102472  51.8400403  24.6607963  45.9694640  52.4764364
  24.8594048  45.1737881  51.3768854  25.0961184  45.7400285  51.8654961
  28.9031660  44.2825821  56.6992781  28.5146093  43.8580039  56.0444973
  28.2386358  44.5307971  57.2069808  28.7478588  44.2564542  56.6780649
  14.9815190  45.4542547  49.8544844  15.0675442  45.0774415  50.6358374
  15.6090988  45.0802992  49.3764802  15.0871741  45.3428029  49.8990321
  30.0070598  48.5124426  44.8969588  30.8211237  48.8039318  44.7852360
  29.9429740  47.8584288  44.3227881  30.1173337  48.4589620  44.7958426
  36.2280089  51.1950422  59.3099164  35.9918726  50.3638487  59.1911225
  36.8723317  51.1436029  59.8954008  36.2874759  51.0648110  59.3785058
  25.8778507  51.9845943  50.0241900  26.5152454  51.7457691  50.5693694
  26.3033578  52.1883102  49.2895061  26.0354673  51.9796953  49.9959058
  20.5691149  54.2234280  53.9076204  20.6095294  54.4949131  53.0795984
  21.1285673  54.7476188  54.3233992  20.6574495  54.3410035  53.8468092
  26.6849862  40.4854648  64.0779374  26.3703303  41.2554211  63.8148937
  26.3639795  39.9224904  63.4931601  26.5908781  40.5164917  63.9520724
  37.2516509  50.9794871  55.3727459  36.9462326  51.7122927  55.7340774
  36.5322725  50.5732800  55.0920245  37.1003851  51.0276604  55.3840596
  28.2599979  52.4618366  51.7035687  28.3338987  52.2993538  52.5577537
  29.0769485  52.6508555  51.4596168  28.3916337  52.4655108  51.7933712
  22.0205735  52.8076229  48.7330130  21.1943853  53.0537966  48.6064409
  22.0817727  52.7288309  49.5992188  21.9079902  52.8321178  48.8419075
  24.2381759  38.8745170  49.6925570  23.3704184  38.9467769  49.7583180
  24.5256963  39.6767249  49.8813545  24.1521507  39.0039317  49.7300337
  33.3614648  39.0223029  58.0236892  34.1068240  38.8332839  57.6100318
  32.9451952  39.5481267  57.4650749  33.4099622  39.0725174  57.8801465
  26.8004564  55.4253109  46.4349160  27.0902863  55.0342090  45.7108387
  27.5308045  55.6069814  46.8754435  26.9511449  55.3946923  46.3931967
  27.3899310  50.2270855  57.5202291  26.8911003  50.9386622  57.5987179
  28.1999534  50.5471521  57.4820453  27.4355416  50.3797703  57.5258859
  24.7410480  57.4020491  49.5009310  24.5210775  57.1117846  50.2935977
  24.5205002  56.7435446  48.9727222  24.6758074  57.2620200  49.5398219
  23.6527427  49.4893808  51.7665012  23.3640676  48.8631279  52.3010739
  24.5210775  49.4314095  51.8329692  23.7387679  49.3881352  51.8555966
  26.9078436  58.7749881  48.2840002  27.5602494  58.2426324  48.5131028
  26.2104044  58.4218534  48.6707876  26.9009154  58.6439404  48.3752170
  23.8559700  51.1289059  47.6907377  24.6105668  51.5102098  47.9042839
  23.2630313  51.5800202  48.1454073  23.8796414  51.2517886  47.7890255
  34.9018354  51.0954295  47.6270981  35.4676387  51.7547505  47.5429524
  34.2546257  51.4403993  48.0987384  34.8897110  51.2436237  47.6843738
  26.3166367  43.0851899  62.8164589  25.5066143  43.3909679  62.7054431
  26.7941054  43.8057482  62.9317173  26.2669846  43.2366500  62.8171660
  25.1757927  52.2997620  53.0647492  24.6538681  52.4397912  53.7499357
  25.5631947  51.5408284  53.2549609  25.1561628  52.2083144  53.1948568
  22.1649111  42.3503429  47.1342447  21.8773907  41.9804699  46.3974394
  22.8519579  42.8198284  46.8726152  22.2238008  42.3650398  46.9857522
  31.3724932  54.0393079  47.0508061  31.1311608  53.3060940  46.6435126
  31.5526265  54.5879936  46.3974394  31.3632556  54.0115471  46.8938284
  26.6024253  49.3301639  48.4628983  26.4067035  49.9376374  47.8689286
  26.8258598  48.6369583  47.9820657  26.6058894  49.3179165  48.3045064
  25.0002783  46.2156377  48.5809851  25.7225435  46.3797535  48.1213657
  24.5210775  46.9366042  48.4749191  25.0366513  46.3454607  48.4975465
  32.9596290  42.5520176  53.9606536  32.1207391  42.5781455  53.7244800
  33.0300658  43.1990911  54.5411883  32.8464684  42.6516302  54.0115653
  22.6510399  48.6214450  57.6863991  23.1631496  48.8998703  57.0372751
  22.3646742  49.3603744  58.0526804  22.6845263  48.7716803  57.6453869
  19.7377306  43.1284641  47.9827728  19.8393442  43.9310803  48.3108703
  20.5333192  42.9271977  47.6850808  19.8705211  43.2170540  47.9863083
  26.1694125  40.7140838  57.7465033  25.9777322  40.7295973  58.5964456
  27.0192721  40.9104512  57.7231688  26.2669847  40.7455189  57.8688328
  20.5541038  43.2431820  55.7248849  20.4126530  42.3915760  55.8493357
  20.8381601  43.2860480  54.9011055  20.5748884  43.1231570  55.6216473
  34.6027679  51.7882269  53.6580119  34.4642038  52.4863315  54.1628861
  33.8227677  51.6330926  53.3016301  34.4670906  51.8682436  53.6806393
  32.9405764  48.0878644  59.9102500  32.9353803  47.2158461  59.9144927
  33.6466758  48.2866814  59.4371956  33.0450768  47.9882519  59.8409536
  26.6676657  47.8155628  59.2816321  26.8120033  48.3956837  58.6459431
  27.0152306  48.1931925  59.9866175  26.7404119  47.9576332  59.2915316
  28.8396575  47.0145797  57.0641452  28.0919889  47.2076811  56.6589730
  28.9938100  46.1891016  56.8265573  28.7519002  46.9210908  56.9686858
  25.7404412  56.0058400  56.1477347  25.8893976  55.4461316  55.4950752
  26.5204415  56.0850402  56.5309866  25.8778506  55.9343966  56.1074297
  28.2657713  56.1773043  57.4261838  28.1901384  55.5081854  57.9812627
  28.1947572  56.8790831  57.9402505  28.2438320  56.1817950  57.5838686
  29.0798352  40.9096347  57.9536856  29.5370966  41.6420322  58.0809648
  29.1554681  40.4862813  58.7124112  29.1589322  40.9553586  58.0837932
  21.3231343  41.1562167  59.0426300  20.7873533  40.5442525  59.3587067
  21.3849108  41.7310303  59.6959966  21.2526976  41.1509095  59.1861726
  28.9227960  54.6974042  48.2585444  29.6877851  54.4283686  47.9368108
  28.8206050  54.2124052  48.9755507  29.0209455  54.5863607  48.3165272
  26.9580730  42.8998451  54.7978680  26.1676805  42.7189911  55.1196016
  27.3541353  42.1225404  54.7808974  26.8997606  42.7585912  54.8431228
  32.3424416  50.5340882  52.5238126  31.6669418  50.3026114  53.0251513
  32.3516792  49.9262064  51.8980231  32.2442921  50.4099807  52.5054278
  29.4718560  45.3758711  59.2802179  29.4077701  46.2368667  59.1522316
  29.6115748  45.0590704  58.4797730  29.4834030  45.4558877  59.1430392
  34.3441151  53.3906014  44.7548304  34.4260988  54.1973000  44.4309755
  34.8290893  53.4101973  45.4789077  34.4278309  53.5126676  44.8135202
  28.1537654  48.0690850  53.4218382  27.7299903  48.2695349  52.6857400
  27.9782509  47.2219698  53.5342682  28.0648535  47.9739631  53.3292072
  27.6549347  59.5841363  55.8839839  28.1445278  58.8852152  55.7015504
  27.0833580  59.2865233  56.4715896  27.6433877  59.4367586  55.9440880
  23.4420099  48.5642901  48.8546354  23.5984718  48.4989704  49.7102346
  23.7820692  49.3391454  48.6425034  23.5153334  48.6692099  48.9500948
  29.9799244  47.9400785  47.7239718  30.5214789  47.4371166  48.1878338
  30.2945803  47.8865980  46.9129203  30.1063641  47.8580206  47.6723530
  33.8516351  52.1503432  64.8366630  34.6651216  51.8788581  64.9971762
  33.6911317  51.8510972  64.0326826  33.9486299  52.0658358  64.7412036
  28.1485693  53.3318136  45.0079746  28.2178514  52.4732675  45.1472746
  28.9274148  53.5490017  44.6798770  28.2738543  53.2371000  44.9796903
  31.1288513  42.8337089  57.7762018  31.3430482  42.1948004  57.2225372
  30.5122412  43.2782913  57.3469880  31.0693842  42.8047233  57.6312449
  32.5393181  55.7555838  49.2216239  32.1472973  55.4522553  48.5039105
  32.6946253  56.5924928  49.0321193  32.5046771  55.8339674  49.0872736
  20.0154360  45.7477852  49.1707121  20.3953325  46.1662397  48.5067389
  19.4409725  46.3291307  49.4775965  19.9865685  45.8955711  49.1183862
  33.2927601  44.4426155  58.7145325  32.4804283  44.1352045  58.7958498
  33.7517536  43.9625155  59.2788037  33.2407986  44.3262647  58.8099919
  32.7032856  52.3205827  49.1622269  32.3447510  52.4920469  49.9386302
  32.2171566  52.7819032  48.6050268  32.5791552  52.4144798  49.1947539
  30.3881108  45.8486226  63.4974027  30.8580740  46.4728342  63.8841901
  30.4342989  45.1803202  64.0567242  30.4648984  45.8420906  63.6374099
  29.6144616  38.4936213  56.0515684  29.2276369  38.5185245  56.8329214
  29.1277553  37.9277892  55.5990200  29.4857124  38.4131964  56.1003587
  33.8637595  53.2109722  60.1089470  34.5017315  52.7169918  59.7751926
  33.2211687  53.1387123  59.5241697  33.8631821  53.1268731  59.9731825
  29.2801757  35.3803199  58.3425944  29.9094875  35.9163499  58.0647014
  29.4487620  35.2880558  59.1939509  29.3979552  35.4464561  58.4274472
  29.0815672  40.1674394  60.6152355  29.9089101  39.8959543  60.6710970
  29.1023518  40.9635235  60.9716173  29.2068522  40.2454148  60.6767538
  33.9191852  53.9029531  56.7494827  34.7084230  53.5518595  56.8696909
  34.0935449  54.7165919  56.4871461  34.0612133  53.9715388  56.7282695
  23.6585162  47.3138256  53.8022616  22.8173169  47.2142131  54.0101510
  23.8675170  48.0833737  54.1536937  23.5649855  47.4130300  53.8849931
  21.1360729  44.9357793  51.6307367  20.7417427  45.0100805  50.8557476
  20.5800846  45.3215740  52.1815728  20.9963541  45.0039568  51.5975026
  27.4701827  45.2419656  53.0520213  27.1664964  44.6875644  53.6530621
  26.7681248  45.4211866  52.5648248  27.3218037  45.1864438  53.0689919
  25.5320178  52.4569376  57.7592311  25.4240533  52.4671439  58.6254369
  25.7415959  53.2824157  57.5697265  25.5470289  52.5810451  57.8596403
  23.5493970  49.7082019  55.2214249  22.9581903  50.3491517  55.1917264
  24.3114993  50.1319636  55.1945548  23.5742230  49.8657857  55.2129396
  23.9454593  40.8684017  55.8882266  24.4056074  40.9422946  56.6257390
  23.9910699  41.6665271  55.5382088  24.0205148  40.9978164  55.9455023
  25.5937942  41.5350711  60.4554293  25.2023507  40.8884059  60.8910071
  25.7623805  42.1262147  61.0748549  25.5608853  41.5264979  60.6116999
  33.3083486  55.1591330  52.6546273  33.1103175  55.6482145  51.9602485
  32.6871197  55.3632572  53.2330407  33.1871050  55.2607869  52.6369496
  27.3691464  46.9276227  46.9956518  28.1133509  47.3150504  47.2339467
  27.5152161  46.0833653  47.1597005  27.5002050  46.8606700  47.0550487
  20.7342370  44.4973207  58.2633983  21.5967983  44.3968916  58.1771312
  20.4034153  43.9167917  57.7019555  20.8127567  44.3964834  58.1679388
  24.0944156  43.3215656  54.9244401  23.4697227  43.3334048  54.3170353
  23.7589751  43.7975831  55.5735641  23.9529648  43.3934173  54.9300969
  20.8069832  51.3816116  56.3648165  20.2769756  50.6908555  56.4143140
  21.0794925  51.3726302  55.5360874  20.7694554  51.2783248  56.2495581
  31.8389922  51.9641819  45.0885848  32.5624121  52.4299932  44.9450421
  31.3990513  52.0315428  44.3383445  31.8805615  52.0425655  44.9570629
  31.0076077  48.8239361  56.3386537  30.3933071  48.2797411  56.6335172
  31.5243362  48.3103597  55.8592353  30.9931740  48.6675770  56.3110765
  30.2472375  49.8943631  54.0730835  29.8199983  49.2693350  53.6396271
  30.2397319  49.6118553  54.8989843  30.1831516  49.7596412  54.1310663
  23.3634902  44.9308804  57.1419269  23.5228388  44.1752128  57.5470991
  23.1827795  45.4799744  57.7960007  23.3600261  44.9002618  57.2981975
  31.3055205  37.0970040  57.6970059  30.8095766  37.2933714  57.0061625
  32.0624267  37.4962708  57.5258860  31.3442029  37.1847773  57.5690196
  28.5758084  40.7712386  54.2873369  28.6000572  40.2372498  53.5986149
  28.8269558  40.2629694  54.9498960  28.6168003  40.6173289  54.2838014
  16.0865674  48.0543880  53.7216513  15.9809123  48.0090725  52.8568597
  15.3365894  48.3997661  54.0030798  15.9601277  48.0984789  53.6353843
  24.8559407  39.4983204  53.6679114  24.8957778  39.9992410  54.3813821
  24.0309071  39.5893597  53.3985037  24.7398933  39.5865020  53.7329652
  27.0389019  49.0643944  61.7699408  26.1884650  49.2015658  61.9057053
  27.2017147  48.3307722  62.2147110  26.9372883  48.9758045  61.8555007
  26.2773770  46.0143714  55.9653013  25.4465700  46.1817532  55.7588261
  26.2225287  45.6379664  56.7501898  26.1463185  45.9833445  56.0501541
  24.0857553  39.5052607  61.6009423  24.7110257  38.9614739  61.8738856
  23.6308033  39.0247524  61.0317214  24.1105814  39.3542088  61.5571017
  29.4885992  52.1099266  57.3179965  28.9811083  52.6635113  57.7620596
  29.1912638  52.1707556  56.4998740  29.3690877  52.2005577  57.2628422
  31.6548174  40.4752586  56.1604628  32.0803246  40.0225112  55.5488155
  31.0405167  39.9212656  56.4369416  31.6276819  40.3266562  56.1109654
  21.1863024  47.3534257  47.0925253  21.6955253  47.9498764  47.4736559
  21.6597296  47.0860231  46.4101673  21.3306400  47.4020072  47.0479776
  32.0993772  56.0262524  45.2483909  31.3823082  55.8523386  44.7831146
  32.7500510  55.7915096  44.7159395  32.0895623  55.9658316  45.1013127
  28.7328477  57.0423824  54.2236972  28.5094132  56.2842653  54.5920998
  28.2438320  57.0721845  53.5017412  28.6271926  56.9346049  54.1713713
  23.5453556  43.9890515  49.9598434  22.8265545  44.4054648  50.2271297
  23.9165918  44.5544754  49.4090072  23.4945488  44.1339797  49.9181241
  32.8453137  44.6218364  55.8500429  32.8251064  44.4401660  56.7035208
  32.8932337  45.4930383  55.8260013  32.8487778  44.7234903  55.9723724
  30.7899466  51.2105556  61.7748906  30.7495321  50.5655233  61.1894062
  31.6022785  51.1542174  62.0874318  30.9042620  51.1064523  61.7345855
  27.3806934  57.2624282  51.6774057  26.9667333  56.5998412  51.2877898
  28.0654308  57.4102141  51.1569751  27.4205306  57.1864940  51.5430554
  30.7472228  56.4214368  52.4297673  30.3488511  56.5316638  51.6618494
  30.1323448  56.6296434  53.0124233  30.5971117  56.4687936  52.4028973
  26.4777175  44.8402493  58.3298664  25.9656078  44.2323676  58.6883695
  26.3056671  45.5559085  58.7972639  26.3766812  44.8565792  58.4514887
  21.3242890  43.2840068  60.9801025  21.1545480  43.9441443  60.4349232
  20.8808840  43.4946629  61.7013514  21.2342223  43.4126050  61.0062655
  30.3546246  42.7626738  60.7700919  30.9117676  42.5340547  60.1379384
  30.0307311  43.5232403  60.4936131  30.3892656  42.8410574  60.6357416
  18.2244954  46.1886934  56.2389515  17.6771674  45.5187579  56.3570383
  19.0137333  45.8216782  56.3032982  18.2597138  46.0351920  56.2658216
  28.0729363  45.8494391  61.7352926  28.8240690  46.1646068  62.0492480
  28.2651939  45.6473562  60.9086848  28.2120777  45.8661773  61.6596322
  16.9831924  45.4007742  53.3935538  16.8053685  44.9484351  54.1190454
  16.6950946  46.2033903  53.5774016  16.9144877  45.4530299  53.5279041
  32.6455505  46.6565459  52.6312928  33.1409170  45.9388454  52.5916949
  31.8355281  46.3536257  52.5167415  32.5999398  46.5063105  52.6086654
  28.0914116  50.5063272  44.7809933  27.2825439  50.1829946  44.7343242
  28.5989025  49.7996494  44.7138182  28.0463783  50.3544589  44.7640227
  18.7204394  47.9335465  50.5057297  17.8549913  47.9221156  50.3940068
  18.8203210  47.7465688  51.3528436  18.6078561  47.9041527  50.6146242
  34.7107324  49.4069146  55.3190057  35.1362395  48.8843568  54.7660482
  34.3464244  50.0049984  54.7978680  34.7193926  49.4179373  55.1599067
  24.3461404  57.7033364  54.0787403  24.6607963  58.5169752  54.0865184
  24.7554817  57.3183583  54.7469562  24.4529502  57.7662066  54.1791494
  31.2985923  53.1203411  51.6491215  31.7697101  53.8343673  51.8181200
  31.6346102  52.5202161  52.1851084  31.4181038  53.1374875  51.7523591
  33.3862908  54.7304724  63.8283287  33.4959873  53.9413285  64.1840034
  33.7153804  54.6410660  63.0257625  33.4515314  54.6010577  63.7625678
  28.2155418  37.8930881  58.6049310  28.3483324  37.0961875  58.9330285
  28.6000571  38.4197284  59.1847585  28.2911747  37.8530798  58.7392812
  31.9359870  52.9121345  58.4118907  31.3880816  52.2879228  58.1438973
  32.3972898  53.1015617  57.6962987  31.9227079  52.8480395  58.2669338
  34.7453734  40.9806699  55.7970100  34.1616723  41.4815906  55.3847667
  35.0658028  40.4736256  55.1634423  34.7066909  40.9798534  55.6428607
  25.8743865  37.8890056  56.8527203  26.4188278  37.5481183  57.4431545
  25.9280801  38.7475518  56.9948488  25.9632984  37.9645316  56.9609077
  21.6874424  51.6506472  53.7266011  22.2919281  51.6102307  53.0979832
  21.4801736  52.4977624  53.7570067  21.7463321  51.7694475  53.6382128
  31.5018196  53.9172418  54.9428249  32.3216570  53.7735384  55.2044544
  31.2212274  54.5418616  55.4844686  31.5814939  53.9882770  55.0616188
  16.9225706  50.6341090  53.5964934  16.8249984  49.8237361  53.9054991
  17.7054576  50.6132883  53.2111202  17.0241843  50.5108180  53.5851797
  47.9731846  61.5737269  47.9071125  47.9425851  62.4281906  48.0789394
  48.5713195  61.2732562  48.4657269  48.0569004  61.6553766  48.0145927
  41.1731531  60.6612920  52.6624055  40.3169427  60.8221419  52.7133172
  41.2199185  59.7904984  52.6829116  41.0530643  60.5563722  52.6730121
  35.5572671  70.1975638  48.4261287  34.8055570  69.8191176  48.1977332
  36.0058683  70.2294072  47.6780097  35.5122338  70.1461245  48.2818789
  44.4825248  66.9299446  62.2684511  45.1892015  66.4351477  62.3971446
  44.6713183  67.3708527  61.5387169  44.6153153  66.9217796  62.1793557
  41.0097631  70.6201008  43.8546834  40.6748999  71.2977929  43.4191056
  41.5224501  70.2306319  43.2663706  41.0363212  70.6625586  43.7033625
  40.5501922  72.5715276  49.7957946  40.9341301  73.1402175  49.2562721
  40.4861063  71.8464787  49.3163762  40.5975349  72.5490740  49.6451808
  44.0183352  62.7204964  55.3055707  44.5639312  63.3990051  55.3649677
  43.9600228  62.5792425  54.4457288  44.0899267  62.7996966  55.1867768
  37.1357427  70.2094030  50.6924059  37.2367790  69.3994384  51.0021187
  36.5399172  70.1150977  50.0623738  37.0629966  70.0759058  50.6450298
  45.7948421  64.1489571  46.1789435  45.6787947  64.8997257  46.6081573
  46.5904307  63.8913525  46.4285522  45.8953010  64.2224418  46.2793526
  36.9758167  75.1271619  52.0938915  37.6195622  75.5684784  52.4835074
  37.3014422  74.3225046  52.0069174  37.1189995  75.0736814  52.1384393
  30.3322471  66.2314317  50.3176393  30.0972656  65.3981969  50.2108662
  30.4708112  66.5118983  49.5037594  30.3178134  66.1497820  50.1818748
  32.6312559  58.4000047  53.2160701  32.0117590  57.8092695  53.0470716
  32.5296422  58.9911483  52.5825024  32.5250234  58.4004130  53.0965690
  37.6778746  68.1383594  47.4658777  37.9994587  68.6788802  46.8620085
  38.3250843  67.5680366  47.5981067  37.8204802  68.1342769  47.3965813
  39.7280454  60.1399589  47.5493164  40.4260619  60.3187717  48.0414627
  40.0432787  59.6169929  46.9263553  39.8775792  60.0893361  47.5295174
  32.3581692  61.9452329  55.4604270  32.2340389  62.5314775  56.0954089
  33.0099976  61.4512525  55.7616545  32.4355341  61.9591134  55.5990199
  39.9168390  66.5270034  47.5372955  40.3562025  65.9187135  47.9827728
  39.7673053  66.1477408  46.7658420  39.9589855  66.3808505  47.4892123
  37.3840033  65.1214046  54.7391781  38.0289035  64.6286489  54.4202729
  37.6241810  65.2638833  55.5657859  37.5150618  65.0691488  54.8141314
  39.9226124  67.9668952  54.3898673  40.2049367  67.1720358  54.1685429
  40.6512285  68.4449539  54.4103734  40.0715688  67.9203549  54.3601689
  37.9007318  55.5091986  51.6314438  37.5710648  55.9603130  50.9618137
  37.2252320  55.4308149  52.1787445  37.7517754  55.5643121  51.6137662
  43.5177726  64.8797216  44.4903725  43.4329021  65.7358182  44.6353293
  44.0062110  64.6041540  45.1585884  43.5766624  64.9654537  44.6105806
  44.4496160  61.4982010  45.9901460  43.9207631  61.7141643  46.6498766
  44.9721179  62.1918148  45.9102429  44.4484613  61.6325147  46.0757059
  49.9044212  67.0728314  51.3634504  49.0741916  67.2838958  51.5267921
  49.8553465  66.2465369  51.0876788  49.7750948  66.9817921  51.3471870
  36.3395767  65.3945227  44.7908928  35.7552983  65.8995258  45.1974792
  35.9365863  65.1687613  44.0505520  36.1935071  65.4353475  44.7413953
  31.8939796  71.1099988  51.5932599  31.4107374  71.8350477  51.5692183
  32.7063114  71.4076118  51.7042757  31.9430544  71.2602341  51.6059878
  37.9653950  69.9032168  54.1982414  37.4480892  69.5439583  53.5943722
  38.6628341  69.3794343  54.2088480  37.9919531  69.7729856  54.1112672
  41.6217542  70.3526982  60.1598587  41.7100888  70.1653123  61.0076797
  42.0507255  69.7064412  59.7603434  41.6979644  70.2289990  60.2270338
  40.7972982  61.6410879  43.2677848  41.0368985  61.8488862  42.4553191
  41.1188823  60.8368387  43.3766793  40.8810140  61.5524980  43.1638401
  36.1063272  53.5704274  47.1137386  36.8609240  53.9382591  46.8754436
  35.9290807  53.9443829  47.8816566  36.1917750  53.6802462  47.1922275
  34.7483993  71.6256164  51.7452879  35.4504573  71.1108153  51.8025636
  34.6681476  71.9530315  52.5499754  34.8407754  71.5970390  51.8725671
  49.3998171  59.7198715  55.1584926  48.5626592  59.7900902  55.3932520
  49.3686402  59.7223210  54.2859228  49.2716453  59.7308942  55.0644474
  35.7962900  61.8631750  60.8733294  35.9683404  61.7537645  61.7218576
  36.3332257  62.5086156  60.6364486  35.9007904  61.9423752  60.9638391
  34.4620337  55.9774593  43.8115499  34.2795910  56.1946474  42.9856492
  35.3245950  56.0913606  43.8674114  34.5624926  56.0264491  43.6969986
  34.0734769  67.8162516  51.2538487  34.9123668  68.0485448  51.3012249
  34.1046538  66.9466827  51.1845523  34.2016486  67.7219462  51.2503132
  34.6987472  68.2363391  55.5551793  35.2385697  68.0934522  56.2255165
  34.0157418  68.6360142  55.9235819  34.6779626  68.2743062  55.7086214
  44.1228357  63.9154391  50.7496817  44.8785872  64.3485906  50.7885726
  44.2290681  63.2659161  51.3231453  44.2498527  63.8831875  50.8394843
  47.1608528  67.7427669  51.4999220  46.7243760  67.7464411  52.2558191
  46.8271443  68.4233168  51.0678797  47.0471148  67.8440124  51.5480053
  41.7337601  69.7836001  62.8242370  42.5178018  69.8966849  63.1898112
  41.5334196  68.9577139  63.0201056  41.8203627  69.6782721  62.9076756
  30.1024617  64.4563682  55.7086214  29.8363032  63.6402798  55.8677204
  30.1163181  64.5016837  54.8381730  30.0649339  64.3420586  55.6039696
  47.0806011  54.7841496  53.7428648  47.7231919  54.8539601  54.3290563
  47.3329031  54.1170719  53.2408190  47.2128143  54.6967845  53.7555927
  34.0082364  59.2548766  42.3237972  33.2940541  58.9686945  42.7360405
  34.4926332  59.5945392  42.9644360  33.9741727  59.2630416  42.4793607
  34.8523223  57.9942060  58.3553222  34.1595020  57.5239040  58.6013953
  35.4683550  57.7680364  58.9294929  34.8407753  57.8909192  58.4762374
  41.8907995  71.6946103  56.4708826  41.0923240  71.4545604  56.7282695
  42.3394006  71.7460496  57.2175874  41.8382606  71.6668495  56.6193750
  50.2952874  64.4608589  50.3918857  50.9569308  63.8999257  50.2914766
  49.6544286  63.9660619  50.7171548  50.2981741  64.3044998  50.4251197
  41.1829682  67.7578720  42.6999780  41.5980830  67.4263744  42.0084276
  40.3521611  67.5247622  42.5719917  41.1217690  67.6749976  42.5790628
  30.5118030  65.2422461  52.9897958  30.3293604  65.2169347  52.1370251
  31.2467699  65.7121399  53.0286867  30.5932094  65.3083823  52.8695877
  46.5817705  65.4773971  50.1330846  46.8173294  65.6219170  49.3057697
  46.7307268  66.2416379  50.5262360  46.6383508  65.6113025  50.0694450
  33.5763782  61.9607464  59.4980067  34.3003754  61.9460494  59.9844962
  33.6779919  62.6702819  59.0002035  33.6981991  62.0632167  59.4958854
  48.4108161  64.3175637  47.9700450  48.7416378  64.8503277  47.3640545
  48.9841249  64.3714525  48.6262401  48.5441840  64.4045206  47.9778232
  40.9508731  65.4406548  64.3629014  40.1581712  65.7550060  64.5481634
  41.0657659  65.6558017  63.5249799  40.8504142  65.5190385  64.2667349
  43.6240050  62.1640540  48.6524030  43.7186905  62.9029834  49.1063655
  42.9998894  61.7358015  49.0858594  43.5449081  62.2101860  48.7832177
  41.8792524  65.3426752  59.3014311  42.4531386  64.7053996  59.4562875
  41.8007328  65.3430835  58.4323968  41.9525759  65.2491864  59.1960722
  30.4788941  62.1215962  53.1397025  31.0562443  61.9852412  53.7789270
  29.7803002  61.6651746  53.3942609  30.4609962  62.0338228  53.2719315
  43.8763072  64.0089279  41.8860982  43.7943234  64.0791466  42.7515969
  44.5142792  64.5719023  41.6944723  43.9582909  64.1028250  41.9850931
  37.2356243  63.7750017  51.3535508  36.9775487  62.9421752  51.3266808
  37.2904726  64.0007630  50.5128009  37.2056021  63.6847789  51.2255645
  42.3157293  55.8778468  51.4539601  41.6113620  55.3887653  51.6123520
  42.3642267  55.8900942  50.5828045  42.2187345  55.8068116  51.3478941
  36.2090955  61.3287780  51.8400403  35.6340546  61.4879948  52.4764364
  35.8326631  60.6923189  51.3768854  36.0693767  61.2585593  51.8654961
  39.8764244  59.8011129  56.6992781  39.4878676  59.3765347  56.0444973
  39.2118942  60.0493279  57.2069808  39.7211171  59.7749850  56.6780649
  49.5187513  59.5586134  49.4740611  49.2624078  58.7466075  49.2838494
  50.3616827  59.5663701  49.2470799  49.6053538  59.4398131  49.4125429
  25.9547774  60.9727855  49.8544844  26.0408026  60.5959723  50.6358374
  26.5823571  60.5988300  49.3764802  26.0604325  60.8613337  49.8990321
  43.6990605  53.4985758  54.2116766  44.0801117  52.8163929  54.5984640
  42.8953890  53.2095360  54.0292430  43.6367067  53.3552806  54.2420822
  47.2012672  66.7135730  59.3099164  46.9651310  65.8823795  59.1911225
  47.8455901  66.6621337  59.8954008  47.2607343  66.5833418  59.3785058
  36.8511090  67.5031251  50.0241900  37.4885037  67.2642999  50.5693694
  37.2766162  67.7068410  49.2895061  37.0087256  67.4982261  49.9959058
  31.5423733  69.7419588  53.9076204  31.5827878  70.0134439  53.0795984
  32.1018257  70.2661496  54.3233992  31.6307079  69.8595343  53.8468092
  37.4913905  62.7233541  44.3616790  37.8759058  62.5041248  45.1133335
  37.2425526  63.5496486  44.4917866  37.5115978  62.8131687  44.4917866
  37.6582446  56.0039956  64.0779374  37.3435887  56.7739519  63.8148937
  37.3372378  55.4410212  63.4931601  37.5641365  56.0350225  63.9520724
  48.2249093  66.4980179  55.3727459  47.9194910  67.2308235  55.7340774
  47.5055308  66.0918108  55.0920245  48.0736435  66.5461912  55.3840596
  39.2332562  67.9803674  51.7035687  39.3071570  67.8178846  52.5577537
  40.0502069  68.1693863  51.4596168  39.3648921  67.9840416  51.7933712
  53.9250885  63.1373179  54.6995803  53.8575385  63.1569138  53.8298389
  53.9106547  63.9803506  54.9251473  53.9129641  63.2646914  54.6048280
  32.9938319  68.3261537  48.7330130  32.1676437  68.5723274  48.6064409
  33.0550310  68.2473617  49.5992188  32.8812486  68.3506486  48.8419075
  35.2114343  54.3930478  49.6925570  34.3436768  54.4653077  49.7583180
  35.4989547  55.1952556  49.8813545  35.1254091  54.5224625  49.7300337
  44.3347231  54.5408337  58.0236892  45.0800823  54.3518147  57.6100318
  43.9184536  55.0666575  57.4650749  44.3832206  54.5910482  57.8801465
  37.7737148  70.9438417  46.4349160  38.0635446  70.5527398  45.7108387
  38.5040629  71.1255122  46.8754435  37.9244032  70.9132231  46.3931967
  51.7109502  61.9117565  52.9742397  52.2617424  61.2785634  53.2139489
  51.6953618  62.4432958  53.6657901  51.7894699  61.8966514  53.1121255
  38.3631893  65.7456163  57.5202291  37.8643587  66.4571930  57.5987179
  39.1732117  66.0656829  57.4820453  38.4088000  65.8983011  57.5258859
  35.7143063  72.9205799  49.5009310  35.4943359  72.6303154  50.2935977
  35.4937586  72.2620754  48.9727222  35.6490658  72.7805508  49.5398219
  34.6260011  65.0079116  51.7665012  34.3373259  64.3816587  52.3010739
  35.4943359  64.9499403  51.8329692  34.7120263  64.9066660  51.8555966
  45.4137908  60.1513899  52.0846993  45.0702674  59.4304234  52.4354243
  45.5130951  59.9427750  51.2425352  45.3779951  60.0138102  52.0118673
  37.8811019  74.2935189  48.2840002  38.5335077  73.7611631  48.5131028
  37.1836628  73.9403841  48.6707876  37.8741737  74.1624712  48.3752170
  34.8292284  66.6474367  47.6907377  35.5838252  67.0287406  47.9042839
  34.2362897  67.0985510  48.1454073  34.8528998  66.7703194  47.7890255
  45.8750938  66.6139603  47.6270981  46.4408970  67.2732813  47.5429524
  45.2278841  66.9589301  48.0987384  45.8629694  66.7621544  47.6843738
  37.2898951  58.6037207  62.8164589  36.4798727  58.9094987  62.7054431
  37.7673638  59.3242789  62.9317173  37.2402430  58.7551808  62.8171660
  36.1490511  67.8182928  53.0647492  35.6271264  67.9583220  53.7499357
  36.5364531  67.0593592  53.2549609  36.1294212  67.7268452  53.1948568
  33.1381695  57.8688737  47.1342447  32.8506490  57.4990007  46.3974394
  33.8252163  58.3383592  46.8726152  33.1970592  57.8835706  46.9857522
  42.3457516  69.5578387  47.0508061  42.1044192  68.8246248  46.6435126
  42.5258849  70.1065244  46.3974394  42.3365140  69.5300778  46.8938284
  37.5756836  64.8486947  48.4628983  37.3799619  65.4561682  47.8689286
  37.7991182  64.1554891  47.9820657  37.5791477  64.8364473  48.3045064
  35.9735366  61.7341685  48.5809851  36.6958018  61.8982843  48.1213657
  35.4943359  62.4551350  48.4749191  36.0099097  61.8639915  48.4975465
  43.9328874  58.0705484  53.9606536  43.0939974  58.0966763  53.7244800
  44.0033241  58.7176219  54.5411883  43.8197267  58.1701610  54.0115653
  33.6242983  64.1399757  57.6863991  34.1364080  64.4184011  57.0372751
  33.3379326  64.8789052  58.0526804  33.6577846  64.2902111  57.6453869
  47.8086398  63.2773471  51.2467778  47.7220372  63.4328897  52.1002557
  47.3536878  63.9211546  50.8727183  47.7289654  63.3949226  51.3174885
  30.7109889  58.6469949  47.9827728  30.8126026  59.4496111  48.3108703
  31.5065776  58.4457285  47.6850808  30.8437795  58.7355848  47.9863083
  37.1426708  56.2326146  57.7465033  36.9509905  56.2481280  58.5964456
  37.9925304  56.4289820  57.7231688  37.2402430  56.2640497  57.8688328
  31.5273621  58.7617128  55.7248849  31.3859113  57.9101068  55.8493357
  31.8114185  58.8045788  54.9011055  31.5481467  58.6416878  55.6216473
  41.6812214  60.5984218  49.8693338  41.4346928  60.5179969  50.7030126
  42.0097337  59.8137686  49.6755865  41.6933457  60.4710483  49.9640861
  45.5760263  67.3067577  53.6580119  45.4374622  68.0048623  54.1628861
  44.7960260  67.1516234  53.3016301  45.4403489  67.3867744  53.6806393
  43.9138348  63.6063952  59.9102500  43.9086386  62.7343769  59.9144927
  44.6199342  63.8052122  59.4371956  44.0183352  63.5067827  59.8409536
  37.6409241  63.3340936  59.2816321  37.7852617  63.9142144  58.6459431
  37.9884890  63.7117233  59.9866175  37.7136702  63.4761640  59.2915316
  39.8129158  62.5331105  57.0641452  39.0652472  62.7262119  56.6589730
  39.9670684  61.7076324  56.8265573  39.7251586  62.4396216  56.9686858
  36.7136996  71.5243708  56.1477347  36.8626560  70.9646624  55.4950752
  37.4936998  71.6035710  56.5309866  36.8511090  71.4529274  56.1074297
  47.0713635  66.6645831  44.4196618  46.6920444  65.8782969  44.4125907
  46.4079881  67.2132688  44.2768262  46.9172110  66.6290655  44.3977415
  39.2390297  71.6958351  57.4261838  39.1633968  71.0267162  57.9812627
  39.1680156  72.3976139  57.9402505  39.2170904  71.7003258  57.5838686
  40.0530935  56.4281655  57.9536856  40.5103550  57.1605630  58.0809648
  40.1287264  56.0048121  58.7124112  40.1321905  56.4738893  58.0837932
  32.2963927  56.6747475  59.0426300  31.7606116  56.0627833  59.3587067
  32.3581691  57.2495611  59.6959966  32.2259559  56.6694403  59.1861726
  39.8960544  70.2159350  48.2585444  40.6610435  69.9468994  47.9368108
  39.7938634  69.7309360  48.9755507  39.9942039  70.1048915  48.3165272
  37.9313313  58.4183759  54.7978680  37.1409388  58.2375219  55.1196016
  38.3273936  57.6410712  54.7808974  37.8730190  58.2771220  54.8431228
  42.4179204  67.2471534  40.2385394  43.1852189  67.3071659  39.8291245
  41.9710513  66.6751975  39.7541712  42.4652631  67.1708109  40.1063104
  43.3157000  66.0526189  52.5238126  42.6402001  65.8211422  53.0251513
  43.3249376  65.4447372  51.8980231  43.2175504  65.9285115  52.5054278
  40.4451144  60.8944018  59.2802179  40.3810285  61.7553975  59.1522316
  40.5848331  60.5776012  58.4797730  40.4566614  60.9744185  59.1430392
  45.3173734  68.9091322  44.7548304  45.3993572  69.7158308  44.4309755
  45.8023476  68.9287281  45.4789077  45.4010892  69.0311984  44.8135202
  39.1270238  63.5876158  53.4218382  38.7032487  63.7880657  52.6857400
  38.9515093  62.7405006  53.5342682  39.0381118  63.4924939  53.3292072
  38.6281931  75.1026671  55.8839839  39.1177861  74.4037460  55.7015504
  38.0566163  74.8050541  56.4715896  38.6166461  74.9552894  55.9440880
  34.4152682  64.0828209  48.8546354  34.5717302  64.0175012  49.7102346
  34.7553276  64.8576762  48.6425034  34.4885917  64.1877407  48.9500948
  40.9531827  63.4586093  47.7239718  41.4947373  62.9556474  48.1878338
  41.2678386  63.4051287  46.9129203  41.0796224  63.3765514  47.6723530
  44.8248935  67.6688740  64.8366630  45.6383800  67.3973889  64.9971762
  44.6643901  67.3696280  64.0326826  44.9218883  67.5843666  64.7412036
  39.1218277  68.8503444  45.0079746  39.1911097  67.9917983  45.1472746
  39.9006732  69.0675325  44.6798770  39.2471127  68.7556308  44.9796903
  42.1021096  58.3522397  57.7762018  42.3163066  57.7133312  57.2225372
  41.4854996  58.7968221  57.3469880  42.0426426  58.3232541  57.6312449
  43.5125764  71.2741146  49.2216239  43.1205556  70.9707861  48.5039105
  43.6678837  72.1110236  49.0321193  43.4779354  71.3524982  49.0872736
  30.9886944  61.2663160  49.1707121  31.3685909  61.6847705  48.5067389
  30.4142309  61.8476615  49.4775965  30.9598269  61.4141019  49.1183862
  44.2660184  59.9611462  58.7145325  43.4536866  59.6537353  58.7958498
  44.7250119  59.4810463  59.2788037  44.2140569  59.8447955  58.8099919
  43.6765439  67.8391134  49.1622269  43.3180094  68.0105777  49.9386302
  43.1904150  68.3004340  48.6050268  43.5524136  67.9330106  49.1947539
  38.4653805  63.5190300  41.7022504  38.7546329  64.2955182  41.9766078
  38.5525603  63.0079031  42.4037003  38.5208061  63.5582218  41.8465002
  41.3613692  61.3671534  63.4974027  41.8313323  61.9913650  63.8841901
  41.4075572  60.6988509  64.0567242  41.4381568  61.3606214  63.6374099
  40.5877199  54.0121521  56.0515684  40.2008952  54.0370553  56.8329214
  40.1010136  53.4463200  55.5990200  40.4589708  53.9317272  56.1003587
  44.8370179  68.7295030  60.1089470  45.4749899  68.2355226  59.7751926
  44.1944270  68.6572431  59.5241697  44.8364405  68.6454039  59.9731825
  46.5627179  60.5784176  54.6755386  46.1354787  60.4910525  53.9203485
  45.9253232  60.6861952  55.2610230  46.4056786  60.5816836  54.6500827
  40.2534341  50.8988507  58.3425944  40.8827459  51.4348807  58.0647014
  40.4220204  50.8065866  59.1939509  40.3712135  50.9649869  58.4274472
  40.0548256  55.6859702  60.6152355  40.8821685  55.4144851  60.6710970
  40.0756102  56.4820543  60.9716173  40.1801106  55.7639456  60.6767538
  44.8924435  69.4214839  56.7494827  45.6816813  69.0703903  56.8696909
  45.0668033  70.2351227  56.4871461  45.0344717  69.4900696  56.7282695
  34.6317746  62.8323564  53.8022616  33.7905752  62.7327439  54.0101510
  34.8407753  63.6019045  54.1536937  34.5382438  62.9315608  53.8849931
  32.1093312  60.4543101  51.6307367  31.7150010  60.5286113  50.8557476
  31.5533429  60.8401048  52.1815728  31.9696125  60.5224876  51.5975026
  38.4434410  60.7604964  53.0520213  38.1397548  60.2060952  53.6530621
  37.7413831  60.9397174  52.5648248  38.2950620  60.7049746  53.0689919
  37.5000507  58.0705483  47.6164915  37.7760242  57.3524396  47.2042483
  38.0999177  58.6690403  47.4086021  37.6293772  58.0525854  47.5245676
  36.5052761  67.9754684  57.7592311  36.3973116  67.9856746  58.6254369
  36.7148543  68.8009465  57.5697265  36.5202872  68.0995759  57.8596403
  41.0011028  55.7419001  45.8911510  41.4554775  55.9129561  46.6159355
  41.4751074  55.1287111  45.4909286  41.1379348  55.6769886  45.9385272
  34.5226553  65.2267327  55.2214249  33.9314487  65.8676825  55.1917264
  35.2847577  65.6504944  55.1945548  34.5474814  65.3843165  55.2129396
  34.9187176  56.3869324  55.8882266  35.3788658  56.4608254  56.6257390
  34.9643283  57.1850579  55.5382088  34.9937732  56.5163472  55.9455023
  36.5670526  57.0536019  60.4554293  36.1756091  56.4069366  60.8910071
  36.7356389  57.6447455  61.0748549  36.5341436  57.0450287  60.6116999
  50.6416975  65.0573096  56.2191527  50.7000099  65.5059745  56.9651504
  50.0083443  65.4671909  55.7821607  50.5568270  65.1846831  56.2644075
  44.2816070  70.6776638  52.6546273  44.0835758  71.1667453  51.9602485
  43.6603781  70.8817880  53.2330407  44.1603634  70.7793177  52.6369496
  38.3424048  62.4461535  46.9956518  39.0866093  62.8335811  47.2339467
  38.4884744  61.6018961  47.1597005  38.4734633  62.3792008  47.0550487
  41.3301924  58.0187008  52.8950437  40.8561878  57.4928770  53.4055748
  41.7020060  57.4716481  52.3265298  41.3151813  57.8603005  52.8865584
  31.7074954  60.0158515  58.2633983  32.5700567  59.9154224  58.1771312
  31.3766737  59.4353224  57.7019555  31.7860150  59.9150142  58.1679388
  47.5938654  63.0789384  54.3057217  47.3536877  62.2395799  54.3099644
  48.0730662  63.1589551  55.0297991  47.6290838  62.9670784  54.4132020
  43.2585424  58.9123563  45.9576191  42.7308442  58.9952307  45.2681899
  43.7181132  59.6541434  45.9540835  43.2487274  59.0344225  45.8550886
  49.5943841  59.8590841  52.2586476  49.3553611  59.8186675  51.4207261
  49.7577743  60.7061993  52.3852198  49.5834145  59.9782926  52.1539958
  46.1989872  64.2440791  58.1891522  46.9224070  63.7913317  58.0102542
  45.9339834  64.5245456  57.4063849  46.2671145  64.2191759  58.0470237
  35.0676740  58.8400964  54.9244401  34.4429810  58.8519356  54.3170353
  34.7322335  59.3161139  55.5735641  34.9262232  58.9119481  54.9300969
  35.2518489  57.1826083  40.9817086  34.9031293  57.8345808  41.4448635
  34.7714934  57.1683196  40.2540957  35.1288733  57.2769136  40.9428177
  31.7802415  66.9001424  56.3648165  31.2502340  66.2093863  56.4143140
  32.0527509  66.8911610  55.5360874  31.7427138  66.7968556  56.2495581
  42.8122506  67.4827127  45.0885848  43.5356705  67.9485240  44.9450421
  42.3723097  67.5500736  44.3383445  42.8538198  67.5610963  44.9570629
  41.9808661  64.3424669  56.3386537  41.3665654  63.7982719  56.6335172
  42.4975946  63.8288905  55.8592353  41.9664323  64.1861078  56.3110765
  41.2204958  65.4128939  54.0730835  40.7932566  64.7878658  53.6396271
  41.2129903  65.1303861  54.8989843  41.1564099  65.2781720  54.1310663
  34.3367485  60.4494112  57.1419269  34.4960972  59.6937436  57.5470991
  34.1560379  60.9985051  57.7960007  34.3332844  60.4187926  57.2981975
  42.2787788  52.6155348  57.6970059  41.7828350  52.8119022  57.0061625
  43.0356850  53.0148016  57.5258860  42.3174613  52.7033081  57.5690196
  39.5490668  56.2897693  54.2873369  39.5733155  55.7557806  53.5986149
  39.8002142  55.7815002  54.9498960  39.5900587  56.1358597  54.2838014
  27.0598258  63.5729188  53.7216513  26.9541707  63.5276033  52.8568597
  26.3098478  63.9182969  54.0030798  26.9333861  63.6170097  53.6353843
  35.8291990  55.0168512  53.6679114  35.8690362  55.5177718  54.3813821
  35.0041655  55.1078905  53.3985037  35.7131516  55.1050328  53.7329652
  38.0121603  64.5829252  61.7699408  37.1617234  64.7200966  61.9057053
  38.1749731  63.8493030  62.2147110  37.9105467  64.4943353  61.8555007
  37.2506354  61.5329021  55.9653013  36.4198283  61.7002839  55.7588261
  37.1957871  61.1564972  56.7501898  37.1195768  61.5018753  56.0501541
  35.0590137  55.0237914  61.6009423  35.6842840  54.4800047  61.8738856
  34.6040617  54.5432832  61.0317214  35.0838397  54.8727396  61.5571017
  35.6242397  59.8084613  46.4943130  35.7645358  60.3057077  47.1971772
  36.1224930  59.1070907  46.6357344  35.7183478  59.7786592  46.6194709
  35.6542620  60.6751724  43.8235707  36.2887699  61.2712149  43.7585169
  35.7368231  60.3755182  44.6381577  35.7599171  60.7192632  43.9338794
  48.6325186  63.2067201  56.6922071  49.2243026  63.8464452  56.7240269
  49.0684180  62.5090238  56.9814138  48.7843617  63.1985552  56.7402904
  37.2321603  56.6065699  43.7981149  37.5537444  56.1268782  43.1440411
  37.4948546  57.4165346  43.6071961  37.3187628  56.6555597  43.6736641
  40.4618575  67.6284574  57.3179965  39.9543666  68.1820421  57.7620596
  40.1645222  67.6892864  56.4998740  40.3423460  67.7190885  57.2628422
  42.6280758  55.9937893  56.1604628  43.0535829  55.5410420  55.5488155
  42.0137751  55.4397964  56.4369416  42.6009403  55.8451870  56.1109654
  32.1595608  62.8719565  47.0925253  32.6687837  63.4684072  47.4736559
  32.6329880  62.6045538  46.4101673  32.3038983  62.9205380  47.0479776
  43.0726356  71.5447832  45.2483909  42.3555665  71.3708694  44.7831146
  43.7233093  71.3100404  44.7159395  43.0628206  71.4843624  45.1013127
  45.6574327  60.4212420  48.9925214  44.9865517  60.9642122  48.8638279
  46.3514077  60.8907275  48.7506909  45.6603194  60.5710691  48.9380742
  39.7061061  72.5609132  54.2236972  39.4826715  71.8027961  54.5920998
  39.2170904  72.5907153  53.5017412  39.6004510  72.4531357  54.1713713
  45.8202454  56.8768304  51.9015587  46.1730064  56.4498027  52.5761386
  44.9617256  56.7919147  52.0316663  45.7451899  56.8013044  52.0210598
  34.5186139  59.5075823  49.9598434  33.7998128  59.9239956  50.2271297
  34.8898502  60.0730062  49.4090072  34.4678071  59.6525105  49.9181241
  43.8185720  60.1403672  55.8500429  43.7983648  59.9586967  56.7035208
  43.8664921  61.0115691  55.8260013  43.8220361  60.2420211  55.9723724
  41.7632050  66.7290864  61.7748906  41.7227905  66.0840541  61.1894062
  42.5755368  66.6727482  62.0874318  41.8775204  66.6249831  61.7345855
  38.3539518  72.7809590  51.6774057  37.9399916  72.1183720  51.2877898
  39.0386892  72.9287449  51.1569751  38.3937889  72.7050248  51.5430554
  41.7204812  71.9399675  52.4297673  41.3221095  72.0501946  51.6618494
  41.1056031  72.1481742  53.0124233  41.5703701  71.9873243  52.4028973
  40.2932714  58.5473823  45.2971813  39.6997553  58.8690820  44.7456380
  40.3307991  57.7014919  45.0892919  40.2107103  58.4698152  45.1854584
  43.1690530  58.5053328  48.7273563  42.9404223  58.5286029  47.8851922
  43.4288607  57.6810795  48.8468574  43.1736718  58.3869408  48.6198761
  37.4509759  60.3587801  58.3298664  36.9388662  59.7508984  58.6883695
  37.2789255  61.0744393  58.7972639  37.3499396  60.3751100  58.4514887
  32.2975473  58.8025376  60.9801025  32.1278064  59.4626751  60.4349232
  31.8541423  59.0131937  61.7013514  32.2074807  58.9311358  61.0062655
  36.2235293  57.0429874  50.0227759  36.6992659  57.4046954  49.3877940
  35.7223892  57.6986342  50.3027902  36.2200652  57.1924063  49.9704500
  49.4546654  66.5151642  45.8140764  49.8380260  67.2642998  46.0438861
  48.6590768  66.7617462  45.5552753  49.3940437  66.6621336  45.8098338
  41.3278829  58.2812045  60.7700919  41.8850259  58.0525855  60.1379384
  41.0039894  59.0417711  60.4936131  41.3625239  58.3595882  60.6357416
  29.1977538  61.7072242  56.2389515  28.6504257  61.0372887  56.3570383
  29.9869916  61.3402090  56.3032982  29.2329722  61.5537228  56.2658216
  39.0461946  61.3679699  61.7352926  39.7973273  61.6831376  62.0492480
  39.2384523  61.1658870  60.9086848  39.1853361  61.3847081  61.6596322
  38.2661946  59.1871074  43.3901143  38.6460911  59.2050703  42.6052258
  37.5254542  59.6325063  43.2691990  38.2130784  59.2552849  43.2564711
  45.8947237  57.4953265  48.9776722  45.8941463  57.3401922  49.8360998
  45.6903417  58.3416252  48.9218107  45.8647014  57.5973886  49.0964661
  27.9564507  60.9193050  53.3935538  27.7786269  60.4669658  54.1190454
  27.6683530  61.7219211  53.5774016  27.8877461  60.9715607  53.5279041
  43.6188089  62.1750767  52.6312928  44.1141754  61.4573762  52.5916949
  42.8087864  61.8721565  52.5167415  43.5731982  62.0248413  52.6086654
  39.0646700  66.0248580  44.7809933  38.2558023  65.7015254  44.7343242
  39.5721609  65.3181802  44.7138182  39.0196367  65.8729896  44.7640227
  29.6936977  63.4520773  50.5057297  28.8282497  63.4406464  50.3940068
  29.7935793  63.2650996  51.3528436  29.5811144  63.4226834  50.6146242
  45.6839907  64.9254454  55.3190057  46.1094979  64.4028876  54.7660482
  45.3196827  65.5235292  54.7978680  45.6926510  64.9364681  55.1599067
  35.3193987  73.2218672  54.0787403  35.6340546  74.0355060  54.0865184
  35.7287401  72.8368891  54.7469562  35.4262085  73.2847374  54.1791494
  42.2718507  68.6388719  51.6491215  42.7429685  69.3528981  51.8181200
  42.6078685  68.0387469  52.1851084  42.3913622  68.6560183  51.7523591
  44.3595491  70.2490032  63.8283287  44.4692457  69.4598593  64.1840034
  44.6886388  70.1595968  63.0257625  44.4247897  70.1195885  63.7625678
  39.1888002  53.4116189  58.6049310  39.3215907  52.6147183  58.9330285
  39.5733155  53.9382592  59.1847585  39.2644331  53.3716106  58.7392812
  42.9092453  68.4306653  58.4118907  42.3613399  67.8064536  58.1438973
  43.3705482  68.6200925  57.6962987  42.8959663  68.3665703  58.2669338
  45.7186318  56.4992007  55.7970100  45.1349306  57.0001214  55.3847667
  46.0390612  55.9921563  55.1634423  45.6799493  56.4983842  55.6428607
  38.2581117  55.4132602  46.0728774  39.0796811  55.5830915  45.8310469
  37.7950768  55.5679863  45.3495072  38.3112279  55.4614335  45.9300419
  36.8476449  53.4075364  56.8527203  37.3920862  53.0666491  57.4431545
  36.9013384  54.2660826  56.9948488  36.9365568  53.4830624  56.9609077
  32.6607007  67.1691780  53.7266011  33.2651865  67.1287614  53.0979832
  32.4534320  68.0162932  53.7570067  32.7195905  67.2879783  53.6382128
  42.4750779  69.4357725  54.9428249  43.2949153  69.2920692  55.2044544
  42.1944857  70.0603924  55.4844686  42.5547523  69.5068078  55.0616188
  27.8958290  66.1526398  53.5964934  27.7982568  65.3422669  53.9054991
  28.6787159  66.1318191  53.2111202  27.9974426  66.0293488  53.5851797
  58.9464430  77.0922577  47.9071125  58.9158434  77.9467214  48.0789394
  59.5445779  76.7917870  48.4657269  59.0301588  77.1739074  48.0145927
  52.1464115  76.1798228  52.6624055  51.2902010  76.3406726  52.7133172
  52.1931768  75.3090292  52.6829116  52.0263226  76.0749030  52.6730121
  54.9915936  78.2390272  55.3055707  55.5371896  78.9175359  55.3649677
  54.9332812  78.0977733  54.4457288  55.0631850  78.3182274  55.1867768
  56.7681004  79.6674879  46.1789435  56.6520530  80.4182565  46.6081573
  57.5636891  79.4098833  46.4285522  56.8685594  79.7409726  46.2793526
  43.6045142  73.9185355  53.2160701  42.9850174  73.3278003  53.0470716
  43.5029006  74.5096791  52.5825024  43.4982818  73.9189438  53.0965690
  48.6511330  83.6568902  47.4658777  48.9727171  84.1974110  46.8620085
  49.2983426  83.0865674  47.5981067  48.7937385  83.6528077  47.3965813
  50.7013038  75.6584897  47.5493164  51.3993203  75.8373025  48.0414627
  51.0165370  75.1355237  46.9263553  50.8508375  75.6078669  47.5295174
  43.3314275  77.4637637  55.4604270  43.2072972  78.0500083  56.0954089
  43.9832560  76.9697833  55.7616545  43.4087925  77.4776442  55.5990199
  50.8900973  82.0455342  47.5372955  51.3294609  81.4372443  47.9827728
  50.7405636  81.6662716  46.7658420  50.9322439  81.8993813  47.4892123
  48.3572616  80.6399354  54.7391781  49.0021619  80.1471797  54.4202729
  48.5974393  80.7824141  55.5657859  48.4883201  80.5876796  54.8141314
  50.8958708  83.4854260  54.3898673  51.1781951  82.6905666  54.1685429
  51.6244868  83.9634847  54.4103734  51.0448271  83.4388857  54.3601689
  48.8739902  71.0277294  51.6314438  48.5443232  71.4788437  50.9618137
  48.1984903  70.9493457  52.1787445  48.7250338  71.0828429  51.6137662
  54.4910310  80.3982523  44.4903725  54.4061605  81.2543490  44.6353293
  54.9794693  80.1226848  45.1585884  54.5499207  80.4839845  44.6105806
  56.0816309  67.0162817  49.8764049  55.7669750  67.7066295  50.3084471
  55.5643251  66.9607599  49.1749550  55.9580780  67.1097705  49.8360998
  55.4228743  77.0167318  45.9901460  54.8940215  77.2326951  46.6498766
  55.9453763  77.7103456  45.9102429  55.4217196  77.1510455  46.0757059
  47.3128351  80.9130534  44.7908928  46.7285566  81.4180566  45.1974792
  46.9098446  80.6872921  44.0505520  47.1667655  80.9538783  44.7413953
  51.7705565  77.1596187  43.2677848  52.0101569  77.3674170  42.4553191
  52.0921406  76.3553695  43.3766793  51.8542723  77.0710288  43.1638401
  47.0795856  69.0889582  47.1137386  47.8341824  69.4567899  46.8754436
  46.9023390  69.4629137  47.8816566  47.1650334  69.1987770  47.1922275
  60.3730754  75.2384023  55.1584926  59.5359175  75.3086210  55.3932520
  60.3418985  75.2408518  54.2859228  60.2449037  75.2494250  55.0644474
  46.7695483  77.3817058  60.8733294  46.9415987  77.2722953  61.7218576
  47.3064841  78.0271464  60.6364486  46.8740487  77.4609060  60.9638391
  45.4352920  71.4959901  43.8115499  45.2528493  71.7131782  42.9856492
  46.2978533  71.6098914  43.8674114  45.5357510  71.5449799  43.6969986
  51.1152639  68.4986312  46.8464523  51.8438800  68.3202267  46.4002679
  51.2047532  69.3404392  47.0571701  51.2359302  68.5970190  46.8118041
  55.0960940  79.4339699  50.7496817  55.8518455  79.8671214  50.7885726
  55.2023265  78.7844469  51.3231453  55.2231111  79.4017183  50.8394843
  41.0757200  79.9748989  55.7086214  40.8095616  79.1588106  55.8677204
  41.0895764  80.0202145  54.8381730  41.0381923  79.8605894  55.6039696
  58.0538594  70.3026804  53.7428648  58.6964503  70.3724909  54.3290563
  58.3061615  69.6356027  53.2408190  58.1860726  70.2153153  53.7555927
  44.9814947  74.7734074  42.3237972  44.2673124  74.4872253  42.7360405
  45.4658916  75.1130700  42.9644360  44.9474311  74.7815724  42.4793607
  45.8255807  73.5127368  58.3553222  45.1327603  73.0424347  58.6013953
  46.4416134  73.2865672  58.9294929  45.8140337  73.4094500  58.4762374
  52.1562265  83.2764028  42.6999780  52.5713414  82.9449052  42.0084276
  51.3254195  83.0432930  42.5719917  52.0950274  83.1935284  42.5790628
  41.4850614  80.7607769  52.9897958  41.3026187  80.7354655  52.1370251
  42.2200283  81.2306707  53.0286867  41.5664678  80.8269131  52.8695877
  57.5550288  80.9959279  50.1330846  57.7905877  81.1404478  49.3057697
  57.7039852  81.7601687  50.5262360  57.6116091  81.1298333  50.0694450
  44.5496366  77.4792772  59.4980067  45.2736338  77.4645802  59.9844962
  44.6512502  78.1888127  59.0002035  44.6714575  77.5817475  59.4958854
  59.3840745  79.8360945  47.9700450  59.7148962  80.3688585  47.3640545
  59.9573833  79.8899833  48.6262401  59.5174424  79.9230514  47.9778232
  54.5972634  77.6825847  48.6524030  54.6919488  78.4215142  49.1063655
  53.9731478  77.2543323  49.0858594  54.5181664  77.7287168  48.7832177
  41.4521524  77.6401270  53.1397025  42.0295027  77.5037720  53.7789270
  40.7535586  77.1837054  53.3942609  41.4342546  77.5523536  53.2719315
  54.8495655  79.5274587  41.8860982  54.7675818  79.5976774  42.7515969
  55.4875376  80.0904331  41.6944723  54.9315493  79.6213558  41.9850931
  48.2088826  79.2935325  51.3535508  47.9508071  78.4607060  51.3266808
  48.2637309  79.5192938  50.5128009  48.1788604  79.2033096  51.2255645
  53.2889877  71.3963776  51.4539601  52.5846203  70.9072961  51.6123520
  53.3374851  71.4086250  50.5828045  53.1919928  71.3253424  51.3478941
  47.1823539  76.8473088  51.8400403  46.6073130  77.0065256  52.4764364
  46.8059215  76.2108497  51.3768854  47.0426351  76.7770901  51.8654961
  50.8496827  75.3196437  56.6992781  50.4611260  74.8950655  56.0444973
  50.1851526  75.5678587  57.2069808  50.6943755  75.2935158  56.6780649
  60.4920096  75.0771442  49.4740611  60.2356661  74.2651383  49.2838494
  61.3349410  75.0849009  49.2470799  60.5786122  74.9583439  49.4125429
  36.9280358  76.4913162  49.8544844  37.0140609  76.1145031  50.6358374
  37.5556155  76.1173608  49.3764802  37.0336909  76.3798645  49.8990321
  54.6723189  69.0171066  54.2116766  55.0533701  68.3349237  54.5984640
  53.8686473  68.7280668  54.0292430  54.6099651  68.8738114  54.2420822
  51.9535766  79.5495042  44.8969588  52.7676404  79.8409934  44.7852360
  51.8894907  78.8954904  44.3227881  52.0638505  79.4960236  44.7958426
  47.8243674  83.0216559  50.0241900  48.4617621  82.7828307  50.5693694
  48.2498745  83.2253718  49.2895061  47.9819840  83.0167569  49.9959058
  48.4646489  78.2418849  44.3616790  48.8491642  78.0226556  45.1133335
  48.2158109  79.0681794  44.4917866  48.4848561  78.3316995  44.4917866
  48.6315029  71.5225264  64.0779374  48.3168470  72.2924827  63.8148937
  48.3104962  70.9595520  63.4931601  48.5373948  71.5535533  63.9520724
  50.2065146  83.4988982  51.7035687  50.2804154  83.3364154  52.5577537
  51.0234652  83.6879171  51.4596168  50.3381504  83.5025724  51.7933712
  46.1846926  69.9115785  49.6925570  45.3169352  69.9838385  49.7583180
  46.4722131  70.7137864  49.8813545  46.0986674  70.0409933  49.7300337
  55.3079815  70.0593645  58.0236892  56.0533407  69.8703455  57.6100318
  54.8917120  70.5851883  57.4650749  55.3564789  70.1095790  57.8801465
  62.6842086  77.4302873  52.9742397  63.2350007  76.7970942  53.2139489
  62.6686201  77.9618266  53.6657901  62.7627282  77.4151821  53.1121255
  49.3364477  81.2641471  57.5202291  48.8376170  81.9757238  57.5987179
  50.1464701  81.5842137  57.4820453  49.3820583  81.4168319  57.5258859
  45.5992594  80.5264424  51.7665012  45.3105843  79.9001895  52.3010739
  46.4675942  80.4684711  51.8329692  45.6852846  80.4251968  51.8555966
  56.3870492  75.6699207  52.0846993  56.0435258  74.9489542  52.4354243
  56.4863535  75.4613058  51.2425352  56.3512535  75.5323410  52.0118673
  45.8024868  82.1659675  47.6907377  46.5570836  82.5472714  47.9042839
  45.2095480  82.6170818  48.1454073  45.8261581  82.2888502  47.7890255
  48.2631535  74.1222515  62.8164589  47.4531310  74.4280295  62.7054431
  48.7406221  74.8428097  62.9317173  48.2135013  74.2737116  62.8171660
  47.1223094  83.3368236  53.0647492  46.6003848  83.4768528  53.7499357
  47.5097115  82.5778900  53.2549609  47.1026795  83.2453760  53.1948568
  44.1114278  73.3874045  47.1342447  43.8239074  73.0175315  46.3974394
  44.7984747  73.8568900  46.8726152  44.1703176  73.4021014  46.9857522
  48.5489420  80.3672255  48.4628983  48.3532202  80.9746990  47.8689286
  48.7723765  79.6740199  47.9820657  48.5524061  80.3549781  48.3045064
  46.9467950  77.2526993  48.5809851  47.6690602  77.4168151  48.1213657
  46.4675943  77.9736658  48.4749191  46.9831681  77.3825223  48.4975465
  54.9061457  73.5890792  53.9606536  54.0672558  73.6152071  53.7244800
  54.9765825  74.2361527  54.5411883  54.7929851  73.6886918  54.0115653
  44.5975567  79.6585065  57.6863991  45.1096663  79.9369319  57.0372751
  44.3111909  80.3974359  58.0526804  44.6310430  79.8087419  57.6453869
  53.3530736  70.4876169  48.6934152  54.0557089  70.2883917  48.2154110
  53.0874924  69.7152111  49.0002996  53.4177368  70.3439135  48.6679594
  58.7818981  78.7958779  51.2467778  58.6952956  78.9514205  52.1002557
  58.3269461  79.4396854  50.8727183  58.7022238  78.9134534  51.3174885
  41.6842473  74.1655257  47.9827728  41.7858609  74.9681419  48.3108703
  42.4798360  73.9642593  47.6850808  41.8170379  74.2541156  47.9863083
  48.1159292  71.7511454  57.7465033  47.9242489  71.7666588  58.5964456
  48.9657888  71.9475128  57.7231688  48.2135014  71.7825805  57.8688328
  42.5006205  74.2802435  55.7248849  42.3591697  73.4286376  55.8493357
  42.7846768  74.3231096  54.9011055  42.5214051  74.1602185  55.6216473
  52.6544797  76.1169526  49.8693338  52.4079512  76.0365277  50.7030126
  52.9829920  75.3322993  49.6755865  52.6666041  75.9895791  49.9640861
  48.6141825  78.8526244  59.2816321  48.7585200  79.4327452  58.6459431
  48.9617473  79.2302541  59.9866175  48.6869286  78.9946948  59.2915316
  50.7861742  78.0516413  57.0641452  50.0385056  78.2447427  56.6589730
  50.9403267  77.2261632  56.8265573  50.6984170  77.9581524  56.9686858
  51.0263519  71.9466963  57.9536856  51.4836133  72.6790938  58.0809648
  51.1019848  71.5233429  58.7124112  51.1054489  71.9924201  58.0837932
  43.2696510  72.1932783  59.0426300  42.7338700  71.5813141  59.3587067
  43.3314275  72.7680919  59.6959966  43.1992143  72.1879711  59.1861726
  55.4990845  65.1256839  51.8230699  55.6174413  65.5833302  51.0898002
  55.3253021  64.3202100  51.5366916  55.4910016  65.0750611  51.6731633
  48.9045897  73.9369067  54.7978680  48.1141972  73.7560527  55.1196016
  49.3006520  73.1596020  54.7808974  48.8462773  73.7956528  54.8431228
  53.3911788  82.7656842  40.2385394  54.1584773  82.8256967  39.8291245
  52.9443097  82.1937283  39.7541712  53.4385215  82.6893417  40.1063104
  54.2889583  81.5711497  52.5238126  53.6134585  81.3396730  53.0251513
  54.2981959  80.9632680  51.8980231  54.1908088  81.4470423  52.5054278
  51.4183727  76.4129326  59.2802179  51.3542868  77.2739283  59.1522316
  51.5580915  76.0961320  58.4797730  51.4299197  76.4929493  59.1430392
  50.1002821  79.1061466  53.4218382  49.6765070  79.3065965  52.6857400
  49.9247676  78.2590314  53.5342682  50.0113702  79.0110247  53.3292072
  45.3885266  79.6013517  48.8546354  45.5449885  79.5360320  49.7102346
  45.7285859  80.3762070  48.6425034  45.4618501  79.7062715  48.9500948
  51.9264411  78.9771401  47.7239718  52.4679956  78.4741782  48.1878338
  52.2410970  78.9236595  46.9129203  52.0528808  78.8950822  47.6723530
  50.0950860  84.3688752  45.0079746  50.1643681  83.5103291  45.1472746
  50.8739316  84.5860633  44.6798770  50.2203710  84.2741616  44.9796903
  53.0753680  73.8707705  57.7762018  53.2895650  73.2318619  57.2225372
  52.4587579  74.3153529  57.3469880  53.0159009  73.8417849  57.6312449
  41.9619528  76.7848468  49.1707121  42.3418492  77.2033013  48.5067389
  41.3874892  77.3661923  49.4775965  41.9330852  76.9326326  49.1183862
  55.2392768  75.4796770  58.7145325  54.4269450  75.1722661  58.7958498
  55.6982703  74.9995771  59.2788037  55.1873153  75.3633263  58.8099919
  54.6498023  83.3576442  49.1622269  54.2912677  83.5291085  49.9386302
  54.1636734  83.8189648  48.6050268  54.5256720  83.4515413  49.1947539
  52.4668409  66.9807641  52.7649361  51.5961967  66.9546362  52.7182670
  52.7208750  66.8084833  51.9475206  52.3761969  66.9517785  52.6369498
  49.4386388  79.0375608  41.7022504  49.7278913  79.8140490  41.9766078
  49.5258187  78.5264339  42.4037003  49.4940644  79.0767526  41.8465002
  49.4917549  68.9913869  54.2222831  48.9756038  68.2994061  54.3474410
  48.9311478  69.6584646  54.1685430  49.3324062  68.9877127  54.2328897
  51.5609783  69.5306829  56.0515684  51.1741536  69.5555861  56.8329214
  51.0742720  68.9648508  55.5990200  51.4322292  69.4502580  56.1003587
  57.5359762  76.0969484  54.6755386  57.1087370  76.0095833  53.9203485
  56.8985815  76.2047260  55.2610230  57.3789369  76.1002144  54.6500827
  51.2266924  66.4173815  58.3425944  51.8560042  66.9534115  58.0647014
  51.3952787  66.3251174  59.1939509  51.3444719  66.4835177  58.4274472
  51.0280839  71.2045010  60.6152355  51.8554269  70.9330158  60.6710970
  51.0488685  72.0005851  60.9716173  51.1533689  71.2824764  60.6767538
  45.6050329  78.3508872  53.8022616  44.7638336  78.2512747  54.0101510
  45.8140337  79.1204353  54.1536937  45.5115022  78.4500916  53.8849931
  43.0825896  75.9728409  51.6307367  42.6882594  76.0471421  50.8557476
  42.5266013  76.3586356  52.1815728  42.9428708  76.0410184  51.5975026
  54.7190843  68.9509703  51.3111245  54.9240436  68.8832011  52.1568243
  54.3917267  69.7568525  51.2432423  54.7006091  69.0595644  51.4270901
  49.4166994  76.2790272  53.0520213  49.1130131  75.7246260  53.6530621
  48.7146415  76.4582482  52.5648248  49.2683204  76.2235054  53.0689919
  48.4733091  73.5890791  47.6164915  48.7492825  72.8709704  47.2042483
  49.0731760  74.1875711  47.4086021  48.6026356  73.5711162  47.5245676
  57.9724531  69.5041468  50.7914011  57.3598844  69.9911870  51.1767743
  58.0688705  68.8284958  51.3351662  57.8962428  69.4759776  50.9292869
  51.9743612  71.2604309  45.8911510  52.4287358  71.4314869  46.6159355
  52.4483657  70.6472419  45.4909286  52.1111932  71.1955194  45.9385272
  45.8919760  71.9054632  55.8882266  46.3521241  71.9793562  56.6257390
  45.9375866  72.7035886  55.5382088  45.9670315  72.0348779  55.9455023
  47.5403110  72.5721327  60.4554293  47.1488675  71.9254674  60.8910071
  47.7088972  73.1632763  61.0748549  47.5074020  72.5635595  60.6116999
  49.3156632  77.9646843  46.9956518  50.0598677  78.3521119  47.2339467
  49.4617328  77.1204268  47.1597005  49.4467217  77.8977316  47.0550487
  51.2336207  69.7597102  52.0288379  50.3872252  69.9319910  51.9029729
  51.2307339  68.9546446  52.3654207  51.1083357  69.6658131  52.0599506
  52.3034507  73.5372316  52.8950437  51.8294462  73.0114078  53.4055748
  52.6752643  72.9901789  52.3265298  52.2884396  73.3788313  52.8865584
  42.6807538  75.5343823  58.2633983  43.5433151  75.4339532  58.1771312
  42.3499321  74.9538532  57.7019555  42.7592734  75.4335450  58.1679388
  58.5671238  78.5974692  54.3057217  58.3269461  77.7581107  54.3099644
  59.0463245  78.6774859  55.0297991  58.6023422  78.4856092  54.4132020
  54.2318007  74.4308871  45.9576191  53.7041026  74.5137615  45.2681899
  54.6913715  75.1726742  45.9540835  54.2219858  74.5529533  45.8550886
  60.5676425  75.3776149  52.2586476  60.3286195  75.3371983  51.4207261
  60.7310326  76.2247301  52.3852198  60.5566728  75.4968234  52.1539958
  46.0409324  74.3586272  54.9244401  45.4162394  74.3704664  54.3170353
  45.7054918  74.8346447  55.5735641  45.8994815  74.4304789  54.9300969
  46.2251072  72.7011391  40.9817086  45.8763877  73.3531116  41.4448635
  45.7447518  72.6868504  40.2540957  46.1021316  72.7954444  40.9428177
  53.7855090  83.0012435  45.0885848  54.5089288  83.4670548  44.9450421
  53.3455681  83.0686044  44.3383445  53.8270782  83.0796271  44.9570629
  52.9541245  79.8609977  56.3386537  52.3398238  79.3168027  56.6335172
  53.4708530  79.3474213  55.8592353  52.9396907  79.7046386  56.3110765
  52.1937542  80.9314247  54.0730835  51.7665150  80.3063965  53.6396271
  52.1862486  80.6489169  54.8989843  52.1296683  80.7967027  54.1310663
  45.3100069  75.9679420  57.1419269  45.4693556  75.2122744  57.5470991
  45.1292963  76.5170359  57.7960007  45.3065428  75.9373234  57.2981975
  53.2520372  68.1340655  57.6970059  52.7560933  68.3304330  57.0061625
  54.0089434  68.5333324  57.5258860  53.2907197  68.2218389  57.5690196
  50.5223251  71.8083001  54.2873369  50.5465739  71.2743114  53.5986149
  50.7734725  71.3000310  54.9498960  50.5633170  71.6543905  54.2838014
  38.0330841  79.0914496  53.7216513  37.9274290  79.0461341  52.8568597
  37.2831061  79.4368277  54.0030798  37.9066444  79.1355404  53.6353843
  46.8024574  70.5353820  53.6679114  46.8422945  71.0363026  54.3813821
  45.9774238  70.6264213  53.3985037  46.6864100  70.6235636  53.7329652
  48.2238937  77.0514329  55.9653013  47.3930867  77.2188147  55.7588261
  48.1690454  76.6750280  56.7501898  48.0928352  77.0204061  56.0501541
  46.0322720  70.5423222  61.6009423  46.6575424  69.9985355  61.8738856
  45.5773200  70.0618140  61.0317214  46.0570981  70.3912704  61.5571017
  46.5974981  75.3269921  46.4943130  46.7377942  75.8242385  47.1971772
  47.0957514  74.6256215  46.6357344  46.6916062  75.2971900  46.6194709
  46.6275203  76.1937032  43.8235707  47.2620283  76.7897457  43.7585169
  46.7100814  75.8940490  44.6381577  46.7331754  76.2377940  43.9338794
  48.2054186  72.1251007  43.7981149  48.5270027  71.6454090  43.1440411
  48.4681130  72.9350653  43.6071961  48.2920212  72.1740905  43.6736641
  53.6013341  71.5123201  56.1604628  54.0268413  71.0595728  55.5488155
  52.9870334  70.9583272  56.4369416  53.5741987  71.3637178  56.1109654
  43.1328191  78.3904873  47.0925253  43.6420421  78.9869380  47.4736559
  43.6062463  78.1230846  46.4101673  43.2771567  78.4390688  47.0479776
  52.0407564  67.9838301  49.5695205  51.3975882  67.8335948  50.1380344
  51.7006971  67.7380646  48.8044310  51.8952641  67.9250424  49.5398220
  56.6306910  75.9397728  48.9925214  55.9598100  76.4827430  48.8638279
  57.3246661  76.4092583  48.7506909  56.6335778  76.0895999  48.9380742
  56.7935038  72.3953612  51.9015587  57.1462648  71.9683335  52.5761386
  55.9349839  72.3104455  52.0316663  56.7184483  72.3198352  52.0210598
  45.4918723  75.0261131  49.9598434  44.7730712  75.4425264  50.2271297
  45.8631085  75.5915370  49.4090072  45.4410655  75.1710413  49.9181241
  54.7918304  75.6588980  55.8500429  54.7716231  75.4772275  56.7035208
  54.8397504  76.5300999  55.8260013  54.7952945  75.7605518  55.9723724
  51.2665297  74.0659131  45.2971813  50.6730137  74.3876128  44.7456380
  51.3040575  73.2200227  45.0892919  51.1839686  73.9883459  45.1854584
  58.2259098  67.5172023  52.8299900  57.7189963  66.8101163  52.7621077
  59.0226532  67.1865212  52.9600976  58.2686337  67.3645175  52.8398895
  54.1423114  74.0238636  48.7273563  53.9136807  74.0471337  47.8851922
  54.4021190  73.1996103  48.8468574  54.1469302  73.9054716  48.6198761
  48.4242342  75.8773109  58.3298664  47.9121245  75.2694292  58.6883695
  48.2521838  76.5929701  58.7972639  48.3231979  75.8936408  58.4514887
  43.2708057  74.3210684  60.9801025  43.1010647  74.9812059  60.4349232
  42.8274007  74.5317245  61.7013514  43.1807391  74.4496666  61.0062655
  47.1967876  72.5615182  50.0227759  47.6725243  72.9232262  49.3877940
  46.6956476  73.2171650  50.3027902  47.1933235  72.7109371  49.9704500
  52.3011413  73.7997353  60.7700919  52.8582843  73.5711163  60.1379384
  51.9772478  74.5603019  60.4936131  52.3357823  73.8781190  60.6357416
  40.1710122  77.2257550  56.2389515  39.6236841  76.5558195  56.3570383
  40.9602500  76.8587398  56.3032982  40.2062305  77.0722536  56.2658216
  49.2394530  74.7056382  43.3901143  49.6193494  74.7236011  42.6052258
  48.4987126  75.1510371  43.2691990  49.1863367  74.7738156  43.2564711
  56.8679820  73.0138573  48.9776722  56.8674046  72.8587230  49.8360998
  56.6636000  73.8601560  48.9218107  56.8379598  73.1159194  49.0964661
  38.9297091  76.4378357  53.3935538  38.7518852  75.9854966  54.1190454
  38.6416113  77.2404519  53.5774016  38.8610044  76.4900915  53.5279041
  54.5920672  77.6936075  52.6312928  55.0874337  76.9759070  52.5916949
  53.7820448  77.3906872  52.5167415  54.5464565  77.5433721  52.6086654
  50.0379284  81.5433888  44.7809933  49.2290606  81.2200562  44.7343242
  50.5454193  80.8367110  44.7138182  49.9928950  81.3915204  44.7640227
  40.6669561  78.9706081  50.5057297  39.8015080  78.9591772  50.3940068
  40.7668377  78.7836304  51.3528436  40.5543728  78.9412142  50.6146242
  56.6572491  80.4439762  55.3190057  57.0827563  79.9214184  54.7660482
  56.2929411  81.0420600  54.7978680  56.6659094  80.4549989  55.1599067
  53.2451090  84.1574027  51.6491215  53.7162269  84.8714289  51.8181200
  53.5811269  83.5572777  52.1851084  53.3646205  84.1745491  51.7523591
  50.1620585  68.9301497  58.6049310  50.2948491  68.1332491  58.9330285
  50.5465738  69.4567900  59.1847585  50.2376914  68.8901414  58.7392812
  53.2352941  65.8531823  55.2030403  52.4298904  65.7429553  55.5198241
  53.1059676  65.9544279  54.3460269  53.0973073  65.8515493  55.1238443
  56.6918901  72.0177315  55.7970100  56.1081890  72.5186522  55.3847667
  57.0123195  71.5106871  55.1634423  56.6532076  72.0169150  55.6428607
  49.2313700  70.9317910  46.0728774  50.0529395  71.1016223  45.8310469
  48.7683351  71.0865171  45.3495072  49.2844863  70.9799643  45.9300419
  47.8209032  68.9260672  56.8527203  48.3653445  68.5851799  57.4431545
  47.8745968  69.7846134  56.9948488  47.9098152  69.0015932  56.9609077
  25.7217503   7.4744785  34.8411172  25.6911507   8.3289421  35.0129441
  26.3198852   7.1740077  35.3997315  25.8054661   7.5561281  34.9485974
  18.9217188   6.5620436  39.5964102  18.0655083   6.7228934  39.6473219
  18.9684842   5.6912500  39.6169163  18.8016299   6.4571237  39.6070168
  13.3058328  16.0983153  35.3601334  12.5541227  15.7198692  35.1317379
  13.7544339  16.1301587  34.6120144  13.2607994  16.0468761  35.2158836
  22.2310904  12.8306961  49.2024558  22.9377672  12.3358992  49.3311493
  22.4198840  13.2716043  48.4727216  22.3638810  12.8225312  49.1133604
  18.7583288  16.5208523  30.7886881  18.4234656  17.1985445  30.3531103
  19.2710158  16.1313834  30.2003752  18.7848869  16.5633101  30.6373672
  18.2987579  18.4722792  36.7297992  18.6826958  19.0409690  36.1902768
  18.2346720  17.7472302  36.2503808  18.3461006  18.4498255  36.5791855
  21.7669009   8.6212480  42.2395754  22.3124969   9.2997566  42.2989723
  21.7085885   8.4799940  41.3797335  21.8384923   8.7004481  42.1207814
  14.8843084  16.1101546  37.6264106  14.9853447  15.3001900  37.9361234
  14.2884829  16.0158492  36.9963785  14.8115622  15.9766574  37.5790345
  23.5434078  10.0497087  33.1129482  23.4273604  10.8004773  33.5421620
  24.3389964   9.7921040  33.3625569  23.6438667  10.1231934  33.2133573
  14.7243823  21.0279135  39.0278962  15.3681279  21.4692299  39.4175121
  15.0500079  20.2232561  38.9409221  14.8675652  20.9744330  39.0724440
   8.0808128  12.1321832  37.2516440   7.8458313  11.2989485  37.1448709
   8.2193769  12.4126498  36.4377641   8.0663791  12.0505336  37.1158795
  15.4264403  14.0391110  34.3998824  15.7480244  14.5796317  33.7960132
  16.0736500  13.4687881  34.5321114  15.5690458  14.0350285  34.3305859
  17.4766111   6.0407105  34.4833211  18.1746276   6.2195232  34.9754674
  17.7918444   5.5177444  33.8603600  17.6261448   5.9900877  34.4635221
  10.1067349   7.8459845  42.3944317   9.9826045   8.4322290  43.0294135
  10.7585633   7.3520040  42.6956592  10.1840998   7.8598649  42.5330246
  17.6654047  12.4277550  34.4713002  18.1047682  11.8194650  34.9167775
  17.5158709  12.0484923  33.6998467  17.7075512  12.2816021  34.4232170
  15.1325690  11.0221561  41.6731828  15.7774692  10.5294005  41.3542776
  15.3727467  11.1646348  42.4997906  15.2636275  10.9699004  41.7481361
  17.6711781  13.8676467  41.3238720  17.9535024  13.0727873  41.1025476
  18.3997941  14.3457055  41.3443781  17.8201345  13.8211064  41.2941735
  21.2663383  10.7804731  31.4243771  21.1814678  11.6365698  31.5693340
  21.7547766  10.5049055  32.0925931  21.3252280  10.8662052  31.5445853
  22.8569383  -2.6014976  36.8104096  22.5422824  -1.9111497  37.2424518
  22.3396324  -2.6570194  36.1089597  22.7333853  -2.5080087  36.7701045
  22.1981816   7.3989525  32.9241507  21.6693288   7.6149159  33.5838813
  22.7206836   8.0925664  32.8442476  22.1970269   7.5332662  33.0097106
  14.0881424  11.2952742  31.7248974  13.5038639  11.8002773  32.1314838
  13.6851519  11.0695129  30.9845566  13.9420728  11.3360990  31.6754000
   9.6425453  17.0107503  38.5272646   9.1593031  17.7357993  38.5032230
  10.4548771  17.3083633  38.6382804   9.6916200  17.1609857  38.5399925
  19.3703199  16.2534498  47.0938634  19.4586545  16.0660638  47.9416844
  19.7992911  15.6071927  46.6943480  19.4465301  16.1297505  47.1610385
  16.9373659  15.5365658  46.0756296  16.3744493  15.1238268  46.5995957
  17.6994682  15.4618563  46.4949439  16.9668107  15.4643058  46.2149296
  18.5458639   7.5418394  30.2017895  18.7854642   7.7496378  29.3893238
  18.8674480   6.7375903  30.3106840  18.6295796   7.4532495  30.0978448
  12.4969650  17.5263679  38.6792926  13.1990229  17.0115668  38.7365682
  12.4167133  17.8537830  39.4839801  12.5893410  17.4977905  38.8065718
  27.1483828   5.6206230  42.0924972  26.3112249   5.6908417  42.3272567
  27.1172058   5.6230725  41.2199275  27.0202110   5.6316457  41.9984520
  13.5448557   7.7639266  47.8073341  13.7169060   7.6545160  48.6558622
  14.0817914   8.4093671  47.5704533  13.6493561   7.8431267  47.8978438
  11.8220425  13.7170031  38.1878534  12.6609325  13.9492964  38.2352296
  11.8532195  12.8474342  38.1185569  11.9502143  13.6226977  38.1843179
  12.4473128  14.1370906  42.4891839  12.9871353  13.9942037  43.1595212
  11.7643075  14.5367657  42.8575866  12.4265282  14.1750577  42.6426261
  21.8714013   9.8161907  37.6836864  22.6271528  10.2493421  37.7225773
  21.9776338   9.1666676  38.2571500  21.9984184   9.7839391  37.7734889
  19.4823258  15.6843517  49.7582417  20.2663675  15.7974365  50.1238159
  19.2819853  14.8584654  49.9541103  19.5689283  15.5790236  49.8416803
   7.8510274  10.3571197  42.6426261   7.5848689   9.5410314  42.8017251
   7.8648838  10.4024352  41.7721776   7.8134996  10.2428102  42.5379743
  24.8291667   0.6849012  40.6768695  25.4717576   0.7547116  41.2630610
  25.0814688   0.0178235  40.1748237  24.9613799   0.5975360  40.6895974
  11.7568021   5.1556281  29.2578019  11.0426198   4.8694461  29.6700452
  12.2411989   5.4952907  29.8984407  11.7227384   5.1637931  29.4133654
  19.6393651  17.5953619  43.4048873  18.8408897  17.3553119  43.6622741
  20.0879663  17.6468012  44.1515920  19.5868263  17.5676010  43.5533797
  28.0438531  10.3616104  37.3258904  28.7054965   9.8006772  37.2254812
  27.4029943   9.8668135  37.6511595  28.0467398  10.2052513  37.3591244
  18.9315338  13.6586235  29.6339827  19.3466487  13.3271259  28.9424323
  18.1007268  13.4255138  29.5059964  18.8703347  13.5757491  29.5130675
   8.2603687  11.1429976  39.9238005   8.0779260  11.1176862  39.0710297
   8.9953356  11.6128914  39.9626914   8.3417751  11.2091339  39.8035924
  24.3303361  11.3781486  37.0670893  24.5658951  11.5226685  36.2397743
  24.4792925  12.1423894  37.4602406  24.3869165  11.5120541  37.0034497
  11.3249439   7.8614979  46.4320114  12.0489411   7.8468010  46.9185009
  11.4265575   8.5710334  45.9342082  11.4467648   7.9639682  46.4298901
  18.6994388  11.3414064  51.2969061  17.9067369  11.6557576  51.4821681
  18.8143315  11.5565532  50.4589846  18.5989799  11.4197900  51.2007396
  21.3725707   8.0648055  35.5864077  21.4672562   8.8037349  36.0403702
  20.7484551   7.6365530  36.0198641  21.2934737   8.1109375  35.7172224
  19.6278181  11.2434267  46.2354358  20.2017043  10.6061512  46.3902922
  19.5492985  11.2438350  45.3664015  19.7011416  11.1499379  46.1300768
   8.2274598   8.0223477  40.0737072   8.8048100   7.8859928  40.7129317
   7.5288659   7.5659261  40.3282656   8.2095619   7.9345743  40.2059361
  21.6248729   9.9096795  28.8201029  21.5428891   9.9798982  29.6856016
  22.2628449  10.4726539  28.6284769  21.7068566  10.0035766  28.9190978
  14.9841900   9.6757533  38.2875555  14.7261144   8.8429267  38.2606855
  15.0390383   9.9015146  37.4468055  14.9541678   9.5855304  38.1595692
  20.0642950   1.7785983  38.3879648  19.3599277   1.2895169  38.5463567
  20.1127924   1.7908458  37.5168092  19.9673001   1.7075631  38.2818988
  13.9576612   7.2295295  38.7740450  13.3826203   7.3887463  39.4104411
  13.5812288   6.5930704  38.3108900  13.8179424   7.1593108  38.7995008
  17.6249901   5.7018644  43.6332828  17.2364333   5.2772862  42.9785019
  16.9604599   5.9500794  44.1409855  17.4696828   5.6757365  43.6120696
  27.2673170   5.4593649  36.4080658  27.0109734   4.6473591  36.2178541
  28.1102484   5.4671216  36.1810846  27.3539195   5.3405647  36.3465475
  21.4476262  -0.6006727  41.1456812  21.8286774  -1.2828556  41.5324687
  20.6439546  -0.8897125  40.9632477  21.3852724  -0.7439678  41.1760868
  18.7288839   9.9317249  31.8309635  19.5429478  10.2232142  31.7192407
  18.6647980   9.2777111  31.2567928  18.8391578   9.8782444  31.7298473
  24.9498329  12.6143245  46.2439211  24.7136966  11.7831310  46.1251271
  25.5941558  12.5628852  46.8294055  25.0093000  12.4840933  46.3125104
  14.5996747  13.4038766  36.9581947  15.2370694  13.1650514  37.5033741
  15.0251819  13.6075925  36.2235108  14.7572913  13.3989777  36.9299105
   9.2909389  15.6427103  40.8416251   9.3313535  15.9141954  40.0136031
   9.8503913  16.1669011  41.2574039   9.3792735  15.7602858  40.7808139
  15.2399562   8.6241056  31.2956837  15.6244715   8.4048763  32.0473382
  14.9911182   9.4504002  31.4257913  15.2601635   8.7139202  31.4257913
  25.9734750  12.3987694  42.3067505  25.6680567  13.1315751  42.6680821
  25.2540965  11.9925623  42.0260291  25.8222092  12.4469427  42.3180642
  16.9818219  13.8811189  38.6375734  17.0557227  13.7186361  39.4917583
  17.7987725  14.0701379  38.3936215  17.1134578  13.8847931  38.7273759
  31.6736542   9.0380695  41.6335850  31.6061042   9.0576654  40.7638436
  31.6592204   9.8811022  41.8591520  31.6615298   9.1654429  41.5388326
  10.7423976  14.2269052  35.6670177   9.9162093  14.4730789  35.5404456
  10.8035967  14.1481133  36.5332235  10.6298143  14.2514001  35.7759121
  22.0832888   0.4415852  44.9576939  22.8286480   0.2525663  44.5440364
  21.6670193   0.9674090  44.3990795  22.1317862   0.4917998  44.8141512
  15.5222805  16.8445932  33.3689207  15.8121103  16.4534913  32.6448434
  16.2526286  17.0262637  33.8094482  15.6729689  16.8139746  33.3272014
  29.4595159   7.8125081  39.9082444  30.0103081   7.1793150  40.1479536
  29.4439274   8.3440474  40.5997948  29.5380355   7.7974029  40.0461302
  16.1117550  11.6463678  44.4542337  15.6129244  12.3579446  44.5327226
  16.9217774  11.9664345  44.4160500  16.1573657  11.7990527  44.4598906
  13.4628720  18.8213315  36.4349357  13.2429016  18.5310669  37.2276024
  13.2423242  18.1628270  35.9067269  13.3976314  18.6813023  36.4738265
  12.3745667  10.9086631  38.7005058  12.0858916  10.2824102  39.2350786
  13.2429016  10.8506918  38.7669739  12.4605919  10.8074175  38.7896013
  23.1623565   6.0521414  39.0187040  22.8188331   5.3311750  39.3694290
  23.2616608   5.8435266  38.1765398  23.1265608   5.9145618  38.9458720
  15.6296676  20.1942704  35.2180049  16.2820734  19.6619147  35.4471075
  14.9322285  19.8411357  35.6047923  15.6227394  20.0632227  35.3092217
  12.5777941  12.5481882  34.6247423  13.3323909  12.9294921  34.8382886
  11.9848554  12.9993026  35.0794120  12.6014654  12.6710709  34.7230302
  23.6236594  12.5147118  34.5611028  24.1894627  13.1740328  34.4769571
  22.9764498  12.8596817  35.0327430  23.6115351  12.6629060  34.6183785
  15.0384608   4.5044722  49.7504636  14.2284384   4.8102502  49.6394478
  15.5159295   5.2250305  49.8657220  14.9888087   4.6559324  49.7511707
  13.8976167  13.7190443  39.9987539  13.3756921  13.8590735  40.6839403
  14.2850188  12.9601108  40.1889656  13.8779868  13.6275967  40.1288615
  20.0943172  15.4585903  33.9848108  19.8529848  14.7253763  33.5775172
  20.2744505  16.0072760  33.3314441  20.0850796  15.4308294  33.8278330
  15.3242493  10.7494462  35.3969030  15.1285276  11.3569197  34.8029333
  15.5476839  10.0562406  34.9160704  15.3277134  10.7371988  35.2385111
  13.7221023   7.6349200  35.5149898  14.4443675   7.7990358  35.0553704
  13.2429016   8.3558865  35.4089238  13.7584754   7.7647430  35.4315512
  21.6814531   3.9712999  40.8946583  20.8425631   3.9974278  40.6584846
  21.7518898   4.6183735  41.4751930  21.5682924   4.0709125  40.9455700
  11.3728640  10.0407273  44.6204038  11.8849737  10.3191526  43.9712798
  11.0864982  10.7796567  44.9866851  11.4063503  10.1909626  44.5793916
  20.1283809   0.8698376  35.6274199  20.8310162   0.6706124  35.1494157
  19.8627998   0.0974319  35.9343042  20.1930441   0.7261342  35.6019641
  25.5572055   9.1780986  38.1807825  25.4706029   9.3336412  39.0342604
  25.1022534   9.8219061  37.8067230  25.4775311   9.2956741  38.2514932
  14.8912365   2.1333661  44.6805080  14.6995562   2.1488796  45.5304503
  15.7410961   2.3297336  44.6571734  14.9888087   2.1648013  44.8028374
  19.4297871   6.4991733  36.8033384  19.1832585   6.4187484  37.6370173
  19.7582994   5.7145201  36.6095912  19.4419114   6.3717998  36.8980907
  23.3245919  13.2075092  40.5920166  23.1860279  13.9056138  41.0968908
  22.5445917  13.0523749  40.2356347  23.1889146  13.2875259  40.6146440
  21.6624005   9.5071468  46.8442547  21.6572043   8.6351284  46.8484974
  22.3684998   9.7059637  46.3712003  21.7669009   9.4075342  46.7749583
  17.5614815   8.4338620  43.9981499  16.8138129   8.6269634  43.5929777
  17.7156340   7.6083840  43.7605620  17.4737243   8.3403731  43.9026905
  14.4622653  17.4251223  43.0817394  14.6112217  16.8654139  42.4290799
  15.2422655  17.5043225  43.4649913  14.5996746  17.3536789  43.0414343
  16.9875953  17.5965866  44.3601885  16.9119625  16.9274677  44.9152673
  16.9165813  18.2983654  44.8742551  16.9656560  17.6010774  44.5178733
  17.8016592   2.3289171  44.8876903  18.2589206   3.0613145  45.0149695
  17.8772921   1.9055636  45.6464159  17.8807562   2.3746409  45.0177979
  17.6446200  16.1166865  35.1925491  18.4096091  15.8476509  34.8708155
  17.5424290  15.6316876  35.9095554  17.7427696  16.0056430  35.2505319
  15.6798970   4.3191275  41.7318727  14.8895045   4.1382735  42.0536063
  16.0759593   3.5418227  41.7149021  15.6215846   4.1778736  41.7771275
  20.1664861  13.1479049  27.1725440  20.9337846  13.2079174  26.7631292
  19.7196170  12.5759490  26.6881759  20.2138288  13.0715625  27.0403151
  21.0642656  11.9533705  39.4578173  20.3887658  11.7218937  39.9591560
  21.0735033  11.3454888  38.8320278  20.9661161  11.8292630  39.4394325
  18.1936800   6.7951534  46.2142226  18.1295942   7.6561490  46.0862362
  18.3333988   6.4783527  45.4137777  18.2052270   6.8751700  46.0770439
  23.0659391  14.8098837  31.6888351  23.1479228  15.6165823  31.3649802
  23.5509133  14.8294796  32.4129124  23.1496549  14.9319500  31.7475249
  16.8755894   9.4883673  40.3558429  16.4518143   9.6888172  39.6197447
  16.7000749   8.6412521  40.4682728  16.7866775   9.3932455  40.2632119
  16.3767588  21.0034186  42.8179886  16.8663518  20.3044975  42.6355550
  15.8051820  20.7058056  43.4055943  16.3652118  20.8560410  42.8780927
  12.1638339   9.9835725  35.7886401  12.3202958   9.9182527  36.6442393
  12.5038932  10.7584277  35.5765081  12.2371574  10.0884923  35.8840995
  18.7017484   9.3593608  34.6579764  19.2433029   8.8563989  35.1218385
  19.0164043   9.3058803  33.8469250  18.8281881   9.2773029  34.6063576
  22.5734591  13.5696255  51.7706677  23.3869457  13.2981404  51.9311809
  22.4129558  13.2703795  50.9666872  22.6704540  13.4851181  51.6752082
  16.8703934  14.7510960  31.9419792  16.9396754  13.8925498  32.0812793
  17.6492389  14.9682841  31.6138817  16.9956784  14.6563824  31.9136950
  19.8506753   4.2529913  44.7102065  20.0648723   3.6140827  44.1565419
  19.2340652   4.6975736  44.2809927  19.7912083   4.2240056  44.5652496
  21.2611421  17.1748661  36.1556286  20.8691213  16.8715376  35.4379152
  21.4164493  18.0117751  35.9661239  21.2265011  17.2532498  36.0212783
   8.7372601   7.1670675  36.1047168   9.1171566   7.5855220  35.4407436
   8.1627966   7.7484131  36.4116012   8.7083926   7.3148534  36.0523909
  22.0145841   5.8618978  45.6485372  21.2022523   5.5544868  45.7298545
  22.4735776   5.3817978  46.2128084  21.9626226   5.7455470  45.7439966
  21.4251096  13.7398650  36.0962316  21.0665751  13.9113293  36.8726349
  20.9389807  14.2011855  35.5390315  21.3009793  13.8337621  36.1287585
  16.2139461   9.4197815  28.6362551  16.5031986  10.1962698  28.9106125
  16.3011260   8.9086547  29.3377050  16.2693718   9.4589734  28.7805048
  19.1099349   7.2679049  50.4314074  19.5798980   7.8921166  50.8181948
  19.1561229   6.5996025  50.9907289  19.1867225   7.2613730  50.5714146
  22.5855835  14.6302546  47.0429517  23.2235556  14.1362741  46.7091973
  21.9429927  14.5579946  46.4581744  22.5850062  14.5461554  46.9071872
  24.3112835   6.4791692  41.6095433  23.8840443   6.3918040  40.8543532
  23.6738888   6.5869467  42.1950277  24.1542443   6.4824352  41.5840874
  17.8033912   1.5867217  47.5492402  18.6307342   1.3152366  47.6051017
  17.8241759   2.3828059  47.9056220  17.9286763   1.6646971  47.6107585
  22.6410092  15.3222354  43.6834874  23.4302470  14.9711419  43.8036955
  22.8153690  16.1358742  43.4211508  22.7830374  15.3908211  43.6622742
  12.3803402   8.7331080  40.7362663  11.5391409   8.6334954  40.9441557
  12.5893410   9.5026560  41.0876983  12.2868095   8.8323123  40.8189978
   9.8578969   6.3550617  38.5647413   9.4635667   6.4293629  37.7897523
   9.3019086   6.7408563  39.1155775   9.7181782   6.4232391  38.5315073
  21.4943916  -0.6668089  38.2451292  21.6993509  -0.7345781  39.0908289
  21.1670340   0.1390732  38.1772470  21.4759164  -0.5582149  38.3610947
  16.1920067   6.6612479  39.9860260  15.8883205   6.1068467  40.5870668
  15.4899488   6.8404689  39.4988294  16.0436277   6.6057261  40.0029966
  15.2486164   3.9712999  34.5504962  15.5245899   3.2531911  34.1382530
  15.8484834   4.5697919  34.3426068  15.3779429   3.9533369  34.4585723
  14.2538418  13.8762200  44.6932358  14.1458773  13.8864262  45.5594416
  14.4634200  14.7016980  44.5037312  14.2688529  14.0003274  44.7936450
  24.7477604  -0.1136325  37.7254058  24.1351917   0.3734077  38.1107790
  24.8441779  -0.7892834  38.2691709  24.6715501  -0.1418016  37.8632916
  18.7496685   1.6426516  32.8251557  19.2040431   1.8137077  33.5499402
  19.2236731   1.0294627  32.4249333  18.8865005   1.5777401  32.8725319
  12.2712210  11.1274842  42.1554296  11.6800143  11.7684340  42.1257311
  13.0333234  11.5512459  42.1285595  12.2960471  11.2850680  42.1469443
  14.3156183   2.9543535  47.3894340  13.9241748   2.3076882  47.8250118
  14.4842045   3.5454970  48.0088596  14.2827093   2.9457803  47.5457046
  22.0301726  16.5784154  39.5886320  21.8321415  17.0674968  38.8942531
  21.4089437  16.7825395  40.1670453  21.9089291  16.6800692  39.5709543
  16.0909705   8.3469050  33.9296564  16.8351750   8.7343327  34.1679514
  16.2370401   7.5026476  34.0937052  16.2220290   8.2799523  33.9890534
  19.0787581   3.9194524  39.8290484  18.6047535   3.3936286  40.3395795
  19.4505716   3.3723997  39.2605345  19.0637470   3.7610520  39.8205631
  25.3424311   8.9796899  41.2397264  25.1022534   8.1403315  41.2439691
  25.8216318   9.0597066  41.9638038  25.3776495   8.8678299  41.3472067
  21.0071080   4.8131078  32.8916237  20.4794099   4.8959822  32.2021946
  21.4666788   5.5548950  32.8880882  20.9972931   4.9351741  32.7890933
  27.3429498   5.7598357  39.1926523  27.1039268   5.7194191  38.3547308
  27.5063399   6.6069509  39.3192244  27.3319802   5.8790442  39.0880005
  23.9475528  10.1448306  45.1231568  24.6709727   9.6920832  44.9442588
  23.6825491  10.4252972  44.3403896  24.0156802  10.1199274  44.9810284
  12.8162397   4.7408479  41.8584448  12.1915467   4.7526871  41.2510400
  12.4807992   5.2168655  42.5075688  12.6747889   4.8126996  41.8641016
   9.5288072  12.8008940  43.2988212   8.9987997  12.1101379  43.3483187
   9.8013166  12.7919125  42.4700920   9.4912795  12.6976071  43.1835628
  20.5608163  13.3834642  32.0225895  21.2842362  13.8492755  31.8790468
  20.1208754  13.4508252  31.2723492  20.6023855  13.4618479  31.8910676
  19.7294318  10.2432184  43.2726584  19.1151311   9.6990234  43.5675219
  20.2461603   9.7296421  42.7932400  19.7149980  10.0868593  43.2450812
  18.9690615  11.3136454  41.0070882  18.5418223  10.6886173  40.5736318
  18.9615559  11.0311376  41.8329889  18.9049756  11.1789235  41.0650710
  12.0853142   6.3501627  44.0759316  12.2446629   5.5944951  44.4811038
  11.9046036   6.8992567  44.7300054  12.0818501   6.3195441  44.2322022
  20.0273445  -1.4837137  44.6310106  19.5314006  -1.2873463  43.9401672
  20.7842507  -1.0844469  44.4598907  20.0660270  -1.3959403  44.5030242
  17.2976325   2.1905209  41.2213416  17.3218812   1.6565321  40.5326196
  17.5487798   1.6822518  41.8839007  17.3386243   2.0366113  41.2178061
   4.8083915   9.4736704  40.6556560   4.7027364   9.4283548  39.7908644
   4.0584135   9.8190484  40.9370845   4.6819517   9.5177612  40.5693890
  15.7607260  10.4836767  48.7039455  14.9102890  10.6208481  48.8397100
  15.9235388   9.7500545  49.1487157  15.6591123  10.3950868  48.7895054
  14.9992010   7.4336537  42.8993059  14.1683940   7.6010355  42.6928308
  14.9443527   7.0572488  43.6841945  14.8681425   7.4026268  42.9841588
  13.3728054   5.7092128  33.4283177  13.5131015   6.2064593  34.1311819
  13.8710587   5.0078423  33.5697391  13.4669135   5.6794107  33.5534756
  13.4028277   6.5759239  30.7575754  14.0373356   7.1719664  30.6925216
  13.4853887   6.2762697  31.5721624  13.5084828   6.6200148  30.8678841
  26.3810842   9.1074717  43.6262118  26.9728683   9.7471967  43.6580316
  26.8169837   8.4097753  43.9154185  26.5329274   9.0993067  43.6742951
  14.9807259   2.5073215  30.7321196  15.3023100   2.0276297  30.0780458
  15.2434203   3.3172861  30.5412008  15.0673285   2.5563113  30.6076688
  18.2104232  13.5292089  44.2520012  17.7029323  14.0827936  44.6960643
  17.9130878  13.5900379  43.4338787  18.0909117  13.6198400  44.1968469
  20.3766414   1.8945409  43.0944675  20.8021486   1.4417935  42.4828201
  19.7623407   1.3405479  43.3709463  20.3495060   1.7459385  43.0449700
   9.9081264   8.7727080  34.0265300  10.4173494   9.3691588  34.4076606
  10.3815537   8.5053054  33.3441720  10.0524640   8.8212896  33.9819823
  20.8212012  17.4455347  32.1823956  20.1041322  17.2716209  31.7171193
  21.4718750  17.2107919  31.6499442  20.8113863  17.3851139  32.0353173
  23.4059984   6.3219935  35.9265261  22.7351174   6.8649638  35.7978326
  24.0999734   6.7914791  35.6846955  23.4088851   6.4718207  35.8720788
  17.4546717  18.4616647  41.1577019  17.2312372  17.7035477  41.5261045
  16.9656561  18.4914669  40.4357459  17.3490166  18.3538872  41.1053760
  23.5688111   2.7775819  38.8355634  23.9215721   2.3505542  39.5101433
  22.7102913   2.6926663  38.9656710  23.4937556   2.7020560  38.9550644
  12.2671796   5.4083339  36.8938480  11.5483785   5.8247471  37.1611344
  12.6384158   5.9737577  36.3430119  12.2163728   5.5532620  36.8521287
  21.5671377   6.0411188  42.7840476  21.5469304   5.8594483  43.6375255
  21.6150578   6.9123206  42.7600060  21.5706018   6.1427726  42.9063771
  19.5117707  12.6298380  48.7088953  19.4713562  11.9848057  48.1234109
  20.3241025  12.5734997  49.0214365  19.6260860  12.5257346  48.6685902
  16.1025174  18.6817106  38.6114104  15.6885573  18.0191236  38.2217945
  16.7872549  18.8294964  38.0909798  16.1423546  18.6057764  38.4770601
  19.4690469  17.8407191  39.3637720  19.0706752  17.9509461  38.5958540
  18.8541688  18.0489257  39.9464280  19.3189358  17.8880759  39.3369020
  18.0418371   4.4481339  32.2311860  17.4483210   4.7698335  31.6796427
  18.0793648   3.6022434  32.0232966  17.9592760   4.3705667  32.1194631
  25.0012171  -2.1005769  39.7639946  24.4943036  -2.8076630  39.6961124
  25.7979605  -2.4312580  39.8941023  25.0439410  -2.2532618  39.7738941
  20.9176187   4.4060843  35.6613610  20.6889880   4.4293545  34.8191968
  21.1774263   3.5818310  35.7808621  20.9222375   4.2876923  35.5538808
  15.1995416   6.2595316  45.2638710  14.6874319   5.6516499  45.6223742
  15.0274912   6.9751909  45.7312686  15.0985053   6.2758615  45.3854934
  13.9720950   2.9437389  36.9567806  14.4478316   3.3054469  36.3217987
  13.4709549   3.5993857  37.2367949  13.9686309   3.0931578  36.9044547
  19.0764486   4.1819561  47.7040966  19.6335916   3.9533370  47.0719431
  18.7525551   4.9425226  47.4276178  19.1110896   4.2603398  47.5697463
  16.7947603   7.2687214  48.6692973  17.5458930   7.5838891  48.9832527
  16.9870180   7.0666385  47.8426895  16.9339017   7.2854596  48.5936369
  16.0147603   5.0878589  30.3241190  16.3946568   5.1058218  29.5392305
  15.2740199   5.5332578  30.2032037  15.9616441   5.1560364  30.1904758
  23.6432893   3.3960780  35.9116768  23.6427120   3.2409437  36.7701045
  23.4389073   4.2423767  35.8558154  23.6132671   3.4981401  36.0304708
  21.3673745   8.0758282  39.5652975  21.8627411   7.3581277  39.5256996
  20.5573521   7.7729080  39.4507462  21.3217639   7.9255928  39.5426701
  16.8132357  11.9256095  31.7149980  16.0043680  11.6022769  31.6683289
  17.3207266  11.2189318  31.6478228  16.7682024  11.7737412  31.6980274
   7.4422634   9.3528289  37.4397344   6.5768154   9.3413979  37.3280115
   7.5421450   9.1658511  38.2868483   7.3296801   9.3234350  37.5486288
  23.4325564  10.8261970  42.2530104  23.8580636  10.3036392  41.7000529
  23.0682484  11.4242807  41.7318727  23.4412167  10.8372197  42.0939114
  13.0679644  19.1226187  41.0127450  13.3826203  19.9362576  41.0205231
  13.4773057  18.7376406  41.6809609  13.1747742  19.1854890  41.1131541
  20.0204164  14.5396234  38.5831262  20.4915342  15.2536497  38.7521247
  20.3564342  13.9394984  39.1191131  20.1399279  14.5567698  38.6863637
  22.1081148  16.1497547  50.7623334  22.2178114  15.3606108  51.1180081
  22.4372045  16.0603484  49.9597672  22.1733554  16.0203400  50.6965724
  20.6578110  14.3314168  45.3458954  20.1099056  13.7072052  45.0779019
  21.1191139  14.5208440  44.6303034  20.6445319  14.2673218  45.2009385
  23.4671974   2.3999523  42.7310146  22.8834963   2.9008729  42.3187714
  23.7876268   1.8929079  42.0974470  23.4285150   2.3991358  42.5768654
  16.0066773   1.3140117  33.0068821  16.8282468   1.4838430  32.7650516
  15.5436424   1.4687378  32.2835119  16.0597936   1.3621850  32.8640466
  10.4092664  13.0699296  40.6606058  11.0137522  13.0295130  40.0319879
  10.2019977  13.9170448  40.6910114  10.4681561  13.1887298  40.5722174
  20.2236436  15.3365241  41.8768295  21.0434810  15.1928207  42.1384591
  19.9430514  15.9611440  42.4184733  20.3033180  15.4075593  41.9956235
   5.6443946  12.0533913  40.5304981   5.5468224  11.2430185  40.8395038
   6.4272816  12.0325707  40.1451249   5.7460083  11.9301003  40.5191844
  19.0540712  27.6507140  37.2516440  18.8190896  26.8174792  37.1448709
  19.1926352  27.9311806  36.4377641  19.0396374  27.5690644  37.1158795
  21.3530799  19.8192871  40.1500748  20.7335831  19.2285518  39.9810762
  21.2514663  20.4104306  39.5165071  21.2468475  19.8196953  40.0305737
  21.0799932  23.3645152  42.3944317  20.9558629  23.9507598  43.0294135
  21.7318217  22.8705348  42.6956592  21.1573581  23.3783957  42.5330246
  33.8301966  12.9170332  36.8104096  33.5155407  13.6073811  37.2424518
  33.3128908  12.8615114  36.1089597  33.7066437  13.0105221  36.7701045
  27.9106242  31.0550966  46.0756296  27.3477077  30.6423575  46.5995957
  28.6727266  30.9803871  46.4949439  27.9400691  30.9828366  46.2149296
  29.5191222  23.0603702  30.2017895  29.7587226  23.2681686  29.3893238
  29.8407063  22.2561211  30.3106840  29.6028380  22.9717803  30.0978448
  24.5181140  23.2824574  47.8073341  24.6901644  23.1730468  48.6558622
  25.0550498  23.9278979  47.5704533  24.6226144  23.3616575  47.8978438
  23.1838577  17.3967417  30.7455546  23.0014150  17.6139297  29.9196539
  24.0464190  17.5106429  30.8014160  23.2843167  17.4457314  30.6310033
  23.4205712  29.6556214  42.4891839  23.9603937  29.5127345  43.1595212
  22.7375658  30.0552965  42.8575866  23.3997866  29.6935885  42.6426261
  18.8242857  25.8756505  42.6426261  18.5581272  25.0595621  42.8017251
  18.8381421  25.9209660  41.7721776  18.7867579  25.7613410  42.5379743
  35.8024251  16.2034320  40.6768695  36.4450159  16.2732424  41.2630610
  36.0547272  15.5363543  40.1748237  35.9346383  16.1160668  40.6895974
  23.5741463  19.4134883  45.2893269  22.8813260  18.9431863  45.5354000
  24.1901791  19.1873188  45.8634976  23.5625993  19.3102015  45.4102421
  19.2336271  26.6615284  39.9238005  19.0511844  26.6362170  39.0710297
  19.9685940  27.1314222  39.9626914  19.3150335  26.7276646  39.8035924
  22.2982022  23.3800287  46.4320114  23.0221995  23.3653318  46.9185009
  22.3998159  24.0895642  45.9342082  22.4200232  23.4824990  46.4298901
  29.6726972  26.8599372  51.2969061  28.8799953  27.1742884  51.4821681
  29.7875899  27.0750840  50.4589846  29.5722382  26.9383208  51.2007396
  19.2007181  23.5408785  40.0737072  19.7780684  23.4045236  40.7129317
  18.5021243  23.0844569  40.3282656  19.1828203  23.4531051  40.2059361
  14.6766014  22.3920678  36.7884890  14.7626266  22.0152546  37.5698420
  15.3041812  22.0181123  36.3104849  14.7822565  22.2806160  36.8330368
  20.2641973  31.1612411  40.8416251  20.3046118  31.4327262  40.0136031
  20.8236497  31.6854319  41.2574039  20.3525319  31.2788166  40.7808139
  26.3800686  17.4232779  51.0119421  26.0654127  18.1932342  50.7488984
  26.0590619  16.8603035  50.4271648  26.2859605  17.4543048  50.8860771
  33.0565472  15.9601160  44.9576939  33.8019064  15.7710971  44.5440364
  32.6402776  16.4859398  44.3990795  33.1050446  16.0103306  44.8141512
  23.3478251  26.4271939  38.7005058  23.0591500  25.8009410  39.2350786
  24.2161599  26.3692226  38.7669739  23.4338503  26.3259483  38.7896013
  26.0117191  20.0230030  49.7504636  25.2016967  20.3287810  49.6394478
  26.4891878  20.7435613  49.8657220  25.9620670  20.1744632  49.7511707
  22.3461223  25.5592581  44.6204038  22.8582320  25.8376834  43.9712798
  22.0597566  26.2981875  44.9866851  22.3796086  25.7094934  44.5793916
  19.4328130  20.0662773  34.9167775  19.5344266  20.8688934  35.2448750
  20.2284016  19.8650108  34.6190855  19.5656035  20.1548671  34.9203130
  20.2491862  20.1809951  42.6588896  20.1077354  19.3293891  42.7833404
  20.5332425  20.2238611  41.8351102  20.2699708  20.0609701  42.5556520
  25.4355236  32.9436531  43.0817394  25.5844800  32.3839447  42.4290799
  26.2155238  33.0228533  43.4649913  25.5729330  32.8722097  43.0414343
  27.9608537  33.1151174  44.3601885  27.8852208  32.4459985  44.9152673
  27.8898396  33.8168962  44.8742551  27.9389144  33.1196082  44.5178733
  21.0182167  18.0940298  45.9766346  20.4824356  17.4820657  46.2927114
  21.0799932  18.6688434  46.6300013  20.9477800  18.0887226  46.1201773
  33.2476502  11.0264354  38.7570746  33.3660070  11.4840817  38.0238048
  33.0738677  10.2209615  38.4706963  33.2395673  10.9758126  38.6071679
  23.1370923  25.5021032  35.7886401  23.2935542  25.4367835  36.6442393
  23.4771516  26.2769585  35.5765081  23.2104158  25.6070231  35.8840995
  33.5467175  29.0881563  51.7706677  34.3602040  28.8166712  51.9311809
  33.3862141  28.7889103  50.9666872  33.6437123  29.0036489  51.6752082
  19.7105184  22.6855983  36.1047168  20.0904149  23.1040528  35.4407436
  19.1360549  23.2669439  36.4116012  19.6816509  22.8333842  36.0523909
  30.0831932  22.7864357  50.4314074  30.5531564  23.4106474  50.8181948
  30.1293813  22.1181333  50.9907289  30.1599808  22.7799037  50.5714146
  28.9752581  12.3181330  45.2765990  29.6045699  12.8541630  44.9987061
  29.1438444  12.2258689  46.1279556  29.0930376  12.3842692  45.3614519
  28.7766496  17.1052525  47.5492402  29.6039925  16.8337674  47.6051017
  28.7974342  17.9013367  47.9056220  28.9019346  17.1832279  47.6107585
  23.3535986  24.2516388  40.7362663  22.5123992  24.1520262  40.9441557
  23.5625994  25.0211868  41.0876983  23.2600678  24.3508431  40.8189978
  20.8311553  21.8735925  38.5647413  20.4368251  21.9478936  37.7897523
  20.2751670  22.2593871  39.1155775  20.6914365  21.9417699  38.5315073
  25.2271002  29.3947508  44.6932358  25.1191357  29.4049570  45.5594416
  25.4366783  30.2202288  44.5037312  25.2421113  29.5188582  44.7936450
  35.7210187  15.4048983  37.7254058  35.1084501  15.8919385  38.1107790
  35.8174362  14.7292474  38.2691709  35.6448085  15.3767292  37.8632916
  23.2444794  26.6460150  42.1554296  22.6532727  27.2869648  42.1257311
  24.0065817  27.0697767  42.1285595  23.2693054  26.8035988  42.1469443
  23.6405417  17.8062148  42.8222313  24.1006898  17.8801077  43.5597437
  23.6861523  18.6043402  42.4722135  23.7155972  17.9356295  42.8795070
  25.2888766  18.4728843  47.3894340  24.8974331  17.8262190  47.8250118
  25.4574629  19.0640278  48.0088596  25.2559677  18.4643110  47.5457046
  20.4293194  21.4351338  45.1974029  21.2918807  21.3347048  45.1111359
  20.0984977  20.8546048  44.6359602  20.5078391  21.3342965  45.1019435
  23.9736729  18.6018906  27.9157133  23.6249533  19.2538631  28.3788682
  23.4933175  18.5876019  27.1881004  23.8506973  18.6961959  27.8768224
  20.5020656  28.3194248  43.2988212  19.9720580  27.6286686  43.3483187
  20.7745749  28.3104433  42.4700920  20.4645378  28.2161379  43.1835628
  23.0585726  21.8686935  44.0759316  23.2179212  21.1130259  44.4811038
  22.8778619  22.4177875  44.7300054  23.0551085  21.8380749  44.2322022
  15.7816498  24.9922012  40.6556560  15.6759947  24.9468856  39.7908644
  15.0316718  25.3375792  40.9370845  15.6552101  25.0362920  40.5693890
  26.7339843  26.0022075  48.7039455  25.8835474  26.1393789  48.8397100
  26.8967971  25.2685853  49.1487157  26.6323707  25.9136176  48.7895054
  23.7808377  16.4430738  48.5349470  24.4061081  15.8992870  48.8078902
  23.3258857  15.9625655  47.9657261  23.8056638  16.2920219  48.4911064
  20.8813848  24.2912388  34.0265300  21.3906077  24.8876896  34.4076606
  21.3548120  24.0238362  33.3441720  21.0257224  24.3398204  33.9819823
  35.9744755  13.4179539  39.7639946  35.4675619  12.7108678  39.6961124
  36.7712189  13.0872728  39.8941023  36.0171994  13.2652690  39.7738941
  21.0193714  20.2218199  47.9141072  20.8496304  20.8819574  47.3689279
  20.5759664  20.4324761  48.6353561  20.9293047  20.3504182  47.9402702
  30.0497069  19.7004869  47.7040966  30.6068500  19.4718678  47.0719431
  29.7258134  20.4610534  47.4276178  30.0843480  19.7788705  47.5697463
  17.9195778  23.1265065  43.1729562  17.3722498  22.4565711  43.2910430
  18.7088157  22.7594913  43.2373029  17.9547962  22.9730051  43.1998263
  27.7680187  22.7872522  48.6692973  28.5191514  23.1024199  48.9832527
  27.9602763  22.5851693  47.8426895  27.9071601  22.8039904  48.5936369
  16.6782748  22.3385873  40.3275585  16.5004509  21.8862482  41.0530501
  16.3901770  23.1412034  40.5114063  16.6095701  22.3908431  40.4619088
  18.4155218  24.8713597  37.4397344  17.5500737  24.8599287  37.3280115
  18.5154034  24.6843819  38.2868483  18.3029385  24.8419658  37.5486288
  24.0412228  34.6411495  41.0127450  24.3558787  35.4547884  41.0205231
  24.4505641  34.2561714  41.6809609  24.1480326  34.7040198  41.1131541
  27.9106242  14.8309012  45.5389356  28.0434148  14.0340006  45.8670332
  28.2951395  15.3575415  46.1187632  27.9862571  14.7908929  45.6732859
  25.5694689  14.8268188  43.7867250  26.1139102  14.4859314  44.3771592
  25.6231625  15.6853649  43.9288535  25.6583808  14.9023447  43.8949123
  21.3825248  28.5884604  40.6606058  21.9870105  28.5480438  40.0319879
  21.1752560  29.4355756  40.6910114  21.4414145  28.7072606  40.5722174
  16.6176530  27.5719221  40.5304981  16.5200808  26.7615493  40.8395038
  17.4005400  27.5511014  40.1451249  16.7192666  27.4486311  40.5191844
  55.1508655  59.3862885  49.2024558  55.8575422  58.8914916  49.3311493
  55.3396591  59.8271966  48.4727216  55.2836561  59.3781235  49.1133604
  51.2185330  65.0278715  36.7297992  51.6024709  65.5965614  36.1902768
  51.1544471  64.3028226  36.2503808  51.2658757  65.0054179  36.5791855
  47.6441574  67.5835059  39.0278962  48.2879030  68.0248223  39.4175121
  47.9697830  66.7788485  38.9409221  47.7873403  67.5300253  39.0724440
  50.5909532  60.4232391  41.3238720  50.8732775  59.6283797  41.1025476
  51.3195692  60.9012979  41.3443781  50.7399095  60.3766988  41.2941735
  60.5727620  59.5291753  38.2974551  59.7425323  59.7402397  38.4607968
  60.5236872  58.7028808  38.0216835  60.4434355  59.4381360  38.2811916
  42.5623203  63.5663427  38.5272646  42.0790782  64.2913916  38.5032230
  43.3746522  63.8639557  38.6382804  42.6113951  63.7165780  38.5399925
  48.6337358  62.3595607  41.1322461  48.1164299  62.0003022  40.5283769
  49.3311749  61.8357782  41.1428527  48.6602939  62.2293295  41.0452719
  52.2900950  62.8090422  47.0938634  52.3784295  62.6216562  47.9416844
  52.7190662  62.1627851  46.6943480  52.3663052  62.6853429  47.1610385
  49.8571409  62.0921581  46.0756296  49.2942244  61.6794191  46.5995957
  50.6192433  62.0174487  46.4949439  49.8865858  62.0198982  46.2149296
  45.4167401  64.0819603  38.6792926  46.1187980  63.5671592  38.7365682
  45.3364884  64.4093754  39.4839801  45.5091161  64.0533829  38.8065718
  45.3670879  60.6926830  42.4891839  45.9069104  60.5497961  43.1595212
  44.6840825  61.0923581  42.8575866  45.3463033  60.7306501  42.6426261
  57.8291935  60.1991108  38.4339267  57.3927167  60.2027850  39.1898238
  57.4954851  60.8796607  38.0018844  57.7154555  60.3003564  38.4820099
  52.4021009  62.2399441  49.7582417  53.1861425  62.3530288  50.1238159
  52.2017603  61.4140578  49.9541103  52.4887034  62.1346160  49.8416803
  52.5591402  64.1509543  43.4048873  51.7606648  63.9109043  43.6622741
  53.0077414  64.2023935  44.1515920  52.5066013  64.1231934  43.5533797
  59.0791569  56.7739076  34.9040497  59.4099786  57.3066716  34.2980591
  59.6524657  56.8277964  35.5602448  59.2125248  56.8608645  34.9118278
  51.6192139  57.8969988  51.2969061  50.8265120  58.2113499  51.4821681
  51.7341066  58.1121456  50.4589846  51.5187550  57.9753824  51.2007396
  52.5475932  57.7990191  46.2354358  53.1214793  57.1617435  46.3902922
  52.4690736  57.7994274  45.3664015  52.6209167  57.7055303  46.1300768
  57.8696080  59.1699169  46.2439211  57.6334717  58.3387234  46.1251271
  58.5139309  59.1184776  46.8294055  57.9290750  59.0396857  46.3125104
  42.2107140  62.1983027  40.8416251  42.2511285  62.4697878  40.0136031
  42.7701664  62.7224935  41.2574039  42.2990486  62.3158782  40.7808139
  58.8932500  58.9543618  42.3067505  58.5878317  59.6871674  42.6680821
  58.1738716  58.5481547  42.0260291  58.7419843  59.0025351  42.3180642
  64.5934292  55.5936618  41.6335850  64.5258793  55.6132577  40.7638436
  64.5789955  56.4366946  41.8591520  64.5813049  55.7210353  41.5388326
  48.4420555  63.4001856  33.3689207  48.7318854  63.0090837  32.6448434
  49.1724036  63.5818561  33.8094482  48.5927440  63.3695670  33.3272014
  46.3826471  65.3769238  36.4349357  46.1626766  65.0866593  37.2276024
  46.1620993  64.7184193  35.9067269  46.3174065  65.2368947  36.4738265
  48.5494427  66.7498628  35.2180049  49.2018485  66.2175071  35.4471075
  47.8520035  66.3967281  35.6047923  48.5425145  66.6188151  35.3092217
  56.5434345  59.0703042  34.5611028  57.1092378  59.7296252  34.4769571
  55.8962248  59.4152740  35.0327430  56.5313101  59.2184984  34.6183785
  53.0140923  62.0141826  33.9848108  52.7727599  61.2809687  33.5775172
  53.1942256  62.5628683  33.3314441  53.0048547  61.9864218  33.8278330
  56.2443670  59.7631016  40.5920166  56.1058029  60.4612062  41.0968908
  55.4643668  59.6079673  40.2356347  56.1086897  59.8431183  40.6146440
  54.5821755  56.0627392  46.8442547  54.5769794  55.1907208  46.8484974
  55.2882749  56.2615561  46.3712003  54.6866759  55.9631266  46.7749583
  47.3820404  63.9807147  43.0817394  47.5309967  63.4210063  42.4290799
  48.1620406  64.0599149  43.4649913  47.5194497  63.9092713  43.0414343
  49.9073704  64.1521790  44.3601885  49.8317375  63.4830601  44.9152673
  49.8363563  64.8539578  44.8742551  49.8854311  64.1566697  44.5178733
  50.5643951  62.6722789  35.1925491  51.3293842  62.4032433  34.8708155
  50.4622041  62.1872799  35.9095554  50.6625447  62.5612354  35.2505319
  55.9857142  61.3654761  31.6888351  56.0676979  62.1721747  31.3649802
  56.4706884  61.3850720  32.4129124  56.0694300  61.4875423  31.7475249
  49.2965338  67.5590110  42.8179886  49.7861269  66.8600899  42.6355550
  48.7249571  67.2613980  43.4055943  49.2849868  67.4116334  42.8780927
  55.4932342  60.1252179  51.7706677  56.3067207  59.8537328  51.9311809
  55.3327308  59.8259719  50.9666872  55.5902290  60.0407105  51.6752082
  54.1809172  63.7304585  36.1556286  53.7888964  63.4271300  35.4379152
  54.3362244  64.5673675  35.9661239  54.1462762  63.8088421  36.0212783
  54.3448847  60.2954574  36.0962316  53.9863501  60.4669216  36.8726349
  53.8587557  60.7567779  35.5390315  54.2207544  60.3893545  36.1287585
  55.5053586  61.1858470  47.0429517  56.1433307  60.6918665  46.7091973
  54.8627678  61.1135870  46.4581744  55.5047813  61.1017478  46.9071872
  55.5607843  61.8778278  43.6834874  56.3500221  61.5267343  43.8036955
  55.7351440  62.6914666  43.4211508  55.7028124  61.9464135  43.6622742
  47.1736169  60.4318123  44.6932358  47.0656524  60.4420186  45.5594416
  47.3831950  61.2572904  44.5037312  47.1886280  60.5559198  44.7936450
  54.9499477  63.1340077  39.5886320  54.7519166  63.6230892  38.8942531
  54.3287188  63.3381319  40.1670453  54.8287042  63.2356616  39.5709543
  56.8673279  56.7004230  45.1231568  57.5907478  56.2476756  44.9442588
  56.6023241  56.9808895  44.3403896  56.9354552  56.6755198  44.9810284
  53.4805914  59.9390566  32.0225895  54.2040112  60.4048679  31.8790468
  53.0406505  60.0064175  31.2723492  53.5221606  60.0174402  31.8910676
  37.7281665  56.0292628  40.6556560  37.6225114  55.9839472  39.7908644
  36.9781885  56.3746408  40.9370845  37.6017268  56.0733536  40.5693890
  51.1301983  60.0848013  44.2520012  50.6227074  60.6383860  44.6960643
  50.8328629  60.1456303  43.4338787  51.0106868  60.1754324  44.1968469
  53.7409763  64.0011271  32.1823956  53.0239073  63.8272133  31.7171193
  54.3916501  63.7663843  31.6499442  53.7311614  63.9407063  32.0353173
  50.3744468  65.0172571  41.1577019  50.1510123  64.2591400  41.5261045
  49.8854311  65.0470592  40.4357459  50.2687917  64.9094796  41.1053760
  52.4315458  59.1854303  48.7088953  52.3911312  58.5403980  48.1234109
  53.2438776  59.1290921  49.0214365  52.5458611  59.0813270  48.6685902
  49.0222925  65.2373029  38.6114104  48.6083324  64.5747160  38.2217945
  49.7070299  65.3850888  38.0909798  49.0621297  65.1613687  38.4770601
  52.3888219  64.3963115  39.3637720  51.9904502  64.5065385  38.5958540
  51.7739439  64.6045181  39.9464280  52.2387109  64.4436683  39.3369020
  60.1230062  58.9715081  32.7480811  60.5063668  59.7206437  32.9778908
  59.3274175  59.2180901  32.4892800  60.0623844  59.1184775  32.7438384
  45.9877395  65.6782111  41.0127450  46.3023954  66.4918499  41.0205231
  46.3970808  65.2932330  41.6809609  46.0945493  65.7410813  41.1131541
  52.9401914  61.0952158  38.5831262  53.4113093  61.8092420  38.7521247
  53.2762093  60.4950908  39.1191131  53.0597029  61.1123622  38.6863637
  55.0278899  62.7053471  50.7623334  55.1375864  61.9162032  51.1180081
  55.3569796  62.6159407  49.9597672  55.0931305  62.5759324  50.6965724
  53.5775861  60.8870092  45.3458954  53.0296807  60.2627976  45.0779019
  54.0388889  61.0764364  44.6303034  53.5643070  60.8229142  45.2009385
  53.1434187  61.8921165  41.8768295  53.9632561  61.7484131  42.1384591
  52.8628265  62.5167363  42.4184733  53.2230930  61.9631517  41.9956235
  38.5641697  58.6089837  40.5304981  38.4665975  57.7986108  40.8395038
  39.3470567  58.5881630  40.1451249  38.6657834  58.4856927  40.5191844
  69.6147837  69.5486016  34.8411172  69.5841842  70.4030653  35.0129441
  70.2129186  69.2481309  35.3997315  69.6984995  69.6302513  34.9485974
  62.8147522  68.6361667  39.5964102  61.9585418  68.7970166  39.6473219
  62.8615176  67.7653731  39.6169163  62.6946634  68.5312469  39.6070168
  57.1988662  78.1724385  35.3601334  56.4471561  77.7939924  35.1317379
  57.6474674  78.2042819  34.6120144  57.1538329  78.1209992  35.2158836
  66.1241239  74.9048193  49.2024558  66.8308006  74.4100224  49.3311493
  66.3129174  75.3457274  48.4727216  66.2569144  74.8966543  49.1133604
  65.6599343  70.6953711  42.2395754  66.2055303  71.3738798  42.2989723
  65.6016220  70.5541172  41.3797335  65.7315258  70.7745713  42.1207814
  58.7773418  78.1842777  37.6264106  58.8783781  77.3743131  37.9361234
  58.1815163  78.0899724  36.9963785  58.7045957  78.0507805  37.5790345
  67.4364412  72.1238318  33.1129482  67.3203938  72.8746004  33.5421620
  68.2320299  71.8662272  33.3625569  67.5369001  72.1973165  33.2133573
  51.9738462  74.2063064  37.2516440  51.7388647  73.3730716  37.1448709
  52.1124103  74.4867730  36.4377641  51.9594125  74.1246567  37.1158795
  54.2728550  66.3748795  40.1500748  53.6533581  65.7841442  39.9810762
  54.1712413  66.9660230  39.5165071  54.1666225  66.3752877  40.0305737
  59.3194737  76.1132341  34.3998824  59.6410578  76.6537549  33.7960132
  59.9666834  75.5429113  34.5321114  59.4620793  76.1091517  34.3305859
  61.3696445  68.1148336  34.4833211  62.0676610  68.2936464  34.9754674
  61.6848778  67.5918676  33.8603600  61.5191783  68.0642108  34.4635221
  53.9997683  69.9201076  42.3944317  53.8756380  70.5063522  43.0294135
  54.6515967  69.4261272  42.6956592  54.0771332  69.9339881  42.5330246
  61.5584381  74.5018781  34.4713002  61.9978016  73.8935882  34.9167775
  61.4089044  74.1226155  33.6998467  61.6005847  74.3557252  34.4232170
  59.0256024  73.0962793  41.6731828  59.6705026  72.6035236  41.3542776
  59.2657801  73.2387580  42.4997906  59.1566609  73.0440235  41.7481361
  61.5642115  75.9417699  41.3238720  61.8465358  75.1469105  41.1025476
  62.2928276  76.4198286  41.3443781  61.7131679  75.8952296  41.2941735
  59.5423309  63.4840733  38.5654485  59.2126639  63.9351877  37.8958184
  58.8668311  63.4056896  39.1127492  59.3933745  63.5391868  38.5477709
  65.1593717  72.8545963  31.4243771  65.0745013  73.7106929  31.5693340
  65.6478101  72.5790287  32.0925931  65.2182615  72.9403284  31.5445853
  66.7499717  59.4726256  36.8104096  66.4353158  60.1629734  37.2424518
  66.2326659  59.4171038  36.1089597  66.6264187  59.5661144  36.7701045
  66.0912151  69.4730757  32.9241507  65.5623622  69.6890390  33.5838813
  66.6137171  70.1666895  32.8442476  66.0900604  69.6073894  33.0097106
  57.9811758  73.3693974  31.7248974  57.3968974  73.8744005  32.1314838
  57.5781854  73.1436360  30.9845566  57.8351062  73.4102222  31.6754000
  53.5355787  79.0848735  38.5272646  53.0523365  79.8099224  38.5032230
  54.3479105  79.3824865  38.6382804  53.5846535  79.2351088  38.5399925
  59.6069941  77.8780915  41.1322461  59.0896883  77.5188330  40.5283769
  60.3044332  77.3543090  41.1428527  59.6335522  77.7478603  41.0452719
  60.8303993  77.6106889  46.0756296  60.2674828  77.1979499  46.5995957
  61.5925016  77.5359795  46.4949439  60.8598441  77.5384290  46.2149296
  62.4388973  69.6159626  30.2017895  62.6784977  69.8237609  29.3893238
  62.7604814  68.8117134  30.3106840  62.5226131  69.5273727  30.0978448
  57.7479263  61.5453021  34.0477433  58.5025231  61.9131338  33.8094483
  57.5706798  61.9192576  34.8156613  57.8333742  61.6551209  34.1262322
  56.3899984  79.6004911  38.6792926  57.0920564  79.0856900  38.7365682
  56.3097467  79.9279062  39.4839801  56.4823745  79.5719137  38.8065718
  71.0414162  67.6947462  42.0924972  70.2042583  67.7649649  42.3272567
  71.0102393  67.6971957  41.2199275  70.9132444  67.7057689  41.9984520
  57.4378891  69.8380498  47.8073341  57.6099395  69.7286392  48.6558622
  57.9748248  70.4834903  47.5704533  57.5423895  69.9172499  47.8978438
  56.1036328  63.9523340  30.7455546  55.9211901  64.1695221  29.9196539
  56.9661941  64.0662353  30.8014160  56.2040917  64.0013238  30.6310033
  55.7150760  75.7911263  38.1878534  56.5539659  76.0234195  38.2352296
  55.7462529  74.9215574  38.1185569  55.8432477  75.6968209  38.1843179
  56.3403463  76.2112138  42.4891839  56.8801688  76.0683269  43.1595212
  55.6573409  76.6108889  42.8575866  56.3195617  76.2491809  42.6426261
  61.7836047  60.9549751  33.7804570  62.5122207  60.7765706  33.3342726
  61.8730940  61.7967831  33.9911748  61.9042709  61.0533629  33.7458087
  65.7644348  71.8903138  37.6836864  66.5201863  72.3234653  37.7225773
  65.8706672  71.2407908  38.2571500  65.8914518  71.8580622  37.7734889
  51.7440608  72.4312429  42.6426261  51.4779023  71.6151545  42.8017251
  51.7579172  72.4765584  41.7721776  51.7065330  72.3169333  42.5379743
  68.7222002  62.7590243  40.6768695  69.3647910  62.8288348  41.2630610
  68.9745022  62.0919466  40.1748237  68.8544134  62.6716592  40.6895974
  55.6498355  67.2297513  29.2578019  54.9356532  66.9435693  29.6700452
  56.1342324  67.5694139  29.8984407  55.6157718  67.2379163  29.4133654
  56.4939214  65.9690807  45.2893269  55.8011011  65.4987787  45.5354000
  57.1099542  65.7429111  45.8634976  56.4823744  65.8657939  45.4102421
  62.8245673  75.7327467  29.6339827  63.2396821  75.4012491  28.9424323
  61.9937602  75.4996369  29.5059964  62.7633681  75.6498723  29.5130675
  52.1534021  73.2171208  39.9238005  51.9709595  73.1918094  39.0710297
  52.8883690  73.6870146  39.9626914  52.2348085  73.2832570  39.8035924
  55.2179773  69.9356211  46.4320114  55.9419745  69.9209241  46.9185009
  55.3195910  70.6451566  45.9342082  55.3397982  70.0380914  46.4298901
  70.0524152  72.2924384  34.9040497  70.3832370  72.8252024  34.2980591
  70.6257241  72.3463272  35.5602448  70.1857832  72.3793953  34.9118278
  62.5924723  73.4155295  51.2969061  61.7997703  73.7298807  51.4821681
  62.7073650  73.6306764  50.4589846  62.4920133  73.4939132  51.2007396
  65.2656042  70.1389287  35.5864077  65.3602896  70.8778581  36.0403702
  64.6414885  69.7106762  36.0198641  65.1865072  70.1850607  35.7172224
  63.5208515  73.3175499  46.2354358  64.0947377  72.6802743  46.3902922
  63.4423319  73.3179582  45.3664015  63.5941750  73.2240611  46.1300768
  52.1204932  70.0964709  40.0737072  52.6978434  69.9601159  40.7129317
  51.4218994  69.6400493  40.3282656  52.1025953  70.0086975  40.2059361
  65.5179063  71.9838026  28.8201029  65.4359225  72.0540214  29.6856016
  66.1558783  72.5467770  28.6284769  65.5998900  72.0776997  28.9190978
  58.8772234  71.7498764  38.2875555  58.6191478  70.9170499  38.2606855
  58.9320717  71.9756377  37.4468055  58.8472012  71.6596536  38.1595692
  63.9573284  63.8527215  38.3879648  63.2529611  63.3636401  38.5463567
  64.0058258  63.8649689  37.5168092  63.8603336  63.7816863  38.2818988
  57.8506946  69.3036527  38.7740450  57.2756537  69.4628695  39.4104411
  57.4742622  68.6671936  38.3108900  57.7109759  69.2334340  38.7995008
  61.5180235  67.7759876  43.6332828  61.1294668  67.3514094  42.9785019
  60.8534933  68.0242026  44.1409855  61.3627163  67.7498597  43.6120696
  71.1603504  67.5334881  36.4080658  70.9040069  66.7214822  36.2178541
  72.0032818  67.5412448  36.1810846  71.2469529  67.4146878  36.3465475
  47.5963765  68.9476602  36.7884890  47.6824017  68.5708470  37.5698420
  48.2239563  68.5737047  36.3104849  47.7020316  68.8362084  36.8330368
  65.3406596  61.4734505  41.1456812  65.7217108  60.7912676  41.5324687
  64.5369881  61.1844107  40.9632477  65.2783058  61.3301553  41.1760868
  62.6219173  72.0058481  31.8309635  63.4359812  72.2973373  31.7192407
  62.5578314  71.3518343  31.2567928  62.7321912  71.9523675  31.7298473
  58.4927081  75.4779998  36.9581947  59.1301028  75.2391746  37.5033741
  58.9182153  75.6817157  36.2235108  58.6503248  75.4731008  36.9299105
  53.1839724  77.7168335  40.8416251  53.2243869  77.9883186  40.0136031
  53.7434248  78.2410243  41.2574039  53.2723070  77.8344090  40.7808139
  59.1329896  70.6982288  31.2956837  59.5175049  70.4789995  32.0473382
  58.8841517  71.5245233  31.4257913  59.1531969  70.7880434  31.4257913
  59.2998437  63.9788703  51.0119421  58.9851878  64.7488266  50.7488984
  58.9788369  63.4158959  50.4271648  59.2057356  64.0098972  50.8860771
  60.8748553  75.9552421  38.6375734  60.9487562  75.7927593  39.4917583
  61.6918060  76.1442610  38.3936215  61.0064912  75.9589163  38.7273759
  54.6354310  76.3010284  35.6670177  53.8092428  76.5472021  35.5404456
  54.6966301  76.2222364  36.5332235  54.5228477  76.3255233  35.7759121
  56.8530334  62.3679225  36.6265617  55.9852759  62.4401824  36.6923226
  57.1405538  63.1701303  36.8153592  56.7670082  62.4973372  36.6640384
  65.9763222  62.5157084  44.9576939  66.7216814  62.3266894  44.5440364
  65.5600527  63.0415322  44.3990795  66.0248197  62.5659229  44.8141512
  59.4153139  78.9187164  33.3689207  59.7051437  78.5276145  32.6448434
  60.1456620  79.1003869  33.8094482  59.5660023  78.8880978  33.3272014
  73.3525493  69.8866312  39.9082444  73.9033415  69.2534381  40.1479536
  73.3369609  70.4181705  40.5997948  73.4310690  69.8715261  40.0461302
  60.0047884  73.7204910  44.4542337  59.5059578  74.4320677  44.5327226
  60.8148108  74.0405576  44.4160500  60.0503991  73.8731758  44.4598906
  57.3559055  80.8954546  36.4349357  57.1359350  80.6051901  37.2276024
  57.1353577  80.2369501  35.9067269  57.2906649  80.7554255  36.4738265
  56.2676002  72.9827863  38.7005058  55.9789250  72.3565334  39.2350786
  57.1359350  72.9248150  38.7669739  56.3536254  72.8815407  38.7896013
  67.0553900  68.1262646  39.0187040  66.7118665  67.4052981  39.3694290
  67.1546942  67.9176497  38.1765398  67.0195942  67.9886849  38.9458720
  56.4708275  74.6223114  34.6247423  57.2254243  75.0036153  34.8382886
  55.8778888  75.0734257  35.0794120  56.4944989  74.7451941  34.7230302
  58.9314942  66.5785954  49.7504636  58.1214718  66.8843734  49.6394478
  59.4089629  67.2991536  49.8657220  58.8818421  66.7300555  49.7511707
  57.7906502  75.7931675  39.9987539  57.2687255  75.9331967  40.6839403
  58.1780522  75.0342339  40.1889656  57.7710203  75.7017199  40.1288615
  54.7797686  65.8437484  34.0682493  54.4922482  65.4738754  33.3314441
  55.4668154  66.3132339  33.8066198  54.8386583  65.8584453  33.9197569
  59.2172827  72.8235694  35.3969030  59.0215610  73.4310429  34.8029333
  59.4407173  72.1303638  34.9160704  59.2207468  72.8113220  35.2385111
  57.6151357  69.7090432  35.5149898  58.3374009  69.8731590  35.0553704
  57.1359350  70.4300097  35.4089238  57.6515088  69.8388662  35.4315512
  65.5744865  66.0454231  40.8946583  64.7355966  66.0715510  40.6584846
  65.6449232  66.6924966  41.4751930  65.4613258  66.1450357  40.9455700
  55.2658974  72.1148504  44.6204038  55.7780071  72.3932758  43.9712798
  54.9795317  72.8537799  44.9866851  55.2993837  72.2650858  44.5793916
  64.0214143  62.9439608  35.6274199  64.7240496  62.7447356  35.1494157
  63.7558332  62.1715550  35.9343042  64.0860776  62.8002574  35.6019641
  52.3525880  66.6218696  34.9167775  52.4542017  67.4244858  35.2448750
  53.1481767  66.4206032  34.6190855  52.4853786  66.7104595  34.9203130
  58.7842699  64.2074893  44.6805080  58.5925896  64.2230027  45.5304503
  59.6341295  64.4038567  44.6571734  58.8818421  64.2389244  44.8028374
  53.1689612  66.7365875  42.6588896  53.0275104  65.8849815  42.7833404
  53.4530176  66.7794535  41.8351102  53.1897459  66.6165625  42.5556520
  63.3228205  68.5732965  36.8033384  63.0762919  68.4928716  37.6370173
  63.6513328  67.7886433  36.6095912  63.3349448  68.4459230  36.8980907
  65.5554339  71.5812699  46.8442547  65.5502377  70.7092516  46.8484974
  66.2615333  71.7800869  46.3712003  65.6599343  71.4816574  46.7749583
  59.2825232  71.3089683  46.2156367  59.4268608  71.8890891  45.5799477
  59.6300881  71.6865980  46.9206222  59.3552693  71.4510387  46.2255362
  61.4545149  70.5079852  43.9981499  60.7068464  70.7010866  43.5929777
  61.6086675  69.6825071  43.7605620  61.3667577  70.4144963  43.9026905
  58.3552987  79.4992455  43.0817394  58.5042551  78.9395371  42.4290799
  59.1352989  79.5784457  43.4649913  58.4927081  79.4278021  43.0414343
  61.6946927  64.4030402  44.8876903  62.1519541  65.1354377  45.0149695
  61.7703255  63.9796868  45.6464159  61.7737896  64.4487641  45.0177979
  53.9379918  64.6496222  45.9766346  53.4022107  64.0376580  46.2927114
  53.9997682  65.2244358  46.6300013  53.8675550  64.6443150  46.1201773
  66.1674252  57.5820278  38.7570746  66.2857821  58.0396741  38.0238048
  65.9936428  56.7765539  38.4706963  66.1593423  57.5314050  38.6071679
  61.5376535  78.1908097  35.1925491  62.3026426  77.9217741  34.8708155
  61.4354625  77.7058107  35.9095554  61.6358030  78.0797662  35.2505319
  59.5729304  66.3932506  41.7318727  58.7825379  66.2123966  42.0536063
  59.9689927  65.6159459  41.7149021  59.5146181  66.2519967  41.7771275
  64.0595195  75.2220281  27.1725440  64.8268180  75.2820406  26.7631292
  63.6126504  74.6500722  26.6881759  64.1068622  75.1456856  27.0403151
  64.9572991  74.0274937  39.4578173  64.2817993  73.7960169  39.9591560
  64.9665367  73.4196119  38.8320278  64.8591495  73.9033862  39.4394325
  62.0867135  68.8692765  46.2142226  62.0226276  69.7302722  46.0862362
  62.2264322  68.5524759  45.4137777  62.0982605  68.9492932  46.0770439
  60.7686229  71.5624905  40.3558429  60.3448478  71.7629404  39.6197447
  60.5931084  70.7153753  40.4682728  60.6797109  71.4673686  40.2632119
  56.0568674  72.0576956  35.7886401  56.2133293  71.9923759  36.6442393
  56.3969267  72.8325509  35.5765081  56.1301908  72.1626154  35.8840995
  62.5947818  71.4334840  34.6579764  63.1363364  70.9305221  35.1218385
  62.9094377  71.3800035  33.8469250  62.7212215  71.3514261  34.6063576
  66.4664926  75.6437487  51.7706677  67.2799791  75.3722636  51.9311809
  66.3059892  75.3445027  50.9666872  66.5634874  75.5592413  51.6752082
  60.7634268  76.8252191  31.9419792  60.8327088  75.9666730  32.0812793
  61.5422723  77.0424072  31.6138817  60.8887118  76.7305055  31.9136950
  63.7437088  66.3271144  44.7102065  63.9579057  65.6882059  44.1565419
  63.1270987  66.7716968  44.2809927  63.6842417  66.2981288  44.5652496
  52.6302935  69.2411907  36.1047168  53.0101900  69.6596452  35.4407436
  52.0558300  69.8225362  36.4116012  52.6014260  69.3889766  36.0523909
  65.9076176  67.9360210  45.6485372  65.0952857  67.6286100  45.7298545
  66.3666110  67.4559210  46.2128084  65.8556560  67.8196702  45.7439966
  65.3181430  75.8139881  36.0962316  64.9596085  75.9854524  36.8726349
  64.8320141  76.2753087  35.5390315  65.1940127  75.9078853  36.1287585
  63.1351816  59.4371080  39.6989408  62.2645374  59.4109801  39.6522717
  63.3892157  59.2648272  38.8815253  63.0445376  59.4081224  39.5709544
  60.1069796  71.4939047  28.6362551  60.3962320  72.2703929  28.9106125
  60.1941594  70.9827778  29.3377050  60.1624052  71.5330965  28.7805048
  63.0029683  69.3420281  50.4314074  63.4729314  69.9662397  50.8181948
  63.0491563  68.6737256  50.9907289  63.0797559  69.3354961  50.5714146
  60.1600957  61.4477308  41.1562878  59.6439445  60.7557500  41.2814457
  59.5994886  62.1148085  41.1025477  60.0007470  61.4440566  41.1668944
  62.2293190  61.9870268  42.9855731  61.8424943  62.0119300  43.7669260
  61.7426127  61.4211947  42.5330247  62.1005699  61.9066019  43.0343634
  68.2043170  68.5532923  41.6095433  67.7770778  68.4659272  40.8543532
  67.5669223  68.6610699  42.1950277  68.0472777  68.5565583  41.5840874
  61.8950332  58.8737254  45.2765990  62.5243450  59.4097554  44.9987061
  62.0636195  58.7814613  46.1279556  62.0128126  58.9398616  45.3614519
  61.6964247  63.6608449  47.5492402  62.5237676  63.3893598  47.6051017
  61.7172093  64.4569290  47.9056220  61.8217097  63.7388203  47.6107585
  56.2733737  70.8072311  40.7362663  55.4321743  70.7076186  40.9441557
  56.4823745  71.5767792  41.0876983  56.1798429  70.9064355  40.8189978
  53.7509304  68.4291848  38.5647413  53.3566001  68.5034860  37.7897523
  53.1949420  68.8149795  39.1155775  53.6112116  68.4973623  38.5315073
  65.3874250  61.4073142  38.2451292  65.5923844  61.3395450  39.0908289
  65.0600674  62.2131964  38.1772470  65.3689498  61.5159083  38.3610947
  60.0850401  68.7353711  39.9860260  59.7813539  68.1809699  40.5870668
  59.3829822  68.9145921  39.4988294  59.9366611  68.6798493  40.0029966
  59.1416499  66.0454230  34.5504962  59.4176233  65.3273143  34.1382530
  59.7415168  66.6439150  34.3426068  59.2709763  66.0274601  34.4585723
  58.1468752  75.9503431  44.6932358  58.0389107  75.9605493  45.5594416
  58.3564534  76.7758212  44.5037312  58.1618864  76.0744506  44.7936450
  68.6407938  61.9604907  37.7254058  68.0282252  62.4475309  38.1107790
  68.7372113  61.2848398  38.2691709  68.5645836  61.9323215  37.8632916
  62.6427019  63.7167748  32.8251557  63.0970766  63.8878308  33.5499402
  63.1167065  63.1035858  32.4249333  62.7795339  63.6518633  32.8725319
  56.1642544  73.2016074  42.1554296  55.5730478  73.8425572  42.1257311
  56.9263568  73.6253691  42.1285595  56.1890805  73.3591912  42.1469443
  56.5603167  64.3618071  42.8222313  57.0204649  64.4357001  43.5597437
  56.6059274  65.1599326  42.4722135  56.6353723  64.4912219  42.8795070
  58.2086517  65.0284766  47.3894340  57.8172082  64.3818113  47.8250118
  58.3772380  65.6196202  48.0088596  58.1757427  65.0199034  47.5457046
  59.9840039  70.4210282  33.9296564  60.7282084  70.8084558  34.1679514
  60.1300735  69.5767708  34.0937052  60.1150624  70.3540755  33.9890534
  61.9019615  62.2160541  38.9628426  61.0555660  62.3883349  38.8369776
  61.8990747  61.4109885  39.2994254  61.7766764  62.1221570  38.9939553
  62.9717915  65.9935755  39.8290484  62.4977869  65.4677518  40.3395795
  63.3436051  65.4465228  39.2605345  62.9567804  65.8351752  39.8205631
  53.3490945  67.9907262  45.1974029  54.2116558  67.8902971  45.1111359
  53.0182728  67.4101971  44.6359602  53.4276141  67.8898889  45.1019435
  69.2354646  71.0538131  41.2397264  68.9952868  70.2144546  41.2439691
  69.7146653  71.1338298  41.9638038  69.2706829  70.9419531  41.3472067
  64.9001415  66.8872310  32.8916237  64.3724433  66.9701054  32.2021946
  65.3597123  67.6290182  32.8880882  64.8903265  67.0092972  32.7890933
  71.2359833  67.8339588  39.1926523  70.9969603  67.7935422  38.3547308
  71.3993734  68.6810740  39.3192244  71.2250136  67.9531673  39.0880005
  67.8405863  72.2189538  45.1231568  68.5640062  71.7662064  44.9442588
  67.5755825  72.4994203  44.3403896  67.9087136  72.1940506  44.9810284
  56.7092731  66.8149711  41.8584448  56.0845801  66.8268103  41.2510400
  56.3738326  67.2909886  42.5075688  56.5678223  66.8868228  41.8641016
  53.4218407  74.8750171  43.2988212  52.8918331  74.1842610  43.3483187
  53.6943500  74.8660357  42.4700920  53.3843129  74.7717303  43.1835628
  64.4538497  75.4575874  32.0225895  65.1772696  75.9233987  31.8790468
  64.0139088  75.5249483  31.2723492  64.4954189  75.5359710  31.8910676
  63.6224652  72.3173416  43.2726584  63.0081645  71.7731466  43.5675219
  64.1391937  71.8037652  42.7932400  63.6080315  72.1609825  43.2450812
  62.8620949  73.3877686  41.0070882  62.4348557  72.7627405  40.5736318
  62.8545894  73.1052608  41.8329889  62.7980091  73.2530467  41.0650710
  55.9783476  68.4242859  44.0759316  56.1376963  67.6686183  44.4811038
  55.7976370  68.9733799  44.7300054  55.9748835  68.3936673  44.2322022
  63.9203779  60.5904095  44.6310106  63.4244341  60.7867769  43.9401672
  64.6772841  60.9896763  44.4598907  63.9590604  60.6781828  44.5030242
  61.1906659  64.2646440  41.2213416  61.2149146  63.7306553  40.5326196
  61.4418133  63.7563749  41.8839007  61.2316578  64.1107344  41.2178061
  48.7014249  71.5477935  40.6556560  48.5957698  71.5024780  39.7908644
  47.9514469  71.8931716  40.9370845  48.5749852  71.5918844  40.5693890
  57.4707981  62.9917259  40.6019160  57.5106353  63.4926465  41.3153868
  56.6457646  63.0827652  40.3325084  57.3547507  63.0799075  40.6669699
  59.6537594  72.5577999  48.7039455  58.8033225  72.6949713  48.8397100
  59.8165722  71.8241777  49.1487157  59.5521458  72.4692100  48.7895054
  58.8922345  69.5077769  42.8993059  58.0614274  69.6751586  42.6928308
  58.8373862  69.1313719  43.6841945  58.7611760  69.4767500  42.9841588
  56.7006128  62.9986661  48.5349470  57.3258831  62.4548794  48.8078902
  56.2456608  62.5181579  47.9657261  56.7254389  62.8476143  48.4911064
  57.2658388  67.7833360  33.4283177  57.4061350  68.2805824  34.1311819
  57.7640921  67.0819654  33.5697391  57.3599469  67.7535339  33.5534756
  57.2958611  68.6500471  30.7575754  57.9303690  69.2460896  30.6925216
  57.3784222  68.3503929  31.5721624  57.4015162  68.6941379  30.8678841
  70.2741177  71.1815948  43.6262118  70.8659017  71.8213199  43.6580316
  70.7100171  70.4838985  43.9154185  70.4259608  71.1734299  43.6742951
  58.8737594  64.5814446  30.7321196  59.1953435  64.1017529  30.0780458
  59.1364537  65.3914093  30.5412008  58.9603619  64.6304344  30.6076688
  62.1034566  75.6033321  44.2520012  61.5959658  76.1569168  44.6960643
  61.8061213  75.6641611  43.4338787  61.9839451  75.6939632  44.1968469
  64.2696749  63.9686640  43.0944675  64.6951820  63.5159167  42.4828201
  63.6553742  63.4146711  43.3709463  64.2425394  63.8200617  43.0449700
  53.8011599  70.8468312  34.0265300  54.3103828  71.4432819  34.4076606
  54.2745871  70.5794286  33.3441720  53.9454974  70.8954127  33.9819823
  62.7090972  60.4401740  36.5035252  62.0659289  60.2899387  37.0720391
  62.3690379  60.1944086  35.7384357  62.5636049  60.3813863  36.4738267
  67.2990318  68.3961167  35.9265261  66.6281508  68.9390869  35.7978326
  67.9930068  68.8656022  35.6846955  67.3019186  68.5459438  35.8720788
  67.4618445  64.8517051  38.8355634  67.8146056  64.4246774  39.5101433
  66.6033247  64.7667894  38.9656710  67.3867890  64.7761791  38.9550644
  56.1602130  67.4824570  36.8938480  55.4414120  67.8988703  37.1611344
  56.5314493  68.0478809  36.3430119  56.1094062  67.6273852  36.8521287
  65.4601711  68.1152419  42.7840476  65.4399639  67.9335714  43.6375255
  65.5080912  68.9864438  42.7600060  65.4636352  68.2168958  42.9063771
  63.4048041  74.7039611  48.7088953  63.3643896  74.0589288  48.1234109
  64.2171359  74.6476229  49.0214365  63.5191195  74.5998578  48.6685902
  61.9348705  66.5222570  32.2311860  61.3413544  66.8439567  31.6796427
  61.9723983  65.6763666  32.0232966  61.8523094  66.4446899  32.1194631
  68.8942506  59.9735463  39.7639946  68.3873370  59.2664602  39.6961124
  69.6909939  59.6428651  39.8941023  68.9369745  59.8208614  39.7738941
  64.8106521  66.4802075  35.6613610  64.5820214  66.5034776  34.8191968
  65.0704598  65.6559542  35.7808621  64.8152709  66.3618155  35.5538808
  59.0925750  68.3336548  45.2638710  58.5804653  67.7257731  45.6223742
  58.9205246  69.0493140  45.7312686  58.9915387  68.3499847  45.3854934
  53.9391465  66.7774123  47.9141072  53.7694055  67.4375498  47.3689279
  53.4957414  66.9880684  48.6353561  53.8490798  66.9060105  47.9402702
  57.8651284  65.0178621  36.9567806  58.3408650  65.3795701  36.3217987
  57.3639884  65.6735089  37.2367949  57.8616643  65.1672810  36.9044547
  62.9694820  66.2560793  47.7040966  63.5266250  66.0274602  47.0719431
  62.6455885  67.0166458  47.4276178  63.0041230  66.3344629  47.5697463
  50.8393529  69.6820989  43.1729562  50.2920248  69.0121634  43.2910430
  51.6285907  69.3150837  43.2373029  50.8745713  69.5285975  43.1998263
  60.6877937  69.3428446  48.6692973  61.4389264  69.6580123  48.9832527
  60.8800514  69.1407617  47.8426895  60.8269352  69.3595828  48.5936369
  59.9077937  67.1619821  30.3241190  60.2876902  67.1799450  29.5392305
  59.1670533  67.6073810  30.2032037  59.8546775  67.2301596  30.1904758
  67.5363228  65.4702012  35.9116768  67.5357454  65.3150669  36.7701045
  67.3319408  66.3164999  35.8558154  67.5063005  65.5722633  36.0304708
  49.5980499  68.8941797  40.3275585  49.4202260  68.4418406  41.0530501
  49.3099521  69.6967958  40.5114063  49.5293452  68.9464354  40.4619088
  65.2604080  70.1499514  39.5652975  65.7557745  69.4322509  39.5256996
  64.4503855  69.8470312  39.4507462  65.2147973  69.9997160  39.5426701
  60.7062691  73.9997327  31.7149980  59.8974014  73.6764001  31.6683289
  61.2137600  73.2930549  31.6478228  60.6612358  73.8478644  31.6980274
  51.3352968  71.4269520  37.4397344  50.4698488  71.4155211  37.3280115
  51.4351784  71.2399743  38.2868483  51.2227135  71.3975582  37.5486288
  67.3255899  72.9003201  42.2530104  67.7510970  72.3777623  41.7000529
  66.9612818  73.4984039  41.7318727  67.3342501  72.9113428  42.0939114
  56.9609978  81.1967419  41.0127450  57.2756537  82.0103807  41.0205231
  57.3703392  80.8117638  41.6809609  57.0678076  81.2596121  41.1131541
  63.9134498  76.6137466  38.5831262  64.3845676  77.3277728  38.7521247
  64.2494676  76.0136216  39.1191131  64.0329613  76.6308930  38.6863637
  60.8303993  61.3864936  45.5389356  60.9631899  60.5895930  45.8670332
  61.2149146  61.9131339  46.1187632  60.9060322  61.3464853  45.6732859
  64.5508444  76.4055400  45.3458954  64.0029390  75.7813283  45.0779019
  65.0121473  76.5949672  44.6303034  64.5375654  76.3414450  45.2009385
  63.9036348  58.3095262  42.1370450  63.0982312  58.1992992  42.4538288
  63.7743084  58.4107718  41.2800315  63.7656481  58.3078932  42.0578490
  67.3602309  64.4740754  42.7310146  66.7765297  64.9749961  42.3187714
  67.6806603  63.9670310  42.0974470  67.3215484  64.4732589  42.5768654
  59.8997108  63.3881349  33.0068821  60.7212802  63.5579662  32.7650516
  59.4366759  63.5428610  32.2835119  59.9528270  63.4363082  32.8640466
  58.4892440  61.3824111  43.7867250  59.0336853  61.0415238  44.3771592
  58.5429375  62.2409573  43.9288535  58.5781559  61.4579371  43.8949123
  54.3022998  75.1440527  40.6606058  54.9067856  75.1036361  40.0319879
  54.0950311  75.9911679  40.6910114  54.3611896  75.2628530  40.5722174
  49.5374281  74.1275145  40.5304981  49.4398559  73.3171416  40.8395038
  50.3203150  74.1066938  40.1451249  49.6390417  74.0042235  40.5191844
  36.3900911  -0.0691776  21.7751219  36.3594915   0.7852860  21.9469488
  36.9882259  -0.3696484  22.3337362  36.4738068   0.0124720  21.8826021
  29.5900595  -0.9816125  26.5304149  28.7338491  -0.8207627  26.5813266
  29.6368249  -1.8524061  26.5509210  29.4699707  -1.0865323  26.5410215
  23.9741735   8.5546593  22.2941381  23.2224635   8.1762131  22.0657426
  24.4227747   8.5865026  21.5460191  23.9291402   8.5032200  22.1498883
  32.8994312   5.2870400  36.1364605  33.6061079   4.7922431  36.2651540
  33.0882247   5.7279482  35.4067263  33.0322218   5.2788751  36.0473651
  29.4266695   8.9771962  17.7226928  29.0918064   9.6548884  17.2871150
  29.9393565   8.5877273  17.1343799  29.4532276   9.0196540  17.5713719
  28.9670986  10.9286231  23.6638039  29.3510366  11.4973129  23.1242814
  28.9030128  10.2035741  23.1843855  29.0144414  10.9061694  23.5131902
  32.4352416   1.0775919  29.1735801  32.9808377   1.7561005  29.2329770
  32.3769293   0.9363379  28.3137382  32.5068331   1.1567920  29.0547861
  25.5526491   8.5664985  24.5604153  25.6536854   7.7565339  24.8701281
  24.9568237   8.4721931  23.9303832  25.4799030   8.4330013  24.5130391
  34.2117485   2.5060526  20.0469528  34.0957011   3.2568212  20.4761666
  35.0073372   2.2484479  20.2965615  34.3122075   2.5795373  20.1473620
  25.3927231  13.4842574  25.9619009  26.0364686  13.9255738  26.3515167
  25.7183486  12.6796000  25.8749268  25.5359060  13.4307769  26.0064486
  18.7491536   4.5885271  24.1856487  18.5141720   3.7552924  24.0788755
  18.8877176   4.8689937  23.3717688  18.7347198   4.5068775  24.0498842
  26.0947811   6.4954549  21.3338871  26.4163652   7.0359756  20.7300179
  26.7419907   5.9251320  21.4661161  26.2373866   6.4913724  21.2645906
  28.1449519  -1.5029456  21.4173258  28.8429683  -1.3241329  21.9094721
  28.4601851  -2.0259117  20.7943647  28.2944856  -1.5535684  21.3975268
  20.7750756   0.3023284  29.3284363  20.6509453   0.8885729  29.9634182
  21.4269041  -0.1916521  29.6296638  20.8524405   0.3162088  29.4670293
  28.3337454   4.8840989  21.4053049  28.7731090   4.2758089  21.8507822
  28.1842117   4.5048362  20.6338514  28.3758920   4.7379460  21.3572216
  25.8009097   3.4785001  28.6071874  26.4458100   2.9857444  28.2882823
  26.0410874   3.6209787  29.4337953  25.9319682   3.4262443  28.6821408
  28.3395188   6.3239906  28.2578767  28.6218431   5.5291312  28.0365523
  29.0681349   6.8020494  28.2783828  28.4884752   6.2774503  28.2281782
  31.9346791   3.2368170  18.3583818  31.8498086   4.0929137  18.5033387
  32.4231174   2.9612494  19.0265977  31.9935688   3.3225491  18.4785900
  32.8665224  -0.1447036  19.8581553  32.3376695   0.0712598  20.5178860
  33.3890244   0.5489103  19.7782523  32.8653677  -0.0103899  19.9437153
  38.3213277   5.4299269  25.2314598  37.4910980   5.6409912  25.3948014
  38.2722529   4.6036323  24.9556881  38.1920012   5.3388875  25.2151963
  20.3108860   9.4670942  25.4612693  19.8276439  10.1921432  25.4372276
  21.1232179   9.7647072  25.5722851  20.3599608   9.6173296  25.4739972
  26.3823014   8.2603123  28.0662507  25.8649956   7.9010538  27.4623815
  27.0797406   7.7365297  28.0768573  26.4088595   8.1300811  27.9792766
  30.0386606   8.7097937  34.0278680  30.1269952   8.5224077  34.8756891
  30.4676319   8.0635366  33.6283527  30.1148709   8.5860945  34.0950432
  27.6057066   7.9929097  33.0096343  27.0427901   7.5801707  33.5336004
  28.3678090   7.9182002  33.4289486  27.6351515   7.9206497  33.1489343
  23.1653058   9.9827118  25.6132973  23.8673637   9.4679107  25.6705729
  23.0850541  10.3101269  26.4179848  23.2576818   9.9541344  25.7405765
  37.8167235  -1.9230331  29.0265019  36.9795656  -1.8528144  29.2612614
  37.7855466  -1.9205836  28.1539321  37.6885517  -1.9120104  28.9324567
  24.2131964   0.2202705  34.7413388  24.3852468   0.1108600  35.5898669
  24.7501322   0.8657110  34.5044580  24.3176968   0.2994707  34.8318484
  22.4903833   6.1733470  25.1218581  23.3292732   6.4056403  25.1692342
  22.5215602   5.3037781  25.0525616  22.6185551   6.0790416  25.1183225
  23.1156536   6.5934345  29.4231886  23.6554761   6.4505476  30.0935259
  22.4326482   6.9931096  29.7915912  23.0948690   6.6314016  29.5766308
  32.5397421   2.2725346  24.6176911  33.2954936   2.7056860  24.6565819
  32.6459745   1.6230116  25.1911547  32.6667591   2.2402830  24.7074936
  35.5777592   6.0998623  25.3679314  35.1412824   6.1035365  26.1238285
  35.2440507   6.7804122  24.9358891  35.4640212   6.2011079  25.4160146
  30.1506666   8.1406956  36.6922464  30.9347082   8.2537804  37.0578206
  29.9503260   7.3148093  36.8881150  30.2372691   8.0353675  36.7756850
  18.5193681   2.8134636  29.5766308  18.2532096   1.9973753  29.7357298
  18.5332245   2.8587792  28.7061823  18.4818403   2.6991541  29.4719790
  30.3077059  10.0517058  30.3388920  29.5092305   9.8116558  30.5962788
  30.7563070  10.1031451  31.0855967  30.2551670  10.0239449  30.4873844
  38.7121938   2.8179543  24.2598951  39.3738372   2.2570211  24.1594859
  38.0713350   2.3231574  24.5851642  38.7150806   2.6615952  24.2931291
  29.5998746   6.1149674  16.5679874  30.0149894   5.7834698  15.8764370
  28.7690676   5.8818577  16.4400011  29.5386755   6.0320930  16.4470721
  18.9287095   3.5993415  26.8578052  18.7462668   3.5740301  26.0050344
  19.6636764   4.0692353  26.8966961  19.0101159   3.6654778  26.7375971
  34.9986769   3.8344925  24.0010940  35.2342358   3.9790124  23.1737790
  35.1476333   4.5987333  24.3942453  35.0552572   3.9683980  23.9374543
  21.9932846   0.3178418  33.3660161  22.7172819   0.3031449  33.8525055
  22.0948983   1.0273773  32.8682129  22.1151055   0.4203121  33.3638947
  36.8277226   2.6746591  21.8380543  37.1585443   3.2074231  21.2320638
  37.4010314   2.7285479  22.4942494  36.9610905   2.7616160  21.8458325
  29.3677796   3.7977503  38.2309108  28.5750777   4.1121015  38.4161727
  29.4826723   4.0128971  37.3929892  29.2673206   3.8761340  38.1347442
  32.0409115   0.5211494  22.5204124  32.1355969   1.2600788  22.9743749
  31.4167958   0.0928969  22.9538688  31.9618145   0.5672815  22.6512271
  30.2961589   3.6997707  33.1694404  30.8700450   3.0624951  33.3242968
  30.2176392   3.7001789  32.3004062  30.3694823   3.6062818  33.0640815
  18.8958005   0.4786916  27.0077119  19.4731508   0.3423367  27.6469364
  18.1972067   0.0222700  27.2622703  18.8779026   0.3909182  27.1399408
  25.6525307   2.1320972  25.2215602  25.3944552   1.2992707  25.1946901
  25.7073790   2.3578585  24.3808102  25.6225085   2.0418743  25.0935739
  24.6260019  -0.3141266  25.7080497  24.0509611  -0.1549097  26.3444458
  24.2495696  -0.9505857  25.2448947  24.4862832  -0.3843453  25.7335055
  28.2933308  -1.8417917  30.5672875  27.9047741  -2.2663699  29.9125066
  27.6288006  -1.5935767  31.0749902  28.1380236  -1.8679195  30.5460743
  29.3972246   2.3880688  18.7649682  30.2112885   2.6795581  18.6532453
  29.3331388   1.7340550  18.1907975  29.5074985   2.3345883  18.6638519
  35.6181736   5.0706684  33.1779258  35.3820374   4.2394749  33.0591318
  36.2624965   5.0192291  33.7634102  35.6776407   4.9404372  33.2465151
  25.2680155   5.8602206  23.8921994  25.9054101   5.6213953  24.4373787
  25.6935226   6.0639364  23.1575155  25.4256321   5.8553216  23.8639151
  19.9592797   8.0990542  27.7756298  19.9996942   8.3705393  26.9476077
  20.5187321   8.6232450  28.1914086  20.0476143   8.2166297  27.7148186
  36.6418157   4.8551133  29.2407552  36.3363974   5.5879190  29.6020868
  35.9224373   4.4489062  28.9600338  36.4905499   4.9032866  29.2520689
  27.6501626   6.3374628  25.5715780  27.7240635   6.1749800  26.4257630
  28.4671133   6.5264818  25.3276262  27.7817985   6.3411370  25.6613806
  42.3419949   1.4944134  28.5675896  42.2744449   1.5140093  27.6978483
  42.3275612   2.3374461  28.7931567  42.3298706   1.6217868  28.4728373
  21.4107383   6.6832491  22.6010224  20.5845501   6.9294228  22.4744503
  21.4719374   6.6044572  23.4672282  21.2981550   6.7077440  22.7099168
  26.1906212   9.3009371  20.3029254  26.4804511   8.9098353  19.5788480
  26.9209693   9.4826076  20.7434529  26.3413096   9.2703185  20.2612061
  40.1278567   0.2688520  26.8422491  40.6786488  -0.3643411  27.0819583
  40.1122682   0.8003913  27.5337995  40.2063763   0.2537468  26.9801349
  26.7800957   4.1027117  31.3882384  26.2812651   4.8142885  31.4667273
  27.5901182   4.4227784  31.3500547  26.8257064   4.2553966  31.3938953
  24.1312128  11.2776754  23.3689403  23.9112423  10.9874108  24.1616070
  23.9106650  10.6191709  22.8407316  24.0659722  11.1376462  23.4078312
  23.0429075   3.3650070  25.6345105  22.7542324   2.7387541  26.1690832
  23.9112423   3.3070358  25.7009786  23.1289327   3.2637614  25.7236060
  33.8306973  -1.4915146  25.9527087  33.4871739  -2.2124811  26.3034337
  33.9300015  -1.7001295  25.1105445  33.7949016  -1.6290943  25.8798767
  26.2980084  12.6506144  22.1520096  26.9504142  12.1182586  22.3811122
  25.6005692  12.2974796  22.5387970  26.2910801  12.5195667  22.2432264
  23.2461348   5.0045321  21.5587470  24.0007316   5.3858360  21.7722933
  22.6531961   5.4556465  22.0134167  23.2698062   5.1274149  21.6570349
  34.2920002   4.9710558  21.4951075  34.8578034   5.6303767  21.4109618
  33.6447905   5.3160256  21.9667477  34.2798758   5.1192499  21.5523832
  25.7068015  -3.0391838  36.6844683  24.8967791  -2.7334059  36.5734525
  26.1842702  -2.3186256  36.7997267  25.6571494  -2.8877237  36.6851754
  24.5659575   6.1753883  26.9327586  24.0440328   6.3154174  27.6179450
  24.9533595   5.4164547  27.1229703  24.5463276   6.0839406  27.0628662
  30.7626580   7.9149342  20.9188154  30.5213256   7.1817202  20.5115219
  30.9427913   8.4636199  20.2654488  30.7534204   7.8871733  20.7618377
  25.9925901   3.2057902  22.3309077  25.7968683   3.8132636  21.7369380
  26.2160246   2.5125846  21.8500751  25.9960542   3.1935427  22.1725157
  24.3904431   0.0912639  22.4489945  25.1127083   0.2553798  21.9893751
  23.9112423   0.8122304  22.3429285  24.4268161   0.2210869  22.3655559
  32.3497938  -3.5723562  27.8286630  31.5109039  -3.5462283  27.5924893
  32.4202305  -2.9252826  28.4091977  32.2366332  -3.4727436  27.8795747
  22.0412047   2.4970712  31.5544085  22.5533144   2.7754965  30.9052845
  21.7548390   3.2360006  31.9206898  22.0746910   2.6473066  31.5133963
  36.2255462   1.6344425  25.1147872  36.1389437   1.7899851  25.9682650
  35.7705942   2.2782501  24.7407277  36.1458719   1.7520180  25.1854978
  25.5595773  -5.4102900  31.6145126  25.3678970  -5.3947765  32.4644550
  26.4094369  -5.2139225  31.5911781  25.6571495  -5.3788548  31.7368421
  30.0981278  -1.0444828  23.7373431  29.8515992  -1.1249077  24.5710220
  30.4266401  -1.8291360  23.5435959  30.1102522  -1.1718563  23.8320954
  33.9929327   5.6638531  27.5260212  33.8543686   6.3619577  28.0308955
  33.2129325   5.5087188  27.1696394  33.8572554   5.7438698  27.5486487
  32.3307412   1.9634907  33.7782594  32.3255451   1.0914723  33.7825021
  33.0368406   2.1623076  33.3052050  32.4352416   1.8638781  33.7089629
  26.0578305   1.6911891  33.1496414  26.2021681   2.2713099  32.5139524
  26.4053954   2.0688187  33.8546269  26.1305767   1.8332595  33.1595409
  28.2298223   0.8902059  30.9321546  27.4821537   1.0833073  30.5269824
  28.3839748   0.0647279  30.6945667  28.1420650   0.7967171  30.8366952
  25.1306060   9.8814663  30.0157441  25.2795624   9.3217578  29.3630846
  25.9106062   9.9606664  30.3989960  25.2680154   9.8100228  29.9754390
  35.4882700   5.0216785  18.2876712  35.1089508   4.2353923  18.2806001
  34.8248945   5.5703642  18.1448356  35.3341175   4.9861609  18.2657509
  27.6559361  10.0529305  31.2941932  27.5803032   9.3838116  31.8492720
  27.5849220  10.7547094  31.8082598  27.6339968  10.0574213  31.4518780
  28.4700000  -5.2147390  31.8216950  28.9272614  -4.4823416  31.9489742
  28.5456329  -5.6380925  32.5804205  28.5490970  -5.1690152  31.9518026
  28.3129608   8.5730304  22.1265538  29.0779499   8.3039948  21.8048202
  28.2107698   8.0880315  22.8435601  28.4111103   8.4619869  22.1845365
  26.3482378  -3.2245286  28.6658774  25.5578452  -3.4053826  28.9876109
  26.7443000  -4.0018334  28.6489068  26.2899254  -3.3657825  28.7111322
  31.7326064   4.4097144  26.3918220  31.0571066   4.1782376  26.8931607
  31.7418440   3.8018327  25.7660325  31.6344568   4.2856069  26.3734372
  28.8620208  -0.7485027  33.1482273  28.7979349   0.1124929  33.0202409
  29.0017396  -1.0653034  32.3477824  28.8735678  -0.6684860  33.0110485
  33.7342799   7.2662276  18.6228397  33.8162636   8.0729262  18.2989848
  34.2192541   7.2858236  19.3469171  33.8179956   7.3882939  18.6815296
  27.5439302   1.9447112  27.2898475  27.1201551   2.1451611  26.5537494
  27.3684157   1.0975960  27.4022775  27.4550182   1.8495894  27.1972166
  22.8321747   2.4399164  22.7226448  22.9886366   2.3745966  23.5782440
  23.1722340   3.2147716  22.5105128  22.9054982   2.5448362  22.8181042
  29.3700891   1.8157047  21.5919811  29.9116437   1.3127428  22.0558432
  29.6847450   1.7622242  20.7809296  29.4965288   1.7336468  21.5403623
  33.2417999   6.0259695  38.7046723  34.0552864   5.7544843  38.8651856
  33.0812965   5.7267235  37.9006919  33.3387947   5.9414621  38.6092129
  27.5387341   7.2074399  18.8759839  27.6080161   6.3488937  19.0152840
  28.3175796   7.4246280  18.5478864  27.6640191   7.1127263  18.8476996
  30.5190161  -3.2906648  31.6442112  30.7332130  -3.9295734  31.0905466
  29.9024060  -2.8460824  31.2149973  30.4595490  -3.3196505  31.4992543
  31.9294829   9.6312100  23.0896332  31.5374620   9.3278815  22.3719199
  32.0847901  10.4681190  22.9001286  31.8948419   9.7095937  22.9552830
  32.6829249  -1.6817583  32.5825419  31.8705931  -1.9891693  32.6638591
  33.1419183  -2.1618583  33.1468131  32.6309634  -1.7981091  32.6780013
  32.0934503   6.1962089  23.0302363  31.7349158   6.3676732  23.8066395
  31.6073214   6.6575295  22.4730362  31.9693200   6.2901060  23.0627632
  29.7782756  -0.2757512  37.3654121  30.2482387   0.3484605  37.7521995
  29.8244636  -0.9440536  37.9247336  29.8550632  -0.2822831  37.5054192
  33.2539243   7.0865985  33.9769564  33.8918963   6.5926180  33.6432020
  32.6113334   7.0143385  33.3921791  33.2533469   7.0024993  33.8411919
  34.9796243  -1.0644869  28.5435480  34.5523851  -1.1518521  27.7883579
  34.3422296  -0.9567094  29.1290324  34.8225850  -1.0612209  28.5180921
  33.3093499   7.7785793  30.6174921  34.0985878   7.4274858  30.7377002
  33.4837097   8.5922182  30.3551554  33.4513781   7.8471650  30.5962789
  23.0486810   1.1894519  27.6702710  22.2074816   1.0898393  27.8781603
  23.2576818   1.9589999  28.0217030  22.9551502   1.2886562  27.7530024
  20.5262377  -1.1885944  25.4987460  20.1319075  -1.1142932  24.7237570
  19.9702494  -0.8027998  26.0495822  20.3865189  -1.1204170  25.4655120
  26.8603475  -0.8824082  26.9200307  26.5566612  -1.4368094  27.5210715
  26.1582895  -0.7031872  26.4328341  26.7119684  -0.9379300  26.9370013
  24.9221826   6.3325639  31.6272405  24.8142181   6.3427701  32.4934463
  25.1317607   7.1580419  31.4377359  24.9371937   6.4566714  31.7276496
  22.9395618   3.5838281  29.0894342  22.3483551   4.2247779  29.0597357
  23.7016641   4.0075898  29.0625642  22.9643878   3.7414120  29.0809490
  24.9839590  -4.5893026  34.3234387  24.5925155  -5.2359679  34.7590165
  25.1525453  -3.9981591  34.9428643  24.9510501  -4.5978758  34.4797093
  39.0586039   3.4144051  30.0871621  39.1169163   3.8630700  30.8331597
  38.4252507   3.8242864  29.6501701  38.9737334   3.5417786  30.1324169
  32.6985134   9.0347593  26.5226367  32.5004823   9.5238407  25.8282578
  32.0772845   9.2388834  27.1010500  32.5772698   9.1364131  26.5049590
  26.7593112   0.8032490  20.8636611  27.5035157   1.1906766  21.1019561
  26.9053808  -0.0410085  21.0277099  26.8903697   0.7362962  20.9230581
  29.7470988  -3.6242037  26.7630530  29.2730942  -4.1500275  27.2735841
  30.1189124  -4.1712564  26.1945392  29.7320877  -3.7826041  26.7545678
  36.0107719   1.4360339  28.1737311  35.7705942   0.5966754  28.1779737
  36.4899726   1.5160505  28.8978084  36.0459902   1.3241738  28.2812113
  38.0112906  -1.7838204  26.1266570  37.7722676  -1.8242370  25.2887355
  38.1746807  -0.9367052  26.2532291  38.0003209  -1.6646119  26.0220052
  34.6158936   2.6011745  32.0571615  35.3393135   2.1484271  31.8782635
  34.3508898   2.8816411  31.2743943  34.6840209   2.5762714  31.9150331
  23.4845804  -2.8028081  28.7924494  22.8598874  -2.7909689  28.1850447
  23.1491399  -2.3267906  29.4415735  23.3431296  -2.7309564  28.7981063
  20.1971480   5.2572379  30.2328259  19.6671404   4.5664818  30.2823233
  20.4696573   5.2482564  29.4040967  20.1596202   5.1539511  30.1175675
  31.2291570   5.8398081  18.9565941  31.9525769   6.3056194  18.8130515
  30.7892161   5.9071691  18.2063538  31.2707263   5.9181918  18.8250723
  30.3977725   2.6995623  30.2066630  29.7834718   2.1553674  30.5015266
  30.9145010   2.1859860  29.7272446  30.3833388   2.5432032  30.1790859
  29.6374023   3.7699893  27.9410929  29.2101631   3.1449612  27.5076364
  29.6298967   3.4874815  28.7669936  29.5733164   3.6352674  27.9990756
  22.7536550  -1.1934934  31.0099363  22.9130036  -1.9491609  31.4151085
  22.5729443  -0.6443994  31.6640101  22.7501909  -1.2241120  31.1662069
  27.9659732  -5.3531352  28.1553463  27.9902219  -5.8871240  27.4666243
  28.2171206  -5.8614043  28.8179054  28.0069651  -5.5070448  28.1518108
  15.4767322   1.9300143  27.5896607  15.3710771   1.8846987  26.7248691
  14.7267542   2.2753923  27.8710892  15.3502925   1.9741051  27.5033937
  26.4290667   2.9400206  35.6379502  25.5786298   3.0771920  35.7737147
  26.5918795   2.2063984  36.0827204  26.3274531   2.8514307  35.7235101
  25.6675418  -0.1100024  29.8333106  24.8367347   0.0573794  29.6268354
  25.6126935  -0.4864073  30.6181992  25.5364833  -0.1410293  29.9181634
  37.0494250   1.5638156  30.5602165  37.6412090   2.2035407  30.5920363
  37.4853244   0.8661193  30.8494232  37.2012681   1.5556506  30.6082998
  28.8787640   5.9855528  31.1860059  28.3712731   6.5391375  31.6300689
  28.5814286   6.0463818  30.3678833  28.7592525   6.0761839  31.1308516
  31.4895420   9.9018786  19.1164002  30.7724730   9.7279648  18.6511240
  32.1402158   9.6671358  18.5839488  31.4797270   9.8414578  18.9693220
  34.0743391  -1.2216626  22.8605307  33.4034581  -0.6786923  22.7318373
  34.7683141  -0.7521770  22.6187002  34.0772259  -1.0718354  22.8060835
  28.1230125  10.9180086  28.0917066  27.8995779  10.1598916  28.4601092
  27.6339968  10.9478108  27.3697505  28.0173574  10.8102311  28.0393807
  22.9355204  -2.1353222  23.8278527  22.2167193  -1.7189090  24.0951391
  23.3067566  -1.5698983  23.2770165  22.8847135  -1.9903941  23.7861334
  32.2354784  -1.5025373  29.7180523  32.2152712  -1.6842078  30.5715302
  32.2833985  -0.6313355  29.6940107  32.2389425  -1.4008835  29.8403818
  30.1801114   5.0861819  35.6429000  30.1396969   4.4411496  35.0574155
  30.9924433   5.0298436  35.9554412  30.2944268   4.9820786  35.6025949
  26.7708582  11.1380545  25.5454150  26.3568981  10.4754675  25.1557992
  27.4555956  11.2858403  25.0249845  26.8106954  11.0621203  25.4110648
  30.1373876  10.2970630  26.2977767  29.7390159  10.4072900  25.5298587
  29.5225096  10.5052696  26.8804327  29.9872765  10.3444198  26.2709066
  31.5859595  -3.1375718  22.5953657  31.3573288  -3.1143016  21.7532015
  31.8457671  -3.9618251  22.7148667  31.5905783  -3.2559638  22.4878855
  25.8678823  -1.2841245  32.1978757  25.3557726  -1.8920062  32.5563789
  25.6958319  -0.5684652  32.6652733  25.7668460  -1.2677945  32.3194981
  24.6404357  -4.5999171  23.8907853  25.1161723  -4.2382092  23.2558034
  24.1392957  -3.9442704  24.1707995  24.6369716  -4.4504983  23.8384594
  37.8715719   4.8722597  19.6820858  38.2549324   5.6213953  19.9118955
  37.0759832   5.1188416  19.4232847  37.8109501   5.0192290  19.6778431
  29.7447893  -3.3617000  34.6381013  30.3019324  -3.5903191  34.0059478
  29.4208958  -2.6011334  34.3616225  29.7794304  -3.2833163  34.5037510
  27.4631011  -0.2749347  35.6033020  28.2142338   0.0402330  35.9172574
  27.6553587  -0.4770176  34.7766942  27.6022425  -0.2581965  35.5276416
  32.0357153   0.5321721  26.4993022  32.5310818  -0.1855284  26.4597042
  31.2256929   0.2292519  26.3847509  31.9901046   0.3819368  26.4766748
  27.4815764   4.3819535  18.6490027  26.6727087   4.0586208  18.6023336
  27.9890673   3.6752757  18.5818275  27.4365431   4.2300851  18.6320321
  18.1106042   1.8091728  24.3737391  17.2451561   1.7977418  24.2620162
  18.2104858   1.6221951  25.2208530  17.9980209   1.7797789  24.4826335
  34.1008972   3.2825409  29.1870151  34.5264043   2.7599831  28.6340576
  33.7365892   3.8806246  28.6658774  34.1095574   3.2935636  29.0279161
  23.7363052  11.5789626  27.9467496  24.0509610  12.3926015  27.9545278
  24.1456465  11.1939845  28.6149656  23.8431150  11.6418329  28.0471588
  30.6887571   6.9959673  25.5171308  31.1598749   7.7099936  25.6861294
  31.0247750   6.3958423  26.0531178  30.8082686   7.0131137  25.6203684
  32.7764556   8.6060986  37.6963380  32.8861521   7.8169547  38.0520128
  33.1055452   8.5166923  36.8937719  32.8416962   8.4766839  37.6305771
  31.3261517   6.7877607  32.2799001  30.7782463   6.1635491  32.0119066
  31.7874546   6.9771879  31.5643080  31.3128727   6.7236657  32.1349432
  21.0776072   5.5262735  27.5946105  21.6820929   5.4858569  26.9659926
  20.8703384   6.3733887  27.6250161  21.1364969   5.6450737  27.5062221
  30.8919844   7.7928680  28.8108342  31.7118218   7.6491646  29.0724637
  30.6113921   8.4174879  29.3524780  30.9716587   7.8639032  28.9296282
  16.3127354   4.5097352  27.4645028  16.2151632   3.6993624  27.7735085
  17.0956224   4.4889146  27.0791296  16.4143490   4.3864442  27.4531891
  47.3633494  15.4493532  21.7751219  47.3327499  16.3038168  21.9469488
  47.9614843  15.1488824  22.3337362  47.4470652  15.5310028  21.8826021
  40.5633179  14.5369183  26.5304149  39.7071075  14.6977681  26.5813266
  40.6100833  13.6661247  26.5509210  40.4432290  14.4319985  26.5410215
  40.3999279  24.4957270  17.7226928  40.0650647  25.1734192  17.2871150
  40.9126149  24.1062581  17.1343799  40.4264860  24.5381848  17.5713719
  43.4085000  16.5961227  29.1735801  43.9540960  17.2746313  29.2329770
  43.3501876  16.4548687  28.3137382  43.4800914  16.6753228  29.0547861
  45.1850069  18.0245834  20.0469528  45.0689595  18.7753520  20.4761666
  45.9805955  17.7669787  20.2965615  45.2854658  18.0980681  20.1473620
  29.7224119  20.1070579  24.1856487  29.4874304  19.2738232  24.0788755
  29.8609760  20.3875245  23.3717688  29.7079782  20.0254083  24.0498842
  32.0214207  12.2756310  27.0840794  31.4019238  11.6848957  26.9150809
  31.9198070  12.8667745  26.4505118  31.9151882  12.2760392  26.9645784
  37.0680394  22.0139857  21.3338871  37.3896235  22.5545064  20.7300179
  37.7152491  21.4436628  21.4661161  37.2106449  22.0099032  21.2645906
  39.1182102  14.0155852  21.4173258  39.8162267  14.1943979  21.9094721
  39.4334435  13.4926191  20.7943647  39.2677439  13.9649624  21.3975268
  31.7483340  15.8208592  29.3284363  31.6242037  16.4071037  29.9634182
  32.4001624  15.3268787  29.6296638  31.8256989  15.8347396  29.4670293
  39.3070038  20.4026297  21.4053049  39.7463673  19.7943397  21.8507822
  39.1574701  20.0233670  20.6338514  39.3491503  20.2564768  21.3572216
  36.7741681  18.9970308  28.6071874  37.4190683  18.5042752  28.2882823
  37.0143458  19.1395095  29.4337953  36.9052266  18.9447751  28.6821408
  39.3127772  21.8425214  28.2578767  39.5951015  21.0476620  28.0365523
  40.0413932  22.3205802  28.2783828  39.4617336  21.7959811  28.2281782
  37.2908966   9.3848248  25.4994532  36.9612296   9.8359392  24.8298231
  36.6153968   9.3064412  26.0467539  37.1419402   9.4399383  25.4817755
  42.9079374  18.7553478  18.3583818  42.8230669  19.6114445  18.5033387
  43.3963757  18.4797802  19.0265977  42.9668271  18.8410799  18.4785900
  44.4985374   5.3733771  23.7444143  44.1838815   6.0637250  24.1764565
  43.9812315   5.3178553  23.0429643  44.3749844   5.4668660  23.7041092
  43.8397807  15.3738272  19.8581553  43.3109279  15.5897906  20.5178860
  44.3622827  16.0674411  19.7782523  43.8386260  15.5081409  19.9437153
  49.2945860  20.9484577  25.2314598  48.4643563  21.1595220  25.3948014
  49.2455113  20.1221631  24.9556881  49.1652596  20.8574183  25.2151963
  35.7297415  19.2701489  18.6589021  35.1454630  19.7751520  19.0654885
  35.3267510  19.0443876  17.9185613  35.5836719  19.3109737  18.6094047
  31.2841444  24.9856250  25.4612693  30.8009022  25.7106740  25.4372276
  32.0964762  25.2832380  25.5722851  31.3332192  25.1358604  25.4739972
  40.1874630  15.5167141  17.1357942  40.4270633  15.7245125  16.3233285
  40.5090471  14.7124650  17.2446886  40.2711788  15.4281242  17.0318495
  35.4964920   7.4460537  20.9817480  36.2510888   7.8138854  20.7434530
  35.3192455   7.8200091  21.7496659  35.5819398   7.5558725  21.0602368
  48.7899819  13.5954977  29.0265019  47.9528240  13.6657164  29.2612614
  48.7588050  13.5979472  28.1539321  48.6618101  13.6065204  28.9324567
  35.1864548  15.7388013  34.7413388  35.3585051  15.6293907  35.5898669
  35.7233905  16.3842418  34.5044580  35.2909552  15.8180015  34.8318484
  33.8521985   9.8530856  17.6795593  33.6697558  10.0702737  16.8536586
  34.7147598   9.9669868  17.7354207  33.9526574   9.9020754  17.5650080
  33.4636417  21.6918778  25.1218581  34.3025316  21.9241711  25.1692342
  33.4948186  20.8223089  25.0525616  33.5918134  21.5975724  25.1183225
  39.5321704   6.8557266  20.7144617  40.2607864   6.6773221  20.2682773
  39.6216597   7.6975346  20.9251795  39.6528366   6.9541145  20.6798134
  43.5130004  17.7910654  24.6176911  44.2687519  18.2242168  24.6565819
  43.6192329  17.1415423  25.1911547  43.6400175  17.7588138  24.7074936
  46.5510176  21.6183931  25.3679314  46.1145407  21.6220673  26.1238285
  46.2173091  22.2989430  24.9358891  46.4372796  21.7196387  25.4160146
  29.4926265  18.3319944  29.5766308  29.2264680  17.5159061  29.7357298
  29.5064829  18.3773099  28.7061823  29.4550987  18.2176849  29.4719790
  46.4707658   8.6597759  27.6108742  47.1133567   8.7295863  28.1970657
  46.7230679   7.9926982  27.1088283  46.6029791   8.5724107  27.6236021
  33.3984012  13.1305028  16.1918066  32.6842189  12.8443208  16.6040498
  33.8827980  13.4701654  16.8324453  33.3643375  13.1386678  16.3473701
  34.2424871  11.8698322  32.2233315  33.5496668  11.3995302  32.4694047
  34.8585198  11.6436627  32.7975023  34.2309401  11.7665454  32.3442468
  49.6854522  18.3364851  24.2598951  50.3470956  17.7755519  24.1594859
  49.0445934  17.8416882  24.5851642  49.6883389  18.1801260  24.2931291
  40.5731330  21.6334982  16.5679874  40.9882478  21.3020006  15.8764370
  39.7423259  21.4003885  16.4400011  40.5119338  21.5506238  16.4470721
  29.9019678  19.1178723  26.8578052  29.7195252  19.0925609  26.0050344
  30.6369347  19.5877661  26.8966961  29.9833742  19.1840086  26.7375971
  45.9719352  19.3530233  24.0010940  46.2074942  19.4975432  23.1737790
  46.1208916  20.1172641  24.3942453  46.0285156  19.4869288  23.9374543
  47.8009809  18.1931899  21.8380543  48.1318026  18.7259539  21.2320638
  48.3742897  18.2470787  22.4942494  47.9343488  18.2801468  21.8458325
  43.0141698  16.0396802  22.5204124  43.1088553  16.7786096  22.9743749
  42.3900542  15.6114277  22.9538688  42.9350728  16.0858122  22.6512271
  41.2694172  19.2183015  33.1694404  41.8433034  18.5810259  33.3242968
  41.1908976  19.2187097  32.3004062  41.3427407  19.1248126  33.0640815
  29.8690589  15.9972224  27.0077119  30.4464091  15.8608675  27.6469364
  29.1704650  15.5408008  27.2622703  29.8511610  15.9094490  27.1399408
  43.2664720  17.8845542  15.7541076  43.1844882  17.9547729  16.6196063
  43.9044440  18.4475286  15.5624816  43.3484557  17.9784513  15.8531025
  36.6257891  17.6506280  25.2215602  36.3677135  16.8178015  25.1946901
  36.6806374  17.8763893  24.3808102  36.5957669  17.5604051  25.0935739
  41.7058941   9.7534730  25.3219694  41.0015268   9.2643916  25.4803614
  41.7543915   9.7657205  24.4508139  41.6088993   9.6824378  25.2159034
  35.5992603  15.2044042  25.7080497  35.0242194  15.3636210  26.3444458
  35.2228279  14.5679451  25.2448947  35.4595415  15.1341855  25.7335055
  39.2665892  13.6767391  30.5672875  38.8780324  13.2521609  29.9125066
  38.6020590  13.9249541  31.0749902  39.1112819  13.6506112  30.5460743
  48.9089161  13.4342396  23.3420705  48.6525726  12.6222338  23.1518588
  49.7518475  13.4419963  23.1150892  48.9955186  13.3154394  23.2805522
  25.3449422  14.8484117  23.7224937  25.4309674  14.4715985  24.5038467
  25.9725219  14.4744563  23.2444895  25.4505973  14.7369599  23.7670415
  43.0892253   7.3742020  28.0796859  43.4702765   6.6920191  28.4664733
  42.2855537   7.0851622  27.8972524  43.0268715   7.2309069  28.1100915
  40.3704830  17.9065996  18.7649682  41.1845469  18.1980889  18.6532453
  40.3063971  17.2525858  18.1907975  40.4807569  17.8531191  18.6638519
  46.5914320  20.5891992  33.1779258  46.3552957  19.7580057  33.0591318
  47.2357549  20.5377599  33.7634102  46.6508991  20.4589680  33.2465151
  36.2412738  21.3787513  23.8921994  36.8786685  21.1399261  24.4373787
  36.6667810  21.5824672  23.1575155  36.3988904  21.3738524  23.8639151
  30.9325381  23.6175850  27.7756298  30.9729526  23.8890701  26.9476077
  31.4919905  24.1417758  28.1914086  31.0208726  23.7351605  27.7148186
  36.8815553  16.5989803  18.2296883  37.2660706  16.3797510  18.9813429
  36.6327173  17.4252749  18.3597960  36.9017626  16.6887949  18.3597960
  37.0484094   9.8796218  37.9459468  36.7337535  10.6495781  37.6829030
  36.7274026   9.3166474  37.3611695  36.9543013   9.9106487  37.8200818
  47.6150741  20.3736441  29.2407552  47.3096558  21.1064498  29.6020868
  46.8956956  19.9674370  28.9600338  47.4638083  20.4218174  29.2520689
  38.6234210  21.8559936  25.5715780  38.6973218  21.6935108  26.4257630
  39.4403716  22.0450126  25.3276262  38.7550569  21.8596678  25.6613806
  53.3152533  17.0129442  28.5675896  53.2477033  17.0325401  27.6978483
  53.3008195  17.8559769  28.7931567  53.3031289  17.1403176  28.4728373
  32.3839967  22.2017799  22.6010224  31.5578084  22.4479536  22.4744503
  32.4451958  22.1229880  23.4672282  32.2714134  22.2262748  22.7099168
  34.6015991   8.2686740  23.5605664  33.7338416   8.3409339  23.6263273
  34.8891195   9.0708819  23.7493639  34.5155739   8.3980887  23.5980431
  43.7248879   8.4164599  31.8916986  44.4702471   8.2274410  31.4780411
  43.3086184   8.9422837  31.3330842  43.7733853   8.4666745  31.7481559
  37.1638796  24.8194679  20.3029254  37.4537094  24.4283660  19.5788480
  37.8942277  25.0011384  20.7434529  37.3145680  24.7888493  20.2612061
  51.1011150  15.7873828  26.8422491  51.6519072  15.1541897  27.0819583
  51.0855265  16.3189221  27.5337995  51.1796346  15.7722776  26.9801349
  37.7533541  19.6212425  31.3882384  37.2545235  20.3328193  31.4667273
  38.5633765  19.9413092  31.3500547  37.7989648  19.7739274  31.3938953
  34.0161659  18.8835378  25.6345105  33.7274907  18.2572849  26.1690832
  34.8845007  18.8255665  25.7009786  34.1021910  18.7822922  25.7236060
  44.8039556  14.0270161  25.9527087  44.4604322  13.3060497  26.3034337
  44.9032599  13.8184013  25.1105445  44.7681599  13.8894365  25.8798767
  34.2193932  20.5230629  21.5587470  34.9739900  20.9043668  21.7722933
  33.6264545  20.9741773  22.0134167  34.2430646  20.6459456  21.6570349
  45.2652585  20.4895866  21.4951075  45.8310618  21.1489075  21.4109618
  44.6180489  20.8345564  21.9667477  45.2531342  20.6377807  21.5523832
  36.6800599  12.4793469  36.6844683  35.8700375  12.7851249  36.5734525
  37.1575286  13.1999052  36.7997267  36.6304078  12.6308071  36.6851754
  35.5392159  21.6939190  26.9327586  35.0172912  21.8339482  27.6179450
  35.9266179  20.9349855  27.1229703  35.5195859  21.6024714  27.0628662
  32.5283343  11.7444999  21.0022540  32.2408138  11.3746270  20.2654488
  33.2153811  12.2139855  20.7406245  32.5872240  11.7591969  20.8537616
  41.7359164  23.4334650  20.9188154  41.4945839  22.7002510  20.5115219
  41.9160496  23.9821507  20.2654488  41.7266787  23.4057041  20.7618377
  36.9658484  18.7243209  22.3309077  36.7701267  19.3317944  21.7369380
  37.1892830  18.0311153  21.8500751  36.9693125  18.7120735  22.1725157
  35.3637014  15.6097947  22.4489945  36.0859666  15.7739106  21.9893751
  34.8845007  16.3307612  22.3429285  35.4000745  15.7396177  22.3655559
  43.3230522  11.9461746  27.8286630  42.4841622  11.9723025  27.5924893
  43.3934889  12.5932482  28.4091977  43.2098915  12.0457872  27.8795747
  41.7699800   8.8447123  22.5614246  42.4726153   8.6454872  22.0834204
  41.5043989   8.0723066  22.8683089  41.8346432   8.7010089  22.5359687
  47.1988046  17.1529733  25.1147872  47.1122020  17.3085159  25.9682650
  46.7438526  17.7967808  24.7407277  47.1191302  17.2705488  25.1854978
  30.1011537  12.5226212  21.8507821  30.2027674  13.3252373  22.1788797
  30.8967424  12.3213548  21.5530902  30.2339443  12.6112110  21.8543177
  36.5328356  10.1082408  31.6145126  36.3411553  10.1237543  32.4644550
  37.3826952  10.3046083  31.5911781  36.6304078  10.1396760  31.7368421
  30.9175269  12.6373390  29.5928943  30.7760761  11.7857331  29.7173451
  31.2015833  12.6802051  28.7691149  30.9383115  12.5173140  29.4896567
  41.0713862  14.4740480  23.7373431  40.8248576  14.3936231  24.5710220
  41.3998985  13.6893948  23.5435959  41.0835105  14.3466745  23.8320954
  44.9661910  21.1823839  27.5260212  44.8276270  21.8804885  28.0308955
  44.1861908  21.0272496  27.1696394  44.8305137  21.2624006  27.5486487
  43.3039996  17.4820215  33.7782594  43.2988034  16.6100031  33.7825021
  44.0100989  17.6808384  33.3052050  43.4085000  17.3824089  33.7089629
  37.0310889  17.2097199  33.1496414  37.1754265  17.7898407  32.5139524
  37.3786537  17.5873495  33.8546269  37.1038350  17.3517903  33.1595409
  39.2030806  16.4087367  30.9321546  38.4554120  16.6018381  30.5269824
  39.3572332  15.5832587  30.6945667  39.1153234  16.3152478  30.8366952
  46.4615283  20.5402093  18.2876712  46.0822092  19.7539231  18.2806001
  45.7981529  21.0888950  18.1448356  46.3073758  20.5046917  18.2657509
  39.4432583  10.3037918  31.8216950  39.9005197  11.0361892  31.9489742
  39.5188912   9.8804383  32.5804205  39.5223553  10.3495156  31.9518026
  31.6865575  10.5503737  32.9106393  31.1507764   9.9384096  33.2267161
  31.7483339  11.1251873  33.5640060  31.6161207  10.5450665  33.0541820
  43.9159909   3.4827793  25.6910793  44.0343477   3.9404256  24.9578095
  43.7422085   2.6773054  25.4047010  43.9079080   3.4321565  25.5411726
  39.2862191  24.0915612  22.1265538  40.0512083  23.8225256  21.8048202
  39.1840281  23.6065623  22.8435601  39.3843687  23.9805177  22.1845365
  37.3214961  12.2940022  28.6658774  36.5311036  12.1131482  28.9876109
  37.7175584  11.5166974  28.6489068  37.2631837  12.1527483  28.7111322
  41.8080852  21.1227796  14.1065487  42.5753837  21.1827921  13.6971339
  41.3612161  20.5508237  13.6221806  41.8554279  21.0464372  13.9743198
  42.7058648  19.9282452  26.3918220  42.0303649  19.6967684  26.8931607
  42.7151024  19.3203635  25.7660325  42.6077152  19.8041377  26.3734372
  39.8352792  14.7700281  33.1482273  39.7711933  15.6310237  33.0202409
  39.9749979  14.4532274  32.3477824  39.8468262  14.8500447  33.0110485
  44.7075382  22.7847584  18.6228397  44.7895220  23.5914570  18.2989848
  45.1925124  22.8043543  19.3469171  44.7912540  22.9068247  18.6815296
  38.5171885  17.4632420  27.2898475  38.0934135  17.6636919  26.5537494
  38.3416741  16.6161268  27.4022775  38.4282766  17.3681202  27.1972166
  33.8054330  17.9584472  22.7226448  33.9618950  17.8931274  23.5782440
  34.1454923  18.7333024  22.5105128  33.8787565  18.0633670  22.8181042
  40.3433475  17.3342355  21.5919811  40.8849020  16.8312736  22.0558432
  40.6580034  17.2807550  20.7809296  40.4697872  17.2521776  21.5403623
  38.5119925  22.7259707  18.8759839  38.5812745  21.8674245  19.0152840
  39.2908380  22.9431588  18.5478864  38.6372775  22.6312571  18.8476996
  41.4922744  12.2278660  31.6442112  41.7064714  11.5889574  31.0905466
  40.8756644  12.6724484  31.2149973  41.4328074  12.1988803  31.4992543
  42.9027412  25.1497408  23.0896332  42.5107204  24.8464123  22.3719199
  43.0580485  25.9866498  22.9001286  42.8681002  25.2281245  22.9552830
  30.3788592  15.1419422  23.0387215  30.7587557  15.5603967  22.3747482
  29.8043957  15.7232878  23.3456058  30.3499917  15.2897281  22.9863956
  43.6561832  13.8367725  32.5825419  42.8438514  13.5293615  32.6638591
  44.1151767  13.3566725  33.1468131  43.6042217  13.7204217  32.6780013
  43.0667087  21.7147397  23.0302363  42.7081742  21.8862040  23.8066395
  42.5805798  22.1760602  22.4730362  42.9425784  21.8086368  23.0627632
  40.8837473   5.3378595  26.6329454  40.0131031   5.3117316  26.5862764
  41.1377814   5.1655787  25.8155300  40.7931033   5.3088739  26.5049591
  37.8555452  17.3946562  15.5702597  38.1447977  18.1711445  15.8446172
  37.9427251  16.8835294  16.2717097  37.9109709  17.4338481  15.7145095
  40.7515340  15.2427796  37.3654121  41.2214971  15.8669913  37.7521995
  40.7977220  14.5744772  37.9247336  40.8283216  15.2362477  37.5054192
  37.9086613   7.3484824  28.0902925  37.3925102   6.6565015  28.2154504
  37.3480542   8.0155601  28.0365524  37.7493127   7.3448081  28.1008991
  39.9778847   7.8877784  29.9195777  39.5910600   7.9126815  30.7009307
  39.4911784   7.3219462  29.4670294  39.8491356   7.8073535  29.9683681
  45.9528826  14.4540439  28.5435480  45.5256435  14.3666787  27.7883579
  45.3154879  14.5618214  29.1290324  45.7958434  14.4573099  28.5180921
  39.6435989   4.7744769  32.2106037  40.2729107   5.3105069  31.9327108
  39.8121851   4.6822128  33.0619603  39.7613783   4.8406132  32.2954565
  39.4449904   9.5615964  34.4832449  40.2723333   9.2901113  34.5391063
  39.4657750  10.3576806  34.8396267  39.5702754   9.6395718  34.5447632
  44.2826083  23.2971101  30.6174921  45.0718461  22.9460166  30.7377002
  44.4569681  24.1107489  30.3551554  44.4246365  23.3656958  30.5962789
  34.0219393  16.7079827  27.6702710  33.1807400  16.6083701  27.8781603
  34.2309401  17.4775307  28.0217030  33.9284086  16.8071870  27.7530024
  31.4994960  14.3299364  25.4987460  31.1051658  14.4042376  24.7237570
  30.9435077  14.7157310  26.0495822  31.3597773  14.3981138  25.4655120
  43.1359907   7.3080658  25.1791339  43.3409501   7.2402966  26.0248336
  42.8086331   8.1139479  25.1112517  43.1175155   7.4166598  25.2950994
  37.8336058  14.6361226  26.9200307  37.5299196  14.0817214  27.5210715
  37.1315479  14.8153436  26.4328341  37.6852268  14.5806008  26.9370013
  36.8902155  11.9461746  21.4845009  37.1661890  11.2280658  21.0722576
  37.4900825  12.5446666  21.2766115  37.0195420  11.9282117  21.3925770
  46.3893595   7.8612422  24.6594105  45.7767908   8.3482824  25.0447836
  46.4857770   7.1855913  25.2031756  46.3131492   7.8330731  24.7972963
  40.3912676   9.6175263  19.7591604  40.8456422   9.7885824  20.4839448
  40.8652722   9.0043374  19.3589380  40.5280996   9.5526148  19.8065365
  33.9128201  19.1023589  29.0894342  33.3216135  19.7433087  29.0597357
  34.6749225  19.5261206  29.0625642  33.9376462  19.2599428  29.0809490
  34.3088824  10.2625587  29.7562360  34.7690306  10.3364516  30.4937484
  34.3544931  11.0606841  29.4062181  34.3839379  10.3919734  29.8135117
  35.9572174  10.9292282  34.3234387  35.5657739  10.2825629  34.7590165
  36.1258037  11.5203717  34.9428643  35.9243084  10.9206550  34.4797093
  50.0318623  18.9329359  30.0871621  50.0901747  19.3816008  30.8331597
  49.3985090  19.3428172  29.6501701  49.9469918  19.0603093  30.1324169
  43.6717718  24.5532901  26.5226367  43.4737406  25.0423715  25.8282578
  43.0505429  24.7574142  27.1010500  43.5505282  24.6549439  26.5049590
  37.7325696  16.3217797  20.8636611  38.4767741  16.7092074  21.1019561
  37.8786392  15.4775223  21.0277099  37.8636281  16.2548270  20.9230581
  39.6505271   8.1168056  25.8968473  38.8041316   8.2890864  25.7709822
  39.6476404   7.3117400  26.2334301  39.5252421   8.0229085  25.9279600
  40.7203572  11.8943271  26.7630530  40.2463526  11.3685033  27.2735841
  41.0921708  11.3472744  26.1945392  40.7053461  11.7359267  26.7545678
  46.9840302  16.9545646  28.1737311  46.7438525  16.1152062  28.1779737
  47.4632309  17.0345813  28.8978084  47.0192486  16.8427046  28.2812113
  42.6487071  12.7879825  19.8256284  42.1210090  12.8708569  19.1361993
  43.1082780  13.5297697  19.8220929  42.6388922  12.9100488  19.7230979
  48.9845489  13.7347104  26.1266570  48.7455259  13.6942938  25.2887355
  49.1479391  14.5818256  26.2532291  48.9735793  13.8539189  26.0220052
  45.5891519  18.1197053  32.0571615  46.3125718  17.6669579  31.8782635
  45.3241482  18.4001719  31.2743943  45.6572793  18.0948021  31.9150331
  34.4578388  12.7157227  28.7924494  33.8331458  12.7275618  28.1850447
  34.1223983  13.1917402  29.4415735  34.3163880  12.7875744  28.7981063
  34.6420137  11.0582345  14.8497179  34.2932941  11.7102070  15.3128729
  34.1616582  11.0439458  14.1221051  34.5190380  11.1525399  14.8108271
  42.2024154  21.3583389  18.9565941  42.9258353  21.8241502  18.8130515
  41.7624745  21.4256999  18.2063538  42.2439846  21.4367226  18.8250723
  41.3710309  18.2180931  30.2066630  40.7567302  17.6738982  30.5015266
  41.8877594  17.7045168  29.7272446  41.3565971  18.0617340  30.1790859
  40.6106606  19.2885201  27.9410929  40.1834214  18.6634920  27.5076364
  40.6031550  19.0060123  28.7669936  40.5465747  19.1537982  27.9990756
  33.7269133  14.3250374  31.0099363  33.8862620  13.5693698  31.4151085
  33.5462027  14.8741314  31.6640101  33.7234492  14.2944188  31.1662069
  41.6689436   6.4911610  31.5650152  41.1729997   6.6875284  30.8741719
  42.4258498   6.8904278  31.3938954  41.7076261   6.5789344  31.4370289
  38.9392316  10.1653956  28.1553463  38.9634803   9.6314068  27.4666243
  39.1903789   9.6571265  28.8179054  38.9802234  10.0114860  28.1518108
  26.4499906  17.4485451  27.5896607  26.3443355  17.4032295  26.7248691
  25.7000126  17.7939231  27.8710892  26.3235509  17.4926359  27.5033937
  35.2193638   8.8924774  27.5359207  35.2592010   9.3933981  28.2493915
  34.3943303   8.9835168  27.2665130  35.1033164   8.9806590  27.6009745
  37.4023251  18.4585514  35.6379502  36.5518881  18.5957228  35.7737147
  37.5651379  17.7249292  36.0827204  37.3007114  18.3699615  35.7235101
  36.6408001  15.4085284  29.8333106  35.8099931  15.5759102  29.6268354
  36.5859519  15.0321235  30.6181992  36.5097416  15.3775015  29.9181634
  34.4491785   8.8994177  35.4689517  35.0744488   8.3556310  35.7418949
  33.9942265   8.4189094  34.8997307  34.4740045   8.7483658  35.4251111
  35.0144045  13.6840875  20.3623224  35.1547006  14.1813340  21.0651865
  35.5126578  12.9827170  20.5037438  35.1085126  13.6542854  20.4874803
  35.0444268  14.5507986  17.6915801  35.6789347  15.1468411  17.6265263
  35.1269878  14.2511444  18.5061671  35.1500819  14.5948895  17.8018887
  48.0226833  17.0823464  30.5602165  48.6144674  17.7220715  30.5920363
  48.4585828  16.3846501  30.8494232  48.1745265  17.0741814  30.6082998
  36.6223250  10.4821962  17.6661243  36.9439092  10.0025044  17.0120505
  36.8850194  11.2921608  17.4752054  36.7089276  10.5311860  17.5416735
  42.0182405   9.8694156  30.0284722  42.4437477   9.4166682  29.4168248
  41.4039399   9.3154227  30.3049509  41.9911051   9.7208132  29.9789747
  31.5497256  16.7475827  20.9605347  32.0589485  17.3440335  21.3416652
  32.0231528  16.4801801  20.2781766  31.6940631  16.7961643  20.9159870
  42.4628004  25.4204094  19.1164002  41.7457313  25.2464956  18.6511240
  43.1134741  25.1856666  18.5839488  42.4529854  25.3599886  18.9693220
  40.4576628   6.3409256  23.4375299  39.8144946   6.1906902  24.0060437
  40.1176035   6.0951601  22.6724404  40.3121706   6.2821378  23.4078314
  45.0475975  14.2968682  22.8605307  44.3767165  14.8398385  22.7318373
  45.7415725  14.7663538  22.6187002  45.0504842  14.4466954  22.8060835
  39.0962709  26.4365394  28.0917066  38.8728363  25.6784224  28.4601092
  38.6072552  26.4663416  27.3697505  38.9906158  26.3287619  28.0393807
  45.2104102  10.7524566  25.7695681  45.5631712  10.3254289  26.4441479
  44.3518904  10.6675410  25.8996757  45.1353547  10.6769307  25.8890691
  33.9087787  13.3832086  23.8278527  33.1899776  13.7996218  24.0951391
  34.2800150  13.9486325  23.2770165  33.8579719  13.5281367  23.7861334
  43.2087368  14.0159935  29.7180523  43.1885295  13.8343230  30.5715302
  43.2566569  14.8871953  29.6940107  43.2122009  14.1176473  29.8403818
  41.1106460  25.8155938  26.2977767  40.7122743  25.9258208  25.5298587
  40.4957679  26.0238004  26.8804327  40.9605349  25.8629506  26.2709066
  39.6834362  12.4230086  19.1651907  39.0899201  12.7447082  18.6136474
  39.7209639  11.5771181  18.9573013  39.6008751  12.3454414  19.0534678
  46.6428162   5.8742978  26.6979993  46.1359027   5.1672117  26.6301171
  47.4395596   5.5436167  26.8281070  46.6855402   5.7216129  26.7078988
  42.5592178  12.3809590  22.5953657  42.3305871  12.4042292  21.7532015
  42.8190254  11.5567057  22.7148667  42.5638366  12.2625670  22.4878855
  36.8411407  14.2344063  32.1978757  36.3290310  13.6265246  32.5563789
  36.6690903  14.9500656  32.6652733  36.7401044  14.2507362  32.3194981
  31.6877121  12.6781639  34.8481119  31.5179712  13.3383013  34.3029326
  31.2443071  12.8888200  35.5693608  31.5976455  12.8067621  34.8742748
  35.6136941  10.9186136  23.8907853  36.0894307  11.2803216  23.2558034
  35.1125540  11.5742604  24.1707995  35.6102300  11.0680325  23.8384594
  48.8448302  20.3907905  19.6820858  49.2281908  21.1399261  19.9118955
  48.0492416  20.6373724  19.4232847  48.7842085  20.5377598  19.6778431
  40.7180477  12.1568308  34.6381013  41.2751907  11.9282117  34.0059478
  40.3941542  12.9173973  34.3616225  40.7526887  12.2352145  34.5037510
  38.4363594  15.2435961  35.6033020  39.1874921  15.5587638  35.9172574
  38.6286171  15.0415132  34.7766942  38.5755008  15.2603343  35.5276416
  37.6563594  13.0627336  17.2581237  38.0362559  13.0806965  16.4732351
  36.9156190  13.5081325  17.1372084  37.6032432  13.1309111  17.1244805
  45.2848884  11.3709527  22.8456815  45.2843111  11.2158184  23.7041092
  45.0805064  12.2172515  22.7898201  45.2548662  11.4730148  22.9644755
  27.3466155  14.7949312  27.2615632  27.1687916  14.3425921  27.9870547
  27.0585177  15.5975473  27.4454109  27.2779108  14.8471870  27.3959135
  43.0089736  16.0507029  26.4993022  43.5043402  15.3330024  26.4597042
  42.1989512  15.7477827  26.3847509  42.9633630  15.9004676  26.4766748
  38.4548348  19.9004842  18.6490027  37.6459671  19.5771516  18.6023336
  38.9623257  19.1938065  18.5818275  38.4098015  19.7486159  18.6320321
  29.0838625  17.3277036  24.3737391  28.2184145  17.3162726  24.2620162
  29.1837441  17.1407258  25.2208530  28.9712792  17.2983097  24.4826335
  45.0741555  18.8010717  29.1870151  45.4996627  18.2785139  28.6340576
  44.7098475  19.3991554  28.6658774  45.0828158  18.8120944  29.0279161
  41.6620155  22.5144981  25.5171308  42.1331333  23.2285244  25.6861294
  41.9980333  21.9143731  26.0531178  41.7815270  22.5316445  25.6203684
  38.5789650   7.2872452  32.4729403  38.7117555   6.4903445  32.8010379
  38.9634802   7.8138855  33.0527679  38.6545979   7.2472368  32.6072906
  41.6522005   4.2102778  29.0710496  40.8467969   4.1000507  29.3878335
  41.5228740   4.3115233  28.2140362  41.5142138   4.2086448  28.9918537
  45.1087965  10.3748270  29.6650193  44.5250954  10.8757476  29.2527761
  45.4292259   9.8677826  29.0314517  45.0701141  10.3740105  29.5108700
  37.6482765   9.2888864  19.9408868  38.4698459   9.4587177  19.6990563
  37.1852415   9.4436125  19.2175166  37.7013927   9.3370597  19.7980512
  36.2378096   7.2831627  30.7207297  36.7822509   6.9422753  31.3111639
  36.2915032   8.1417088  30.8628581  36.3267216   7.3586886  30.8289170
  32.0508655  21.0448043  27.5946105  32.6553513  21.0043877  26.9659926
  31.8435968  21.8919195  27.6250161  32.1097553  21.1636045  27.5062221
  41.8652427  23.3113988  28.8108342  42.6850801  23.1676954  29.0724637
  41.5846505  23.9360187  29.3524780  41.9449171  23.3824340  28.9296282
  27.2859938  20.0282660  27.4645028  27.1884216  19.2178932  27.7735085
  28.0688807  20.0074454  27.0791296  27.3876074  19.9049750  27.4531891
  58.3366078  30.9678840  21.7751219  58.3060082  31.8223476  21.9469488
  58.9347426  30.6674132  22.3337362  58.4203236  31.0495336  21.8826021
  51.5365763  30.0554491  26.5304149  50.6803658  30.2162989  26.5813266
  51.5833416  29.1846555  26.5509210  51.4164874  29.9505292  26.5410215
  51.3731862  40.0142578  17.7226928  51.0383231  40.6919500  17.2871150
  51.8858733  39.6247889  17.1343799  51.3997443  40.0567156  17.5713719
  54.3817584  32.1146534  29.1735801  54.9273544  32.7931621  29.2329770
  54.3234460  31.9733995  28.3137382  54.4533498  32.1938536  29.0547861
  56.1582652  33.5431142  20.0469528  56.0422178  34.2938828  20.4761666
  56.9538539  33.2855095  20.2965615  56.2587242  33.6165988  20.1473620
  40.6956703  35.6255887  24.1856487  40.4606887  34.7923540  24.0788755
  40.8342344  35.9060553  23.3717688  40.6812365  35.5439391  24.0498842
  42.9946790  27.7941618  27.0840794  42.3751822  27.2034265  26.9150809
  42.8930654  28.3853053  26.4505118  42.8884466  27.7945700  26.9645784
  48.0412978  37.5325165  21.3338871  48.3628819  38.0730372  20.7300179
  48.6885074  36.9621936  21.4661161  48.1839033  37.5284340  21.2645906
  50.0914686  29.5341160  21.4173258  50.7894851  29.7129287  21.9094721
  50.4067018  29.0111499  20.7943647  50.2410023  29.4834932  21.3975268
  50.2802621  35.9211605  21.4053049  50.7196257  35.3128705  21.8507822
  50.1307284  35.5418978  20.6338514  50.3224087  35.7750076  21.3572216
  48.2641549  24.9033556  25.4994532  47.9344879  25.3544700  24.8298231
  47.5886551  24.8249720  26.0467539  48.1151986  24.9584691  25.4817755
  53.8811958  34.2738786  18.3583818  53.7963253  35.1299753  18.5033387
  54.3696341  33.9983110  19.0265977  53.9400855  34.3596107  18.4785900
  55.4717957  20.8919079  23.7444143  55.1571398  21.5822558  24.1764565
  54.9544899  20.8363861  23.0429643  55.3482428  20.9853968  23.7041092
  54.8130391  30.8923580  19.8581553  54.2841862  31.1083214  20.5178860
  55.3355411  31.5859719  19.7782523  54.8118844  31.0266717  19.9437153
  60.2678444  36.4669884  25.2314598  59.4376147  36.6780528  25.3948014
  60.2187696  35.6406939  24.9556881  60.1385179  36.3759491  25.2151963
  46.7029999  34.7886797  18.6589021  46.1187214  35.2936828  19.0654885
  46.3000094  34.5629184  17.9185613  46.5569303  34.8295045  18.6094047
  51.1607213  31.0352449  17.1357942  51.4003217  31.2430433  16.3233285
  51.4823054  30.2309958  17.2446886  51.2444371  30.9466550  17.0318495
  46.4697504  22.9645845  20.9817480  47.2243472  23.3324162  20.7434530
  46.2925038  23.3385399  21.7496659  46.5551982  23.0744033  21.0602368
  59.7632402  29.1140285  29.0265019  58.9260823  29.1842472  29.2612614
  59.7320633  29.1164780  28.1539321  59.6350685  29.1250512  28.9324567
  44.8254568  25.3716164  17.6795593  44.6430141  25.5888044  16.8536586
  45.6880181  25.4855176  17.7354207  44.9259158  25.4206062  17.5650080
  50.5054287  22.3742574  20.7144617  51.2340448  22.1958529  20.2682773
  50.5949180  23.2160654  20.9251795  50.6260949  22.4726453  20.6798134
  54.4862588  33.3095962  24.6176911  55.2420103  33.7427476  24.6565819
  54.5924912  32.6600731  25.1911547  54.6132759  33.2773446  24.7074936
  57.5242759  37.1369239  25.3679314  57.0877991  37.1405981  26.1238285
  57.1905675  37.8174738  24.9358891  57.4105379  37.2381695  25.4160146
  57.4440242  24.1783067  27.6108742  58.0866150  24.2481171  28.1970657
  57.6963263  23.5112290  27.1088283  57.5762374  24.0909415  27.6236021
  44.3716595  28.6490336  16.1918066  43.6574772  28.3628516  16.6040498
  44.8560564  28.9886962  16.8324453  44.3375959  28.6571986  16.3473701
  60.6587105  33.8550159  24.2598951  61.3203539  33.2940827  24.1594859
  60.0178517  33.3602190  24.5851642  60.6615973  33.6986568  24.2931291
  51.5463913  37.1520290  16.5679874  51.9615062  36.8205314  15.8764370
  50.7155843  36.9189192  16.4400011  51.4851922  37.0691546  16.4470721
  56.9451936  34.8715541  24.0010940  57.1807525  35.0160740  23.1737790
  57.0941500  35.6357949  24.3942453  57.0017739  35.0054596  23.9374543
  58.7742393  33.7117207  21.8380543  59.1050610  34.2444847  21.2320638
  59.3475481  33.7656095  22.4942494  58.9076072  33.7986776  21.8458325
  53.9874282  31.5582110  22.5204124  54.0821136  32.2971404  22.9743749
  53.3633125  31.1299585  22.9538688  53.9083312  31.6043430  22.6512271
  54.2397303  33.4030850  15.7541076  54.1577466  33.4733037  16.6196063
  54.8777024  33.9660594  15.5624816  54.3217141  33.4969821  15.8531025
  52.6791525  25.2720038  25.3219694  51.9747851  24.7829224  25.4803614
  52.7276499  25.2842513  24.4508139  52.5821576  25.2009686  25.2159034
  46.5725187  30.7229350  25.7080497  45.9974778  30.8821518  26.3444458
  46.1960863  30.0864759  25.2448947  46.4327999  30.6527163  25.7335055
  59.8821744  28.9527704  23.3420705  59.6258309  28.1407645  23.1518588
  60.7251058  28.9605271  23.1150892  59.9687770  28.8339701  23.2805522
  54.0624837  22.8927328  28.0796859  54.4435348  22.2105499  28.4664733
  53.2588121  22.6036930  27.8972524  54.0001298  22.7494377  28.1100915
  51.3437413  33.4251304  18.7649682  52.1578052  33.7166197  18.6532453
  51.2796555  32.7711166  18.1907975  51.4540152  33.3716499  18.6638519
  47.2145322  36.8972821  23.8921994  47.8519269  36.6584569  24.4373787
  47.6400393  37.1009980  23.1575155  47.3721488  36.8923832  23.8639151
  47.8548137  32.1175111  18.2296883  48.2393289  31.8982818  18.9813429
  47.6059757  32.9438057  18.3597960  47.8750209  32.2073257  18.3597960
  58.5883324  35.8921749  29.2407552  58.2829141  36.6249806  29.6020868
  57.8689540  35.4859678  28.9600338  58.4370667  35.9403482  29.2520689
  64.2885116  32.5314749  28.5675896  64.2209617  32.5510709  27.6978483
  64.2740779  33.3745077  28.7931567  64.2763873  32.6588484  28.4728373
  45.5748574  23.7872048  23.5605664  44.7071000  23.8594647  23.6263273
  45.8623778  24.5894127  23.7493639  45.4888322  23.9166195  23.5980431
  54.6981463  23.9349907  31.8916986  55.4435055  23.7459718  31.4780411
  54.2818767  24.4608145  31.3330842  54.7466437  23.9852053  31.7481559
  48.1371379  40.3379987  20.3029254  48.4269678  39.9468968  19.5788480
  48.8674860  40.5196692  20.7434529  48.2878264  40.3073801  20.2612061
  62.0743734  31.3059136  26.8422491  62.6251655  30.6727205  27.0819583
  62.0587849  31.8374528  27.5337995  62.1528930  31.2908084  26.9801349
  55.7772140  29.5455469  25.9527087  55.4336906  28.8245805  26.3034337
  55.8765182  29.3369321  25.1105445  55.7414183  29.4079673  25.8798767
  48.2445251  43.6876759  22.1520096  48.8969309  43.1553202  22.3811122
  47.5470859  43.3345412  22.5387970  48.2375969  43.5566282  22.2432264
  45.1926515  36.0415937  21.5587470  45.9472483  36.4228976  21.7722933
  44.5997128  36.4927081  22.0134167  45.2163229  36.1644764  21.6570349
  56.2385169  36.0081173  21.4951075  56.8043202  36.6674383  21.4109618
  55.5913072  36.3530872  21.9667477  56.2263925  36.1563115  21.5523832
  43.5015926  27.2630307  21.0022540  43.2140722  26.8931578  20.2654488
  44.1886394  27.7325162  20.7406245  43.5604823  27.2777276  20.8537616
  52.7091747  38.9519958  20.9188154  52.4678423  38.2187818  20.5115219
  52.8893080  39.5006815  20.2654488  52.6999371  38.9242349  20.7618377
  47.9391068  34.2428517  22.3309077  47.7433850  34.8503252  21.7369380
  48.1625413  33.5496461  21.8500751  47.9425709  34.2306043  22.1725157
  46.3369598  31.1283255  22.4489945  47.0592250  31.2924413  21.9893751
  45.8577591  31.8492920  22.3429285  46.3733328  31.2581485  22.3655559
  54.2963105  27.4647054  27.8286630  53.4574206  27.4908333  27.5924893
  54.3667473  28.1117790  28.4091977  54.1831499  27.5643180  27.8795747
  52.7432384  24.3632431  22.5614246  53.4458736  24.1640179  22.0834204
  52.4776572  23.5908374  22.8683089  52.8079016  24.2195397  22.5359687
  58.1720629  32.6715041  25.1147872  58.0854604  32.8270467  25.9682650
  57.7171109  33.3153116  24.7407277  58.0923886  32.7890796  25.1854978
  41.0744121  28.0411520  21.8507821  41.1760257  28.8437681  22.1788797
  41.8700008  27.8398855  21.5530902  41.2072026  28.1297418  21.8543177
  52.0446445  29.9925788  23.7373431  51.7981160  29.9121539  24.5710220
  52.3731568  29.2079256  23.5435959  52.0567689  29.8652053  23.8320954
  55.9394494  36.7009147  27.5260212  55.8008853  37.3990193  28.0308955
  55.1594492  36.5457804  27.1696394  55.8037721  36.7809314  27.5486487
  50.1763390  31.9272675  30.9321546  49.4286704  32.1203689  30.5269824
  50.3304915  31.1017895  30.6945667  50.0885817  31.8337786  30.8366952
  57.4347867  36.0587401  18.2876712  57.0554676  35.2724539  18.2806001
  56.7714112  36.6074258  18.1448356  57.2806342  36.0232225  18.2657509
  54.8892493  19.0013101  25.6910793  55.0076061  19.4589564  24.9578095
  54.7154669  18.1958362  25.4047010  54.8811664  18.9506873  25.5411726
  50.2594775  39.6100920  22.1265538  51.0244666  39.3410564  21.8048202
  50.1572865  39.1250931  22.8435601  50.3576271  39.4990485  22.1845365
  48.2947545  27.8125330  28.6658774  47.5043620  27.6316790  28.9876109
  48.6908168  27.0352282  28.6489068  48.2364421  27.6712791  28.7111322
  52.7813436  36.6413104  14.1065487  53.5486421  36.7013229  13.6971339
  52.3344745  36.0693545  13.6221806  52.8286863  36.5649680  13.9743198
  53.6791231  35.4467760  26.3918220  53.0036233  35.2152992  26.8931607
  53.6883607  34.8388943  25.7660325  53.5809736  35.3226685  26.3734372
  55.6807966  38.3032892  18.6228397  55.7627803  39.1099878  18.2989848
  56.1657708  38.3228851  19.3469171  55.7645124  38.4253555  18.6815296
  44.7786914  33.4769780  22.7226448  44.9351533  33.4116582  23.5782440
  45.1187507  34.2518332  22.5105128  44.8520149  33.5818978  22.8181042
  51.3166059  32.8527663  21.5919811  51.8581604  32.3498044  22.0558432
  51.6312618  32.7992858  20.7809296  51.4430456  32.7707084  21.5403623
  49.4852508  38.2445015  18.8759839  49.5545329  37.3859553  19.0152840
  50.2640963  38.4616895  18.5478864  49.6105358  38.1497879  18.8476996
  53.8759996  40.6682716  23.0896332  53.4839788  40.3649431  22.3719199
  54.0313068  41.5051806  22.9001286  53.8413586  40.7466553  22.9552830
  54.6294416  29.3553033  32.5825419  53.8171098  29.0478923  32.6638591
  55.0884351  28.8752033  33.1468131  54.5774801  29.2389525  32.6780013
  54.0399671  37.2332705  23.0302363  53.6814325  37.4047348  23.8066395
  53.5538381  37.6945910  22.4730362  53.9158368  37.3271676  23.0627632
  51.8570057  20.8563903  26.6329454  50.9863615  20.8302624  26.5862764
  52.1110398  20.6841095  25.8155300  51.7663617  20.8274047  26.5049591
  48.8288036  32.9131870  15.5702597  49.1180561  33.6896753  15.8446172
  48.9159835  32.4020602  16.2717097  48.8842292  32.9523789  15.7145095
  48.8819197  22.8670132  28.0902925  48.3657686  22.1750323  28.2154504
  48.3213126  23.5340909  28.0365524  48.7225710  22.8633389  28.1008991
  50.9511431  23.4063092  29.9195777  50.5643184  23.4312123  30.7009307
  50.4644368  22.8404770  29.4670294  50.8223939  23.3258843  29.9683681
  56.9261410  29.9725747  28.5435480  56.4989018  29.8852095  27.7883579
  56.2887463  30.0803522  29.1290324  56.7691017  29.9758407  28.5180921
  50.6168572  20.2930077  32.2106037  51.2461690  20.8290377  31.9327108
  50.7854435  20.2007436  33.0619603  50.7346367  20.3591439  32.2954565
  42.4727544  29.8484672  25.4987460  42.0784242  29.9227683  24.7237570
  41.9167661  30.2342618  26.0495822  42.3330356  29.9166446  25.4655120
  54.1092491  22.8265966  25.1791339  54.3142084  22.7588274  26.0248336
  53.7818915  23.6324787  25.1112517  54.0907739  22.9351906  25.2950994
  48.8068642  30.1546534  26.9200307  48.5031779  29.6002522  27.5210715
  48.1048063  30.3338744  26.4328341  48.6584852  30.0991316  26.9370013
  47.8634739  27.4647054  21.4845009  48.1394473  26.7465966  21.0722576
  48.4633408  28.0631974  21.2766115  47.9928004  27.4467424  21.3925770
  57.3626178  23.3797730  24.6594105  56.7500492  23.8668132  25.0447836
  57.4590353  22.7041221  25.2031756  57.2864076  23.3516039  24.7972963
  51.3645259  25.1360571  19.7591604  51.8189006  25.3071131  20.4839448
  51.8385305  24.5228682  19.3589380  51.5013580  25.0711456  19.8065365
  45.2821408  25.7810895  29.7562360  45.7422889  25.8549824  30.4937484
  45.3277514  26.5792149  29.4062181  45.3571963  25.9105042  29.8135117
  61.0051206  34.4514667  30.0871621  61.0634330  34.9001315  30.8331597
  60.3717674  34.8613480  29.6501701  60.9202502  34.5788401  30.1324169
  54.6450301  40.0718209  26.5226367  54.4469990  40.5609023  25.8282578
  54.0238012  40.2759450  27.1010500  54.5237866  40.1734747  26.5049590
  48.7058279  31.8403105  20.8636611  49.4500324  32.2277382  21.1019561
  48.8518976  30.9960531  21.0277099  48.8368865  31.7733578  20.9230581
  50.6237855  23.6353364  25.8968473  49.7773900  23.8076172  25.7709822
  50.6208987  22.8302708  26.2334301  50.4985005  23.5414393  25.9279600
  51.6936155  27.4128579  26.7630530  51.2196110  26.8870341  27.2735841
  52.0654291  26.8658052  26.1945392  51.6786044  27.2544575  26.7545678
  57.9572886  32.4730954  28.1737311  57.7171109  31.6337370  28.1779737
  58.4364893  32.5531121  28.8978084  57.9925070  32.3612354  28.2812113
  53.6219655  28.3065133  19.8256284  53.0942674  28.3893877  19.1361993
  54.0815363  29.0483005  19.8220929  53.6121505  28.4285796  19.7230979
  59.9578073  29.2532412  26.1266570  59.7187843  29.2128246  25.2887355
  60.1211974  30.1003564  26.2532291  59.9468376  29.3724497  26.0220052
  56.5624103  33.6382361  32.0571615  57.2858302  33.1854887  31.8782635
  56.2974065  33.9187027  31.2743943  56.6305376  33.6133329  31.9150331
  45.4310971  28.2342534  28.7924494  44.8064042  28.2460926  28.1850447
  45.0956566  28.7102710  29.4415735  45.2896463  28.3061051  28.7981063
  45.6152720  26.5767653  14.8497179  45.2665524  27.2287378  15.3128729
  45.1349166  26.5624766  14.1221051  45.4922964  26.6710706  14.8108271
  53.1756737  36.8768697  18.9565941  53.8990936  37.3426810  18.8130515
  52.7357328  36.9442307  18.2063538  53.2172430  36.9552534  18.8250723
  52.6422020  22.0096918  31.5650152  52.1462581  22.2060592  30.8741719
  53.3991082  22.4089586  31.3938954  52.6808844  22.0974652  31.4370289
  49.9124899  25.6839264  28.1553463  49.9367387  25.1499376  27.4666243
  50.1636373  25.1756573  28.8179054  49.9534818  25.5300168  28.1518108
  46.1926222  24.4110082  27.5359207  46.2324593  24.9119289  28.2493915
  45.3675886  24.5020476  27.2665130  46.0765748  24.4991898  27.6009745
  45.9876629  29.2026183  20.3623224  46.1279590  29.6998648  21.0651865
  46.4859162  28.5012478  20.5037438  46.0817710  29.1728162  20.4874803
  46.0176851  30.0693294  17.6915801  46.6521931  30.6653719  17.6265263
  46.1002462  29.7696752  18.5061671  46.1233402  30.1134203  17.8018887
  58.9959417  32.6008772  30.5602165  59.5877257  33.2406022  30.5920363
  59.4318412  31.9031808  30.8494232  59.1477848  32.5927122  30.6082998
  47.5955834  26.0007270  17.6661243  47.9171675  25.5210352  17.0120505
  47.8582778  26.8106916  17.4752054  47.6821859  26.0497168  17.5416735
  52.9914989  25.3879464  30.0284722  53.4170061  24.9351990  29.4168248
  52.3771982  24.8339534  30.3049509  52.9643634  25.2393440  29.9789747
  42.5229839  32.2661135  20.9605347  43.0322068  32.8625643  21.3416652
  42.9964111  31.9987109  20.2781766  42.6673215  32.3146951  20.9159870
  53.4360587  40.9389402  19.1164002  52.7189897  40.7650264  18.6511240
  54.0867325  40.7041974  18.5839488  53.4262438  40.8785194  18.9693220
  51.4309212  21.8594564  23.4375299  50.7877530  21.7092210  24.0060437
  51.0908619  21.6136909  22.6724404  51.2854289  21.8006686  23.4078314
  56.0208558  29.8153990  22.8605307  55.3499748  30.3583693  22.7318373
  56.7148309  30.2848846  22.6187002  56.0237426  29.9652262  22.8060835
  56.1836686  26.2709874  25.7695681  56.5364296  25.8439597  26.4441479
  55.3251487  26.1860718  25.8996757  56.1086130  26.1954615  25.8890691
  44.8820371  28.9017394  23.8278527  44.1632360  29.3181526  24.0951391
  45.2532733  29.4671632  23.2770165  44.8312303  29.0466675  23.7861334
  54.1819952  29.5345243  29.7180523  54.1617879  29.3528538  30.5715302
  54.2299152  30.4057261  29.6940107  54.1854593  29.6361781  29.8403818
  50.6566945  27.9415394  19.1651907  50.0631784  28.2632390  18.6136474
  50.6942223  27.0956489  18.9573013  50.5741334  27.8639722  19.0534678
  57.6160746  21.3928286  26.6979993  57.1091611  20.6857425  26.6301171
  58.4128180  21.0621475  26.8281070  57.6587985  21.2401437  26.7078988
  53.5324762  27.8994898  22.5953657  53.3038455  27.9227600  21.7532015
  53.7922838  27.0752365  22.7148667  53.5370950  27.7810978  22.4878855
  46.5869524  26.4371444  23.8907853  47.0626891  26.7988524  23.2558034
  46.0858124  27.0927912  24.1707995  46.5834883  26.5865633  23.8384594
  59.8180886  35.9093212  19.6820858  60.2014492  36.6584569  19.9118955
  59.0224999  36.1559032  19.4232847  59.7574668  36.0562906  19.6778431
  48.6296177  28.5812644  17.2581237  49.0095142  28.5992273  16.4732351
  47.8888773  29.0266633  17.1372084  48.5765015  28.6494419  17.1244805
  56.2581468  26.8894835  22.8456815  56.2575694  26.7343492  23.7041092
  56.0537648  27.7357822  22.7898201  56.2281246  26.9915456  22.9644755
  53.9822320  31.5692337  26.4993022  54.4775985  30.8515332  26.4597042
  53.1722096  31.2663135  26.3847509  53.9366213  31.4189983  26.4766748
  49.4280932  35.4190150  18.6490027  48.6192254  35.0956824  18.6023336
  49.9355840  34.7123373  18.5818275  49.3830598  35.2671467  18.6320321
  56.0474139  34.3196025  29.1870151  56.4729210  33.7970447  28.6340576
  55.6831059  34.9176862  28.6658774  56.0560741  34.3306252  29.0279161
  52.6352738  38.0330289  25.5171308  53.1063917  38.7470552  25.6861294
  52.9712917  37.4329039  26.0531178  52.7547853  38.0501753  25.6203684
  49.5522233  22.8057760  32.4729403  49.6850139  22.0088753  32.8010379
  49.9367386  23.3324163  33.0527679  49.6278562  22.7657676  32.6072906
  52.6254588  19.7288086  29.0710496  51.8200552  19.6185815  29.3878335
  52.4961324  19.8300541  28.2140362  52.4874721  19.7271756  28.9918537
  56.0820549  25.8933578  29.6650193  55.4983538  26.3942784  29.2527761
  56.4024843  25.3863134  29.0314517  56.0433724  25.8925413  29.5108700
  48.6215348  24.8074172  19.9408868  49.4431042  24.9772485  19.6990563
  48.1584999  24.9621433  19.2175166  48.6746510  24.8555905  19.7980512
  47.2110680  22.8016935  30.7207297  47.7555093  22.4608061  31.3111639
  47.2647616  23.6602396  30.8628581  47.2999799  22.8772194  30.8289170
  69.3098661  46.4864147  21.7751219  69.2792666  47.3408784  21.9469488
  69.9080010  46.1859440  22.3337362  69.3935819  46.5680644  21.8826021
  62.5098346  45.5739798  26.5304149  61.6536242  45.7348297  26.5813266
  62.5566000  44.7031862  26.5509210  62.3897458  45.4690600  26.5410215
  56.8939486  55.1102516  22.2941381  56.1422385  54.7318055  22.0657426
  57.3425498  55.1420950  21.5460191  56.8489153  55.0588124  22.1498883
  65.8192063  51.8426324  36.1364605  66.5258830  51.3478355  36.2651540
  66.0079998  52.2835406  35.4067263  65.9519968  51.8344674  36.0473651
  62.3464446  55.5327886  17.7226928  62.0115814  56.2104807  17.2871150
  62.8591316  55.1433197  17.1343799  62.3730027  55.5752464  17.5713719
  61.8868737  57.4842155  23.6638039  62.2708116  58.0529053  23.1242814
  61.8227878  56.7591665  23.1843855  61.9342164  57.4617618  23.5131902
  65.3550167  47.6331842  29.1735801  65.9006127  48.3116929  29.2329770
  65.2967044  47.4919303  28.3137382  65.4266082  47.7123844  29.0547861
  58.4724242  55.1220909  24.5604153  58.5734605  54.3121262  24.8701281
  57.8765987  55.0277855  23.9303832  58.3996781  54.9885937  24.5130391
  67.1315236  49.0616449  20.0469528  67.0154762  49.8124136  20.4761666
  67.9271123  48.8040403  20.2965615  67.2319825  49.1351296  20.1473620
  58.3124982  60.0398498  25.9619009  58.9562437  60.4811662  26.3515167
  58.6381237  59.2351924  25.8749268  58.4556810  59.9863692  26.0064486
  51.6689286  51.1441195  24.1856487  51.4339471  50.3108847  24.0788755
  51.8074927  51.4245861  23.3717688  51.6544949  51.0624698  24.0498842
  53.9679374  43.3126926  27.0840794  53.3484405  42.7219573  26.9150809
  53.8663237  43.9038361  26.4505118  53.8617049  43.3131008  26.9645784
  59.0145561  53.0510473  21.3338871  59.3361402  53.5915680  20.7300179
  59.6617658  52.4807244  21.4661161  59.1571617  53.0469648  21.2645906
  61.0647269  45.0526467  21.4173258  61.7627434  45.2314595  21.9094721
  61.3799602  44.5296807  20.7943647  61.2142607  45.0020240  21.3975268
  61.2535205  51.4396913  21.4053049  61.6928840  50.8314013  21.8507822
  61.1039868  51.0604286  20.6338514  61.2956671  51.2935384  21.3572216
  61.2592939  52.8795830  28.2578767  61.5416182  52.0847236  28.0365523
  61.9879100  53.3576418  28.2783828  61.4082503  52.8330427  28.2281782
  59.2374133  40.4218864  25.4994532  58.9077463  40.8730008  24.8298231
  58.5619135  40.3435027  26.0467539  59.0884569  40.4769999  25.4817755
  64.8544541  49.7924094  18.3583818  64.7695836  50.6485060  18.5033387
  65.3428925  49.5168418  19.0265977  64.9133439  49.8781415  18.4785900
  66.4450541  36.4104387  23.7444143  66.1303982  37.1007866  24.1764565
  65.9277482  36.3549169  23.0429643  66.3215011  36.5039276  23.7041092
  65.7862975  46.4108888  19.8581553  65.2574446  46.6268521  20.5178860
  66.3087995  47.1045026  19.7782523  65.7851428  46.5452025  19.9437153
  71.2411028  51.9855192  25.2314598  70.4108731  52.1965836  25.3948014
  71.1920280  51.1592247  24.9556881  71.1117763  51.8944799  25.2151963
  57.6762582  50.3072105  18.6589021  57.0919798  50.8122136  19.0654885
  57.2732678  50.0814492  17.9185613  57.5301886  50.3480353  18.6094047
  59.3020765  54.8159047  28.0662507  58.7847707  54.4566462  27.4623815
  59.9995156  54.2921221  28.0768573  59.3286346  54.6856735  27.9792766
  62.9584357  55.2653861  34.0278680  63.0467703  55.0780001  34.8756891
  63.3874070  54.6191290  33.6283527  63.0346459  55.1416868  34.0950432
  60.5254817  54.5485021  33.0096343  59.9625652  54.1357630  33.5336004
  61.2875840  54.4737926  33.4289486  60.5549265  54.4762421  33.1489343
  62.1339797  46.5537757  17.1357942  62.3735801  46.7615741  16.3233285
  62.4555638  45.7495265  17.2446886  62.2176955  46.4651858  17.0318495
  57.4430087  38.4831153  20.9817480  58.1976055  38.8509470  20.7434530
  57.2657622  38.8570707  21.7496659  57.5284565  38.5929340  21.0602368
  56.0850808  56.5383042  25.6132973  56.7871388  56.0235031  25.6705729
  56.0048291  56.8657193  26.4179848  56.1774569  56.5097268  25.7405765
  70.7364986  44.6325593  29.0265019  69.8993407  44.7027780  29.2612614
  70.7053217  44.6350088  28.1539321  70.6083268  44.6435820  28.9324567
  55.7987152  40.8901472  17.6795593  55.6162725  41.1073352  16.8536586
  56.6612765  41.0040484  17.7354207  55.8991741  40.9391369  17.5650080
  55.4101584  52.7289394  25.1218581  56.2490483  52.9612327  25.1692342
  55.4413353  51.8593705  25.0525616  55.5383301  52.6346340  25.1183225
  61.4786871  37.8927882  20.7144617  62.2073031  37.7143837  20.2682773
  61.5681764  38.7345962  20.9251795  61.5993533  37.9911761  20.6798134
  65.4595172  48.8281270  24.6176911  66.2152687  49.2612784  24.6565819
  65.5657496  48.1786039  25.1911547  65.5865342  48.7958753  24.7074936
  68.4975343  52.6554547  25.3679314  68.0610575  52.6591289  26.1238285
  68.1638258  53.3360046  24.9358891  68.3837963  52.7567003  25.4160146
  68.4172826  39.6968375  27.6108742  69.0598734  39.7666479  28.1970657
  68.6695846  39.0297598  27.1088283  68.5494958  39.6094723  27.6236021
  55.3449179  44.1675644  16.1918066  54.6307356  43.8813824  16.6040498
  55.8293147  44.5072270  16.8324453  55.3108542  44.1757294  16.3473701
  63.2274810  56.6072982  30.3388920  62.4290055  56.3672482  30.5962788
  63.6760821  56.6587375  31.0855967  63.1749421  56.5795373  30.4873844
  71.6319689  49.3735467  24.2598951  72.2936123  48.8126135  24.1594859
  70.9911101  48.8787497  24.5851642  71.6348556  49.2171876  24.2931291
  62.5196497  52.6705598  16.5679874  62.9347645  52.3390622  15.8764370
  61.6888426  52.4374500  16.4400011  62.4584505  52.5876854  16.4470721
  67.9184520  50.3900849  24.0010940  68.1540109  50.5346048  23.1737790
  68.0674083  51.1543257  24.3942453  67.9750323  50.5239904  23.9374543
  69.7474976  49.2302515  21.8380543  70.0783193  49.7630155  21.2320638
  70.3208064  49.2841403  22.4942494  69.8808655  49.3172084  21.8458325
  64.9606865  47.0767418  22.5204124  65.0553720  47.8156712  22.9743749
  64.3365709  46.6484893  22.9538688  64.8815896  47.1228738  22.6512271
  65.2129887  48.9216158  15.7541076  65.1310049  48.9918345  16.6196063
  65.8509607  49.4845901  15.5624816  65.2949724  49.0155129  15.8531025
  58.5723058  48.6876895  25.2215602  58.3142302  47.8548630  25.1946901
  58.6271541  48.9134508  24.3808102  58.5422836  48.5974667  25.0935739
  63.6524108  40.7905346  25.3219694  62.9480435  40.3014532  25.4803614
  63.7009082  40.8027821  24.4508139  63.5554160  40.7194994  25.2159034
  57.5457770  46.2414658  25.7080497  56.9707361  46.4006826  26.3444458
  57.1693446  45.6050067  25.2448947  57.4060582  46.1712471  25.7335055
  70.8554328  44.4713012  23.3420705  70.5990893  43.6592953  23.1518588
  71.6983642  44.4790579  23.1150892  70.9420353  44.3525009  23.2805522
  65.0357420  38.4112636  28.0796859  65.4167932  37.7290807  28.4664733
  64.2320705  38.1222238  27.8972524  64.9733882  38.2679685  28.1100915
  62.3169997  48.9436612  18.7649682  63.1310636  49.2351505  18.6532453
  62.2529138  48.2896474  18.1907975  62.4272736  48.8901807  18.6638519
  68.5379487  51.6262608  33.1779258  68.3018125  50.7950673  33.0591318
  69.1822716  51.5748215  33.7634102  68.5974158  51.4960296  33.2465151
  58.1877905  52.4158129  23.8921994  58.8251852  52.1769877  24.4373787
  58.6132977  52.6195288  23.1575155  58.3454072  52.4109139  23.8639151
  58.8280720  47.6360419  18.2296883  59.2125873  47.4168126  18.9813429
  58.5792341  48.4623364  18.3597960  58.8482793  47.7258565  18.3597960
  69.5615908  51.4107057  29.2407552  69.2561725  52.1435114  29.6020868
  68.8422123  51.0044986  28.9600338  69.4103250  51.4588790  29.2520689
  60.5699377  52.8930552  25.5715780  60.6438385  52.7305724  26.4257630
  61.3868884  53.0820741  25.3276262  60.7015736  52.8967294  25.6613806
  75.2617700  48.0500057  28.5675896  75.1942200  48.0696017  27.6978483
  75.2473362  48.8930385  28.7931567  75.2496456  48.1773792  28.4728373
  54.3305134  53.2388415  22.6010224  53.5043252  53.4850152  22.4744503
  54.3917125  53.1600496  23.4672282  54.2179301  53.2633364  22.7099168
  56.5481158  39.3057356  23.5605664  55.6803583  39.3779955  23.6263273
  56.8356362  40.1079435  23.7493639  56.4620906  39.4351503  23.5980431
  65.6714046  39.4535215  31.8916986  66.4167638  39.2645026  31.4780411
  65.2551351  39.9793453  31.3330842  65.7199021  39.5037361  31.7481559
  59.1103963  55.8565295  20.3029254  59.4002261  55.4654276  19.5788480
  59.8407444  56.0382000  20.7434529  59.2610847  55.8259109  20.2612061
  73.0476317  46.8244444  26.8422491  73.5984239  46.1912513  27.0819583
  73.0320433  47.3559836  27.5337995  73.1261514  46.8093392  26.9801349
  55.9626826  49.9205994  25.6345105  55.6740074  49.2943465  26.1690832
  56.8310174  49.8626281  25.7009786  56.0487078  49.8193538  25.7236060
  66.7504724  45.0640777  25.9527087  66.4069489  44.3431112  26.3034337
  66.8497766  44.8554628  25.1105445  66.7146766  44.9264981  25.8798767
  59.2177834  59.2062067  22.1520096  59.8701892  58.6738510  22.3811122
  58.5203443  58.8530720  22.5387970  59.2108552  59.0751590  22.2432264
  56.1659099  51.5601245  21.5587470  56.9205067  51.9414284  21.7722933
  55.5729712  52.0112389  22.0134167  56.1895813  51.6830072  21.6570349
  67.2117753  51.5266481  21.4951075  67.7775785  52.1859691  21.4109618
  66.5645656  51.8716179  21.9667477  67.1996509  51.6748423  21.5523832
  54.4748510  42.7815615  21.0022540  54.1873305  42.4116885  20.2654488
  55.1618978  43.2510470  20.7406245  54.5337407  42.7962584  20.8537616
  63.6824331  54.4705266  20.9188154  63.4411007  53.7373126  20.5115219
  63.8625664  55.0192123  20.2654488  63.6731955  54.4427657  20.7618377
  58.9123651  49.7613825  22.3309077  58.7166434  50.3688560  21.7369380
  59.1357997  49.0681769  21.8500751  58.9158292  49.7491351  22.1725157
  57.3102181  46.6468563  22.4489945  58.0324833  46.8109721  21.9893751
  56.8310174  47.3678228  22.3429285  57.3465912  46.7766793  22.3655559
  65.2695689  42.9832362  27.8286630  64.4306790  43.0093641  27.5924893
  65.3400056  43.6303097  28.4091977  65.1564082  43.0828488  27.8795747
  63.7164967  39.8817739  22.5614246  64.4191320  39.6825487  22.0834204
  63.4509156  39.1093681  22.8683089  63.7811599  39.7380705  22.5359687
  69.1453213  48.1900349  25.1147872  69.0587187  48.3455775  25.9682650
  68.6903693  48.8338424  24.7407277  69.0656469  48.3076104  25.1854978
  52.0476704  43.5596828  21.8507821  52.1492841  44.3622989  22.1788797
  52.8432591  43.3584163  21.5530902  52.1804610  43.6482726  21.8543177
  63.0179029  45.5111096  23.7373431  62.7713743  45.4306847  24.5710220
  63.3464152  44.7264564  23.5435959  63.0300272  45.3837361  23.8320954
  66.9127078  52.2194455  27.5260212  66.7741437  52.9175501  28.0308955
  66.1327076  52.0643112  27.1696394  66.7770304  52.2994622  27.5486487
  65.2505163  48.5190831  33.7782594  65.2453201  47.6470647  33.7825021
  65.9566157  48.7179000  33.3052050  65.3550167  48.4194705  33.7089629
  58.0503811  56.4370586  30.0157441  58.1993375  55.8773502  29.3630846
  58.8303813  56.5162588  30.3989960  58.1877905  56.3656152  29.9754390
  68.4080450  51.5772709  18.2876712  68.0287259  50.7909847  18.2806001
  67.7446696  52.1259566  18.1448356  68.2538925  51.5417533  18.2657509
  60.5757112  56.6085229  31.2941932  60.5000783  55.9394040  31.8492720
  60.5046971  57.3103017  31.8082598  60.5537719  56.6130137  31.4518780
  65.8625076  34.5198409  25.6910793  65.9808645  34.9774872  24.9578095
  65.6887252  33.7143670  25.4047010  65.8544247  34.4692181  25.5411726
  61.2327359  55.1286228  22.1265538  61.9977250  54.8595872  21.8048202
  61.1305449  54.6436238  22.8435601  61.3308854  55.0175793  22.1845365
  63.7546019  52.1598412  14.1065487  64.5219004  52.2198537  13.6971339
  63.3077328  51.5878853  13.6221806  63.8019446  52.0834988  13.9743198
  64.6523815  50.9653068  26.3918220  63.9768816  50.7338300  26.8931607
  64.6616191  50.3574251  25.7660325  64.5542319  50.8411993  26.3734372
  66.6540549  53.8218200  18.6228397  66.7360387  54.6285186  18.2989848
  67.1390291  53.8414159  19.3469171  66.7377707  53.9438862  18.6815296
  59.9648746  60.0153549  29.7519933  60.4544676  59.3164338  29.5695597
  59.3932978  59.7177419  30.3395990  59.9533276  59.8679773  29.8120973
  55.7519498  48.9955087  22.7226448  55.9084117  48.9301890  23.5782440
  56.0920091  49.7703640  22.5105128  55.8252732  49.1004286  22.8181042
  62.2898642  48.3712971  21.5919811  62.8314188  47.8683352  22.0558432
  62.6045201  48.3178166  20.7809296  62.4163039  48.2892392  21.5403623
  66.1615750  52.5815618  38.7046723  66.9750615  52.3100767  38.8651856
  66.0010716  52.2823158  37.9006919  66.2585698  52.4970544  38.6092129
  60.4585092  53.7630323  18.8759839  60.5277912  52.9044861  19.0152840
  61.2373547  53.9802203  18.5478864  60.5837942  53.6683187  18.8476996
  64.8492579  56.1868024  23.0896332  64.4572371  55.8834739  22.3719199
  65.0045652  57.0237114  22.9001286  64.8146169  56.2651861  22.9552830
  52.3253759  46.1790038  23.0387215  52.7052724  46.5974583  22.3747482
  51.7509124  46.7603494  23.3456058  52.2965084  46.3267897  22.9863956
  65.0132254  52.7518013  23.0302363  64.6546909  52.9232656  23.8066395
  64.5270965  53.2131218  22.4730362  64.8890951  52.8456984  23.0627632
  62.8302640  36.3749211  26.6329454  61.9596198  36.3487932  26.5862764
  63.0842981  36.2026403  25.8155300  62.7396200  36.3459355  26.5049591
  59.8020620  48.4317178  15.5702597  60.0913144  49.2082061  15.8446172
  59.8892418  47.9205910  16.2717097  59.8574876  48.4709096  15.7145095
  59.8551781  38.3855440  28.0902925  59.3390269  37.6935631  28.2154504
  59.2945710  39.0526217  28.0365524  59.6958294  38.3818697  28.1008991
  61.9244014  38.9248400  29.9195777  61.5375767  38.9497431  30.7009307
  61.4376951  38.3590078  29.4670294  61.7956523  38.8444151  29.9683681
  66.1736994  53.6421909  33.9769564  66.8116714  53.1482104  33.6432020
  65.5311085  53.5699309  33.3921791  66.1731220  53.5580917  33.8411919
  67.8993994  45.4911055  28.5435480  67.4721602  45.4037403  27.7883579
  67.2620047  45.5988830  29.1290324  67.7423601  45.4943714  28.5180921
  61.5901156  35.8115385  32.2106037  62.2194274  36.3475685  31.9327108
  61.7587019  35.7192744  33.0619603  61.7078950  35.8776747  32.2954565
  66.2291250  54.3341717  30.6174921  67.0183628  53.9830782  30.7377002
  66.4034848  55.1478105  30.3551554  66.3711532  54.4027574  30.5962789
  53.4460128  45.3669980  25.4987460  53.0516825  45.4412991  24.7237570
  52.8900244  45.7527926  26.0495822  53.3062940  45.4351754  25.4655120
  65.0825074  38.3451274  25.1791339  65.2874668  38.2773581  26.0248336
  64.7551498  39.1510095  25.1112517  65.0640322  38.4537214  25.2950994
  58.8367323  42.9832362  21.4845009  59.1127057  42.2651274  21.0722576
  59.4365992  43.5817282  21.2766115  58.9660587  42.9652732  21.3925770
  68.3358762  38.8983038  24.6594105  67.7233076  39.3853440  25.0447836
  68.4322937  38.2226529  25.2031756  68.2596660  38.8701347  24.7972963
  62.3377843  40.6545879  19.7591604  62.7921590  40.8256439  20.4839448
  62.8117889  40.0413990  19.3589380  62.4746163  40.5896764  19.8065365
  71.9783790  49.9699975  30.0871621  72.0366914  50.4186623  30.8331597
  71.3450258  50.3798787  29.6501701  71.8935085  50.0973709  30.1324169
  65.6182885  55.5903517  26.5226367  65.4202573  56.0794331  25.8282578
  64.9970596  55.7944758  27.1010500  65.4970449  55.6920055  26.5049590
  59.6790863  47.3588413  20.8636611  60.4232908  47.7462690  21.1019561
  59.8251559  46.5145839  21.0277099  59.8101448  47.2918886  20.9230581
  61.5970438  39.1538672  25.8968473  60.7506484  39.3261480  25.7709822
  61.5941571  38.3488016  26.2334301  61.4717588  39.0599701  25.9279600
  62.6668739  42.9313887  26.7630530  62.1928693  42.4055649  27.2735841
  63.0386875  42.3843360  26.1945392  62.6518628  42.7729883  26.7545678
  68.9305469  47.9916262  28.1737311  68.6903692  47.1522677  28.1779737
  69.4097477  48.0716429  28.8978084  68.9657653  47.8797662  28.2812113
  64.5952239  43.8250441  19.8256284  64.0675257  43.9079185  19.1361993
  65.0547947  44.5668313  19.8220929  64.5854089  43.9471104  19.7230979
  70.9310656  44.7717720  26.1266570  70.6920426  44.7313554  25.2887355
  71.0944558  45.6188872  26.2532291  70.9200960  44.8909805  26.0220052
  67.5356687  49.1567669  32.0571615  68.2590885  48.7040195  31.8782635
  67.2706649  49.4372335  31.2743943  67.6037960  49.1318637  31.9150331
  56.5885304  42.0952961  14.8497179  56.2398108  42.7472686  15.3128729
  56.1081750  42.0810074  14.1221051  56.4655548  42.1896014  14.8108271
  64.1489321  52.3954005  18.9565941  64.8723520  52.8612118  18.8130515
  63.7089912  52.4627614  18.2063538  64.1905013  52.4737842  18.8250723
  63.3175476  49.2551547  30.2066630  62.7032469  48.7109597  30.5015266
  63.8342761  48.7415784  29.7272446  63.3031139  49.0987956  30.1790859
  62.5571773  50.3255817  27.9410929  62.1299381  49.7005536  27.5076364
  62.5496718  50.0430739  28.7669936  62.4930914  50.1908598  27.9990756
  63.6154603  37.5282226  31.5650152  63.1195165  37.7245900  30.8741719
  64.3723665  37.9274894  31.3938954  63.6541428  37.6159960  31.4370289
  60.8857483  41.2024572  28.1553463  60.9099970  40.6684684  27.4666243
  61.1368957  40.6941880  28.8179054  60.9267402  41.0485476  28.1518108
  57.1658805  39.9295390  27.5359207  57.2057177  40.4304596  28.2493915
  56.3408470  40.0205784  27.2665130  57.0498331  40.0177206  27.6009745
  56.9609212  44.7211491  20.3623224  57.1012173  45.2183955  21.0651865
  57.4591745  44.0197786  20.5037438  57.0550293  44.6913470  20.4874803
  56.9909435  45.5878602  17.6915801  57.6254514  46.1839027  17.6265263
  57.0735046  45.2882060  18.5061671  57.0965986  45.6319510  17.8018887
  69.9692001  48.1194080  30.5602165  70.5609841  48.7591330  30.5920363
  70.4050995  47.4217116  30.8494232  70.1210432  48.1112430  30.6082998
  58.5688418  41.5192578  17.6661243  58.8904259  41.0395660  17.0120505
  58.8315361  42.3292224  17.4752054  58.6554443  41.5682476  17.5416735
  61.7985390  52.5411452  31.1860059  61.2910482  53.0947299  31.6300689
  61.5012037  52.6019742  30.3678833  61.6790275  52.6317763  31.1308516
  53.4962423  47.7846443  20.9605347  54.0054652  48.3810951  21.3416652
  53.9696695  47.5172417  20.2781766  53.6405798  47.8332258  20.9159870
  64.4093171  56.4574710  19.1164002  63.6922480  56.2835572  18.6511240
  65.0599908  56.2227282  18.5839488  64.3995021  56.3970502  18.9693220
  62.4041795  37.3779871  23.4375299  61.7610113  37.2277518  24.0060437
  62.0641202  37.1322217  22.6724404  62.2586873  37.3191994  23.4078314
  66.9941142  45.3339298  22.8605307  66.3232332  45.8769001  22.7318373
  67.6880892  45.8034154  22.6187002  66.9970009  45.4837570  22.8060835
  61.0427876  57.4736010  28.0917066  60.8193530  56.7154840  28.4601092
  60.5537719  57.5034031  27.3697505  60.9371325  57.3658235  28.0393807
  67.1569269  41.7895182  25.7695681  67.5096879  41.3624905  26.4441479
  66.2984071  41.7046025  25.8996757  67.0818714  41.7139923  25.8890691
  55.8552954  44.4202702  23.8278527  55.1364944  44.8366834  24.0951391
  56.2265317  44.9856940  23.2770165  55.8044886  44.5651983  23.7861334
  59.6906333  57.6936468  25.5454150  59.2766731  57.0310599  25.1557992
  60.3753707  57.8414327  25.0249845  59.7304704  57.6177127  25.4110648
  63.0571627  56.8526554  26.2977767  62.6587910  56.9628824  25.5298587
  62.4422846  57.0608620  26.8804327  62.9070516  56.9000122  26.2709066
  61.6299529  43.4600701  19.1651907  61.0364368  43.7817698  18.6136474
  61.6674806  42.6141797  18.9573013  61.5473918  43.3825030  19.0534678
  68.5893330  36.9113594  26.6979993  68.0824194  36.2042733  26.6301171
  69.3860763  36.5806783  26.8281070  68.6320569  36.7586745  26.7078988
  64.5057345  43.4180206  22.5953657  64.2771038  43.4412907  21.7532015
  64.7655422  42.5937673  22.7148667  64.5103533  43.2996286  22.4878855
  57.5602108  41.9556752  23.8907853  58.0359474  42.3173832  23.2558034
  57.0590707  42.6113220  24.1707995  57.5567467  42.1050941  23.8384594
  70.7913469  51.4278520  19.6820858  71.1747075  52.1769877  19.9118955
  69.9957583  51.6744340  19.4232847  70.7307252  51.5748214  19.6778431
  59.6028761  44.0997952  17.2581237  59.9827726  44.1177581  16.4732351
  58.8621357  44.5451941  17.1372084  59.5497599  44.1679727  17.1244805
  67.2314052  42.4080143  22.8456815  67.2308278  42.2528800  23.7041092
  67.0270232  43.2543130  22.7898201  67.2013829  42.5100764  22.9644755
  64.9554904  47.0877645  26.4993022  65.4508569  46.3700640  26.4597042
  64.1454679  46.7848443  26.3847509  64.9098797  46.9375291  26.4766748
  60.4013515  50.9375458  18.6490027  59.5924838  50.6142132  18.6023336
  60.9088424  50.2308680  18.5818275  60.3563182  50.7856775  18.6320321
  67.0206722  49.8381333  29.1870151  67.4461794  49.3155754  28.6340576
  66.6563642  50.4362170  28.6658774  67.0293325  49.8491560  29.0279161
  56.6560802  58.1345550  27.9467496  56.9707361  58.9481939  27.9545278
  57.0654216  57.7495769  28.6149656  56.7628900  58.1974252  28.0471588
  63.6085322  53.5515597  25.5171308  64.0796500  54.2655859  25.6861294
  63.9445500  52.9514347  26.0531178  63.7280437  53.5687061  25.6203684
  65.6962306  55.1616910  37.6963380  65.8059272  54.3725471  38.0520128
  66.0253203  55.0722846  36.8937719  65.7614712  55.0322763  37.6305771
  64.2459268  53.3433531  32.2799001  63.6980214  52.7191415  32.0119066
  64.7072297  53.5327803  31.5643080  64.2326478  53.2792581  32.1349432
  63.5987172  35.2473394  29.0710496  62.7933136  35.1371123  29.3878335
  63.4693907  35.3485849  28.2140362  63.4607305  35.2457064  28.9918537
  67.0553133  41.4118885  29.6650193  66.4716121  41.9128092  29.2527761
  67.3757427  40.9048442  29.0314517  67.0166308  41.4110720  29.5108700
  59.5947932  40.3259480  19.9408868  60.4163626  40.4957793  19.6990563
  59.1317583  40.4806741  19.2175166  59.6479094  40.3741213  19.7980512
  63.8117595  54.3484604  28.8108342  64.6315968  54.2047570  29.0724637
  63.5311672  54.9730803  29.3524780  63.8914338  54.4194956  28.9296282
  73.4830930  61.0925106  26.5304149  72.6268825  61.2533605  26.5813266
  73.5298583  60.2217170  26.5509210  73.3630041  60.9875908  26.5410215
  67.8672069  70.6287824  22.2941381  67.1154969  70.2503363  22.0657426
  68.3158081  70.6606258  21.5460191  67.8221736  70.5773431  22.1498883
  76.7924646  67.3611632  36.1364605  77.4991414  66.8663663  36.2651540
  76.9812582  67.8020714  35.4067263  76.9252552  67.3529982  36.0473651
  76.3282751  63.1517150  29.1735801  76.8738711  63.8302237  29.2329770
  76.2699627  63.0104611  28.3137382  76.3998665  63.2309152  29.0547861
  69.4456826  70.6406216  24.5604153  69.5467189  69.8306570  24.8701281
  68.8498571  70.5463163  23.9303832  69.3729364  70.5071245  24.5130391
  62.6421870  66.6626503  24.1856487  62.4072054  65.8294155  24.0788755
  62.7807511  66.9431169  23.3717688  62.6277532  66.5810006  24.0498842
  64.9411957  58.8312234  27.0840794  64.3216989  58.2404881  26.9150809
  64.8395821  59.4223669  26.4505118  64.8349633  58.8316316  26.9645784
  72.0379853  60.5711775  21.4173258  72.7360018  60.7499903  21.9094721
  72.3532186  60.0482115  20.7943647  72.1875190  60.5205548  21.3975268
  64.6681090  62.3764515  29.3284363  64.5439787  62.9626961  29.9634182
  65.3199375  61.8824711  29.6296638  64.7454740  62.3903320  29.4670293
  72.2267788  66.9582220  21.4053049  72.6661424  66.3499321  21.8507822
  72.0772451  66.5789594  20.6338514  72.2689254  66.8120692  21.3572216
  69.6939431  65.5526232  28.6071874  70.3388434  65.0598675  28.2882823
  69.9341208  65.6951019  29.4337953  69.8250016  65.5003674  28.6821408
  72.2325523  68.3981138  28.2578767  72.5148766  67.6032544  28.0365523
  72.9611683  68.8761726  28.2783828  72.3815086  68.3515735  28.2281782
  70.2106717  55.9404172  25.4994532  69.8810047  56.3915316  24.8298231
  69.5351718  55.8620335  26.0467539  70.0617153  55.9955307  25.4817755
  77.4183124  51.9289695  23.7444143  77.1036565  52.6193174  24.1764565
  76.9010066  51.8734477  23.0429643  77.2947595  52.0224584  23.7041092
  64.2039195  71.5412174  25.4612693  63.7206773  72.2662663  25.4372276
  65.0162513  71.8388304  25.5722851  64.2529942  71.6914527  25.4739972
  70.2753349  70.3344354  28.0662507  69.7580290  69.9751770  27.4623815
  70.9727740  69.8106529  28.0768573  70.3018930  70.2042042  27.9792766
  71.4987400  70.0670329  33.0096343  70.9358235  69.6542938  33.5336004
  72.2608424  69.9923234  33.4289486  71.5281849  69.9947729  33.1489343
  68.4162671  54.0016460  20.9817480  69.1708639  54.3694778  20.7434530
  68.2390205  54.3756015  21.7496659  68.5017149  54.1114648  21.0602368
  67.0583392  72.0568350  25.6132973  67.7603971  71.5420339  25.6705729
  66.9780875  72.3842501  26.4179848  67.1507152  72.0282576  25.7405765
  68.1062298  62.2943937  34.7413388  68.2782802  62.1849831  35.5898669
  68.6431656  62.9398342  34.5044580  68.2107302  62.3735938  34.8318484
  66.7719735  56.4086779  17.6795593  66.5895309  56.6258660  16.8536586
  67.6345348  56.5225792  17.7354207  66.8724325  56.4576677  17.5650080
  66.3834167  68.2474702  25.1218581  67.2223067  68.4797634  25.1692342
  66.4145936  67.3779013  25.0525616  66.5115885  68.1531648  25.1183225
  67.0086870  68.6675577  29.4231886  67.5485095  68.5246708  30.0935259
  66.3256817  69.0672328  29.7915912  66.9879024  68.7055248  29.5766308
  72.4519454  53.4113190  20.7144617  73.1805615  53.2329145  20.2682773
  72.5414347  54.2531270  20.9251795  72.5726117  53.5097069  20.6798134
  76.4327755  64.3466578  24.6176911  77.1885270  64.7798092  24.6565819
  76.5390080  63.6971347  25.1911547  76.5597926  64.3144061  24.7074936
  62.4124015  64.8875868  29.5766308  62.1462431  64.0714984  29.7357298
  62.4262579  64.9329023  28.7061823  62.3748738  64.7732772  29.4719790
  66.3181762  59.6860952  16.1918066  65.6039939  59.3999132  16.6040498
  66.8025731  60.0257578  16.8324453  66.2841126  59.6942602  16.3473701
  67.1622622  58.4254246  32.2233315  66.4694418  57.9551226  32.4694047
  67.7782949  58.1992550  32.7975023  67.1507152  58.3221378  32.3442468
  62.8217429  65.6734647  26.8578052  62.6393002  65.6481533  26.0050344
  63.5567098  66.1433585  26.8966961  62.9031493  65.7396009  26.7375971
  65.8863181  62.3919650  33.3660161  66.6103153  62.3772681  33.8525055
  65.9879317  63.1015005  32.8682129  66.0081390  62.4944353  33.3638947
  73.2608130  65.8718735  38.2309108  72.4681111  66.1862246  38.4161727
  73.3757057  66.0870203  37.3929892  73.1603541  65.9502571  38.1347442
  75.9339449  62.5952726  22.5204124  76.0286303  63.3342020  22.9743749
  75.3098293  62.1670201  22.9538688  75.8548479  62.6414046  22.6512271
  74.1891923  65.7738938  33.1694404  74.7630785  65.1366183  33.3242968
  74.1106727  65.7743021  32.3004062  74.2625158  65.6804050  33.0640815
  62.7888339  62.5528148  27.0077119  63.3661842  62.4164599  27.6469364
  62.0902401  62.0963932  27.2622703  62.7709361  62.4650414  27.1399408
  69.5455642  64.2062203  25.2215602  69.2874886  63.3733938  25.1946901
  69.6004124  64.4319816  24.3808102  69.5155419  64.1159975  25.0935739
  74.6256692  56.3090654  25.3219694  73.9213018  55.8199840  25.4803614
  74.6741666  56.3213129  24.4508139  74.5286743  56.2380302  25.2159034
  68.5190354  61.7599966  25.7080497  67.9439945  61.9192134  26.3444458
  68.1426030  61.1235375  25.2448947  68.3793166  61.6897779  25.7335055
  72.1863642  60.2323315  30.5672875  71.7978075  59.8077533  29.9125066
  71.5218341  60.4805465  31.0749902  72.0310570  60.2062036  30.5460743
  58.2647173  61.4040041  23.7224937  58.3507424  61.0271909  24.5038467
  58.8922970  61.0300486  23.2444895  58.3703724  61.2925523  23.7670415
  76.0090004  53.9297944  28.0796859  76.3900516  53.2476115  28.4664733
  75.2053288  53.6407546  27.8972524  75.9466466  53.7864992  28.1100915
  69.1610489  67.9343437  23.8921994  69.7984436  67.6955185  24.4373787
  69.5865560  68.1380596  23.1575155  69.3186655  67.9294447  23.8639151
  63.8523131  70.1731774  27.7756298  63.8927276  70.4446625  26.9476077
  64.4117655  70.6973682  28.1914086  63.9406477  70.2907529  27.7148186
  69.8013304  63.1545727  18.2296883  70.1858457  62.9353434  18.9813429
  69.5524924  63.9808672  18.3597960  69.8215376  63.2443873  18.3597960
  69.9681844  56.4352142  37.9459468  69.6535285  57.2051705  37.6829030
  69.6471777  55.8722398  37.3611695  69.8740763  56.4662411  37.8200818
  71.5431961  68.4115860  25.5715780  71.6170969  68.2491032  26.4257630
  72.3601467  68.6006049  25.3276262  71.6748319  68.4152602  25.6613806
  65.3037717  68.7573723  22.6010224  64.4775835  69.0035460  22.4744503
  65.3649709  68.6785804  23.4672282  65.1911884  68.7818672  22.7099168
  67.5213741  54.8242664  23.5605664  66.6536167  54.8965263  23.6263273
  67.8088946  55.6264743  23.7493639  67.4353489  54.9536811  23.5980431
  76.6446630  54.9720523  31.8916986  77.3900222  54.7830333  31.4780411
  76.2283935  55.4978761  31.3330842  76.6931604  55.0222668  31.7481559
  70.6731292  66.1768349  31.3882384  70.1742985  66.8884117  31.4667273
  71.4831516  66.4969015  31.3500547  70.7187398  66.3295197  31.3938953
  68.0242462  73.3517985  23.3689403  67.8042758  73.0615340  24.1616070
  67.8036984  72.6932940  22.8407316  67.9590056  73.2117694  23.4078312
  66.9359409  65.4391302  25.6345105  66.6472658  64.8128773  26.1690832
  67.8042757  65.3811589  25.7009786  67.0219661  65.3378846  25.7236060
  77.7237307  60.5826085  25.9527087  77.3802073  59.8616420  26.3034337
  77.8230350  60.3739936  25.1105445  77.6879350  60.4450288  25.8798767
  67.1391683  67.0786553  21.5587470  67.8937651  67.4599592  21.7722933
  66.5462295  67.5297697  22.0134167  67.1628396  67.2015380  21.6570349
  69.5998350  59.0349393  36.6844683  68.7898125  59.3407173  36.5734525
  70.0773036  59.7554976  36.7997267  69.5501828  59.1863994  36.6851754
  68.4589909  68.2495114  26.9327586  67.9370663  68.3895406  27.6179450
  68.8463930  67.4905779  27.1229703  68.4393610  68.1580638  27.0628662
  65.4481093  58.3000923  21.0022540  65.1605889  57.9302193  20.2654488
  66.1351562  58.7695778  20.7406245  65.5069991  58.3147892  20.8537616
  69.8856235  65.2799133  22.3309077  69.6899018  65.8873868  21.7369380
  70.1090580  64.5867077  21.8500751  69.8890876  65.2676659  22.1725157
  68.2834765  62.1653871  22.4489945  69.0057417  62.3295029  21.9893751
  67.8042758  62.8863536  22.3429285  68.3198496  62.2952101  22.3655559
  76.2428272  58.5017670  27.8286630  75.4039373  58.5278949  27.5924893
  76.3132640  59.1488405  28.4091977  76.1296666  58.6013796  27.8795747
  65.9342382  64.5711944  31.5544085  66.4463479  64.8496197  30.9052845
  65.6478724  65.3101238  31.9206898  65.9677245  64.7214297  31.5133963
  74.6897551  55.4003047  22.5614246  75.3923904  55.2010795  22.0834204
  74.4241739  54.6278989  22.8683089  74.7544183  55.2566013  22.5359687
  63.0209288  59.0782135  21.8507821  63.1225424  59.8808297  22.1788797
  63.8165175  58.8769471  21.5530902  63.1537194  59.1668034  21.8543177
  69.4526107  56.6638332  31.6145126  69.2609304  56.6793467  32.4644550
  70.3024703  56.8602006  31.5911781  69.5501829  56.6952683  31.7368421
  63.8373020  59.1929314  29.5928943  63.6958512  58.3413254  29.7173451
  64.1213583  59.2357974  28.7691149  63.8580866  59.0729064  29.4896567
  73.9911612  61.0296404  23.7373431  73.7446327  60.9492155  24.5710220
  74.3196735  60.2449872  23.5435959  74.0032856  60.9022669  23.8320954
  76.2237746  64.0376139  33.7782594  76.2185785  63.1655955  33.7825021
  76.9298740  64.2364308  33.3052050  76.3282750  63.9380013  33.7089629
  69.9508640  63.7653122  33.1496414  70.0952015  64.3454331  32.5139524
  70.2984288  64.1429419  33.8546269  70.0236101  63.9073826  33.1595409
  72.1228557  62.9643291  30.9321546  71.3751871  63.1574305  30.5269824
  72.2770082  62.1388510  30.6945667  72.0350985  62.8708402  30.8366952
  69.0236395  71.9555894  30.0157441  69.1725958  71.3958810  29.3630846
  69.8036397  72.0347896  30.3989960  69.1610488  71.8841460  29.9754390
  72.3630334  56.8593842  31.8216950  72.8202948  57.5917816  31.9489742
  72.4386663  56.4360307  32.5804205  72.4421304  56.9051080  31.9518026
  64.6063325  57.1059661  32.9106393  64.0705515  56.4940019  33.2267161
  64.6681090  57.6807797  33.5640060  64.5358958  57.1006589  33.0541820
  76.8357660  50.0383717  25.6910793  76.9541228  50.4960180  24.9578095
  76.6619836  49.2328978  25.4047010  76.8276831  49.9877489  25.5411726
  70.2412712  58.8495945  28.6658774  69.4508787  58.6687406  28.9876109
  70.6373335  58.0722898  28.6489068  70.1829588  58.7083406  28.7111322
  75.6256398  66.4838376  26.3918220  74.9501400  66.2523608  26.8931607
  75.6348774  65.8759559  25.7660325  75.5274903  66.3597301  26.3734372
  72.7550542  61.3256205  33.1482273  72.6909683  62.1866161  33.0202409
  72.8947730  61.0088198  32.3477824  72.7666012  61.4056371  33.0110485
  71.4369636  64.0188344  27.2898475  71.0131885  64.2192843  26.5537494
  71.2614491  63.1717192  27.4022775  71.3480517  63.9237125  27.1972166
  66.7252081  64.5140395  22.7226448  66.8816700  64.4487198  23.5782440
  67.0652674  65.2888948  22.5105128  66.7985316  64.6189593  22.8181042
  73.2631226  63.8898279  21.5919811  73.8046771  63.3868660  22.0558432
  73.5777785  63.8363474  20.7809296  73.3895623  63.8077700  21.5403623
  77.1348333  68.1000926  38.7046723  77.9483198  67.8286075  38.8651856
  76.9743299  67.8008466  37.9006919  77.2318282  68.0155852  38.6092129
  74.4120495  58.7834583  31.6442112  74.6262465  58.1445498  31.0905466
  73.7954394  59.2280407  31.2149973  74.3525824  58.7544727  31.4992543
  63.2986343  61.6975346  23.0387215  63.6785307  62.1159891  22.3747482
  62.7241707  62.2788802  23.3456058  63.2697667  61.8453205  22.9863956
  76.5759583  60.3923649  32.5825419  75.7636265  60.0849539  32.6638591
  77.0349518  59.9122649  33.1468131  76.5239968  60.2760141  32.6780013
  73.8035224  51.8934519  26.6329454  72.9328782  51.8673240  26.5862764
  74.0575565  51.7211711  25.8155300  73.7128784  51.8644663  26.5049591
  73.6713091  61.7983720  37.3654121  74.1412722  62.4225836  37.7521995
  73.7174971  61.1300696  37.9247336  73.7480966  61.7918400  37.5054192
  70.8284364  53.9040748  28.0902925  70.3122853  53.2120939  28.2154504
  70.2678293  54.5711525  28.0365524  70.6690877  53.9004005  28.1008991
  72.8976598  54.4433708  29.9195777  72.5108351  54.4682739  30.7009307
  72.4109535  53.8775386  29.4670294  72.7689107  54.3629458  29.9683681
  72.5633739  51.3300693  32.2106037  73.1926857  51.8660993  31.9327108
  72.7319602  51.2378052  33.0619603  72.6811534  51.3962055  32.2954565
  72.3647654  56.1171888  34.4832449  73.1921084  55.8457037  34.5391063
  72.3855500  56.9132729  34.8396267  72.4900504  56.1951642  34.5447632
  64.4192711  60.8855287  25.4987460  64.0249409  60.9598299  24.7237570
  63.8632828  61.2713234  26.0495822  64.2795523  60.9537062  25.4655120
  76.0557658  53.8636582  25.1791339  76.2607251  53.7958889  26.0248336
  75.7284082  54.6695403  25.1112517  76.0372906  53.9722522  25.2950994
  70.7533809  61.1917150  26.9200307  70.4496947  60.6373138  27.5210715
  70.0513230  61.3709360  26.4328341  70.6050019  61.1361932  26.9370013
  69.8099906  58.5017670  21.4845009  70.0859640  57.7836582  21.0722576
  70.4098575  59.1002589  21.2766115  69.9393171  58.4838040  21.3925770
  68.8152160  68.4066870  31.6272405  68.7072515  68.4168933  32.4934463
  69.0247942  69.2321651  31.4377359  68.8302271  68.5307945  31.7276496
  73.3110427  56.1731187  19.7591604  73.7654173  56.3441747  20.4839448
  73.7850472  55.5599298  19.3589380  73.4478747  56.1082072  19.8065365
  66.8325952  65.6579513  29.0894342  66.2413885  66.2989011  29.0597357
  67.5946976  66.0817130  29.0625642  66.8574213  65.8155351  29.0809490
  67.2286575  56.8181511  29.7562360  67.6888056  56.8920440  30.4937484
  67.2742682  57.6162765  29.4062181  67.3037130  56.9475658  29.8135117
  68.8769925  57.4848205  34.3234387  68.4855490  56.8381553  34.7590165
  69.0455787  58.0759641  34.9428643  68.8440835  57.4762473  34.4797093
  70.6523447  62.8773721  20.8636611  71.3965492  63.2647998  21.1019561
  70.7984143  62.0331147  21.0277099  70.7834032  62.8104194  20.9230581
  72.5703022  54.6723980  25.8968473  71.7239067  54.8446788  25.7709822
  72.5674155  53.8673324  26.2334301  72.4450172  54.5785009  25.9279600
  73.6401322  58.4499195  26.7630530  73.1661277  57.9240957  27.2735841
  74.0119458  57.9028667  26.1945392  73.6251211  58.2915191  26.7545678
  64.0174353  60.4470701  32.1314076  64.8799966  60.3466411  32.0451406
  63.6866136  59.8665411  31.5699648  64.0959549  60.3462328  32.0359482
  75.5684822  59.3435749  19.8256284  75.0407841  59.4264493  19.1361993
  76.0280530  60.0853621  19.8220929  75.5586673  59.4656412  19.7230979
  67.3776139  59.2713150  28.7924494  66.7529209  59.2831542  28.1850447
  67.0421733  59.7473325  29.4415735  67.2361630  59.3431667  28.7981063
  67.5617887  57.6138269  14.8497179  67.2130692  58.2657994  15.3128729
  67.0814333  57.5995382  14.1221051  67.4388131  57.7081322  14.8108271
  64.0901814  67.3313610  30.2328259  63.5601739  66.6406049  30.2823233
  64.3626907  67.3223796  29.4040967  64.0526536  67.2280742  30.1175675
  74.2908060  64.7736855  30.2066630  73.6765053  64.2294905  30.5015266
  74.8075345  64.2601091  29.7272446  74.2763722  64.6173264  30.1790859
  73.5304357  65.8441125  27.9410929  73.1031965  65.2190844  27.5076364
  73.5229301  65.5616047  28.7669936  73.4663498  65.7093906  27.9990756
  66.6466884  60.8806298  31.0099363  66.8060371  60.1249622  31.4151085
  66.4659778  61.4297238  31.6640101  66.6432243  60.8500112  31.1662069
  74.5887187  53.0467534  31.5650152  74.0927748  53.2431208  30.8741719
  75.3456249  53.4460202  31.3938954  74.6274012  53.1345267  31.4370289
  71.8590067  56.7209880  28.1553463  71.8832554  56.1869992  27.4666243
  72.1101540  56.2127188  28.8179054  71.8999985  56.5670784  28.1518108
  59.3697656  64.0041375  27.5896607  59.2641105  63.9588219  26.7248691
  58.6197876  64.3495155  27.8710892  59.2433259  64.0482283  27.5033937
  68.1391389  55.4480698  27.5359207  68.1789760  55.9489904  28.2493915
  67.3141053  55.5391091  27.2665130  68.0230915  55.5362514  27.6009745
  70.3221002  65.0141438  35.6379502  69.4716632  65.1513152  35.7737147
  70.4849129  64.2805216  36.0827204  70.2204865  64.9255539  35.7235101
  69.5605752  61.9641208  29.8333106  68.7297682  62.1315026  29.6268354
  69.5057269  61.5877158  30.6181992  69.4295167  61.9330939  29.9181634
  67.3689535  55.4550101  35.4689517  67.9942239  54.9112233  35.7418949
  66.9140015  54.9745018  34.8997307  67.3937796  55.3039582  35.4251111
  67.9341796  60.2396799  20.3623224  68.0744757  60.7369263  21.0651865
  68.4324329  59.5383094  20.5037438  68.0282877  60.2098778  20.4874803
  67.9642018  61.1063910  17.6915801  68.5987098  61.7024335  17.6265263
  68.0467629  60.8067368  18.5061671  68.0698569  61.1504818  17.8018887
  69.5421001  57.0377886  17.6661243  69.8636842  56.5580968  17.0120505
  69.8047945  57.8477532  17.4752054  69.6287027  57.0867784  17.5416735
  72.7717974  68.0596760  31.1860059  72.2643065  68.6132607  31.6300689
  72.4744620  68.1205050  30.3678833  72.6522859  68.1503071  31.1308516
  74.9380156  56.4250080  30.0284722  75.3635228  55.9722606  29.4168248
  74.3237149  55.8710150  30.3049509  74.9108802  56.2764056  29.9789747
  64.4695006  63.3031751  20.9605347  64.9787236  63.8996259  21.3416652
  64.9429279  63.0357725  20.2781766  64.6138382  63.3517566  20.9159870
  73.3774379  52.8965179  23.4375299  72.7342697  52.7462826  24.0060437
  73.0373786  52.6507525  22.6724404  73.2319456  52.8377302  23.4078314
  78.1301853  57.3080490  25.7695681  78.4829463  56.8810213  26.4441479
  77.2716654  57.2231333  25.8996757  78.0551298  57.2325230  25.8890691
  66.8285538  59.9388010  23.8278527  66.1097527  60.3552142  24.0951391
  67.1997900  60.5042248  23.2770165  66.7777470  60.0837291  23.7861334
  76.1285119  60.5715858  29.7180523  76.1083046  60.3899154  30.5715302
  76.1764320  61.4427877  29.6940107  76.1319760  60.6732397  29.8403818
  74.0731449  67.1603050  35.6429000  74.0327304  66.5152727  35.0574155
  74.8854767  67.1039668  35.9554412  74.1874602  67.0562017  35.6025949
  72.6032112  58.9786009  19.1651907  72.0096952  59.3003006  18.6136474
  72.6407390  58.1327105  18.9573013  72.5206501  58.9010338  19.0534678
  75.4789929  58.9365514  22.5953657  75.2503622  58.9598215  21.7532015
  75.7388005  58.1122981  22.7148667  75.4836117  58.8181594  22.4878855
  69.7609157  60.7899987  32.1978757  69.2488060  60.1821170  32.5563789
  69.5888654  61.5056580  32.6652733  69.6598794  60.8063286  32.3194981
  64.6074872  59.2337562  34.8481119  64.4377462  59.8938937  34.3029326
  64.1640822  59.4444124  35.5693608  64.5174206  59.3623544  34.8742748
  68.5334691  57.4742060  23.8907853  69.0092058  57.8359140  23.2558034
  68.0323291  58.1298528  24.1707995  68.5300050  57.6236249  23.8384594
  73.6378228  58.7124232  34.6381013  74.1949658  58.4838041  34.0059478
  73.3139293  59.4729897  34.3616225  73.6724638  58.7908068  34.5037510
  61.5076937  62.1384428  30.1069609  60.9603656  61.4685073  30.2250477
  62.2969315  61.7714276  30.1713076  61.5429120  61.9849414  30.1338309
  71.3561345  61.7991885  35.6033020  72.1072672  62.1143562  35.9172574
  71.5483921  61.5971056  34.7766942  71.4952759  61.8159267  35.5276416
  70.5761345  59.6183260  17.2581237  70.9560309  59.6362889  16.4732351
  69.8353941  60.0637249  17.1372084  70.5230182  59.6865035  17.1244805
  78.2046635  57.9265451  22.8456815  78.2040862  57.7714108  23.7041092
  78.0002815  58.7728438  22.7898201  78.1746413  58.0286072  22.9644755
  60.2663906  61.3505236  27.2615632  60.0885667  60.8981845  27.9870547
  59.9782928  62.1531397  27.4454109  60.1976859  61.4027793  27.3959135
  75.9287487  62.6062953  26.4993022  76.4241152  61.8885948  26.4597042
  75.1187263  62.3033751  26.3847509  75.8831380  62.4560599  26.4766748
  62.0036376  63.8832959  24.3737391  61.1381895  63.8718650  24.2620162
  62.1035192  63.6963182  25.2208530  61.8910543  63.8539021  24.4826335
  77.9939306  65.3566641  29.1870151  78.4194378  64.8341062  28.6340576
  77.6296226  65.9547478  28.6658774  78.0025909  65.3676868  29.0279161
  67.6293386  73.6530858  27.9467496  67.9439945  74.4667246  27.9545278
  68.0386799  73.2681077  28.6149656  67.7361484  73.7159560  28.0471588
  74.5817905  69.0700905  25.5171308  75.0529084  69.7841167  25.6861294
  74.9178084  68.4699655  26.0531178  74.7013021  69.0872369  25.6203684
  71.4987400  53.8428375  32.4729403  71.6315306  53.0459369  32.8010379
  71.8832553  54.3694778  33.0527679  71.5743729  53.8028292  32.6072906
  75.2191852  68.8618839  32.2799001  74.6712798  68.2376723  32.0119066
  75.6804881  69.0513111  31.5643080  75.2059061  68.7977889  32.1349432
  74.5719756  50.7658701  29.0710496  73.7665719  50.6556431  29.3878335
  74.4426491  50.8671157  28.2140362  74.4339888  50.7642372  28.9918537
  78.0285716  56.9304193  29.6650193  77.4448705  57.4313400  29.2527761
  78.3490010  56.4233750  29.0314517  77.9898891  56.9296028  29.5108700
  70.5680515  55.8444788  19.9408868  71.3896210  56.0143101  19.6990563
  70.1050166  55.9992049  19.2175166  70.6211678  55.8926521  19.7980512
  69.1575847  53.8387550  30.7207297  69.7020260  53.4978677  31.3111639
  69.2112783  54.6973012  30.8628581  69.2464967  53.9142810  30.8289170
  64.9706406  67.6003966  27.5946105  65.5751263  67.5599801  26.9659926
  64.7633718  68.4475118  27.6250161  65.0295303  67.7191969  27.5062221
  60.2057688  66.5838584  27.4645028  60.1081966  65.7734855  27.7735085
  60.9886558  66.5630377  27.0791296  60.3073825  66.4605674  27.4531891
  36.0610638   5.9406013  12.8959056  36.7048094   6.3819177  13.2855214
  36.3866894   5.1359439  12.8089315  36.2042467   5.8871208  12.9404533
  40.7070014   1.1661376  20.9618727  40.7953360   0.9787516  21.8096938
  41.1359726   0.5198806  20.5623574  40.7832116   1.0424384  21.0290479
  38.2740474   0.4492536  19.9436389  37.7111308   0.0365146  20.4676051
  39.0361497   0.3745442  20.3629533  38.3034922   0.3769936  20.0829390
  40.8190073   0.5970395  23.6262511  41.6030490   0.7101243  23.9918253
  40.6186668  -0.2288468  23.8221197  40.9056099   0.4917114  23.7096897
  40.9760466   2.5080497  17.2728966  40.1775712   2.2679997  17.5302835
  41.4246478   2.5594890  18.0196014  40.9235078   2.4802888  17.4213891
  35.7989468   2.3378102  16.9497488  35.9479032   1.7781018  16.2970892
  36.5789470   2.4170103  17.3330007  35.9363561   2.2663667  16.9094437
  38.3242768   2.5092745  18.2281979  38.2486440   1.8401555  18.7832767
  38.2532628   3.2110533  18.7422645  38.3023375   2.5137652  18.3858827
  37.7134403   5.9161064  16.6859980  38.2030333   5.2171854  16.5035644
  37.1418635   5.6184934  17.2736037  37.7018933   5.7687288  16.7461020
  35.5905233  -1.2110922  18.5612452  35.4825588  -1.2008860  19.4274510
  35.8001015  -0.3856142  18.3717405  35.6055344  -1.0869847  18.6616543
  43.3668541   1.4911032  13.4566414  43.1688230   1.9801846  12.7622625
  42.7456253   1.6952273  14.0350547  43.2456106   1.5927570  13.4389637
  39.5471047  -1.5581033  18.1200106  39.0396138  -1.0045186  18.5640736
  39.2497693  -1.4972743  17.3018880  39.4275932  -1.4674721  18.0648562
  38.7913532   3.3743526  15.0257113  38.5679187   2.6162355  15.3941139
  38.3023376   3.4041547  14.3037552  38.6856981   3.2665750  14.9733854
  40.8057284   2.7534069  13.2317814  40.4073567   2.8636339  12.4638634
  40.1908503   2.9616135  13.8144374  40.6556173   2.8007637  13.2049113
  34.4046459   4.0353065  14.8807543  34.7193018   4.8489454  14.8885325
  34.8139872   3.6503284  15.5489702  34.5114557   4.0981768  14.9811635
  43.4447963   1.0624426  24.6303427  43.5544929   0.2732986  24.9860174
  43.7738860   0.9730362  23.8277765  43.5100369   0.9330278  24.5645818
  41.5603251   0.2492119  15.7448389  42.3801625   0.1055085  16.0064684
  41.2797329   0.8738318  16.2864827  41.6399995   0.3202471  15.8636328
  51.2316587   6.9932622  13.4644196  50.3754482   7.1541120  13.5153313
  51.2784240   6.1224686  13.4849257  51.1115698   6.8883424  13.4750262
  45.6157726  16.5295340   9.2281427  44.8640626  16.1510878   8.9997472
  46.0643738  16.5613773   8.4800238  45.5707393  16.4780947   9.0838930
  54.5410303  13.2619147  23.0704652  55.2477070  12.7671178  23.1991586
  54.7298239  13.7028229  22.3407310  54.6738209  13.2537498  22.9813697
  51.0682686  16.9520709   4.6566974  50.7334055  17.6297631   4.2211197
  51.5809557  16.5626020   4.0683846  51.0948267  16.9945287   4.5053766
  50.6086977  18.9034978  10.5978086  50.9926357  19.4721876  10.0582861
  50.5446119  18.1784488  10.1183902  50.6560405  18.8810441  10.4471949
  54.0768408   9.0524666  16.1075847  54.6224368   9.7309752  16.1669817
  54.0185284   8.9112127  15.2477429  54.1484322   9.1316667  15.9887908
  47.1942482  16.5413732  11.4944200  47.2952845  15.7314086  11.8041328
  46.5984228  16.4470678  10.8643878  47.1215021  16.4078760  11.4470438
  55.8533476  10.4809273   6.9809575  55.7373002  11.2316959   7.4101713
  56.6489363  10.2233226   7.2305662  55.9538066  10.5544120   7.0813667
  47.0343222  21.4591321  12.8959056  47.6780677  21.9004485  13.2855214
  47.3599478  20.6544747  12.8089315  47.1775051  21.4056516  12.9404533
  40.3907527  12.5634018  11.1196534  40.1557711  11.7301671  11.0128802
  40.5293167  12.8438684  10.3057734  40.3763189  12.4817522  10.9838888
  42.6897614   4.7319749  14.0180841  42.0702646   4.1412396  13.8490856
  42.5881478   5.3231184  13.3845164  42.5835290   4.7323831  13.8985831
  47.7363802  14.4703296   8.2678918  48.0579643  15.0108503   7.6640226
  48.3835898  13.9000067   8.4001207  47.8789857  14.4662471   8.1985953
  49.7865510   6.4719291   8.3513304  50.4845674   6.6507418   8.8434768
  50.1017842   5.9489630   7.7283694  49.9360847   6.4213063   8.3315314
  42.4166747   8.2772031  16.2624410  42.2925444   8.8634476  16.8974229
  43.0685032   7.7832226  16.5636685  42.4940397   8.2910835  16.4010339
  49.9753445  12.8589736   8.3393096  50.4147081  12.2506836   8.7847869
  49.8258108  12.4797109   7.5678561  50.0174911  12.7128207   8.2912263
  47.4425088  11.4533748  15.5411921  48.0874091  10.9606191  15.2222870
  47.6826865  11.5958534  16.3678000  47.5735673  11.4011190  15.6161454
  49.9811180  14.2988653  15.1918814  50.2634422  13.5040059  14.9705570
  50.7097340  14.7769241  15.2123875  50.1300743  14.2523250  15.1621829
  47.9592373   1.8411687  12.4334579  47.6295703   2.2922831  11.7638278
  47.2837375   1.7627851  12.9807585  47.8102810   1.8962823  12.4157802
  53.5762782  11.2116917   5.2923865  53.4914077  12.0677884   5.4373434
  54.0647165  10.9361241   5.9606024  53.6351679  11.2974238   5.4125947
  54.5081215   7.8301711   6.7921600  53.9792686   8.0461345   7.4518906
  55.0306235   8.5237850   6.7122569  54.5069668   7.9644848   6.8777199
  59.9629268  13.4048016  12.1654645  59.1326971  13.6158659  12.3288061
  59.9138520  12.5785070  11.8896928  59.8336003  13.3137622  12.1492010
  41.9524851  17.4419689  12.3952740  41.4692430  18.1670179  12.3712323
  42.7648170  17.7395819  12.5062897  42.0015599  17.5922043  12.4080019
  48.0239005  16.2351870  15.0002554  47.5065947  15.8759285  14.3963862
  48.7213397  15.7114044  15.0108620  48.0504587  16.1049558  14.9132813
  51.6802597  16.6846684  20.9618727  51.7685943  16.4972824  21.8096938
  52.1092310  16.0384113  20.5623574  51.7564700  16.5609692  21.0290479
  49.2473057  15.9677844  19.9436389  48.6843892  15.5550454  20.4676051
  50.0094081  15.8930750  20.3629533  49.2767506  15.8955244  20.0829390
  44.8069049  17.9575865  12.5473019  45.5089628  17.4427854  12.6045776
  44.7266532  18.2850016  13.3519895  44.8992809  17.9290091  12.6745812
  59.4583226   6.0518416  15.9605066  58.6211647   6.1220603  16.1952660
  59.4271457   6.0542911  15.0879368  59.3301509   6.0628643  15.8664614
  45.8547955   8.1951452  21.6753435  46.0268459   8.0857347  22.5238716
  46.3917313   8.8405857  21.4384627  45.9592959   8.2743454  21.7658531
  44.1319824  14.1482217  12.0558628  44.9708723  14.3805150  12.1032389
  44.1631593  13.2786528  11.9865663  44.2601542  14.0539163  12.0523272
  44.7572527  14.5683092  16.3571933  45.2970752  14.4254223  17.0275305
  44.0742473  14.9679843  16.7255959  44.7364681  14.6062763  16.5106355
  54.1813412  10.2474093  11.5516957  54.9370927  10.6805607  11.5905866
  54.2875736   9.5978863  12.1251593  54.3083583  10.2151577  11.6414983
  57.2193583  14.0747370  12.3019360  56.7828815  14.0784113  13.0578332
  56.8856499  14.7552869  11.8698938  57.1056203  14.1759826  12.3500193
  51.7922657  16.1155703  23.6262511  52.5763073  16.2286551  23.9918253
  51.5919251  15.2896840  23.8221197  51.8788682  16.0102422  23.7096897
  40.1609672  10.7883383  16.5106355  39.8948087   9.9722500  16.6697345
  40.1748236  10.8336539  15.6401870  40.1234394  10.6740288  16.4059837
  44.9108279   4.3261761  19.1573362  44.2180075   3.8558741  19.4034094
  45.5268606   4.1000066  19.7315069  44.8992808   4.2228893  19.2782515
  51.9493050  18.0265805  17.2728966  51.1508296  17.7865305  17.5302835
  52.3979062  18.0780198  18.0196014  51.8967661  17.9988196  17.4213891
  60.3537929  10.7928290  11.1938998  61.0154363  10.2318958  11.0934906
  59.7129341  10.2980321  11.5191689  60.3566797  10.6364699  11.2271338
  51.2414737  14.0898421   3.5019921  51.6565886  13.7583445   2.8104417
  50.4106667  13.8567324   3.3740058  51.1802746  14.0069677   3.3810768
  40.5703086  11.5742162  13.7918099  40.3878659  11.5489048  12.9390391
  41.3052755  12.0441100  13.8307008  40.6517150  11.6403525  13.6716017
  56.6402760  11.8093672  10.9350986  56.8758349  11.9538871  10.1077837
  56.7892324  12.5736080  11.3282500  56.6968563  11.9432727  10.8714590
  43.6348837   8.2927165  20.3000208  44.3588810   8.2780196  20.7865102
  43.7364974   9.0022521  19.8022176  43.7567047   8.3951868  20.2978994
  58.4693217  10.6495338   8.7720590  58.8001434  11.1822978   8.1660685
  59.0426305  10.7034226   9.4282541  58.6026896  10.7364907   8.7798372
  51.0093787  11.7726250  25.1649155  50.2166768  12.0869762  25.3501774
  51.1242714  11.9877718  24.3269939  50.9089197  11.8510087  25.0687489
  53.6825106   8.4960241   9.4544170  53.7771960   9.2349535   9.9083796
  53.0583949   8.0677716   9.8878735  53.6034136   8.5421562   9.5852318
  51.9377580  11.6746454  20.1034451  52.5116441  11.0373698  20.2583015
  51.8592383  11.6750536  19.2344109  52.0110815  11.5811565  19.9980862
  40.5373996   8.4535663  13.9417165  41.1147499   8.3172114  14.5809411
  39.8388058   7.9971447  14.1962750  40.5195018   8.3657929  14.0739455
  47.2941298  10.1069719  12.1555649  47.0360543   9.2741454  12.1286948
  47.3489781  10.3327332  11.3148149  47.2641076  10.0167490  12.0275785
  46.2676010   7.6607481  12.6420543  45.6925602   7.8199650  13.2784504
  45.8911687   7.0242890  12.1788994  46.1278823   7.5905294  12.6675102
  49.9349299   6.1330831  17.5012922  49.5463732   5.7085048  16.8465113
  49.2703997   6.3812980  18.0089948  49.7796227   6.1069552  17.4800790
  51.0388237  10.3629435   5.6989729  51.8528876  10.6544328   5.5872500
  50.9747379   9.7089297   5.1248022  51.1490976  10.3094630   5.5978566
  57.2597728  13.0455431  20.1119304  57.0236365  12.2143496  19.9931365
  57.9040956  12.9941038  20.6974149  57.3192398  12.9153119  20.1805198
  46.9096146  13.8350953  10.8262041  47.5470093  13.5962700  11.3713834
  47.3351217  14.0388111  10.0915201  47.0672312  13.8301963  10.7979198
  41.6008788  16.0739289  14.7096345  41.6412933  16.3454140  13.8816124
  42.1603312  16.5981197  15.1254133  41.6892134  16.1915044  14.6488233
  47.7167501   2.3359658  24.8799515  47.4020942   3.1059220  24.6169077
  47.3957434   1.7729914  24.2951741  47.6226420   2.3669926  24.7540864
  58.2834148  12.8299880  16.1747599  57.9779965  13.5627937  16.5360915
  57.5640364  12.4237809  15.8940385  58.1321490  12.8781613  16.1860736
  49.2917618  14.3123375  12.5055827  49.3656626  14.1498547  13.3597677
  50.1087124  14.5013565  12.2616309  49.4233976  14.3160118  12.5953853
  63.9835940   9.4692881  15.5015943  63.9160441   9.4888840  14.6318530
  63.9691603  10.3123208  15.7271614  63.9714697   9.5966615  15.4068420
  43.0523374  14.6581238   9.5350271  42.2261492  14.9042975   9.4084549
  43.1135365  14.5793319  10.4012329  42.9397541  14.6826187   9.6439215
  47.8322203  17.2758118   7.2369301  48.1220502  16.8847100   6.5128527
  48.5625684  17.4574823   7.6774576  47.9829087  17.2451932   7.1952108
  61.7694558   8.2437267  13.7762538  62.3202479   7.6105336  14.0159630
  61.7538673   8.7752660  14.4678042  61.8479754   8.2286215  13.9141396
  48.4216948  12.0775864  18.3222431  47.9228642  12.7891632  18.4007319
  49.2317173  12.3976531  18.2840593  48.4673055  12.2302713  18.3279000
  45.7728119  19.2525501  10.3029450  45.5528414  18.9622855  11.0956117
  45.5522641  18.5940456   9.7747363  45.7075713  19.1125209  10.3418359
  44.6845066  11.3398817  12.5685152  44.3958315  10.7136288  13.1030879
  45.5528414  11.2819105  12.6349832  44.7705318  11.2386361  12.6576107
  55.4722964   6.4833601  12.8867134  55.1287730   5.7623936  13.2374383
  55.5716006   6.2747452  12.0445492  55.4365007   6.3457804  12.8138814
  47.9396075  20.6254891   9.0860143  48.5920133  20.0931333   9.3151169
  47.2421683  20.2723543   9.4728017  47.9326793  20.4944414   9.1772310
  44.8877339  12.9794068   8.4927517  45.6423307  13.3607107   8.7062980
  44.2947952  13.4305212   8.9474214  44.9114053  13.1022896   8.5910395
  55.9335993  12.9459305   8.4291122  56.4994026  13.6052515   8.3449665
  55.2863896  13.2909003   8.9007524  55.9214749  13.0941246   8.4863878
  47.3484006   4.9356909  23.6184729  46.5383782   5.2414688  23.5074572
  47.8258693   5.6562491  23.7337313  47.2987485   5.0871510  23.6191800
  46.2075566  14.1502630  13.8667632  45.6856320  14.2902921  14.5519497
  46.5949586  13.3913294  14.0569750  46.1879267  14.0588153  13.9968709
  52.4042571  15.8898089   7.8528201  52.1629247  15.1565949   7.4455266
  52.5843904  16.4384946   7.1994534  52.3950195  15.8620480   7.6958424
  47.6341892  11.1806649   9.2649123  47.4384674  11.7881383   8.6709426
  47.8576237  10.4874593   8.7840797  47.6376533  11.1684174   9.1065204
  46.0320422   8.0661387   9.3829992  46.7543074   8.2302545   8.9233798
  45.5528414   8.7871051   9.2769332  46.0684152   8.1959616   9.2995606
  53.9913929   4.4025185  14.7626677  53.1525030   4.4286464  14.5264940
  54.0618297   5.0495921  15.3432023  53.8782323   4.5021311  14.8135794
  43.6828038  10.4719459  18.4884132  44.1949135  10.7503712  17.8392891
  43.3964381  11.2108753  18.8546945  43.7162902  10.6221813  18.4474010
  57.8671453   9.6093172  12.0487918  57.7805428   9.7648598  12.9022697
  57.4121933  10.2531248  11.6747324  57.7874710   9.7268927  12.1195025
  47.2011764   2.5645848  18.5485173  47.0094961   2.5800982  19.3984597
  48.0510360   2.7609522  18.5251828  47.2987486   2.5960199  18.6708468
  41.5858677   5.0936829  16.5268990  41.4444169   4.2420770  16.6513498
  41.8699240   5.1365490  15.7031196  41.6066523   4.9736579  16.4236614
  51.7397269   6.9303919  10.6713478  51.4931983   6.8499670  11.5050267
  52.0682392   6.1457387  10.4776005  51.7518513   6.8030185  10.7661001
  55.6345318  13.6387279  14.4600259  55.4959677  14.3368324  14.9649002
  54.8545316  13.4835935  14.1036441  55.4988545  13.7187445  14.4826533
  53.9723403   9.9383654  20.7122641  53.9671442   9.0663470  20.7165067
  54.6784397  10.1371823  20.2392097  54.0768407   9.8387528  20.6429676
  47.6994296   9.6660638  20.0836461  47.8437672  10.2461846  19.4479571
  48.0469945  10.0436934  20.7886316  47.7721758   9.8081342  20.0935456
  49.8714214   8.8650806  17.8661593  49.1237528   9.0581821  17.4609871
  50.0255739   8.0396026  17.6285714  49.7836641   8.7715918  17.7706998
  46.7722051  17.8563410  16.9497488  46.9211615  17.2966325  16.2970892
  47.5522054  17.9355411  17.3330007  46.9096145  17.7848975  16.9094437
  49.2975352  18.0278052  18.2281979  49.2219023  17.3586863  18.7832767
  49.2265211  18.7295841  18.7422645  49.2755959  18.0322960  18.3858827
  50.1115991   2.7601357  18.7556996  50.5688605   3.4925331  18.8829789
  50.1872320   2.3367822  19.5144252  50.1906961   2.8058595  18.8858073
  42.3548982   3.0067177  19.8446440  41.8191172   2.3947535  20.1607207
  42.4166747   3.5815313  20.4980107  42.2844615   3.0014104  19.9881867
  49.9545599  16.5479051   9.0605585  50.7195490  16.2788695   8.7388249
  49.8523689  16.0629062   9.7775647  50.0527094  16.4368616   9.1185412
  47.9898369   4.7503461  15.5998820  47.1994444   4.5694921  15.9216156
  48.3858992   3.9730413  15.5829115  47.9315245   4.6090922  15.6451369
  53.3742055  12.3845891  13.3258266  52.6987057  12.1531123  13.8271653
  53.3834431  11.7767074  12.7000371  53.2760560  12.2604816  13.3074419
  50.5036199   7.2263720  20.0822319  50.4395340   8.0873676  19.9542456
  50.6433387   6.9095713  19.2817871  50.5151669   7.3063887  19.9450532
  55.3758790  15.2411023   5.5568444  55.4578627  16.0478010   5.2329895
  55.8608532  15.2606983   6.2809218  55.4595947  15.3631686   5.6155343
  49.1855293   9.9195859  14.2238522  48.7617542  10.1200358  13.4877541
  49.0100148   9.0724707  14.3362822  49.0966174   9.8244641  14.1312212
  48.6866986  21.4346372  16.6859980  49.1762917  20.7357161  16.5035644
  48.1151219  21.1370242  17.2736037  48.6751516  21.2872596  16.7461020
  44.4737738  10.4147911   9.6566495  44.6302357  10.3494713  10.5122487
  44.8138331  11.1896463   9.4445174  44.5470973  10.5197109   9.7521089
  51.0116882   9.7905794   8.5259858  51.5532428   9.2876175   8.9898479
  51.3263442   9.7370989   7.7149343  51.1381280   9.7085215   8.4743670
  54.8833990  14.0008442  25.6386770  55.6968855  13.7293590  25.7991903
  54.7228956  13.7015982  24.8346966  54.9803938  13.9163368  25.5432176
  49.1803332  15.1823146   5.8099886  49.2496153  14.3237684   5.9492886
  49.9591787  15.3995027   5.4818911  49.3056182  15.0876010   5.7817043
  52.1606152   4.6842099  18.5782158  52.3748121   4.0453013  18.0245512
  51.5440051   5.1287923  18.1490020  52.1011481   4.6552242  18.4332590
  53.5710820  17.6060847  10.0236379  53.1790612  17.3027562   9.3059245
  53.7263892  18.4429937   9.8341333  53.5364410  17.6844684   9.8892876
  41.0471999   7.5982861   9.9727262  41.4270964   8.0167406   9.3087529
  40.4727364   8.1796317  10.2796105  41.0183324   7.7460720   9.9204003
  54.3245240   6.2931164  19.5165466  53.5121922   5.9857054  19.5978638
  54.7835174   5.8130164  20.0808178  54.2725625   6.1767656  19.6120060
  53.7350495  14.1710836   9.9642410  53.3765149  14.3425479  10.7406442
  53.2489205  14.6324042   9.4070408  53.6109191  14.2649807   9.9967679
  51.4198747   7.6991235  24.2994168  51.8898379   8.3233352  24.6862042
  51.4660628   7.0308211  24.8587383  51.4966623   7.6925916  24.4394239
  54.8955234  15.0614732  20.9109611  55.5334954  14.5674928  20.5772067
  54.2529325  14.9892132  20.3261838  54.8949460  14.9773740  20.7751966
  56.6212234   6.9103878  15.4775526  56.1939842   6.8230226  14.7223626
  55.9838287   7.0181653  16.0630370  56.4641841   6.9136538  15.4520968
  54.9509490  15.7534540  17.5514967  55.7401869  15.4023605  17.6717049
  55.1253088  16.5670929  17.2891601  55.0929772  15.8220397  17.5302835
  44.6902801   9.1643266  14.6042756  43.8490807   9.0647140  14.8121650
  44.8992809   9.9338746  14.9557077  44.5967493   9.2635309  14.6870071
  42.1678368   6.7862803  12.4327507  41.7735066   6.8605815  11.6577617
  41.6118485   7.1720749  12.9835869  42.0281180   6.8544577  12.3995167
  48.5019466   7.0924665  13.8540354  48.1982603   6.5380653  14.4550762
  47.7998887   7.2716875  13.3668388  48.3535676   7.0369447  13.8710059
  46.5637817  14.3074386  18.5612452  46.4558172  14.3176448  19.4274510
  46.7733598  15.1329166  18.3717405  46.5787928  14.4315461  18.6616543
  44.5811609  11.5587028  16.0234389  43.9899542  12.1996526  15.9937404
  45.3432632  11.9824645  15.9965689  44.6059869  11.7162867  16.0149536
  44.9772232   2.7189026  16.6902407  45.4373713   2.7927955  17.4277531
  45.0228338   3.5170280  16.3402228  45.0522787   2.8483173  16.7475163
  46.6255581   3.3855721  21.2574434  46.2341146   2.7389068  21.6930212
  46.7941444   3.9767156  21.8768689  46.5926492   3.3769989  21.4137140
  60.7002030  11.3892798  17.0211667  60.7585154  11.8379447  17.7671644
  60.0668498  11.7991611  16.5841747  60.6153325  11.5166533  17.0664216
  54.3401125  17.0096340  13.4566414  54.1420814  17.4987154  12.7622625
  53.7188836  17.2137581  14.0350547  54.2188689  17.1112878  13.4389637
  48.4009103   8.7781237   7.7976658  49.1451148   9.1655513   8.0359608
  48.5469800   7.9338662   7.9617146  48.5319688   8.7111709   7.8570628
  51.3886979   4.3506710  13.6970577  50.9146933   3.8248472  14.2075888
  51.7605115   3.8036183  13.1285439  51.3736868   4.1922707  13.6885724
  41.7660009   6.3478217  19.0654123  42.6285622   6.2473926  18.9791453
  41.4351792   5.7672926  18.5039695  41.8445206   6.2469843  18.9699529
  57.6523710   9.4109086  15.1077358  57.4121933   8.5715501  15.1119784
  58.1315717   9.4909252  15.8318131  57.6875893   9.2990485  15.2152160
  59.6528897   6.1910543  13.0606617  59.4138667   6.1506377  12.2227402
  59.8162798   7.0381695  13.1872338  59.6419200   6.3102628  12.9560099
  56.2574927  10.5760492  18.9911662  56.9809126  10.1233019  18.8122682
  55.9924889  10.8565158  18.2083990  56.3256200  10.5511461  18.8490377
  45.1261795   5.1720666  15.7264541  44.5014866   5.1839058  15.1190494
  44.7907390   5.6480841  16.3755781  44.9847287   5.2439183  15.7321110
  41.8387471  13.2321126  17.1668306  41.3087395  12.5413565  17.2163280
  42.1112564  13.2231311  16.3381014  41.8012193  13.1288258  17.0515721
  52.8707561  13.8146828   5.8905988  53.5941760  14.2804941   5.7470561
  52.4308152  13.8820438   5.1403585  52.9123254  13.8930665   5.7590770
  52.0393716  10.6744370  17.1406677  51.4250710  10.1302421  17.4355312
  52.5561001  10.1608607  16.6612493  52.0249379  10.5180779  17.1130906
  51.2790014  11.7448640  14.8750976  50.8517622  11.1198359  14.4416411
  51.2714958  11.4623562  15.7009983  51.2149155  11.6101421  14.9330803
  44.3952541   6.7813813  17.9439410  44.5546027   6.0257138  18.3491132
  44.2145434   7.3304753  18.5980147  44.3917900   6.7507627  18.1002116
  49.6075723   2.6217395  15.0893510  49.6318210   2.0877507  14.4006290
  49.8587197   2.1134704  15.7519100  49.6485642   2.4678299  15.0858154
  37.1183313   9.9048890  14.5236654  37.0126762   9.8595734  13.6588738
  36.3683533  10.2502670  14.8050939  36.9918916   9.9489798  14.4373984
  45.8877046   1.3488213  14.4699254  45.9275417   1.8497420  15.1833961
  45.0626710   1.4398607  14.2005177  45.7716571   1.4370029  14.5349792
  48.0706658  10.9148953  22.5719549  47.2202289  11.0520667  22.7077194
  48.2334786  10.1812731  23.0167250  47.9690522  10.8263054  22.6575148
  47.3091409   7.8648723  16.7673153  46.4783339   8.0322541  16.5608401
  47.2542926   7.4884674  17.5522038  47.1780824   7.8338454  16.8521681
  45.1175192   1.3557616  22.4029564  45.7427896   0.8119749  22.6758996
  44.6625672   0.8752533  21.8337354  45.1423453   1.2047097  22.3591158
  58.6910241   9.5386903  17.4942212  59.2828081  10.1784154  17.5260410
  59.1269235   8.8409940  17.7834279  58.8428672   9.5305253  17.5423044
  50.5203631  13.9604275  18.1200106  50.0128722  14.5140122  18.5640736
  50.2230277  14.0212565  17.3018880  50.4008516  14.0510586  18.0648562
  53.1311411  17.8767533   6.0504049  52.4140721  17.7028395   5.5851287
  53.7818149  17.6420105   5.5179535  53.1213262  17.8163325   5.9033267
  55.7159382   6.7532122   9.7945354  55.0450572   7.2961824   9.6658420
  56.4099133   7.2226977   9.5527049  55.7188250   6.9030393   9.7400882
  49.7646116  18.8928834  15.0257113  49.5411770  18.1347663  15.3941139
  49.2755959  18.9226855  14.3037552  49.6589565  18.7851058  14.9733854
  44.5771195   5.8395525  10.7618574  43.8583184   6.2559657  11.0291438
  44.9483557   6.4049764  10.2110212  44.5263127   5.9844806  10.7201381
  53.8770776   6.4723374  16.6520570  53.8568703   6.2906669  17.5055349
  53.9249976   7.3435392  16.6280153  53.8805417   6.5739912  16.7743864
  51.8217105  13.0610566  22.5769046  51.7812960  12.4160243  21.9914202
  52.6340424  13.0047183  22.8894458  51.9360259  12.9569533  22.5365995
  48.4124573  19.1129292  12.4794197  47.9984972  18.4503422  12.0898039
  49.0971947  19.2607150  11.9589891  48.4522945  19.0369950  12.3450694
  51.7789867  18.2719377  13.2317814  51.3806150  18.3821647  12.4638634
  51.1641087  18.4801443  13.8144374  51.6288756  18.3192945  13.2049113
  53.2275586   4.8373029   9.5293704  52.9989279   4.8605731   8.6872062
  53.4873662   4.0130496   9.6488714  53.2321774   4.7189109   9.4218901
  47.5094814   6.6907502  19.1318804  46.9973717   6.0828685  19.4903835
  47.3374310   7.4064095  19.5992780  47.4084451   6.7070802  19.2535028
  42.3560529   5.1345078  21.7821166  42.1863119   5.7946452  21.2369372
  41.9126479   5.3451639  22.5033655  42.2659862   5.2631060  21.8082795
  46.2820348   3.3749576  10.8247899  46.7577714   3.7366655  10.1898081
  45.7808948   4.0306043  11.1048042  46.2785707   3.5243764  10.7724640
  51.3863884   4.6131747  21.5721059  51.9435315   4.3845556  20.9399525
  51.0624950   5.3737413  21.2956272  51.4210295   4.6915584  21.4377557
  39.2562593   8.0391943  17.0409656  38.7089313   7.3692589  17.1590524
  40.0454972   7.6721791  17.1053123  39.2914777   7.8856930  17.0678356
  49.1047002   7.6999400  22.5373067  49.8558329   8.0151077  22.8512621
  49.2969578   7.4978571  21.7106988  49.2438416   7.7166782  22.4616462
  38.0149563   7.2512751  14.1955679  37.8371324   6.7989360  14.9210594
  37.7268585   8.0538912  14.3794156  37.9462516   7.3035309  14.3299181
  53.6773144   8.5070468  13.4333069  54.1726809   7.7893463  13.3937089
  52.8672920   8.2041266  13.3187556  53.6317037   8.3568115  13.4106795
  49.1231755  12.3568282   5.5830073  48.3143078  12.0334955   5.5363383
  49.6306664  11.6501504   5.5158322  49.0781422  12.2049598   5.5660368
  39.7522033   9.7840475  11.3077438  38.8867552   9.7726165  11.1960209
  39.8520849   9.5970698  12.1548577  39.6396200   9.7546536  11.4166382
  55.7424963  11.2574156  16.1210198  56.1680034  10.7348578  15.5680623
  55.3781883  11.8554993  15.5998821  55.7511565  11.2684383  15.9619207
  45.3779043  19.5538373  14.8807543  45.6925602  20.3674762  14.8885325
  45.7872456  19.1688592  15.5489702  45.4847141  19.6167076  14.9811635
  52.3303562  14.9708420  12.4511355  52.8014740  15.6848683  12.6201340
  52.6663741  14.3707170  12.9871225  52.4498677  14.9879884  12.5543731
  54.4180547  16.5809733  24.6303427  54.5277512  15.7918294  24.9860174
  54.7471443  16.4915670  23.8277765  54.4832953  16.4515586  24.5645818
  52.9677509  14.7626354  19.2139048  52.4198455  14.1384238  18.9459113
  53.4290537  14.9520626  18.4983127  52.9544718  14.6985404  19.0689479
  42.7192063  13.5011482  14.5286152  43.3236920  13.4607316  13.8999972
  42.5119375  14.3482634  14.5590207  42.7780960  13.6199484  14.4402268
  52.5335835  15.7677427  15.7448389  53.3534209  15.6240393  16.0064684
  52.2529913  16.3923626  16.2864827  52.6132578  15.8387779  15.8636328
  37.9543345  12.4846099  14.3985075  37.8567623  11.6742371  14.7075131
  38.7372215  12.4637893  14.0131343  38.0559482  12.3613189  14.3871938
  62.2049170  22.5117930  13.4644196  61.3487066  22.6726428  13.5153313
  62.2516824  21.6409994  13.4849257  62.0848282  22.4068732  13.4750262
  56.5890310  32.0480648   9.2281427  55.8373209  31.6696186   8.9997472
  57.0376321  32.0799081   8.4800238  56.5439977  31.9966255   9.0838930
  65.5142887  28.7804455  23.0704652  66.2209654  28.2856486  23.1991586
  65.7030822  29.2213537  22.3407310  65.6470792  28.7722806  22.9813697
  62.0415270  32.4706017   4.6566974  61.7066638  33.1482939   4.2211197
  62.5542140  32.0811328   4.0683846  62.0680851  32.5130595   4.5053766
  61.5819561  34.4220286  10.5978086  61.9658940  34.9907184  10.0582861
  61.5178702  33.6969796  10.1183902  61.6292988  34.3995749  10.4471949
  65.0500991  24.5709974  16.1075847  65.5956951  25.2495060  16.1669817
  64.9917867  24.4297434  15.2477429  65.1216905  24.6501975  15.9887908
  58.1675066  32.0599040  11.4944200  58.2685429  31.2499394  11.8041328
  57.5716811  31.9655986  10.8643878  58.0947605  31.9264068  11.4470438
  66.8266060  25.9994581   6.9809575  66.7105586  26.7502267   7.4101713
  67.6221946  25.7418534   7.2305662  66.9270649  26.0729428   7.0813667
  58.0075806  36.9776629  12.8959056  58.6513261  37.4189793  13.2855214
  58.3332061  36.1730055  12.8089315  58.1507634  36.9241824  12.9404533
  51.3640110  28.0819326  11.1196534  51.1290295  27.2486979  11.0128802
  51.5025751  28.3623992  10.3057734  51.3495773  28.0002830  10.9838888
  53.6630198  20.2505057  14.0180841  53.0435229  19.6597704  13.8490856
  53.5614061  20.8416492  13.3845164  53.5567873  20.2509139  13.8985831
  58.7096385  29.9888604   8.2678918  59.0312226  30.5293811   7.6640226
  59.3568482  29.4185375   8.4001207  58.8522440  29.9847779   8.1985953
  60.7598093  21.9904599   8.3513304  61.4578258  22.1692726   8.8434768
  61.0750426  21.4674938   7.7283694  60.9093431  21.9398371   8.3315314
  53.3899331  23.7957339  16.2624410  53.2658028  24.3819784  16.8974229
  54.0417615  23.3017534  16.5636685  53.4672980  23.8096143  16.4010339
  60.9486029  28.3775044   8.3393096  61.3879664  27.7692144   8.7847869
  60.7990692  27.9982417   7.5678561  60.9907494  28.2313515   8.2912263
  58.4157672  26.9719056  15.5411921  59.0606674  26.4791499  15.2222870
  58.6559449  27.1143842  16.3678000  58.5468257  26.9196498  15.6161454
  60.9543763  29.8173961  15.1918814  61.2367006  29.0225367  14.9705570
  61.6829924  30.2954549  15.2123875  61.1033327  29.7708558  15.1621829
  58.9324957  17.3596995  12.4334579  58.6028287  17.8108139  11.7638278
  58.2569959  17.2813159  12.9807585  58.7835393  17.4148131  12.4157802
  64.5495365  26.7302225   5.2923865  64.4646660  27.5863192   5.4373434
  65.0379749  26.4546549   5.9606024  64.6084263  26.8159546   5.4125947
  65.4813799  23.3487019   6.7921600  64.9525270  23.5646653   7.4518906
  66.0038818  24.0423158   6.7122569  65.4802252  23.4830156   6.8777199
  70.9361851  28.9233324  12.1654645  70.1059555  29.1343967  12.3288061
  70.8871104  28.0970378  11.8896928  70.8068587  28.8322930  12.1492010
  57.3713406  27.2450236   5.5929068  56.7870622  27.7500267   5.9994932
  56.9683502  27.0192623   4.8525660  57.2252710  27.2858484   5.5434093
  52.9257435  32.9604997  12.3952740  52.4425013  33.6855487  12.3712323
  53.7380753  33.2581127  12.5062897  52.9748183  33.1107351  12.4080019
  58.9971589  31.7537178  15.0002554  58.4798531  31.3944593  14.3963862
  59.6945980  31.2299352  15.0108620  59.0237170  31.6234866  14.9132813
  62.6535181  32.2031992  20.9618727  62.7418527  32.0158132  21.8096938
  63.0824894  31.5569421  20.5623574  62.7297283  32.0795000  21.0290479
  60.2205641  31.4863152  19.9436389  59.6576476  31.0735762  20.4676051
  60.9826664  31.4116057  20.3629533  60.2500089  31.4140552  20.0829390
  61.8290621  23.4915888   4.0697989  62.0686624  23.6993872   3.2573332
  62.1506462  22.6873397   4.1786933  61.9127779  23.4029989   3.9658542
  57.1380911  15.4209284   7.9157527  57.8926879  15.7887601   7.6774577
  56.9608446  15.7948838   8.6836706  57.2235389  15.5307472   7.9942415
  55.7801632  33.4761173  12.5473019  56.4822212  32.9613162  12.6045776
  55.6999115  33.8035324  13.3519895  55.8725393  33.4475399  12.6745812
  70.4315810  21.5703724  15.9605066  69.5944231  21.6405911  16.1952660
  70.4004041  21.5728219  15.0879368  70.3034092  21.5813951  15.8664614
  56.8280539  23.7136760  21.6753435  57.0001042  23.6042655  22.5238716
  57.3649896  24.3591165  21.4384627  56.9325543  23.7928762  21.7658531
  55.4937976  17.8279603   4.6135640  55.3113549  18.0451484   3.7876632
  56.3563589  17.9418615   4.6694254  55.5942565  17.8769501   4.4990127
  55.1052408  29.6667525  12.0558628  55.9441307  29.8990458  12.1032389
  55.1364177  28.7971836  11.9865663  55.2334125  29.5724471  12.0523272
  55.7305111  30.0868400  16.3571933  56.2703336  29.9439531  17.0275305
  55.0475057  30.4865151  16.7255959  55.7097265  30.1248071  16.5106355
  65.1545996  25.7659401  11.5516957  65.9103511  26.1990915  11.5905866
  65.2608320  25.1164170  12.1251593  65.2816166  25.7336885  11.6414983
  68.1926167  29.5932678  12.3019360  67.7561399  29.5969420  13.0578332
  67.8589082  30.2738177  11.8698938  68.0788787  29.6945134  12.3500193
  62.7655240  31.6341011  23.6262511  63.5495657  31.7471859  23.9918253
  62.5651835  30.8082148  23.8221197  62.8521266  31.5287730  23.7096897
  51.1342256  26.3068691  16.5106355  50.8680671  25.4907808  16.6697345
  51.1480820  26.3521846  15.6401870  51.0966978  26.1925596  16.4059837
  68.1123650  16.6346506  14.5448788  68.7549558  16.7044610  15.1310704
  68.3646670  15.9675729  14.0428330  68.2445782  16.5472854  14.5576068
  55.0400003  21.1053775   3.1258113  54.3258180  20.8191955   3.5380545
  55.5243971  21.4450401   3.7664500  55.0059366  21.1135425   3.2813748
  55.8840862  19.8447069  19.1573362  55.1912659  19.3744049  19.4034094
  56.5001189  19.6185374  19.7315069  55.8725392  19.7414201  19.2782515
  62.9225634  33.5451113  17.2728966  62.1240879  33.3050613  17.5302835
  63.3711645  33.5965506  18.0196014  62.8700245  33.5173504  17.4213891
  71.3270513  26.3113598  11.1938998  71.9886947  25.7504266  11.0934906
  70.6861925  25.8165629  11.5191689  71.3299380  26.1550007  11.2271338
  62.2147321  29.6083729   3.5019921  62.6298469  29.2768753   2.8104417
  61.3839250  29.3752632   3.3740058  62.1535329  29.5254985   3.3810768
  51.5435669  27.0927470  13.7918099  51.3611243  27.0674356  12.9390391
  52.2785338  27.5626408  13.8307008  51.6249733  27.1588833  13.6716017
  67.6135344  27.3278980  10.9350986  67.8490933  27.4724179  10.1077837
  67.7624907  28.0921388  11.3282500  67.6701147  27.4618035  10.8714590
  54.6081421  23.8112473  20.3000208  55.3321393  23.7965504  20.7865102
  54.7097558  24.5207828  19.8022176  54.7299630  23.9137176  20.2978994
  69.4425800  26.1680646   8.7720590  69.7734017  26.7008286   8.1660685
  70.0158888  26.2219534   9.4282541  69.5759479  26.2550215   8.7798372
  61.9826370  27.2911558  25.1649155  61.1899351  27.6055070  25.3501774
  62.0975298  27.5063026  24.3269939  61.8821781  27.3695395  25.0687489
  64.6557689  24.0145549   9.4544170  64.7504544  24.7534843   9.9083796
  64.0316533  23.5863024   9.8878735  64.5766720  24.0606870   9.5852318
  62.9110163  27.1931762  20.1034451  63.4849025  26.5559006  20.2583015
  62.8324967  27.1935844  19.2344109  62.9843398  27.0996873  19.9980862
  51.5106580  23.9720971  13.9417165  52.0880082  23.8357422  14.5809411
  50.8120641  23.5156755  14.1962750  51.4927601  23.8843237  14.0739455
  58.2673882  25.6255027  12.1555649  58.0093126  24.7926762  12.1286948
  58.3222365  25.8512640  11.3148149  58.2373660  25.5352798  12.0275785
  63.3474932  17.7283477  12.2559741  62.6431259  17.2392663  12.4143660
  63.3959906  17.7405952  11.3848186  63.2504984  17.6573125  12.1499081
  57.2408594  23.1792789  12.6420543  56.6658185  23.3384958  13.2784504
  56.8644270  22.5428198  12.1788994  57.1011406  23.1090602  12.6675102
  46.9865413  22.8232864  10.6564984  47.0725665  22.4464732  11.4378514
  47.6141210  22.4493310  10.1784942  47.0921964  22.7118346  10.7010461
  64.7308244  15.3490767  15.0136906  65.1118756  14.6668938  15.4004780
  63.9271529  15.0600369  14.8312571  64.6684706  15.2057816  15.0440962
  62.0120821  25.8814743   5.6989729  62.8261460  26.1729636   5.5872500
  61.9479962  25.2274605   5.1248022  62.1223560  25.8279938   5.5978566
  68.2330311  28.5640739  20.1119304  67.9968949  27.7328804  19.9931365
  68.8773540  28.5126346  20.6974149  68.2924982  28.4338427  20.1805198
  57.8828729  29.3536260  10.8262041  58.5202676  29.1148008  11.3713834
  58.3083801  29.5573419  10.0915201  58.0404895  29.3487271  10.7979198
  52.5741372  31.5924597  14.7096345  52.6145517  31.8639448  13.8816124
  53.1335896  32.1166505  15.1254133  52.6624718  31.7100352  14.6488233
  58.5231544  24.5738550   5.1636930  58.9076697  24.3546257   5.9153475
  58.2743165  25.4001496   5.2938007  58.5433617  24.6636696   5.2938007
  58.6900085  17.8544965  24.8799515  58.3753526  18.6244528  24.6169077
  58.3690017  17.2915221  24.2951741  58.5959004  17.8855234  24.7540864
  69.2566732  28.3485188  16.1747599  68.9512549  29.0813245  16.5360915
  68.5372947  27.9423117  15.8940385  69.1054074  28.3966921  16.1860736
  60.2650201  29.8308683  12.5055827  60.3389209  29.6683855  13.3597677
  61.0819707  30.0198873  12.2616309  60.3966560  29.8345425  12.5953853
  74.9568524  24.9878189  15.5015943  74.8893024  25.0074148  14.6318530
  74.9424186  25.8308516  15.7271614  74.9447280  25.1151923  15.4068420
  54.0255958  30.1766546   9.5350271  53.1994076  30.4228283   9.4084549
  54.0867949  30.0978627  10.4012329  53.9130125  30.2011495   9.6439215
  56.2431982  16.2435487  10.4945711  55.3754407  16.3158086  10.5603320
  56.5307186  17.0457566  10.6833686  56.1571730  16.3729634  10.5320477
  65.3664870  16.3913346  18.8257033  66.1118462  16.2023157  18.4120458
  64.9502175  16.9171584  18.2670889  65.4149845  16.4415492  18.6821606
  58.8054787  32.7943426   7.2369301  59.0953085  32.4032407   6.5128527
  59.5358268  32.9760131   7.6774576  58.9561671  32.7637240   7.1952108
  72.7427141  23.7622575  13.7762538  73.2935063  23.1290644  14.0159630
  72.7271257  24.2937968  14.4678042  72.8212338  23.7471523  13.9141396
  59.3949532  27.5961172  18.3222431  58.8961226  28.3076940  18.4007319
  60.2049756  27.9161839  18.2840593  59.4405639  27.7488021  18.3279000
  56.7460702  34.7710809  10.3029450  56.5260998  34.4808163  11.0956117
  56.5255224  34.1125764   9.7747363  56.6808297  34.6310517  10.3418359
  55.6577650  26.8584125  12.5685152  55.3690898  26.2321596  13.1030879
  56.5260998  26.8004413  12.6349832  55.7437902  26.7571669  12.6576107
  66.4455547  22.0018908  12.8867134  66.1020313  21.2809244  13.2374383
  66.5448590  21.7932760  12.0445492  66.4097590  21.8643112  12.8138814
  58.9128658  36.1440199   9.0860143  59.5652716  35.6116641   9.3151169
  58.2154267  35.7908851   9.4728017  58.9059376  36.0129722   9.1772310
  55.8609923  28.4979376   8.4927517  56.6155891  28.8792415   8.7062980
  55.2680536  28.9490520   8.9474214  55.8846637  28.6208204   8.5910395
  66.9068577  28.4644613   8.4291122  67.4726609  29.1237822   8.3449665
  66.2596480  28.8094311   8.9007524  66.8947333  28.6126554   8.4863878
  58.3216590  20.4542216  23.6184729  57.5116366  20.7599996  23.5074572
  58.7991277  21.1747799  23.7337313  58.2720069  20.6056818  23.6191800
  57.1808150  29.6687937  13.8667632  56.6588903  29.8088229  14.5519497
  57.5682170  28.9098602  14.0569750  57.1611851  29.5773461  13.9968709
  54.1699334  19.7193746   7.9362587  53.8824129  19.3495017   7.1994534
  54.8569802  20.1888602   7.6746292  54.2288231  19.7340716   7.7877663
  63.3775155  31.4083397   7.8528201  63.1361831  30.6751257   7.4455266
  63.5576488  31.9570254   7.1994534  63.3682779  31.3805788   7.6958424
  58.6074475  26.6991957   9.2649123  58.4117258  27.3066691   8.6709426
  58.8308821  26.0059901   8.7840797  58.6109116  26.6869482   9.1065204
  57.0053005  23.5846694   9.3829992  57.7275657  23.7487853   8.9233798
  56.5260998  24.3056359   9.2769332  57.0416736  23.7144924   9.2995606
  64.9646513  19.9210493  14.7626677  64.1257613  19.9471772  14.5264940
  65.0350880  20.5681229  15.3432023  64.8514906  20.0206619  14.8135794
  54.6560622  25.9904767  18.4884132  55.1681719  26.2689020  17.8392891
  54.3696965  26.7294061  18.8546945  54.6895485  26.1407121  18.4474010
  63.4115791  16.8195870   9.4954293  64.1142144  16.6203619   9.0174251
  63.1459980  16.0471813   9.8023136  63.4762423  16.6758836   9.4699734
  68.8404037  25.1278480  12.0487918  68.7538011  25.2833906  12.9022697
  68.3854517  25.7716556  11.6747324  68.7607293  25.2454235  12.1195025
  51.7427528  20.4974959   8.7847868  51.8443665  21.3001120   9.1128844
  52.5383415  20.2962295   8.4870949  51.8755434  20.5860857   8.7883223
  58.1744347  18.0831155  18.5485173  57.9827544  18.0986290  19.3984597
  59.0242943  18.2794830  18.5251828  58.2720069  18.1145507  18.6708468
  52.5591260  20.6122137  16.5268990  52.4176752  19.7606078  16.6513498
  52.8431824  20.6550798  15.7031196  52.5799106  20.4921887  16.4236614
  62.7129853  22.4489227  10.6713478  62.4664567  22.3684978  11.5050267
  63.0414976  21.6642695  10.4776005  62.7251096  22.3215492  10.7661001
  66.6077902  29.1572586  14.4600259  66.4692261  29.8553632  14.9649002
  65.8277899  29.0021243  14.1036441  66.4721128  29.2372753  14.4826533
  64.9455987  25.4568962  20.7122641  64.9404025  24.5848778  20.7165067
  65.6516981  25.6557131  20.2392097  65.0500991  25.3572836  20.6429676
  58.6726880  25.1845946  20.0836461  58.8170256  25.7647154  19.4479571
  59.0202529  25.5622242  20.7886316  58.7454341  25.3266650  20.0935456
  60.8446797  24.3836114  17.8661593  60.0970111  24.5767128  17.4609871
  60.9988323  23.5581334  17.6285714  60.7569225  24.2901225  17.7706998
  57.7454635  33.3748717  16.9497488  57.8944199  32.8151633  16.2970892
  58.5254637  33.4540719  17.3330007  57.8828729  33.3034283  16.9094437
  60.2707936  33.5463360  18.2281979  60.1951607  32.8772171  18.7832767
  60.1997795  34.2481149  18.7422645  60.2488543  33.5508268  18.3858827
  61.0848574  18.2786665  18.7556996  61.5421189  19.0110639  18.8829789
  61.1604903  17.8553130  19.5144252  61.1639544  18.3243903  18.8858073
  53.3281566  18.5252485  19.8446440  52.7923755  17.9132843  20.1607207
  53.3899330  19.1000620  20.4980107  53.2577198  18.5199412  19.9881867
  60.9278183  32.0664359   9.0605585  61.6928074  31.7974003   8.7388249
  60.8256273  31.5814370   9.7775647  61.0259678  31.9553924   9.1185412
  58.9630952  20.2688769  15.5998820  58.1727027  20.0880229  15.9216156
  59.3591575  19.4915721  15.5829115  58.9047829  20.1276230  15.6451369
  64.3474639  27.9031199  13.3258266  63.6719640  27.6716431  13.8271653
  64.3567015  27.2952382  12.7000371  64.2493143  27.7790124  13.3074419
  61.4768783  22.7449028  20.0822319  61.4127924  23.6058984  19.9542456
  61.6165970  22.4281021  19.2817871  61.4884253  22.8249194  19.9450532
  66.3491373  30.7596331   5.5568444  66.4311211  31.5663317   5.2329895
  66.8341115  30.7792290   6.2809218  66.4328531  30.8816994   5.6155343
  60.1587877  25.4381167  14.2238522  59.7350126  25.6385666  13.4877541
  59.9832732  24.5910015  14.3362822  60.0698757  25.3429949  14.1312212
  59.6599570  36.9531680  16.6859980  60.1495500  36.2542469  16.5035644
  59.0883802  36.6555550  17.2736037  59.6484100  36.8057904  16.7461020
  55.4470321  25.9333219   9.6566495  55.6034941  25.8680021  10.5122487
  55.7870915  26.7081771   9.4445174  55.5203556  26.0382417   9.7521089
  61.9849466  25.3091102   8.5259858  62.5265012  24.8061483   8.9898479
  62.2996025  25.2556297   7.7149343  62.1113863  25.2270523   8.4743670
  65.8566573  29.5193750  25.6386770  66.6701439  29.2478898  25.7991903
  65.6961540  29.2201289  24.8346966  65.9536522  29.4348676  25.5432176
  60.1535916  30.7008454   5.8099886  60.2228736  29.8422992   5.9492886
  60.9324371  30.9180335   5.4818911  60.2788766  30.6061318   5.7817043
  63.1338735  20.2027407  18.5782158  63.3480705  19.5638321  18.0245512
  62.5172635  20.6473231  18.1490020  63.0744065  20.1737550  18.4332590
  64.5443403  33.1246155  10.0236379  64.1523195  32.8212870   9.3059245
  64.6996476  33.9615245   9.8341333  64.5096993  33.2029992   9.8892876
  52.0204583  23.1168169   9.9727262  52.4003548  23.5352714   9.3087529
  51.4459948  23.6981625  10.2796105  51.9915908  23.2646028   9.9204003
  65.2977823  21.8116472  19.5165466  64.4854505  21.5042362  19.5978638
  65.7567758  21.3315472  20.0808178  65.2458208  21.6952964  19.6120060
  64.7083078  29.6896144   9.9642410  64.3497733  29.8610787  10.7406442
  64.2221789  30.1509349   9.4070408  64.5841775  29.7835115   9.9967679
  62.5253464  13.3127342  13.5669501  61.6547022  13.2866063  13.5202811
  62.7793805  13.1404535  12.7495347  62.4347024  13.2837486  13.4389638
  59.4971444  25.3695309   2.5042644  59.7863968  26.1460192   2.7786219
  59.5843242  24.8584041   3.2057144  59.5525700  25.4087228   2.6485142
  62.3931331  23.2176543  24.2994168  62.8630962  23.8418660  24.6862042
  62.4393211  22.5493519  24.8587383  62.4699207  23.2111224  24.4394239
  59.5502605  15.3233571  15.0242972  59.0341093  14.6313762  15.1494551
  58.9896533  15.9904348  14.9705570  59.3909118  15.3196828  15.0349038
  61.6194838  15.8626531  16.8535824  61.2326591  15.8875562  17.6349354
  61.1327775  15.2968209  16.4010341  61.4907347  15.7822282  16.9023728
  65.8687817  30.5800040  20.9109611  66.5067538  30.0860235  20.5772067
  65.2261909  30.5077440  20.3261838  65.8682044  30.4959048  20.7751966
  67.5944818  22.4289186  15.4775526  67.1672426  22.3415534  14.7223626
  66.9570871  22.5366961  16.0630370  67.4374425  22.4321846  15.4520968
  61.2851980  12.7493516  19.1446084  61.9145098  13.2853816  18.8667154
  61.4537842  12.6570875  19.9959650  61.4029774  12.8154879  19.2294612
  61.0865895  17.5364711  21.4172496  61.9139324  17.2649860  21.4731110
  61.1073741  18.3325553  21.7736314  61.2118745  17.6144465  21.4787679
  65.9242074  31.2719848  17.5514967  66.7134452  30.9208913  17.6717049
  66.0985672  32.0856237  17.2891601  66.0662356  31.3405705  17.5302835
  55.6635385  24.6828574  14.6042756  54.8223391  24.5832448  14.8121650
  55.8725392  25.4524054  14.9557077  55.5700077  24.7820617  14.6870071
  53.1410951  22.3048111  12.4327507  52.7467649  22.3791123  11.6577617
  52.5851068  22.6906057  12.9835869  53.0013764  22.3729885  12.3995167
  64.7775898  15.2829405  12.1131386  64.9825492  15.2151713  12.9588383
  64.4502322  16.0888226  12.0452563  64.7591146  15.3915345  12.2291041
  59.4752049  22.6109973  13.8540354  59.1715187  22.0565961  14.4550762
  58.7731470  22.7902183  13.3668388  59.3268259  22.5554755  13.8710059
  58.5318146  19.9210493   8.4185056  58.8077881  19.2029405   8.0062623
  59.1316816  20.5195413   8.2106162  58.6611411  19.9030864   8.3265817
  57.5370400  29.8259694  18.5612452  57.4290755  29.8361756  19.4274510
  57.7466182  30.6514474  18.3717405  57.5520511  29.9500769  18.6616543
  55.5544192  27.0772336  16.0234389  54.9632126  27.7181834  15.9937404
  56.3165216  27.5009953  15.9965689  55.5792453  27.2348175  16.0149536
  55.9504815  18.2374334  16.6902407  56.4106297  18.3113263  17.4277531
  55.9960922  19.0355588  16.3402228  56.0255370  18.3668481  16.7475163
  57.5988165  18.9041029  21.2574434  57.2073730  18.2574376  21.6930212
  57.7674028  19.4952464  21.8768689  57.5659075  18.8955297  21.4137140
  71.6734614  26.9078106  17.0211667  71.7317738  27.3564755  17.7671644
  71.0401082  27.3176919  16.5841747  71.5885909  27.0351840  17.0664216
  65.3133709  32.5281648  13.4566414  65.1153397  33.0172462  12.7622625
  64.6921420  32.7322889  14.0350547  65.1921273  32.6298186  13.4389637
  59.3741687  24.2966545   7.7976658  60.1183732  24.6840821   8.0359608
  59.5202383  23.4523970   7.9617146  59.5052272  24.2297017   7.8570628
  61.2921262  16.0916803  12.8308519  60.4457307  16.2639611  12.7049869
  61.2892395  15.2866147  13.1674348  61.1668412  15.9977832  12.8619646
  62.3619563  19.8692018  13.6970577  61.8879517  19.3433780  14.2075888
  62.7337699  19.3221491  13.1285439  62.3469452  19.7108014  13.6885724
  52.7392593  21.8663525  19.0654123  53.6018206  21.7659234  18.9791453
  52.4084376  21.2858234  18.5039695  52.8177789  21.7655151  18.9699529
  68.6256293  24.9294394  15.1077358  68.3854516  24.0900809  15.1119784
  69.1048301  25.0094560  15.8318131  68.6608477  24.8175793  15.2152160
  70.6261480  21.7095851  13.0606617  70.3871250  21.6691685  12.2227402
  70.7895382  22.5567003  13.1872338  70.6151784  21.8287936  12.9560099
  67.2307511  26.0945800  18.9911662  67.9541709  25.6418326  18.8122682
  66.9657473  26.3750466  18.2083990  67.2988784  26.0696769  18.8490377
  56.0994379  20.6905974  15.7264541  55.4747449  20.7024366  15.1190494
  55.7639974  21.1666149  16.3755781  55.9579871  20.7624491  15.7321110
  56.2836128  19.0331092   1.7837226  55.9348932  19.6850817   2.2468776
  55.8032573  19.0188205   1.0561097  56.1606372  19.1274146   1.7448318
  52.8120054  28.7506434  17.1668306  52.2819979  28.0598873  17.2163280
  53.0845148  28.7416619  16.3381014  52.7744777  28.6473565  17.0515721
  63.8440145  29.3332136   5.8905988  64.5674344  29.7990249   5.7470561
  63.4040736  29.4005746   5.1403585  63.8855837  29.4115973   5.7590770
  63.0126300  26.1929678  17.1406677  62.3983293  25.6487729  17.4355312
  63.5293585  25.6793915  16.6612493  62.9981962  26.0366087  17.1130906
  62.2522597  27.2633948  14.8750976  61.8250205  26.6383667  14.4416411
  62.2447542  26.9808870  15.7009983  62.1881738  27.1286729  14.9330803
  55.3685124  22.2999121  17.9439410  55.5278611  21.5442445  18.3491132
  55.1878018  22.8490061  18.5980147  55.3650483  22.2692935  18.1002116
  63.3105427  14.4660357  18.4990199  62.8145989  14.6624031  17.8081766
  64.0674489  14.8653025  18.3279001  63.3492252  14.5538091  18.3710336
  60.5808307  18.1402703  15.0893510  60.6050794  17.6062815  14.4006290
  60.8319781  17.6320012  15.7519100  60.6218226  17.9863607  15.0858154
  48.0915897  25.4234198  14.5236654  47.9859346  25.3781042  13.6588738
  47.3416117  25.7687978  14.8050939  47.9651500  25.4675106  14.4373984
  56.8609629  16.8673521  14.4699254  56.9008001  17.3682728  15.1833961
  56.0359294  16.9583915  14.2005177  56.7449155  16.9555337  14.5349792
  59.0439242  26.4334261  22.5719549  58.1934873  26.5705975  22.7077194
  59.2067370  25.6998039  23.0167250  58.9423106  26.3448362  22.6575148
  58.2823993  23.3834031  16.7673153  57.4515922  23.5507849  16.5608401
  58.2275510  23.0069982  17.5522038  58.1513407  23.3523762  16.8521681
  56.0907776  16.8742924  22.4029564  56.7160479  16.3305057  22.6758996
  55.6358256  16.3937841  21.8337354  56.1156036  16.7232405  22.3591158
  56.6560036  21.6589622   7.2963271  56.7962997  22.1562087   7.9991912
  57.1542569  20.9575917   7.4377484  56.7501117  21.6291601   7.4214850
  56.6860259  22.5256733   4.6255848  57.3205338  23.1217159   4.5605309
  56.7685870  22.2260191   5.4401718  56.7916810  22.5697642   4.7358934
  69.6642825  25.0572211  17.4942212  70.2560665  25.6969462  17.5260410
  70.1001819  24.3595248  17.7834279  69.8161256  25.0490561  17.5423044
  58.2639242  18.4570709   4.6001290  58.5855083  17.9773791   3.9460552
  58.5266185  19.2670355   4.4092101  58.3505267  18.5060607   4.4756782
  61.4936214  29.4789583  18.1200106  60.9861305  30.0325430  18.5640736
  61.1962861  29.5397873  17.3018880  61.3741099  29.5695894  18.0648562
  63.6598397  17.8442903  16.9624769  64.0853468  17.3915429  16.3508295
  63.0455390  17.2902974  17.2389556  63.6327042  17.6956879  16.9129794
  53.1913247  24.7224574   7.8945394  53.7005476  25.3189082   8.2756699
  53.6647519  24.4550548   7.2121813  53.3356622  24.7710390   7.8499916
  64.1043995  33.3952841   6.0504049  63.3873304  33.2213703   5.5851287
  64.7550732  33.1605413   5.5179535  64.0945845  33.3348633   5.9033267
  62.0992619  14.3158003  10.3715346  61.4560937  14.1655649  10.9400484
  61.7592026  14.0700348   9.6064450  61.9537697  14.2570125  10.3418361
  66.6891966  22.2717429   9.7945354  66.0183156  22.8147132   9.6658420
  67.3831716  22.7412285   9.5527049  66.6920833  22.4215701   9.7400882
  60.7378700  34.4114141  15.0257113  60.5144354  33.6532971  15.3941139
  60.2488543  34.4412163  14.3037552  60.6322149  34.3036366  14.9733854
  66.8520093  18.7273313  12.7035728  67.2047703  18.3003036  13.3781526
  65.9934895  18.6424157  12.8336804  66.7769538  18.6518054  12.8230738
  55.5503778  21.3580833  10.7618574  54.8315767  21.7744965  11.0291438
  55.9216141  21.9235072  10.2110212  55.4995710  21.5030114  10.7201381
  64.8503359  21.9908682  16.6520570  64.8301286  21.8091977  17.5055349
  64.8982560  22.8620700  16.6280153  64.8538000  22.0925220  16.7743864
  62.7949689  28.5795874  22.5769046  62.7545544  27.9345551  21.9914202
  63.6073007  28.5232491  22.8894458  62.9092843  28.4754841  22.5365995
  62.7522451  33.7904685  13.2317814  62.3538734  33.9006955  12.4638634
  62.1373670  33.9986751  13.8144374  62.6021340  33.8378253  13.2049113
  61.3250353  20.3978833   6.0991954  60.7315192  20.7195829   5.5476521
  61.3625630  19.5519928   5.8913060  61.2424742  20.3203161   5.9874725
  64.2008169  20.3558337   9.5293704  63.9721862  20.3791039   8.6872062
  64.4606245  19.5315804   9.6488714  64.2054357  20.2374417   9.4218901
  58.4827398  22.2092810  19.1318804  57.9706301  21.6013993  19.4903835
  58.3106894  22.9249403  19.5992780  58.3817035  22.2256110  19.2535028
  53.3293112  20.6530386  21.7821166  53.1595703  21.3131760  21.2369372
  52.8859062  20.8636947  22.5033655  53.2392446  20.7816368  21.8082795
  57.2552932  18.8934883  10.8247899  57.7310298  19.2551963  10.1898081
  56.7541531  19.5491351  11.1048042  57.2518291  19.0429072  10.7724640
  62.3596468  20.1317055  21.5721059  62.9167898  19.9030864  20.9399525
  62.0357533  20.8922720  21.2956272  62.3942878  20.2100892  21.4377557
  50.2295177  23.5577251  17.0409656  49.6821896  22.8877897  17.1590524
  51.0187555  23.1907099  17.1053123  50.2647361  23.4042238  17.0678356
  60.0779585  23.2184708  22.5373067  60.8290912  23.5336385  22.8512621
  60.2702162  23.0163879  21.7106988  60.2170999  23.2352090  22.4616462
  59.2979585  21.0376083   4.1921283  59.6778550  21.0555712   3.4072398
  58.5572181  21.4830072   4.0712131  59.2448423  21.1057858   4.0584852
  66.9264875  19.3458274   9.7796862  66.9259102  19.1906931  10.6381138
  66.7221056  20.1921262   9.7238248  66.8964653  19.4478895   9.8984801
  48.9882146  22.7698059  14.1955679  48.8103908  22.3174668  14.9210594
  48.7001169  23.5724220  14.3794156  48.9195100  22.8220617  14.3299181
  64.6505728  24.0255776  13.4333069  65.1459393  23.3078771  13.3937089
  63.8405503  23.7226574  13.3187556  64.6049621  23.8753423  13.4106795
  60.0964339  27.8753590   5.5830073  59.2875662  27.5520263   5.5363383
  60.6039248  27.1686812   5.5158322  60.0514006  27.7234906   5.5660368
  50.7254616  25.3025783  11.3077438  49.8600136  25.2911473  11.1960209
  50.8253432  25.1156006  12.1548577  50.6128783  25.2731844  11.4166382
  66.7157546  26.7759464  16.1210198  67.1412618  26.2533886  15.5680623
  66.3514466  27.3740301  15.5998821  66.7244149  26.7869691  15.9619207
  56.3511626  35.0723681  14.8807543  56.6658185  35.8860070  14.8885325
  56.7605040  34.6873900  15.5489702  56.4579724  35.1352384  14.9811635
  63.3036146  30.4893728  12.4511355  63.7747324  31.2033991  12.6201340
  63.6396324  29.8892478  12.9871225  63.4231261  30.5065192  12.5543731
  65.3913130  32.0995041  24.6303427  65.5010096  31.3103602  24.9860174
  65.7204027  32.0100978  23.8277765  65.4565536  31.9700894  24.5645818
  63.9410092  30.2811662  19.2139048  63.3931038  29.6569546  18.9459113
  64.4023121  30.4705934  18.4983127  63.9277302  30.2170712  19.0689479
  63.2937996  12.1851525  16.0050543  62.4883960  12.0749254  16.3218382
  63.1644731  12.2863980  15.1480409  63.1558129  12.1835195  15.9258584
  66.7503957  18.3497017  16.5990240  66.1666945  18.8506223  16.1867807
  67.0708251  17.8426573  15.9654563  66.7117132  18.3488852  16.4448747
  59.2898756  17.2637611   6.8748915  60.1114450  17.4335924   6.6330610
  58.8268407  17.4184872   6.1515212  59.3429918  17.3119344   6.7320559
  57.8794088  15.2580374  17.6547344  58.4238501  14.9171500  18.2451685
  57.9331023  16.1165835  17.7968628  57.9683207  15.3335633  17.7629217
  53.6924646  29.0196790  14.5286152  54.2969504  28.9792624  13.8999972
  53.4851959  29.8667942  14.5590207  53.7513544  29.1384792  14.4402268
  63.5068418  31.2862735  15.7448389  64.3266792  31.1425701  16.0064684
  63.2262496  31.9108934  16.2864827  63.5865162  31.3573087  15.8636328
  48.9275929  28.0031407  14.3985075  48.8300207  27.1927679  14.7075131
  49.7104798  27.9823201  14.0131343  49.0292065  27.8798497  14.3871938
  73.1781754  38.0303238  13.4644196  72.3219649  38.1911736  13.5153313
  73.2249407  37.1595302  13.4849257  73.0580865  37.9254039  13.4750262
  67.5622893  47.5665955   9.2281427  66.8105793  47.1881494   8.9997472
  68.0108905  47.5984389   8.4800238  67.5172560  47.5151563   9.0838930
  76.4875470  44.2989763  23.0704652  77.1942237  43.8041794  23.1991586
  76.6763406  44.7398845  22.3407310  76.6203376  44.2908114  22.9813697
  76.0233575  40.0895282  16.1075847  76.5689535  40.7680368  16.1669817
  75.9650451  39.9482742  15.2477429  76.0949489  40.1687283  15.9887908
  69.1407650  47.5784348  11.4944200  69.2418012  46.7684702  11.8041328
  68.5449395  47.4841294  10.8643878  69.0680188  47.4449376  11.4470438
  68.9808389  52.4961937  12.8959056  69.6245845  52.9375101  13.2855214
  69.3064645  51.6915363  12.8089315  69.1240218  52.4427132  12.9404533
  62.3372694  43.6004634  11.1196534  62.1022878  42.7672287  11.0128802
  62.4758335  43.8809300  10.3057734  62.3228356  43.5188138  10.9838888
  64.6362781  35.7690365  14.0180841  64.0167813  35.1783012  13.8490856
  64.5346645  36.3601800  13.3845164  64.5300457  35.7694447  13.8985831
  71.7330677  37.5089907   8.3513304  72.4310842  37.6878034   8.8434768
  72.0483009  36.9860246   7.7283694  71.8826014  37.4583679   8.3315314
  64.3631914  39.3142646  16.2624410  64.2390611  39.9005092  16.8974229
  65.0150199  38.8202842  16.5636685  64.4405564  39.3281451  16.4010339
  71.9218612  43.8960352   8.3393096  72.3612248  43.2877452   8.7847869
  71.7723275  43.5167725   7.5678561  71.9640078  43.7498823   8.2912263
  69.3890255  42.4904363  15.5411921  70.0339258  41.9976807  15.2222870
  69.6292032  42.6329150  16.3678000  69.5200840  42.4381806  15.6161454
  71.9276347  45.3359269  15.1918814  72.2099590  44.5410675  14.9705570
  72.6562507  45.8139857  15.2123875  72.0765910  45.2893866  15.1621829
  69.9057541  32.8782303  12.4334579  69.5760871  33.3293447  11.7638278
  69.2302542  32.7998467  12.9807585  69.7567977  32.9333438  12.4157802
  63.8990019  48.4790305  12.3952740  63.4157597  49.2040795  12.3712323
  64.7113337  48.7766435  12.5062897  63.9480766  48.6292659  12.4080019
  69.9704173  47.2722486  15.0002554  69.4531114  46.9129901  14.3963862
  70.6678564  46.7484660  15.0108620  69.9969754  47.1420174  14.9132813
  73.6267765  47.7217300  20.9618727  73.7151110  47.5343440  21.8096938
  74.0557477  47.0754729  20.5623574  73.7029867  47.5980307  21.0290479
  71.1938224  47.0048460  19.9436389  70.6309059  46.5921070  20.4676051
  71.9559248  46.9301365  20.3629533  71.2232673  46.9325860  20.0829390
  68.1113495  30.9394592   7.9157527  68.8659463  31.3072909   7.6774577
  67.9341029  31.3134146   8.6836706  68.1967973  31.0492780   7.9942415
  66.7534216  48.9946481  12.5473019  67.4554795  48.4798470  12.6045776
  66.6731699  49.3220632  13.3519895  66.8457976  48.9660707  12.6745812
  67.8013122  39.2322068  21.6753435  67.9733626  39.1227962  22.5238716
  68.3382480  39.8776473  21.4384627  67.9058126  39.3114069  21.7658531
  66.4670559  33.3464911   4.6135640  66.2846132  33.5636791   3.7876632
  67.3296172  33.4603923   4.6694254  66.5675149  33.3954809   4.4990127
  66.0784991  45.1852833  12.0558628  66.9173891  45.4175766  12.1032389
  66.1096760  44.3157144  11.9865663  66.2066709  45.0909779  12.0523272
  66.7037694  45.6053708  16.3571933  67.2435919  45.4624839  17.0275305
  66.0207641  46.0050459  16.7255959  66.6829848  45.6433379  16.5106355
  76.1278579  41.2844709  11.5516957  76.8836094  41.7176223  11.5905866
  76.2340904  40.6349478  12.1251593  76.2548750  41.2522193  11.6414983
  73.7387824  47.1526319  23.6262511  74.5228240  47.2657167  23.9918253
  73.5384418  46.3267456  23.8221197  73.8253849  47.0473038  23.7096897
  62.1074839  41.8253999  16.5106355  61.8413255  41.0093116  16.6697345
  62.1213403  41.8707154  15.6401870  62.0699562  41.7110904  16.4059837
  66.0132586  36.6239083   3.1258113  65.2990763  36.3377263   3.5380545
  66.4976555  36.9635709   3.7664500  65.9791950  36.6320733   3.2813748
  66.8573446  35.3632377  19.1573362  66.1645242  34.8929357  19.4034094
  67.4733773  35.1370682  19.7315069  66.8457976  35.2599509  19.2782515
  73.8958217  49.0636421  17.2728966  73.0973463  48.8235921  17.5302835
  74.3444229  49.1150814  18.0196014  73.8432828  49.0358812  17.4213891
  62.5168253  42.6112778  13.7918099  62.3343826  42.5859664  12.9390391
  63.2517922  43.0811716  13.8307008  62.5982317  42.6774140  13.6716017
  65.5814005  39.3297781  20.3000208  66.3053977  39.3150812  20.7865102
  65.6830141  40.0393136  19.8022176  65.7032214  39.4322484  20.2978994
  72.9558954  42.8096866  25.1649155  72.1631935  43.1240378  25.3501774
  73.0707881  43.0248334  24.3269939  72.8554365  42.8880702  25.0687489
  75.6290273  39.5330857   9.4544170  75.7237127  40.2720151   9.9083796
  75.0049117  39.1048332   9.8878735  75.5499303  39.5792177   9.5852318
  73.8842747  42.7117069  20.1034451  74.4581609  42.0744314  20.2583015
  73.8057551  42.7121152  19.2344109  73.9575982  42.6182181  19.9980862
  62.4839163  39.4906279  13.9417165  63.0612666  39.3542730  14.5809411
  61.7853225  39.0342063  14.1962750  62.4660185  39.4028545  14.0739455
  69.2406465  41.1440335  12.1555649  68.9825710  40.3112069  12.1286948
  69.2954948  41.3697948  11.3148149  69.2106243  41.0538106  12.0275785
  74.3207516  33.2468785  12.2559741  73.6163842  32.7577971  12.4143660
  74.3692490  33.2591260  11.3848186  74.2237567  33.1758433  12.1499081
  68.2141178  38.6978097  12.6420543  67.6390769  38.8570265  13.2784504
  67.8376854  38.0613506  12.1788994  68.0743990  38.6275910  12.6675102
  71.8814466  37.1701446  17.5012922  71.4928899  36.7455664  16.8465113
  71.2169165  37.4183596  18.0089948  71.7261394  37.1440167  17.4800790
  57.9597997  38.3418172  10.6564984  58.0458248  37.9650040  11.4378514
  58.5873794  37.9678617  10.1784942  58.0654547  38.2303654  10.7010461
  75.7040828  30.8676075  15.0136906  76.0851340  30.1854246  15.4004780
  74.9004112  30.5785677  14.8312571  75.6417290  30.7243124  15.0440962
  68.8561313  44.8721568  10.8262041  69.4935260  44.6333316  11.3713834
  69.2816384  45.0758727  10.0915201  69.0137479  44.8672579  10.7979198
  63.5473955  47.1109905  14.7096345  63.5878100  47.3824756  13.8816124
  64.1068479  47.6351813  15.1254133  63.6357301  47.2285660  14.6488233
  69.4964128  40.0923858   5.1636930  69.8809281  39.8731565   5.9153475
  69.2475748  40.9186804   5.2938007  69.5166200  40.1822004   5.2938007
  69.6632668  33.3730273  24.8799515  69.3486109  34.1429836  24.6169077
  69.3422601  32.8100529  24.2951741  69.5691587  33.4040542  24.7540864
  71.2382785  45.3493991  12.5055827  71.3121793  45.1869163  13.3597677
  72.0552291  45.5384181  12.2616309  71.3699143  45.3530733  12.5953853
  64.9988541  45.6951854   9.5350271  64.1726659  45.9413591   9.4084549
  65.0600533  45.6163935  10.4012329  64.8862708  45.7196803   9.6439215
  67.2164565  31.7620795  10.4945711  66.3486991  31.8343394  10.5603320
  67.5039770  32.5642874  10.6833686  67.1304313  31.8914942  10.5320477
  76.3397454  31.9098654  18.8257033  77.0851046  31.7208465  18.4120458
  75.9234759  32.4356892  18.2670889  76.3882428  31.9600800  18.6821606
  70.3682116  43.1146480  18.3222431  69.8693809  43.8262248  18.4007319
  71.1782340  43.4347147  18.2840593  70.4138222  43.2673329  18.3279000
  67.7193286  50.2896117  10.3029450  67.4993581  49.9993471  11.0956117
  67.4987808  49.6311072   9.7747363  67.6540880  50.1495825  10.3418359
  66.6310233  42.3769433  12.5685152  66.3423482  41.7506904  13.1030879
  67.4993581  42.3189720  12.6349832  66.7170485  42.2756977  12.6576107
  77.4188131  37.5204216  12.8867134  77.0752897  36.7994552  13.2374383
  77.5181174  37.3118068  12.0445492  77.3830174  37.3828420  12.8138814
  66.8342507  44.0164684   8.4927517  67.5888475  44.3977723   8.7062980
  66.2413119  44.4675828   8.9474214  66.8579220  44.1393511   8.5910395
  69.2949174  35.9727524  23.6184729  68.4848949  36.2785304  23.5074572
  69.7723860  36.6933107  23.7337313  69.2452652  36.1242126  23.6191800
  68.1540733  45.1873245  13.8667632  67.6321487  45.3273537  14.5519497
  68.5414754  44.4283910  14.0569750  68.1344434  45.0958769  13.9968709
  65.1431917  35.2379054   7.9362587  64.8556713  34.8680325   7.1994534
  65.8302385  35.7073909   7.6746292  65.2020815  35.2526024   7.7877663
  69.5807059  42.2177264   9.2649123  69.3849841  42.8251999   8.6709426
  69.8041404  41.5245208   8.7840797  69.5841700  42.2054790   9.1065204
  67.9785589  39.1032002   9.3829992  68.7008241  39.2673160   8.9233798
  67.4993582  39.8241667   9.2769332  68.0149320  39.2330232   9.2995606
  75.9379096  35.4395801  14.7626677  75.0990197  35.4657080  14.5264940
  76.0083464  36.0866537  15.3432023  75.8247490  35.5391927  14.8135794
  65.6293206  41.5090075  18.4884132  66.1414302  41.7874328  17.8392891
  65.3429548  42.2479369  18.8546945  65.6628069  41.6592428  18.4474010
  74.3848375  32.3381178   9.4954293  75.0874728  32.1388926   9.0174251
  74.1192563  31.5657121   9.8023136  74.4495007  32.1944144   9.4699734
  62.7160112  36.0160267   8.7847868  62.8176248  36.8186428   9.1128844
  63.5115999  35.8147603   8.4870949  62.8488017  36.1046165   8.7883223
  69.1476931  33.6016463  18.5485173  68.9560128  33.6171598  19.3984597
  69.9975527  33.7980138  18.5251828  69.2452653  33.6330815  18.6708468
  63.5323844  36.1307445  16.5268990  63.3909336  35.2791385  16.6513498
  63.8164407  36.1736105  15.7031196  63.5531690  36.0107195  16.4236614
  73.6862436  37.9674535  10.6713478  73.4397151  37.8870286  11.5050267
  74.0147559  37.1828003  10.4776005  73.6983680  37.8400800  10.7661001
  77.5810485  44.6757894  14.4600259  77.4424844  45.3738940  14.9649002
  76.8010483  44.5206551  14.1036441  77.4453712  44.7558061  14.4826533
  75.9188570  40.9754270  20.7122641  75.9136609  40.1034086  20.7165067
  76.6249564  41.1742439  20.2392097  76.0233574  40.8758144  20.6429676
  69.6459464  40.7031254  20.0836461  69.7902839  41.2832462  19.4479571
  69.9935112  41.0807550  20.7886316  69.7186925  40.8451958  20.0935456
  71.8179381  39.9021422  17.8661593  71.0702695  40.0952436  17.4609871
  71.9720906  39.0766642  17.6285714  71.7301809  39.8086533  17.7706998
  68.7187219  48.8934025  16.9497488  68.8676782  48.3336941  16.2970892
  69.4987221  48.9726027  17.3330007  68.8561312  48.8219591  16.9094437
  71.2440519  49.0648668  18.2281979  71.1684190  48.3957479  18.7832767
  71.1730378  49.7666456  18.7422645  71.2221126  49.0693576  18.3858827
  64.3014149  34.0437792  19.8446440  63.7656339  33.4318151  20.1607207
  64.3631914  34.6185928  20.4980107  64.2309782  34.0384720  19.9881867
  69.9363536  35.7874077  15.5998820  69.1459611  35.6065537  15.9216156
  70.3324159  35.0101029  15.5829115  69.8780412  35.6461538  15.6451369
  75.3207222  43.4216507  13.3258266  74.6452224  43.1901739  13.8271653
  75.3299598  42.8137690  12.7000371  75.2225727  43.2975432  13.3074419
  72.4501366  38.2634336  20.0822319  72.3860507  39.1244292  19.9542456
  72.5898554  37.9466329  19.2817871  72.4616836  38.3434502  19.9450532
  71.1320460  40.9566475  14.2238522  70.7082709  41.1570974  13.4877541
  70.9565315  40.1095323  14.3362822  71.0431341  40.8615257  14.1312212
  70.6332154  52.4716988  16.6859980  71.1228084  51.7727777  16.5035644
  70.0616386  52.1740858  17.2736037  70.6216683  52.3243212  16.7461020
  66.4202905  41.4518527   9.6566495  66.5767524  41.3865329  10.5122487
  66.7603498  42.2267079   9.4445174  66.4936140  41.5567725   9.7521089
  72.9582050  40.8276410   8.5259858  73.4997595  40.3246791   8.9898479
  73.2728609  40.7741605   7.7149343  73.0846447  40.7455831   8.4743670
  76.8299157  45.0379057  25.6386770  77.6434022  44.7664206  25.7991903
  76.6694123  44.7386597  24.8346966  76.9269106  44.9533983  25.5432176
  74.1071319  35.7212715  18.5782158  74.3213289  35.0823629  18.0245512
  73.4905218  36.1658538  18.1490020  74.0476648  35.6922858  18.4332590
  62.9937167  38.6353477   9.9727262  63.3736131  39.0538022   9.3087529
  62.4192531  39.2166933  10.2796105  62.9648491  38.7831336   9.9204003
  76.2710407  37.3301780  19.5165466  75.4587089  37.0227670  19.5978638
  76.7300342  36.8500780  20.0808178  76.2190792  37.2138272  19.6120060
  73.4986048  28.8312650  13.5669501  72.6279606  28.8051371  13.5202811
  73.7526389  28.6589842  12.7495347  73.4079608  28.8022794  13.4389638
  73.3663915  38.7361851  24.2994168  73.8363546  39.3603968  24.6862042
  73.4125795  38.0678827  24.8587383  73.4431790  38.7296532  24.4394239
  70.5235188  30.8418879  15.0242972  70.0073677  30.1499070  15.1494551
  69.9629117  31.5089656  14.9705570  70.3641701  30.8382136  15.0349038
  72.5927422  31.3811839  16.8535824  72.2059175  31.4060870  17.6349354
  72.1060359  30.8153517  16.4010341  72.4639931  31.3007590  16.9023728
  76.8420401  46.0985348  20.9109611  77.4800122  45.6045543  20.5772067
  76.1994493  46.0262748  20.3261838  76.8414628  46.0144356  20.7751966
  78.5677401  37.9474494  15.4775526  78.1405009  37.8600842  14.7223626
  77.9303454  38.0552269  16.0630370  78.4107008  37.9507154  15.4520968
  72.2584563  28.2678824  19.1446084  72.8877681  28.8039124  18.8667154
  72.4270426  28.1756183  19.9959650  72.3762358  28.3340186  19.2294612
  72.0598478  33.0550019  21.4172496  72.8871908  32.7835168  21.4731110
  72.0806324  33.8510861  21.7736314  72.1851328  33.1329773  21.4787679
  76.8974658  46.7905156  17.5514967  77.6867036  46.4394221  17.6717049
  77.0718255  47.6041544  17.2891601  77.0394939  46.8591013  17.5302835
  66.6367968  40.2013882  14.6042756  65.7955975  40.1017756  14.8121650
  66.8457976  40.9709362  14.9557077  66.5432661  40.3005925  14.6870071
  64.1143535  37.8233419  12.4327507  63.7200233  37.8976431  11.6577617
  63.5583652  38.2091365  12.9835869  63.9746347  37.8915193  12.3995167
  75.7508482  30.8014713  12.1131386  75.9558075  30.7337021  12.9588383
  75.4234906  31.6073534  12.0452563  75.7323730  30.9100653  12.2291041
  70.4484633  38.1295281  13.8540354  70.1447770  37.5751269  14.4550762
  69.7464054  38.3087491  13.3668388  70.3000843  38.0740063  13.8710059
  69.5050730  35.4395801   8.4185056  69.7810464  34.7214713   8.0062623
  70.1049399  36.0380721   8.2106162  69.6343995  35.4216171   8.3265817
  68.5102984  45.3445002  18.5612452  68.4023339  45.3547064  19.4274510
  68.7198765  46.1699782  18.3717405  68.5253095  45.4686076  18.6616543
  66.5276776  42.5957644  16.0234389  65.9364709  43.2367142  15.9937404
  67.2897799  43.0195261  15.9965689  66.5525037  42.7533482  16.0149536
  66.9237399  33.7559642  16.6902407  67.3838880  33.8298571  17.4277531
  66.9693505  34.5540896  16.3402228  66.9987954  33.8853789  16.7475163
  68.5720748  34.4226337  21.2574434  68.1806314  33.7759684  21.6930212
  68.7406611  35.0137772  21.8768689  68.5391659  34.4140605  21.4137140
  76.2866292  48.0466956  13.4566414  76.0885981  48.5357770  12.7622625
  75.6654003  48.2508197  14.0350547  76.1653857  48.1483494  13.4389637
  70.3474271  39.8151852   7.7976658  71.0916315  40.2026129   8.0359608
  70.4934967  38.9709278   7.9617146  70.4784856  39.7482325   7.8570628
  72.2653846  31.6102111  12.8308519  71.4189891  31.7824919  12.7049869
  72.2624978  30.8051455  13.1674348  72.1400996  31.5163140  12.8619646
  73.3352146  35.3877326  13.6970577  72.8612101  34.8619088  14.2075888
  73.7070282  34.8406799  13.1285439  73.3202035  35.2293322  13.6885724
  63.7125177  37.3848832  19.0654123  64.5750790  37.2844542  18.9791453
  63.3816960  36.8043542  18.5039695  63.7910373  37.2840459  18.9699529
  67.0726963  36.2091281  15.7264541  66.4480033  36.2209673  15.1190494
  66.7372557  36.6851457  16.3755781  66.9312454  36.2809798  15.7321110
  67.2568711  34.5516400   1.7837226  66.9081516  35.2036125   2.2468776
  66.7765157  34.5373513   1.0561097  67.1338955  34.6459454   1.7448318
  63.7852638  44.2691742  17.1668306  63.2552563  43.5784181  17.2163280
  64.0577731  44.2601927  16.3381014  63.7477360  44.1658873  17.0515721
  73.9858884  41.7114986  17.1406677  73.3715877  41.1673036  17.4355312
  74.5026169  41.1979223  16.6612493  73.9714546  41.5551395  17.1130906
  73.2255181  42.7819256  14.8750976  72.7982789  42.1568975  14.4416411
  73.2180125  42.4994178  15.7009983  73.1614322  42.6472037  14.9330803
  66.3417708  37.8184429  17.9439410  66.5011195  37.0627753  18.3491132
  66.1610601  38.3675369  18.5980147  66.3383067  37.7878243  18.1002116
  74.2838011  29.9845665  18.4990199  73.7878572  30.1809339  17.8081766
  75.0407073  30.3838333  18.3279001  74.3224836  30.0723399  18.3710336
  71.5540890  33.6588011  15.0893510  71.5783378  33.1248123  14.4006290
  71.8052364  33.1505320  15.7519100  71.5950809  33.5048915  15.0858154
  59.0648480  40.9419506  14.5236654  58.9591929  40.8966350  13.6588738
  58.3148700  41.2873286  14.8050939  58.9384083  40.9860414  14.4373984
  67.8342213  32.3858829  14.4699254  67.8740584  32.8868036  15.1833961
  67.0091877  32.4769223  14.2005177  67.7181739  32.4740645  14.5349792
  70.0171826  41.9519569  22.5719549  69.1667456  42.0891283  22.7077194
  70.1799953  41.2183347  23.0167250  69.9155689  41.8633670  22.6575148
  69.2556576  38.9019339  16.7673153  68.4248506  39.0693157  16.5608401
  69.2008093  38.5255290  17.5522038  69.1245991  38.8709070  16.8521681
  67.0640359  32.3928232  22.4029564  67.6893063  31.8490365  22.6758996
  66.6090839  31.9123149  21.8337354  67.0888620  32.2417713  22.3591158
  67.6292620  37.1774930   7.2963271  67.7695581  37.6747395   7.9991912
  68.1275153  36.4761225   7.4377484  67.7233701  37.1476909   7.4214850
  67.6592842  38.0442041   4.6255848  68.2937922  38.6402466   4.5605309
  67.7418453  37.7445499   5.4401718  67.7649393  38.0882950   4.7358934
  69.2371825  33.9756017   4.6001290  69.5587666  33.4959099   3.9460552
  69.4998769  34.7855663   4.4092101  69.3237851  34.0245915   4.4756782
  72.4668798  44.9974891  18.1200106  71.9593889  45.5510738  18.5640736
  72.1695444  45.0583181  17.3018880  72.3473683  45.0881202  18.0648562
  74.6330980  33.3628211  16.9624769  75.0586052  32.9100737  16.3508295
  74.0187973  32.8088281  17.2389556  74.6059626  33.2142187  16.9129794
  64.1645830  40.2409882   7.8945394  64.6738060  40.8374390   8.2756699
  64.6380102  39.9735856   7.2121813  64.3089206  40.2895698   7.8499916
  73.0725203  29.8343311  10.3715346  72.4293521  29.6840957  10.9400484
  72.7324610  29.5885656   9.6064450  72.9270280  29.7755433  10.3418361
  77.6624549  37.7902737   9.7945354  76.9915739  38.3332440   9.6658420
  78.3564300  38.2597593   9.5527049  77.6653417  37.9401009   9.7400882
  71.7111283  49.9299449  15.0257113  71.4876938  49.1718279  15.3941139
  71.2221126  49.9597471  14.3037552  71.6054732  49.8221674  14.9733854
  77.8252677  34.2458621  12.7035728  78.1780287  33.8188344  13.3781526
  76.9667478  34.1609465  12.8336804  77.7502122  34.1703362  12.8230738
  66.5236362  36.8766141  10.7618574  65.8048351  37.2930273  11.0291438
  66.8948724  37.4420379  10.2110212  66.4728294  37.0215422  10.7201381
  75.8235943  37.5093990  16.6520570  75.8033870  37.3277285  17.5055349
  75.8715143  38.3806008  16.6280153  75.8270584  37.6110528  16.7743864
  73.7682273  44.0981182  22.5769046  73.7278127  43.4530859  21.9914202
  74.5805591  44.0417799  22.8894458  73.8825426  43.9940148  22.5365995
  70.3589740  50.1499908  12.4794197  69.9450139  49.4874038  12.0898039
  71.0437114  50.2977766  11.9589891  70.3988112  50.0740566  12.3450694
  73.7255034  49.3089993  13.2317814  73.3271317  49.4192263  12.4638634
  73.1106254  49.5172059  13.8144374  73.5753924  49.3563561  13.2049113
  72.2982936  35.9164141   6.0991954  71.7047776  36.2381137   5.5476521
  72.3358214  35.0705236   5.8913060  72.2157325  35.8388469   5.9874725
  75.1740753  35.8743645   9.5293704  74.9454446  35.8976347   8.6872062
  75.4338829  35.0501112   9.6488714  75.1786941  35.7559725   9.4218901
  69.4559981  37.7278118  19.1318804  68.9438884  37.1199301  19.4903835
  69.2839477  38.4434711  19.5992780  69.3549618  37.7441417  19.2535028
  64.3025696  36.1715693  21.7821166  64.1328286  36.8317068  21.2369372
  63.8591646  36.3822255  22.5033655  64.2125030  36.3001676  21.8082795
  68.2285515  34.4120191  10.8247899  68.7042882  34.7737271  10.1898081
  67.7274115  35.0676659  11.1048042  68.2250874  34.5614380  10.7724640
  73.3329052  35.6502363  21.5721059  73.8900482  35.4216172  20.9399525
  73.0090117  36.4108028  21.2956272  73.3675462  35.7286199  21.4377557
  61.2027761  39.0762559  17.0409656  60.6554480  38.4063205  17.1590524
  61.9920139  38.7092407  17.1053123  61.2379944  38.9227545  17.0678356
  71.0512169  38.7370016  22.5373067  71.8023496  39.0521693  22.8512621
  71.2434745  38.5349187  21.7106988  71.1903583  38.7537398  22.4616462
  70.2712169  36.5561391   4.1921283  70.6511133  36.5741020   3.4072398
  69.5304765  37.0015380   4.0712131  70.2181006  36.6243166   4.0584852
  77.8997459  34.8643582   9.7796862  77.8991685  34.7092239  10.6381138
  77.6953639  35.7106569   9.7238248  77.8697237  34.9664203   9.8984801
  59.9614730  38.2883367  14.1955679  59.7836491  37.8359976  14.9210594
  59.6733752  39.0909528  14.3794156  59.8927683  38.3405925  14.3299181
  75.6238311  39.5441084  13.4333069  76.1191976  38.8264079  13.3937089
  74.8138087  39.2411882  13.3187556  75.5782204  39.3938730  13.4106795
  61.6987200  40.8211091  11.3077438  60.8332719  40.8096781  11.1960209
  61.7986016  40.6341313  12.1548577  61.5861367  40.7917152  11.4166382
  77.6890130  42.2944772  16.1210198  78.1145202  41.7719194  15.5680623
  77.3247050  42.8925609  15.5998821  77.6976733  42.3054999  15.9619207
  67.3244210  50.5908989  14.8807543  67.6390769  51.4045378  14.8885325
  67.7337623  50.2059208  15.5489702  67.4312308  50.6537692  14.9811635
  74.2768729  46.0079036  12.4511355  74.7479908  46.7219299  12.6201340
  74.6128908  45.4077786  12.9871225  74.3963844  46.0250500  12.5543731
  76.3645714  47.6180349  24.6303427  76.4742679  46.8288910  24.9860174
  76.6936611  47.5286286  23.8277765  76.4298120  47.4886202  24.5645818
  71.1938224  30.7806507  19.4069450  71.3266130  29.9837500  19.7350425
  71.5783377  31.3072910  19.9867726  71.2694553  30.7406423  19.5412953
  74.9142676  45.7996970  19.2139048  74.3663622  45.1754854  18.9459113
  75.3755704  45.9891242  18.4983127  74.9009885  45.7356020  19.0689479
  74.2670580  27.7036833  16.0050543  73.4616543  27.5934562  16.3218382
  74.1377315  27.8049288  15.1480409  74.1290712  27.7020503  15.9258584
  77.7236540  33.8682325  16.5990240  77.1399529  34.3691531  16.1867807
  78.0440834  33.3611881  15.9654563  77.6849715  33.8674160  16.4448747
  70.2631339  32.7822919   6.8748915  71.0847034  32.9521232   6.6330610
  69.8000990  32.9370180   6.1515212  70.3162501  32.8304652   6.7320559
  68.8526671  30.7765682  17.6547344  69.3971084  30.4356808  18.2451685
  68.9063607  31.6351143  17.7968628  68.9415791  30.8520941  17.7629217
  64.6657230  44.5382098  14.5286152  65.2702087  44.4977932  13.8999972
  64.4584542  45.3853250  14.5590207  64.7246127  44.6570100  14.4402268
  74.4801002  46.8048043  15.7448389  75.2999376  46.6611009  16.0064684
  74.1995080  47.4294242  16.2864827  74.5597745  46.8758395  15.8636328
  59.9008512  43.5216715  14.3985075  59.8032790  42.7112987  14.7075131
  60.6837382  43.5008509  14.0131343  60.0024649  43.3983805  14.3871938
  75.6095365  51.2875673  14.0180841  74.9900397  50.6968320  13.8490856
  75.5079228  51.8787108  13.3845164  75.5033040  51.2879755  13.8985831
  75.3364498  54.8327954  16.2624410  75.2123195  55.4190400  16.8974229
  75.9882782  54.3388150  16.5636685  75.4138147  54.8466759  16.4010339
  73.0807423  57.3439307  16.5106355  72.8145838  56.5278423  16.6697345
  73.0945987  57.3892462  15.6401870  73.0432145  57.2296212  16.4059837
  77.8306029  50.8817685  19.1573362  77.1377826  50.4114665  19.4034094
  78.4466357  50.6555990  19.7315069  77.8190559  50.7784817  19.2782515
  76.5546588  54.8483089  20.3000208  77.2786561  54.8336120  20.7865102
  76.6562725  55.5578444  19.8022176  76.6764797  54.9507792  20.2978994
  76.6025789  57.0275383  18.4884132  77.1146886  57.3059636  17.8392891
  76.3162132  57.7664677  18.8546945  76.6360652  57.1777736  18.4474010
  74.5056428  51.6492753  16.5268990  74.3641919  50.7976693  16.6513498
  74.7896991  51.6921413  15.7031196  74.5264274  51.5292503  16.4236614
  75.2746733  49.5623100  19.8446440  74.7388922  48.9503459  20.1607207
  75.3364498  50.1371236  20.4980107  75.2042365  49.5570028  19.9881867
  77.8969982  49.2744950  16.6902407  78.3571464  49.3483879  17.4277531
  77.9426089  50.0726204  16.3402228  77.9720538  49.4039097  16.7475163
  74.6857760  52.9034140  19.0654123  75.5483373  52.8029850  18.9791453
  74.3549543  52.3228850  18.5039695  74.7642956  52.8025767  18.9699529
  78.0459546  51.7276589  15.7264541  77.4212616  51.7394981  15.1190494
  77.7105141  52.2036765  16.3755781  77.9045038  51.7995106  15.7321110
  77.3150291  53.3369737  17.9439410  77.4743778  52.5813061  18.3491132
  77.1343185  53.8860677  18.5980147  77.3115650  53.3063551  18.1002116
  75.2758280  51.6901001  21.7821166  75.1060870  52.3502376  21.2369372
  74.8324229  51.9007563  22.5033655  75.1857613  51.8186984  21.8082795
  72.1760344  54.5947867  17.0409656  71.6287064  53.9248513  17.1590524
  72.9652722  54.2277715  17.1053123  72.2112528  54.4412853  17.0678356
  70.9347314  53.8068675  14.1955679  70.7569075  53.3545284  14.9210594
  70.6466336  54.6094836  14.3794156  70.8660267  53.8591233  14.3299181
   4.4667045  45.7818617  47.6336485   4.4361050  46.6363253  47.8054755
   5.0648394  45.4813909  48.1922629   4.5504203  45.8635113  47.7411288
   0.9760447  51.1380793  61.9949872   1.6827214  50.6432824  62.1236806
   1.1648382  51.5789875  61.2652530   1.1088352  51.1299144  61.9058917
   0.5118551  46.9286311  55.0321067   1.0574511  47.6071398  55.0915037
   0.4535427  46.7873772  54.1722649   0.5834465  47.0078313  54.9133128
   2.2883620  48.3570919  45.9054795   2.1723146  49.1078605  46.3346933
   3.0839506  48.0994872  46.1550882   2.3888209  48.4305765  46.0058887
   1.6018925  35.7058856  49.6029410   1.2872366  36.3962335  50.0349832
   1.0845866  35.6503638  48.9014910   1.4783395  35.7993745  49.5626359
   0.9431359  45.7063357  45.7166820   0.4142830  45.9222991  46.3764126
   1.4656378  46.3999495  45.6367790   0.9419812  45.8406494  45.8022419
   6.3979411  51.2809661  51.0899865   5.5677115  51.4920305  51.2533281
   6.3488664  50.4546716  50.8142148   6.2686147  51.1899268  51.0737230
   5.8933370  43.9280062  54.8850286   5.0561791  43.9982249  55.1197880
   5.8621601  43.9304557  54.0124588   5.7651652  43.9390289  54.7909834
   0.6163556  48.1235739  50.4762177   1.3721071  48.5567253  50.5151086
   0.7225880  47.4740508  51.0496813   0.7433726  48.0913222  50.5660203
   3.6543727  51.9509016  51.2264580   3.2178959  51.9545758  51.9823552
   3.3206642  52.6314515  50.7944158   3.5406347  52.0521472  51.2745413
   3.5741210  38.9922844  53.4694008   4.2167118  39.0620948  54.0555924
   3.8264230  38.3252067  52.9673550   3.7063342  38.9049192  53.4821288
   6.7888073  48.6689936  50.1184218   7.4504507  48.1080604  50.0180126
   6.1479485  48.1741967  50.4436909   6.7916940  48.5126345  50.1516558
   3.0752904  49.6855318  49.8596206   3.3108493  49.8300517  49.0323057
   3.2242467  50.4497726  50.2527720   3.1318707  49.8194373  49.7959810
   4.9043360  48.5256984  47.6965810   5.2351577  49.0584624  47.0905905
   5.4776448  48.5795872  48.3527761   5.0377039  48.6126553  47.7043592
   0.3698271  48.2170627  41.6126342   0.2878433  48.2872814  42.4781329
   1.0077991  48.7800371  41.4210083   0.4518108  48.3109598  41.7116292
   6.0122712  43.7667481  49.2005972   5.7559277  42.9547422  49.0103855
   6.8552026  43.7745048  48.9736159   6.0988737  43.6479478  49.1390789
   3.6947871  50.9217077  59.0364524   3.4586509  50.0905142  58.9176585
   4.3391100  50.8702684  59.6219369   3.7542542  50.7914765  59.1050418
   4.7184292  50.7061526  55.0992819   4.4130109  51.4389583  55.4606135
   3.9990507  50.2999455  54.8185605   4.5671634  50.7543259  55.1105956
  10.4186084  47.3454526  54.4261163  10.3510584  47.3650486  53.5563750
  10.4041746  48.1884854  54.6516834  10.4064840  47.4728261  54.3313640
   0.8282430  38.7489684  57.7502253   1.5736022  38.5599495  57.3365678
   0.4119735  39.2747922  57.1916109   0.8767405  38.7991830  57.6066826
   8.2044701  46.1198913  52.7007758   8.7552623  45.4866982  52.9404850
   8.1888817  46.6514305  53.3923262   8.2829898  46.1047861  52.8386616
   1.9073107  44.3595246  51.8112354   1.5637873  43.6385582  52.1619603
   2.0066150  44.1509098  50.9690712   1.8715150  44.2219450  51.7384034
   2.3686137  50.8220950  47.3536342   2.9344169  51.4814160  47.2694885
   1.7214040  51.1670649  47.8252744   2.3564893  50.9702892  47.4109098
   4.3021597  47.4854818  50.9733138   4.2155571  47.6410244  51.8267917
   3.8472077  48.1292893  50.5992544   4.2224853  47.6030573  51.0440245
   2.0695462  51.5148924  53.3845479   1.9309821  52.2129970  53.8894222
   1.2895459  51.3597581  53.0281661   1.9338688  51.5949091  53.4071753
   0.4073547  47.8145300  59.6367861   0.4021585  46.9425116  59.6410287
   1.1134541  48.0133469  59.1637317   0.5118551  47.7149174  59.5674896
   3.5648834  50.8727178  44.1461978   3.1855643  50.0864316  44.1391268
   2.9015080  51.4214035  44.0033623   3.4107309  50.8372002  44.1242775
   1.0193460  33.8152878  51.5496059   1.1377028  34.2729341  50.8163362
   0.8455636  33.0098139  51.2632277   1.0112631  33.7646650  51.3996993
   1.8108933  53.1172669  44.4813664   1.8928771  53.9239655  44.1575115
   2.2958675  53.1368628  45.2054438   1.8946091  53.2393332  44.5400563
   1.3184133  51.8770087  64.5631990   2.1318999  51.6055236  64.7237123
   1.1579100  51.5777627  63.7592186   1.4154082  51.7925013  64.4677396
   1.3305377  52.9376378  59.8354831   1.9685098  52.4436573  59.5017287
   0.6879469  52.8653778  59.2507058   1.3299604  52.8535386  59.6997186
   3.0562378  44.7865524  54.4020746   2.6289986  44.6991872  53.6468846
   2.4188431  44.8943299  54.9875590   2.8991985  44.7898184  54.3766188
   1.3859634  53.6296186  56.4760188   2.1752012  53.2785251  56.5962269
   1.5603232  54.4432574  56.2136821   1.5279916  53.6982043  56.4548055
   3.4927146  38.1937507  50.5179371   2.8801460  38.6807909  50.9033103
   3.5891321  37.5180998  51.0617023   3.4165044  38.1655816  50.6558230
   7.1352174  49.2654444  55.9456887   7.1935298  49.7141092  56.6916864
   6.5018642  49.6753256  55.5086967   7.0503469  49.3928178  55.9909436
   4.0873853  47.2870731  54.0322578   3.8472076  46.4477147  54.0365004
   4.5665861  47.3670898  54.7563351   4.1226037  47.1752131  54.1397380
   6.0879040  44.0672189  51.9851837   5.8488810  44.0268023  51.1472622
   6.2512942  44.9143341  52.1117558   6.0769344  44.1864274  51.8805319
   2.6925071  48.4522138  57.9156882   3.4159269  47.9994664  57.7367902
   2.4275033  48.7326804  57.1329210   2.7606344  48.4273106  57.7735597
   5.1260385  47.4148549  56.4187432   5.7178225  48.0545799  56.4505630
   5.5619379  46.7171585  56.7079499   5.2778816  47.4066899  56.4668264
   2.1509526  44.6293767  48.7190574   1.4800716  45.1723470  48.5903640
   2.8449276  45.0988623  48.4772269   2.1538393  44.7792039  48.6646102
   2.3137653  41.0849651  51.6280948   2.6665263  40.6579374  52.3026746
   1.4552455  41.0000495  51.7582024   2.2387098  41.0094392  51.7475958
   0.3120919  44.3485020  55.5765790   0.2918846  44.1668315  56.4300569
   0.3600120  45.2197038  55.5525373   0.3155560  44.4501558  55.6989084
   3.7461713  36.2068063  52.5565260   3.2392578  35.4997202  52.4886438
   4.5429147  35.8761252  52.6866337   3.7888953  36.0541214  52.5664255
   5.9481853  50.7232989  45.5406124   6.3315459  51.4724346  45.7704221
   5.1525967  50.9698809  45.2818114   5.8875636  50.8702683  45.5363698
   2.3882435  41.7034612  48.7042082   2.3876662  41.5483269  49.5626358
   2.1838616  42.5497599  48.6483468   2.3582213  41.8055233  48.8230021
   2.1775106  49.1335802  55.0455418   2.6030178  48.6110223  54.4925843
   1.8132026  49.7316639  54.5244041   2.1861709  49.1446029  54.8864427
   2.2121517  40.7073355  55.5235460   1.6284505  41.2082561  55.1113027
   2.5325811  40.2002911  54.8899783   2.1734692  40.7065190  55.3693967
  15.4399629  61.3003924  47.6336485  15.4093633  62.1548561  47.8054755
  16.0380978  60.9999217  48.1922629  15.5236787  61.3820421  47.7411288
   8.6399314  60.3879575  52.3889416   7.7837209  60.5488074  52.4398533
   8.6866967  59.5171639  52.4094477   8.5198425  60.2830377  52.3995482
  11.9493030  66.6566101  61.9949872  12.6559798  66.1618132  62.1236806
  12.1380966  67.0975183  61.2652530  12.0820936  66.6484451  61.9058917
  11.4851135  62.4471619  55.0321067  12.0307095  63.1256706  55.0915037
  11.4268011  62.3059080  54.1722649  11.5567049  62.5263621  54.9133128
  13.2616203  63.8756226  45.9054795  13.1455729  64.6263913  46.3346933
  14.0572090  63.6180180  46.1550882  13.3620793  63.9491073  46.0058887
   5.1446529  67.8650250  47.1924138   5.4662370  68.4055457  46.5885446
   5.7918625  67.2947021  47.3246427   5.2872584  67.8609425  47.1231173
   7.1948237  59.8666244  47.2758524   7.8928402  60.0454372  47.7679988
   7.5100569  59.3436584  46.6528914   7.3443574  59.8160017  47.2560534
   7.3836172  66.2536689  47.2638316   7.8229808  65.6453790  47.7093089
   7.2340835  65.8744063  46.4923781   7.4257638  66.1075161  47.2157483
   4.8507815  64.8480701  54.4657141   5.4956818  64.3553144  54.1468090
   5.0909592  64.9905488  55.2923220   4.9818400  64.7958144  54.5406674
   7.3893907  67.6935607  54.1164034   7.6717150  66.8987013  53.8950790
   8.1180067  68.1716195  54.1369095   7.5383470  67.6470204  54.0867049
   5.3675101  55.2358641  51.3579799   5.0378431  55.6869785  50.6883498
   4.6920102  55.1574804  51.9052805   5.2185537  55.2909776  51.3403022
  10.9845509  64.6063871  44.2169085  10.8996804  65.4624837  44.3618654
  11.4729892  64.3308195  44.8851244  11.0434406  64.6921192  44.3371167
  12.5751508  51.2244164  49.6029410  12.2604949  51.9147643  50.0349832
  12.0578450  51.1688946  48.9014910  12.4515979  51.3179053  49.5626359
  11.9163942  61.2248665  45.7166820  11.3875414  61.4408298  46.3764126
  12.4388962  61.9184803  45.6367790  11.9152395  61.3591802  45.8022419
  17.3711995  66.7994969  51.0899865  16.5409698  67.0105613  51.2533281
  17.3221247  65.9732024  50.8142148  17.2418730  66.7084576  51.0737230
   3.8063550  65.1211882  44.5174288   3.2220765  65.6261913  44.9240152
   3.4033645  64.8954269  43.7770880   3.6602854  65.1620130  44.4679313
   9.0885325  70.0793638  59.8863947   9.1768670  69.8919778  60.7342158
   9.5175037  69.4331067  59.4868794   9.1647427  69.9556645  59.9535699
   6.6555784  69.3624798  58.8681609   6.0926619  68.9497407  59.3921271
   7.4176808  69.2877703  59.2874753   6.6850233  69.2902198  59.0074610
   8.2640764  61.3677534  42.9943209   8.5036768  61.5755518  42.1818552
   8.5856605  60.5635042  43.1032153   8.3477922  61.2791635  42.8903762
   3.5731055  53.2970930  46.8402747   4.3277023  53.6649247  46.6019797
   3.3958589  53.6710484  47.6081926   3.6585533  53.4069117  46.9187635
  16.8665953  59.4465370  54.8850286  16.0294374  59.5167557  55.1197880
  16.8354184  59.4489865  54.0124588  16.7384236  59.4575597  54.7909834
   3.2630682  61.5898406  60.5998655   3.4351186  61.4804300  61.4483936
   3.8000040  62.2352811  60.3629847   3.3675686  61.6690407  60.6903751
   1.9288119  55.7041249  43.5380860   1.7463692  55.9213129  42.7121852
   2.7913732  55.8180261  43.5939474   2.0292709  55.7531146  43.4235347
   1.5402551  67.5429171  50.9803848   2.3791451  67.7752104  51.0277609
   1.5714320  66.6733482  50.9110883   1.6684269  67.4486117  50.9768492
   7.6087838  52.7067659  46.5729883   8.3373999  52.5283614  46.1268040
   7.6982731  53.5485739  46.7837062   7.7294501  52.8051538  46.5383401
  11.5896139  63.6421047  50.4762177  12.3453654  64.0752561  50.5151086
  11.6958464  62.9925816  51.0496813  11.7166310  63.6098530  50.5660203
  14.6276310  67.4694324  51.2264580  14.1911542  67.4731066  51.9823552
  14.2939226  68.1499823  50.7944158  14.5138930  67.5706780  51.2745413
  14.5473793  54.5108152  53.4694008  15.1899702  54.5806256  54.0555924
  14.7996814  53.8437375  52.9673550  14.6795925  54.4234500  53.4821288
   1.4750146  58.9815421  42.0503333   0.7608323  58.6953601  42.4625765
   1.9594115  59.3212047  42.6909720   1.4409510  58.9897071  42.2058968
   2.3191006  57.7208715  58.0818582   1.6262802  57.2505695  58.3279314
   2.9351333  57.4947020  58.6560289   2.3075536  57.6175847  58.2027735
  17.7620656  64.1875244  50.1184218  18.4237091  63.6265912  50.0180126
  17.1212068  63.6927274  50.4436909  17.7649524  64.0311653  50.1516558
   8.6497464  67.4845375  42.4265141   9.0648613  67.1530399  41.7349637
   7.8189394  67.2514277  42.2985278   8.5885473  67.4016631  42.3055988
  14.0485487  65.2040626  49.8596206  14.2841076  65.3485825  49.0323057
  14.1975051  65.9683034  50.2527720  14.1051290  65.3379681  49.7959810
   1.0431565  61.6874119  59.2245428   1.7671537  61.6727150  59.7110322
   1.1447701  62.3969474  58.7267396   1.1649774  61.7898822  59.2224214
  15.8775944  64.0442292  47.6965810  16.2084161  64.5769932  47.0905905
  16.4509032  64.0981180  48.3527761  16.0109623  64.1311861  47.7043592
  11.0907833  61.8907195  48.3789390  11.1854687  62.6296489  48.8329016
  10.4666677  61.4624670  48.8123955  11.0116863  61.9368515  48.5097538
   9.3460307  65.0693407  59.0279671   9.9199169  64.4320652  59.1828235
   9.2675111  65.0697490  58.1589329   9.4193542  64.9758519  58.9226082
  11.3430854  63.7355935  41.6126342  11.2611017  63.8058122  42.4781329
  11.9810575  64.2985678  41.4210083  11.4250692  63.8294906  41.7116292
   4.7024025  63.5016672  51.0800869   4.4443270  62.6688407  51.0532168
   4.7572508  63.7274285  50.2393369   4.6723803  63.4114444  50.9521005
   9.7825076  55.6045123  51.1804961   9.0781402  55.1154309  51.3388880
   9.8310050  55.6167598  50.3093406   9.6855127  55.5334771  51.0744301
   3.6758738  61.0554435  51.5665763   3.1008329  61.2146603  52.2029724
   3.2994414  60.4189844  51.1034214   3.5361550  60.9852248  51.5920322
   7.3432026  59.5277784  56.4258142   6.9546459  59.1032002  55.7710333
   6.6786725  59.7759934  56.9335168   7.1878954  59.5016505  56.4046010
  16.9855295  59.2852789  49.2005972  16.7291860  58.4732730  49.0103855
  17.8284609  59.2930356  48.9736159  17.0721321  59.1664786  49.1390789
  11.1658388  53.2252413  53.9382126  11.5468900  52.5430584  54.3250000
  10.3621672  52.9362015  53.7557791  11.1034850  53.0819462  53.9686182
   8.4470965  63.7576389  44.6234949   9.2611603  64.0491282  44.5117720
   8.3830106  63.1036251  44.0493242   8.5573704  63.7041584  44.5223786
  14.6680455  66.4402385  59.0364524  14.4319092  65.6090450  58.9176585
  15.3123684  66.3887992  59.6219369  14.7275125  66.3100073  59.1050418
   4.3178873  67.2297906  49.7507261   4.9552820  66.9909654  50.2959054
   4.7433944  67.4335065  49.0160421   4.4755039  67.2248916  49.7224418
   4.9581688  62.4500196  44.0882150   5.3426841  62.2307903  44.8398695
   4.7093308  63.2763141  44.2183227   4.9783760  62.5398342  44.2183227
   5.1250228  55.7306611  63.8044735   4.8103669  56.5006174  63.5414297
   4.8040161  55.1676867  63.2196961   5.0309147  55.7616880  63.6786084
  15.6916875  66.2246834  55.0992819  15.3862692  66.9574891  55.4606135
  14.9723091  65.8184763  54.8185605  15.5404218  66.2728567  55.1105956
   6.7000345  67.7070329  51.4301047   6.7739353  67.5445501  52.2842897
   7.5169851  67.8960518  51.1861529   6.8316703  67.7107071  51.5199073
  21.3918667  62.8639834  54.4261163  21.3243168  62.8835794  53.5563750
  21.3774330  63.7070162  54.6516834  21.3797424  62.9913569  54.3313640
   2.6782125  54.1197133  49.4190931   1.8104551  54.1919732  49.4848540
   2.9657330  54.9219212  49.6078906   2.5921873  54.2491280  49.4565697
  11.8015014  54.2674992  57.7502253  12.5468606  54.0784803  57.3365678
  11.3852319  54.7933230  57.1916109  11.8499988  54.3177138  57.6066826
  19.1777285  61.6384221  52.7007758  19.7285206  61.0052290  52.9404850
  19.1621400  62.1699613  53.3923262  19.2562481  61.6233169  52.8386616
   5.8299676  65.4722818  57.2467651   5.3311369  66.1838586  57.3252539
   6.6399900  65.7923484  57.2085813   5.8755782  65.6249666  57.2524220
   2.0927793  64.7345771  51.4930372   1.8041042  64.1083242  52.0276099
   2.9611141  64.6766058  51.5595052   2.1788045  64.6333315  51.5821327
  12.8805691  59.8780554  51.8112354  12.5370457  59.1570889  52.1619603
  12.9798734  59.6694405  50.9690712  12.8447734  59.7404758  51.7384034
   2.2960067  66.3741022  47.4172737   3.0506035  66.7554061  47.6308200
   1.7030679  66.8252166  47.8719434   2.3196780  66.4969849  47.5155615
  13.3418720  66.3406258  47.3536342  13.9076753  66.9999468  47.2694885
  12.6946624  66.6855956  47.8252744  13.3297477  66.4888200  47.4109098
   4.7566734  58.3303862  62.5429949   3.9466509  58.6361642  62.4319792
   5.2341420  59.0509445  62.6582533   4.7070212  58.4818463  62.5437020
   3.6158293  67.5449583  52.7912852   3.0939047  67.6849875  53.4764717
   4.0032314  66.7860248  52.9814970   3.5961994  67.4535107  52.9213929
   0.6049477  57.5955392  46.8607807   0.3174273  57.2256662  46.1239754
   1.2919945  58.0650247  46.5991512   0.6638375  57.6102361  46.7122883
   9.8125298  69.2845043  46.7773421   9.5711974  68.5512903  46.3700486
   9.9926631  69.8331900  46.1239754   9.8032922  69.2567434  46.6203644
   5.0424619  64.5753602  48.1894343   4.8467401  65.1828337  47.5954646
   5.2658964  63.8821546  47.7086017   5.0459260  64.5631128  48.0310424
   3.4403149  61.4608340  48.3075212   4.1625801  61.6249498  47.8479018
   2.9611142  62.1818005  48.2014552   3.4766880  61.5906570  48.2240826
  11.3996656  57.7972139  53.6871897  10.5607757  57.8233418  53.4510160
  11.4701024  58.4442874  54.2677243  11.2865050  57.8968265  53.7381014
   9.8465935  54.6957516  48.4199513  10.5492288  54.4965264  47.9419471
   9.5810123  53.9233458  48.7268356   9.9112567  54.5520482  48.3944954
  15.2754180  63.0040126  50.9733138  15.1888155  63.1595552  51.8267917
  14.8204660  63.6478201  50.5992544  15.1957437  63.1215881  51.0440245
   4.6094491  55.9592801  57.4730393   4.4177688  55.9747936  58.3229817
   5.4593087  56.1556476  57.4497048   4.7070213  55.9907152  57.5953688
   9.1479996  60.3250873  49.5958698   8.9014711  60.2446624  50.4295487
   9.4765119  59.5404341  49.4021225   9.1601240  60.1977138  49.6906221
  13.0428045  67.0334232  53.3845479  12.9042404  67.7315278  53.8894222
  12.2628043  66.8782889  53.0281661  12.9071272  67.1134399  53.4071753
  11.3806130  63.3330608  59.6367861  11.3754169  62.4610424  59.6410287
  12.0867124  63.5318777  59.1637317  11.4851134  63.2334482  59.5674896
   5.1077024  63.0607591  59.0081681   5.2520399  63.6408800  58.3724791
   5.4552672  63.4383888  59.7131536   5.1804485  63.2028296  59.0180676
   7.2796941  62.2597760  56.7906813   6.5320255  62.4528774  56.3855091
   7.4338466  61.4342979  56.5530934   7.1919369  62.1662871  56.6952219
  14.5381418  66.3912486  44.1461978  14.1588227  65.6049624  44.1391268
  13.8747663  66.9399343  44.0033623  14.3839893  66.3557310  44.1242775
   7.5198718  56.1548311  57.6802216   7.9771332  56.8872285  57.8075009
   7.5955047  55.7314776  58.4389472   7.5989688  56.2005549  57.8103293
  11.9926044  49.3338186  51.5496059  12.1109612  49.7914649  50.8163362
  11.8188220  48.5283447  51.2632277  11.9845215  49.2831958  51.3996993
   5.3981096  58.1450415  54.5244040   4.6077171  57.9641875  54.8461376
   5.7941719  57.3677367  54.5074335   5.3397972  58.0037875  54.5696589
   9.8846987  66.9738189  39.9650754  10.6519972  67.0338314  39.5556606
   9.4378296  66.4018630  39.4807073   9.9320414  66.8974765  39.8328464
  10.7824782  65.7792845  52.2503486  10.1069784  65.5478077  52.7516873
  10.7917158  65.1714028  51.6245591  10.6843287  65.6551770  52.2319639
   7.9118926  60.6210674  59.0067539   7.8478067  61.4820630  58.8787676
   8.0516114  60.3042667  58.2063091   7.9234396  60.7010840  58.8695752
  12.7841517  68.6357977  44.4813664  12.8661354  69.4424963  44.1575115
  13.2691259  68.6553936  45.2054438  12.8678675  68.7578639  44.5400563
   6.5938020  63.3142813  53.1483742   6.1700269  63.5147312  52.4122761
   6.4182875  62.4671661  53.2608042   6.5048901  63.2191594  53.0557432
   1.8820465  63.8094864  48.5811715   2.0385084  63.7441667  49.4367707
   2.2221058  64.5843417  48.3690394   1.9553700  63.9144063  48.6766309
   8.4199610  63.1852748  47.4505078   8.9615155  62.6823129  47.9143699
   8.7346169  63.1317943  46.6394563   8.5464007  63.1032169  47.3988890
  12.2916717  67.3955395  64.5631990  13.1051582  67.1240544  64.7237123
  12.1311683  67.0962935  63.7592186  12.3886666  67.3110321  64.4677396
   6.5886059  68.5770100  44.7345106   6.6578880  67.7184638  44.8738106
   7.3674515  68.7941980  44.4064131   6.7138909  68.4822964  44.7062263
   9.5688879  58.0789052  57.5027378   9.7830849  57.4399967  56.9490732
   8.9522778  58.5234876  57.0735240   9.5094208  58.0499196  57.3577810
  11.7327967  59.6878118  58.4410686  10.9204649  59.3804008  58.5223858
  12.1917902  59.2077118  59.0053398  11.6808352  59.5714610  58.5365280
  11.1433222  67.5657790  48.8887630  10.7847876  67.7372433  49.6651662
  10.6571932  68.0270995  48.3315628  11.0191919  67.6596761  48.9212899
   8.9603608  51.1888988  52.4914721   8.0897166  51.1627709  52.4448031
   9.2143949  51.0166180  51.6740567   8.8697168  51.1599132  52.3634858
   5.9321587  63.2456955  41.4287864   6.2214112  64.0221838  41.7031439
   6.0193386  62.7345687  42.1302364   5.9875843  63.2848873  41.5730362
   8.8281475  61.0938189  63.2239388   9.2981106  61.7180306  63.6107262
   8.8743355  60.4255165  63.7832603   8.9049350  61.0872869  63.3639459
   5.9852748  53.1995217  53.9488192   5.4691237  52.5075408  54.0739771
   5.4246677  53.8665994  53.8950790   5.8259261  53.1958474  53.9594258
   8.0544982  53.7388177  55.7781044   7.6676735  53.7637208  56.5594574
   7.5677919  53.1729855  55.3255561   7.9257491  53.6583927  55.8268948
  12.3037961  68.4561686  59.8354831  12.9417682  67.9621881  59.5017287
  11.6612053  68.3839086  59.2507058  12.3032188  68.3720694  59.6997186
  14.0294961  60.3050832  54.4020746  13.6022569  60.2177180  53.6468846
  13.3921014  60.4128607  54.9875590  13.8724568  60.3083491  54.3766188
   7.7202123  50.6255162  58.0691304   8.3495241  51.1615462  57.7912374
   7.8887986  50.5332521  58.9204870   7.8379918  50.6916524  58.1539832
   7.5216038  55.4126357  60.3417716   8.3489468  55.1411506  60.3976330
   7.5423884  56.2087199  60.6981534   7.6468888  55.4906111  60.4032899
  12.3592218  69.1481494  56.4760188  13.1484596  68.7970559  56.5962269
  12.5335815  69.9617882  56.2136821  12.5012499  69.2167351  56.4548055
   2.0985528  62.5590220  53.5287976   1.2573535  62.4594094  53.7366870
   2.3075536  63.3285700  53.8802297   2.0050221  62.6582263  53.6115291
  11.2126042  53.1591051  51.0376606  11.4175635  53.0913358  51.8833603
  10.8852466  53.9649872  50.9697783  11.1941290  53.2676991  51.1536261
   5.9102193  60.4871619  52.7785574   5.6065330  59.9327607  53.3795982
   5.2081614  60.6663829  52.2913608   5.7618403  60.4316401  52.7955280
   4.9668290  57.7972139  47.3430276   5.2428024  57.0791051  46.9307843
   5.5666959  58.3957059  47.1351382   5.0961555  57.7792509  47.2511037
  14.4659730  53.7122815  50.5179371  13.8534043  54.1993217  50.9033103
  14.5623904  53.0366306  51.0617023  14.3897627  53.6841124  50.6558230
   8.4678811  55.4685656  45.6176871   8.9222557  55.6396216  46.3424715
   8.9418856  54.8553767  45.2174646   8.6047131  55.4036541  45.6650632
   1.9894336  64.9533982  54.9479609   1.3982269  65.5943480  54.9182624
   2.7515360  65.3771599  54.9210909   2.0142597  65.1109820  54.9394756
   2.3854959  56.1135980  55.6147627   2.8456440  56.1874909  56.3522751
   2.4311065  56.9117234  55.2647448   2.4605514  56.2430127  55.6720383
   4.0338308  56.7802675  60.1819654   3.6423874  56.1336022  60.6175432
   4.2024171  57.3714110  60.8013909   4.0009219  56.7716942  60.3382360
  18.1084758  64.7839752  55.9456887  18.1667881  65.2326400  56.6916864
  17.4751225  65.1938564  55.5086967  18.0236053  64.9113486  55.9909436
  11.7483852  70.4043294  52.3811634  11.5503541  70.8934108  51.6867845
  11.1271563  70.6084535  52.9595767  11.6271417  70.5059832  52.3634857
   5.8091831  62.1728190  46.7221878   6.5533875  62.5602467  46.9604828
   5.9552527  61.3285616  46.8862366   5.9402416  62.1058663  46.7815848
   7.7271406  53.9678449  51.7553739   6.8807451  54.1401257  51.6295089
   7.7242538  53.1627793  52.0919568   7.6018556  53.8739478  51.7864866
   8.7969706  57.7453664  52.6215797   8.3229661  57.2195426  53.1321108
   9.1687842  57.1983137  52.0530659   8.7819595  57.5869660  52.6130944
  15.0606437  62.8056039  54.0322578  14.8204660  61.9662454  54.0365004
  15.5398444  62.8856206  54.7563351  15.0958621  62.6937439  54.1397380
  10.7253206  58.6390218  45.6841551  10.1976225  58.7218962  44.9947260
  11.1848914  59.3808090  45.6806196  10.7155057  58.7610881  45.5816246
  17.0611624  59.5857497  51.9851837  16.8221394  59.5453331  51.1472622
  17.2245525  60.4328649  52.1117558  17.0501927  59.7049582  51.8805319
  13.6657654  63.9707446  57.9156882  14.3891853  63.5179972  57.7367902
  13.4007616  64.2512112  57.1329210  13.7338927  63.9458414  57.7735597
   2.5344523  58.5667619  54.6509761   1.9097593  58.5786011  54.0435714
   2.1990117  59.0427794  55.3001001   2.3930014  58.6386136  54.6566330
   2.7186271  56.9092738  40.7082446   2.3699076  57.5612463  41.1713996
   2.2382717  56.8949851  39.9806317   2.5956515  57.0035791  40.6693538
  10.2790289  67.2093782  44.8151208  11.0024487  67.6751895  44.6715781
   9.8390880  67.2767391  44.0648805  10.3205981  67.2877619  44.6835990
   9.4476444  64.0691324  56.0651897   8.8333437  63.5249374  56.3600532
   9.9643729  63.5555561  55.5857713   9.4332106  63.9127733  56.0376126
   8.6872741  65.1395594  53.7996196   8.2600349  64.5145313  53.3661631
   8.6797685  64.8570516  54.6255203   8.6231882  65.0048375  53.8576023
   1.8035268  60.1760767  56.8684630   1.9628755  59.4204091  57.2736352
   1.6228161  60.7251707  57.5225367   1.8000627  60.1454581  57.0247336
   9.7455571  52.3422003  57.4235419   9.2496132  52.5385677  56.7326986
  10.5024633  52.7414671  57.2524221   9.7842396  52.4299737  57.2955556
   7.0158450  56.0164349  54.0138730   7.0400938  55.4824461  53.3251510
   7.2669924  55.5081657  54.6764320   7.0568369  55.8625253  54.0103374
   3.2959773  54.7435167  53.3944474   3.3358144  55.2444373  54.1079181
   2.4709437  54.8345561  53.1250397   3.1799299  54.8316983  53.4595012
   4.7174136  61.2595677  55.6918373   3.8866066  61.4269495  55.4853621
   4.6625653  60.8831628  56.4767258   4.5863551  61.2285408  55.7766901
   2.5257919  54.7504570  61.3274784   3.1510623  54.2066702  61.6004216
   2.0708399  54.2699487  60.7582574   2.5506180  54.5994051  61.2836378
   3.0910180  59.5351268  46.2208491   3.2313141  60.0323732  46.9237132
   3.5892713  58.8337563  46.3622704   3.1851261  59.5053247  46.3460070
   3.1210402  60.4018379  43.5501068   3.7555482  60.9978804  43.4850529
   3.2036013  60.1021837  44.3646938   3.2266953  60.4459287  43.6604154
  16.0992968  62.9333857  56.4187432  16.6910808  63.5731107  56.4505630
  16.5351963  62.2356893  56.7079499  16.2511399  62.9252207  56.4668264
   4.6989385  56.3332355  43.5246510   5.0205226  55.8535437  42.8705772
   4.9616329  57.1432001  43.3337321   4.7855411  56.3822253  43.4002002
   7.9286358  67.3551229  57.0445326   7.4211449  67.9087076  57.4885956
   7.6313004  67.4159519  56.2264100   7.8091243  67.4457540  56.9893782
  10.0948540  55.7204549  55.8869989  10.5203612  55.2677075  55.2753515
   9.4805533  55.1664619  56.1634776  10.0677186  55.5718525  55.8375014
   8.5342763  52.1919648  49.2960566   7.8911081  52.0417295  49.8645704
   8.1942170  51.9461994  48.5309670   8.3887840  52.1331771  49.2663581
  13.1242109  60.1479075  48.7190574  12.4533299  60.6908778  48.5903640
  13.8181860  60.6173931  48.4772269  13.1270977  60.2977346  48.6646102
  13.2870237  56.6034959  51.6280948  13.6397847  56.1764682  52.3026746
  12.4285038  56.5185802  51.7582024  13.2119682  56.5279700  51.7475958
   1.9853922  59.2342479  49.6863794   1.2665911  59.6506611  49.9536658
   2.3566284  59.7996717  49.1355432   1.9345854  59.3791760  49.6446601
  11.2853503  59.8670327  55.5765790  11.2651430  59.6853623  56.4300569
  11.3332703  60.7382346  55.5525373  11.2888144  59.9686866  55.6989084
   9.2299833  66.4557519  61.5014266   9.1895687  65.8107196  60.9159422
  10.0423151  66.3994137  61.8139678   9.3442986  66.3516486  61.4611215
   7.7600496  58.2740478  45.0237174   7.1665336  58.5957475  44.4721741
   7.7975774  57.4281574  44.8158280   7.6774885  58.1964807  44.9119945
  14.7194297  51.7253371  52.5565260  14.2125162  51.0182510  52.4886438
  15.5161731  51.3946560  52.6866337  14.7621536  51.5726522  52.5664255
  10.6358313  58.2319983  48.4538924  10.4072006  58.2552684  47.6117282
  10.8956389  57.4077450  48.5733934  10.6404501  58.1136063  48.3464121
   4.9177541  60.0854456  58.0564024   4.4056444  59.4775639  58.4149055
   4.7457037  60.8011049  58.5238000   4.8167178  60.1017755  58.1780248
   3.6903075  56.7696529  49.7493119   4.1660442  57.1313609  49.1143301
   3.1891675  57.4252997  50.0293262   3.6868434  56.9190718  49.6969860
  16.9214437  66.2418297  45.5406124  17.3048043  66.9909654  45.7704221
  16.1258550  66.4884117  45.2818114  16.8608219  66.3887991  45.5363698
   8.7946612  58.0078701  60.4966279   9.3518042  57.7792510  59.8644745
   8.4707677  58.7684366  60.2201492   8.8293022  58.0862537  60.3622777
   6.5129729  61.0946354  61.4618287   7.2641056  61.4098031  61.7757841
   6.7052305  60.8925525  60.6352208   6.6521143  61.1113736  61.3861682
   5.7329729  58.9137729  43.1166503   6.1128693  58.9317358  42.3317618
   4.9922325  59.3591718  42.9957351   5.6798566  58.9819504  42.9830072
  13.3615019  57.2219920  48.7042082  13.3609245  57.0668577  49.5626358
  13.1571199  58.0682907  48.6483468  13.3314797  57.3240541  48.8230021
  11.0855871  61.9017422  52.3578289  11.5809536  61.1840417  52.3182309
  10.2755647  61.5988220  52.2432776  11.0399764  61.7515068  52.3352015
   6.5314483  65.7515235  44.5075293   5.7225805  65.4281909  44.4608603
   7.0389391  65.0448457  44.4403542   6.4864149  65.5996552  44.4905588
  13.1507690  64.6521110  55.0455418  13.5762762  64.1295531  54.4925843
  12.7864610  65.2501947  54.5244041  13.1594293  64.6631337  54.8864427
   9.7386289  68.3655374  51.3756575  10.2097468  69.0795636  51.5446560
  10.0746468  67.7654124  51.9116445   9.8581404  68.3826838  51.4788951
   6.6555784  53.1382844  58.3314670   6.7883690  52.3413838  58.6595646
   7.0400937  53.6649247  58.9112946   6.7312113  53.0982761  58.4658173
  10.3760236  68.1573308  58.1384268   9.8281182  67.5331192  57.8704333
  10.8373264  68.3467580  57.4228347  10.3627445  68.0932358  57.9934699
   9.7288140  50.0613171  54.9295763   8.9234103  49.9510900  55.2463602
   9.5994875  50.1625626  54.0725629   9.5908272  50.0596841  54.8503804
  13.1854100  56.2258662  55.5235460  12.6017089  56.7267869  55.1113027
  13.5058394  55.7188219  54.8899783  13.1467275  56.2250497  55.3693967
   5.7248899  55.1399257  45.7994135   6.5464594  55.3097570  45.5575830
   5.2618550  55.2946518  45.0760433   5.7780061  55.1880990  45.6565779
   4.3144231  53.1342019  56.5792564   4.8588644  52.7933146  57.1696905
   4.3681167  53.9927481  56.7213848   4.4033351  53.2097279  56.6874437
   9.9418562  69.1624381  54.6693609  10.7616936  69.0187347  54.9309904
   9.6612640  69.7870580  55.2110047  10.0215305  69.2334733  54.7881548
  16.3407684  70.7543949  51.3579799  16.0111014  71.2055093  50.6883498
  15.6652686  70.6760112  51.9052805  16.1918120  70.8095084  51.3403022
  23.5484092  66.7429472  49.6029410  23.2337533  67.4332951  50.0349832
  23.0311034  66.6874254  48.9014910  23.4248562  66.8364361  49.5626359
  14.5463638  68.8156237  46.8402747  15.3009606  69.1834555  46.6019797
  14.3691173  69.1895792  47.6081926  14.6318117  68.9254425  46.9187635
  27.8398537  74.9650678  54.8850286  27.0026958  75.0352865  55.1197880
  27.8086768  74.9675173  54.0124588  27.7116819  74.9760905  54.7909834
  12.9020703  71.2226556  43.5380860  12.7196276  71.4398437  42.7121852
  13.7646316  71.3365569  43.5939474  13.0025292  71.2716454  43.4235347
  18.5820422  68.2252967  46.5729883  19.3106582  68.0468922  46.1268040
  18.6715315  69.0671047  46.7837062  18.7027084  68.3236846  46.5383401
  25.5206377  70.0293460  53.4694008  26.1632285  70.0991564  54.0555924
  25.7729397  69.3622682  52.9673550  25.6528509  69.9419808  53.4821288
  20.7557659  71.1230431  51.1804961  20.0513986  70.6339617  51.3388880
  20.8042634  71.1352906  50.3093406  20.6587711  71.0520079  51.0744301
  27.9587879  74.8038097  49.2005972  27.7024444  73.9918038  49.0103855
  28.8017193  74.8115664  48.9736159  28.0453904  74.6850094  49.1390789
  22.1390971  68.7437721  53.9382126  22.5201483  68.0615892  54.3250000
  21.3354256  68.4547323  53.7557791  22.0767433  68.6004769  53.9686182
  16.0982812  71.2491919  63.8044735  15.7836253  72.0191482  63.5414297
  15.7772744  70.6862175  63.2196961  16.0041731  71.2802188  63.6786084
  13.6514709  69.6382441  49.4190931  12.7837134  69.7105040  49.4848540
  13.9389913  70.4404520  49.6078906  13.5654457  69.7676588  49.4565697
  22.7747598  69.7860300  57.7502253  23.5201190  69.5970110  57.3365678
  22.3584902  70.3118538  57.1916109  22.8232572  69.8362445  57.6066826
  30.1509868  77.1569529  52.7007758  30.7017790  76.5237598  52.9404850
  30.1353984  77.6884921  53.3923262  30.2295065  77.1418477  52.8386616
  23.8538275  75.3965862  51.8112354  23.5103040  74.6756197  52.1619603
  23.9531317  75.1879713  50.9690712  23.8180317  75.2590065  51.7384034
  22.3729240  73.3157447  53.6871897  21.5340341  73.3418726  53.4510160
  22.4433607  73.9628182  54.2677243  22.2597633  73.4153573  53.7381014
  20.8198518  70.2142824  48.4199513  21.5224871  70.0150572  47.9419471
  20.5542707  69.4418766  48.7268356  20.8845151  70.0705790  48.3944954
  15.5827075  71.4778109  57.4730393  15.3910272  71.4933244  58.3229817
  16.4325670  71.6741783  57.4497048  15.6802796  71.5092460  57.5953688
  18.4931302  71.6733619  57.6802216  18.9503916  72.4057593  57.8075009
  18.5687630  71.2500084  58.4389472  18.5722271  71.7190857  57.8103293
  22.9658627  64.8523494  51.5496059  23.0842196  65.3099957  50.8163362
  22.7920803  64.0468755  51.2632277  22.9577798  64.8017266  51.3996993
  20.5421463  73.5974360  57.5027378  20.7563432  72.9585275  56.9490732
  19.9255362  74.0420184  57.0735240  20.4826792  73.5684504  57.3577810
  22.7060551  75.2063426  58.4410686  21.8937232  74.8989316  58.5223858
  23.1650485  74.7262426  59.0053398  22.6540935  75.0899918  58.5365280
  19.9336191  66.7074296  52.4914721  19.0629749  66.6813017  52.4448031
  20.1876533  66.5351488  51.6740567  19.8429751  66.6784440  52.3634858
  16.9585332  68.7180525  53.9488192  16.4423820  68.0260716  54.0739771
  16.3979261  69.3851302  53.8950790  16.7991845  68.7143782  53.9594258
  19.0277565  69.2573485  55.7781044  18.6409318  69.2822516  56.5594574
  18.5410502  68.6915163  55.3255561  18.8990074  69.1769235  55.8268948
  18.6934707  66.1440470  58.0691304  19.3227825  66.6800770  57.7912374
  18.8620570  66.0517829  58.9204870  18.8112501  66.2101832  58.1539832
  18.4948622  70.9311665  60.3417716  19.3222051  70.6596814  60.3976330
  18.5156468  71.7272506  60.6981534  18.6201472  71.0091419  60.4032899
  22.1858625  68.6776359  51.0376606  22.3908219  68.6098666  51.8833603
  21.8585049  69.4835180  50.9697783  22.1673873  68.7862299  51.1536261
  25.4392313  69.2308123  50.5179371  24.8266627  69.7178525  50.9033103
  25.5356488  68.5551614  51.0617023  25.3630211  69.2026431  50.6558230
  19.4411394  70.9870964  45.6176871  19.8955141  71.1581524  46.3424715
  19.9151440  70.3739075  45.2174646  19.5779714  70.9221849  45.6650632
  18.7003990  69.4863757  51.7553739  17.8540035  69.6586565  51.6295089
  18.6975122  68.6813101  52.0919568  18.5751139  69.3924786  51.7864866
  19.7702290  73.2638972  52.6215797  19.2962244  72.7380734  53.1321108
  20.1420426  72.7168444  52.0530659  19.7552179  73.1054968  52.6130944
  21.6985790  74.1575526  45.6841551  21.1708808  74.2404270  44.9947260
  22.1581498  74.8993398  45.6806196  21.6887640  74.2796189  45.5816246
  28.0344208  75.1042804  51.9851837  27.7953978  75.0638639  51.1472622
  28.1978109  75.9513956  52.1117558  28.0234511  75.2234889  51.8805319
  20.7188154  67.8607311  57.4235419  20.2228716  68.0570985  56.7326986
  21.4757216  68.2599979  57.2524221  20.7574979  67.9485044  57.2955556
  17.9891034  71.5349657  54.0138730  18.0133521  71.0009769  53.3251510
  18.2402508  71.0266965  54.6764320  18.0300953  71.3810561  54.0103374
  14.2692356  70.2620475  53.3944474  14.3090728  70.7629681  54.1079181
  13.4442021  70.3530868  53.1250397  14.1531882  70.3502291  53.4595012
  13.4990503  70.2689878  61.3274784  14.1243206  69.7252010  61.6004216
  13.0440983  69.7884795  60.7582574  13.5238764  70.1179359  61.2836378
  15.6721969  71.8517663  43.5246510  15.9937810  71.3720745  42.8705772
  15.9348912  72.6617309  43.3337321  15.7587994  71.9007561  43.4002002
  21.0681124  71.2389857  55.8869989  21.4936195  70.7862383  55.2753515
  20.4538117  70.6849927  56.1634776  21.0409769  71.0903833  55.8375014
  19.5075347  67.7104956  49.2960566  18.8643665  67.5602603  49.8645704
  19.1674754  67.4647302  48.5309670  19.3620424  67.6517079  49.2663581
  24.2602821  72.1220267  51.6280948  24.6130431  71.6949990  52.3026746
  23.4017622  72.0371110  51.7582024  24.1852265  72.0465007  51.7475958
  25.6926881  67.2438679  52.5565260  25.1857745  66.5367818  52.4886438
  26.4894314  66.9131868  52.6866337  25.7354120  67.0911830  52.5664255
  21.6090896  73.7505291  48.4538924  21.3804589  73.7737992  47.6117282
  21.8688973  72.9262758  48.5733934  21.6137084  73.6321371  48.3464121
  24.3347603  72.7405228  48.7042082  24.3341829  72.5853885  49.5626358
  24.1303783  73.5868215  48.6483468  24.3047380  72.8425849  48.8230021
  17.6288368  68.6568152  58.3314670  17.7616274  67.8599146  58.6595646
  18.0133521  69.1834555  58.9112946  17.7044697  68.6168069  58.4658173
  20.7020723  65.5798478  54.9295763  19.8966687  65.4696208  55.2463602
  20.5727459  65.6810934  54.0725629  20.5640856  65.5782149  54.8503804
  24.1586684  71.7443970  55.5235460  23.5749672  72.2453177  55.1113027
  24.4790978  71.2373527  54.8899783  24.1199859  71.7435805  55.3693967
  16.6981483  70.6584565  45.7994135  17.5197177  70.8282878  45.5575830
  16.2351134  70.8131826  45.0760433  16.7512645  70.7066298  45.6565779
  15.2876815  68.6527327  56.5792564  15.8321228  68.3118454  57.1696905
  15.3413750  69.5112789  56.7213848  15.3765934  68.7282587  56.6874437
   4.1617869  22.7196748  34.5676532   4.1311874  23.5741384  34.7394802
   4.7599218  22.4192040  35.1262676   4.2455027  22.8013244  34.6751334
   0.6711271  28.0758924  48.9289919   1.3778038  27.5810955  49.0576853
   0.8599206  28.5168006  48.1992577   0.8039176  28.0677275  48.8398964
   1.9834444  25.2949050  32.8394842   1.8673970  26.0456736  33.2686980
   2.7790330  25.0373003  33.0890929   2.0839033  25.3683897  32.9398934
   1.2969749  12.6436987  36.5369456   0.9823190  13.3340466  36.9689879
   0.7796690  12.5881770  35.8354957   1.1734219  12.7371876  36.4966406
   6.0930235  28.2187793  38.0239911   5.2627939  28.4298436  38.1873328
   6.0439488  27.3924847  37.7482195   5.9636971  28.1277399  38.0077277
   5.5884194  20.8658193  41.8190333   4.7512615  20.9360380  42.0537927
   5.5572425  20.8682688  40.9464635   5.4602476  20.8768420  41.7249881
   0.3114379  25.0613870  37.4102224   1.0671895  25.4945384  37.4491133
   0.4176704  24.4118640  37.9836860   0.4384550  25.0291354  37.5000250
   3.3494551  28.8887147  38.1604627   2.9129782  28.8923889  38.9163599
   3.0157466  29.5692646  37.7284205   3.2357171  28.9899603  38.2085460
   3.2692034  15.9300975  40.4034055   3.9117942  15.9999080  40.9895970
   3.5215054  15.2630198  39.9013597   3.4014166  15.8427324  40.4161334
   6.4838897  25.6068067  37.0524264   7.1455331  25.0458735  36.9520173
   5.8430309  25.1120098  37.3776956   6.4867764  25.4504476  37.0856605
   2.7703728  26.6233449  36.7936253   3.0059317  26.7678648  35.9663104
   2.9193291  27.3875857  37.1867767   2.8269531  26.7572504  36.7299857
   4.5994184  25.4635115  34.6305857   4.9302401  25.9962755  34.0245952
   5.1727272  25.5174003  35.2867808   4.7327863  25.5504684  34.6383639
   5.7073536  20.7045612  36.1346019   5.4510101  19.8925554  35.9443901
   6.5502850  20.7123179  35.9076206   5.7939561  20.5857610  36.0730836
   3.3898695  27.8595208  45.9704571   3.1537332  27.0283273  45.8516632
   4.0341924  27.8080815  46.5559415   3.4493366  27.7292896  46.0390465
   4.4135116  27.6439657  42.0332866   4.1080933  28.3767714  42.3946181
   3.6941331  27.2377586  41.7525652   4.2622458  27.6921390  42.0446003
  10.1136908  24.2832658  41.3601210  10.0461408  24.3028617  40.4903797
  10.0992570  25.1262985  41.5856881  10.1015664  24.4106392  41.2653687
   7.8995525  23.0577044  39.6347804   8.4503447  22.4245113  39.8744897
   7.8839641  23.5892437  40.3263309   7.9780722  23.0425992  39.7726663
   1.6023931  21.2973378  38.7452401   1.2588697  20.5763713  39.0959650
   1.7016974  21.0887229  37.9030759   1.5665974  21.1597581  38.6724081
   2.0636960  27.7599082  34.2876389   2.6294993  28.4192291  34.2034932
   1.4164864  28.1048780  34.7592791   2.0515717  27.9081023  34.3449145
   3.9972421  24.4232949  37.9073185   3.9106395  24.5788375  38.7607964
   3.5422901  25.0671025  37.5332590   3.9175677  24.5408704  37.9780292
   1.7646285  28.4527056  40.3185526   1.6260645  29.1508101  40.8234268
   0.9846283  28.2975712  39.9621708   1.6289512  28.5327222  40.3411800
   3.2599658  27.8105309  31.0802025   2.8806467  27.0242447  31.0731315
   2.5965904  28.3592166  30.9373669   3.1058133  27.7750133  31.0582822
   1.0134957  28.8148219  51.4972037   1.8269823  28.5433367  51.6577169
   0.8529924  28.5155759  50.6932233   1.1104906  28.7303145  51.4017443
   1.0256201  29.8754509  46.7694878   1.6635922  29.3814705  46.4357334
   0.3830293  29.8031909  46.1847104   1.0250428  29.7913517  46.6337233
   2.7513202  21.7243655  41.3360793   2.3240810  21.6370003  40.5808893
   2.1139254  21.8321430  41.9215637   2.5942809  21.7276315  41.3106235
   1.0810458  30.5674317  43.4100234   1.8702836  30.2163382  43.5302316
   1.2554056  31.3810706  43.1476868   1.2230740  30.6360174  43.3888102
   3.1877970  15.1315638  37.4519418   2.5752284  15.6186040  37.8373150
   3.2842145  14.4559129  37.9957069   3.1115868  15.1033947  37.5898276
   6.8302998  26.2032575  42.8796934   6.8886122  26.6519224  43.6256911
   6.1969465  26.6131388  42.4427014   6.7454293  26.3306310  42.9249483
   3.7824677  24.2248863  40.9662625   3.5422900  23.3855278  40.9705051
   4.2616685  24.3049029  41.6903398   3.8176861  24.1130262  41.0737427
   5.7829864  21.0050320  38.9191884   5.5439634  20.9646154  38.0812668
   5.9463766  21.8521472  39.0457605   5.7720168  21.1242405  38.8145366
   2.3875894  25.3900269  44.8496929   3.1110093  24.9372796  44.6707949
   2.1225857  25.6704935  44.0669257   2.4557168  25.3651238  44.7075644
   4.8211208  24.3526680  43.3527479   5.4129049  24.9923931  43.3845677
   5.2570203  23.6549717  43.6419545   4.9729640  24.3445030  43.4008311
   1.8460350  21.5671899  35.6530621   1.1751540  22.1101601  35.5243687
   2.5400100  22.0366754  35.4112316   1.8489217  21.7170170  35.5986149
   2.0088477  18.0227782  38.5620994   2.3616087  17.5957505  39.2366793
   1.1503279  17.9378626  38.6922071   1.9337922  17.9472523  38.6816005
   3.4412537  13.1446194  39.4905307   2.9343402  12.4375334  39.4226484
   4.2379971  12.8139383  39.6206383   3.4839777  12.9919345  39.5004302
   5.6432677  27.6611121  32.4746171   6.0266283  28.4102477  32.7044268
   4.8476791  27.9076940  32.2158160   5.5826460  27.8080814  32.4703745
   2.0833259  18.6412744  35.6382129   2.0827486  18.4861400  36.4966405
   1.8789439  19.4875731  35.5823514   2.0533037  18.7433364  35.7570068
   1.8725930  26.0713933  41.9795465   2.2981002  25.5488355  41.4265890
   1.5082850  26.6694770  41.4584087   1.8812533  26.0824160  41.8204474
   0.5481514  31.3949510  50.4888694   0.6578480  30.6058071  50.8445441
   0.8772411  31.3055447  49.6863032   0.6133920  31.2655363  50.4231085
   1.9072340  17.6451486  42.4575507   1.3235329  18.1460692  42.0453074
   2.2276635  17.1381042  41.8239830   1.8685516  17.6443321  42.3034014
  15.1350453  38.2382056  34.5676532  15.1044457  39.0926692  34.7394802
  15.7331802  37.9377348  35.1262676  15.2187611  38.3198552  34.6751334
   8.3350138  37.3257707  39.3229463   7.4788033  37.4866205  39.3738579
   8.3817791  36.4549771  39.3434524   8.2149249  37.2208509  39.3335529
   2.7191277  46.8620425  35.0866694   1.9674177  46.4835963  34.8582739
   3.1677289  46.8938858  34.3385504   2.6740944  46.8106032  34.9424196
  11.6443854  43.5944232  48.9289919  12.3510621  43.0996263  49.0576853
  11.8331790  44.0353314  48.1992577  11.7771760  43.5862583  48.8398964
   8.1716237  47.2845794  30.5152241   7.8367606  47.9622716  30.0796463
   8.6843108  46.8951105  29.9269113   8.1981818  47.3270372  30.3639033
   7.7120529  49.2360063  36.4563353   8.0959908  49.8046961  35.9168128
   7.6479670  48.5109573  35.9769169   7.7593956  49.2135526  36.3057215
  11.1801959  39.3849751  41.9661114  11.7257919  40.0634837  42.0255084
  11.1218835  39.2437211  41.1062696  11.2517873  39.4641752  41.8473175
   4.2976034  46.8738817  37.3529467   4.3986396  46.0639171  37.6626594
   3.7017779  46.7795763  36.7229145   4.2248572  46.7403845  37.3055705
  12.9567027  40.8134358  32.8394842  12.8406553  41.5642044  33.2686980
  13.7522914  40.5558311  33.0890929  13.0571617  40.8869205  32.9398934
   4.1376773  51.7916406  38.7544323   4.7814229  52.2329570  39.1440481
   4.4633029  50.9869832  38.6674581   4.2808602  51.7381601  38.7989800
   4.8397353  44.8028381  34.1264184   5.1613194  45.3433588  33.5225493
   5.4869449  44.2325152  34.2586474   4.9823408  44.7987556  34.0571220
   6.8899061  36.8044376  34.2098571   7.5879226  36.9832503  34.7020034
   7.2051393  36.2814715  33.5868960   7.0394398  36.7538148  34.1900581
   7.0786996  43.1914821  34.1978363   7.5180632  42.5831921  34.6433135
   6.9291659  42.8122194  33.4263828   7.1208462  43.0453292  34.1497530
   4.5458639  41.7858833  41.3997188   5.1907642  41.2931276  41.0808137
   4.7860416  41.9283619  42.2263266   4.6769224  41.7336275  41.4746721
   7.0844731  44.6313738  41.0504081   7.3667973  43.8365144  40.8290837
   7.8130891  45.1094326  41.0709142   7.2334294  44.5848335  41.0207096
   5.0625924  32.1736772  38.2919846   4.7329255  32.6247916  37.6223544
   4.3870926  32.0952936  38.8392852   4.9136361  32.2287908  38.2743069
  10.6796333  41.5442002  31.1509132  10.5947628  42.4002969  31.2958701
  11.1680716  41.2686326  31.8191291  10.7385230  41.6299323  31.2711213
  12.2702332  28.1622295  36.5369456  11.9555773  28.8525774  36.9689879
  11.7529274  28.1067077  35.8354957  12.1466803  28.2557184  36.4966406
  11.6114766  38.1626796  32.6506867  11.0826238  38.3786430  33.3104173
  12.1339786  38.8562935  32.5707836  11.6103219  38.2969933  32.7362466
  17.0662819  43.7373101  38.0239911  16.2360522  43.9483744  38.1873328
  17.0172071  42.9110155  37.7482195  16.9369554  43.6462707  38.0077277
   3.5014374  42.0590013  31.4514335   2.9171589  42.5640044  31.8580199
   3.0984469  41.8332400  30.7110927   3.3553678  42.0998261  31.4019360
   5.1272557  46.5676955  40.8587821   4.6099498  46.2084370  40.2549129
   5.8246948  46.0439129  40.8693887   5.1538138  46.4374643  40.7718080
   8.7836149  47.0171769  46.8203994   8.8719494  46.8297909  47.6682204
   9.2125861  46.3709198  46.4208841   8.8598251  46.8934777  46.8875745
   6.3506608  46.3002929  45.8021656   5.7877443  45.8875539  46.3261317
   7.1127632  46.2255834  46.2214799   6.3801057  46.2280329  45.9414657
   7.9591588  38.3055665  29.9283256   8.1987592  38.5133649  29.1158599
   8.2807429  37.5013174  30.0372200   8.0428746  38.2169766  29.8243809
   3.2681879  30.2349061  33.7742793   4.0227847  30.6027378  33.5359844
   3.0909413  30.6088615  34.5421973   3.3536357  30.3447249  33.8527682
   1.9102600  48.2900950  38.4058286   2.6123179  47.7752939  38.4631043
   1.8300083  48.6175101  39.2105161   2.0026360  48.2615176  38.5331079
  16.5616777  36.3843501  41.8190333  15.7245198  36.4545688  42.0537927
  16.5305008  36.3867996  40.9464635  16.4335060  36.3953728  41.7249881
   2.9581506  38.5276537  47.5338701   3.1302010  38.4182432  48.3823983
   3.4950864  39.1730942  47.2969894   3.0626510  38.6068539  47.6243798
   1.6238943  32.6419380  30.4720906   1.4414516  32.8591261  29.6461899
   2.4864556  32.7558392  30.5279521   1.7243533  32.6909278  30.3575394
   1.2353375  44.4807302  37.9143894   2.0742275  44.7130235  37.9617656
   1.2665144  43.6111613  37.8450930   1.3635093  44.3864248  37.9108539
   1.8606078  44.9008177  42.2157200   2.4004303  44.7579308  42.8860572
   1.1776024  45.3004928  42.5841226   1.8398232  44.9387848  42.3691622
   7.3038662  29.6445790  33.5069930   8.0324823  29.4661745  33.0608087
   7.3933555  30.4863870  33.7177108   7.4245324  29.7429669  33.4723448
  11.2846963  40.5799178  37.4102224  12.0404478  41.0130692  37.4491133
  11.3909288  39.9303947  37.9836860  11.4117134  40.5476662  37.5000250
  14.3227134  44.4072455  38.1604627  13.8862366  44.4109197  38.9163599
  13.9890050  45.0877954  37.7284205  14.2089754  44.5084911  38.2085460
   8.8956208  46.4480788  49.4847778   9.6796624  46.5611636  49.8503520
   8.6952802  45.6221925  49.6806463   8.9822233  46.3427507  49.5682164
  14.2424617  31.4486283  40.4034055  14.8850526  31.5184387  40.9895970
  14.4947638  30.7815506  39.9013597  14.3746749  31.3612631  40.4161334
   1.1700970  35.9193552  28.9843380   0.4559147  35.6331732  29.3965812
   1.6544939  36.2590178  29.6249767   1.1360334  35.9275202  29.1399014
   2.0141830  34.6586846  45.0158629   1.3213626  34.1883826  45.2619361
   2.6302157  34.4325151  45.5900336   2.0026360  34.5553978  45.1367782
   9.0526601  48.3590890  43.1314233   8.2541847  48.1190390  43.3888102
   9.5012613  48.4105283  43.8781281   9.0001212  48.3313281  43.2799157
   8.3448288  44.4223506  29.3605188   8.7599437  44.0908530  28.6689683
   7.5140218  44.1892409  29.2325324   8.2836297  44.3394762  29.2396035
  13.7436311  42.1418757  36.7936253  13.9791900  42.2863956  35.9663104
  13.8925875  42.9061165  37.1867767  13.8002114  42.2757812  36.7299857
   0.7382389  38.6252250  46.1585474   1.4622361  38.6105281  46.6450369
   0.8398525  39.3347605  45.6607443   0.8600598  38.7276953  46.1564261
  15.5726768  40.9820423  34.6305857  15.9034985  41.5148063  34.0245952
  16.1459856  41.0359311  35.2867808  15.7060447  41.0689992  34.6383639
   8.1127338  42.1051335  51.0234421   7.3200319  42.4194847  51.2087041
   8.2276265  42.3202803  50.1855206   8.0122749  42.1835172  50.9272756
  10.7858657  38.8285326  35.3129437  10.8805511  39.5674620  35.7669063
  10.1617500  38.4002801  35.7464002  10.7067687  38.8746647  35.4437585
   9.0411131  42.0071539  45.9619718   9.6149992  41.3698783  46.1168282
   8.9625935  42.0075621  45.0929376   9.1144366  41.9136650  45.8566129
  11.0381678  40.6734066  28.5466389  10.9561841  40.7436253  29.4121376
  11.6761399  41.2363810  28.3550130  11.1201516  40.7673037  28.6456339
   4.3974849  40.4394804  38.0140916   4.1394094  39.6066539  37.9872215
   4.4523332  40.6652417  37.1733416   4.3674627  40.3492575  37.8861052
   9.4775900  32.5423254  38.1145008   8.7732226  32.0532440  38.2728927
   9.5260874  32.5545729  37.2433453   9.3805951  32.4712902  38.0084348
   3.3709562  37.9932566  38.5005810   2.7959153  38.1524735  39.1369771
   2.9945238  37.3567975  38.0374261   3.2312374  37.9230379  38.5260369
   7.0382850  36.4655915  43.3598189   6.6497283  36.0410133  42.7050380
   6.3737549  36.7138065  43.8675215   6.8829778  36.4394637  43.3386057
  16.6806119  36.2230920  36.1346019  16.4242684  35.4110862  35.9443901
  17.5235433  36.2308487  35.9076206  16.7672145  36.1042918  36.0730836
  10.8609212  30.1630544  40.8722173  11.2419724  29.4808715  41.2590047
  10.0572496  29.8740146  40.6897837  10.7985673  30.0197593  40.9026229
   8.1421788  40.6954520  31.5574996   8.9562427  40.9869413  31.4457767
   8.0780930  40.0414382  30.9833289   8.2524527  40.6419715  31.4563833
  14.3631279  43.3780516  45.9704571  14.1269916  42.5468581  45.8516632
  15.0074508  43.3266123  46.5559415  14.4225949  43.2478204  46.0390465
   4.0129697  44.1676037  36.6847308   4.6503644  43.9287785  37.2299101
   4.4384768  44.3713196  35.9500468   4.1705863  44.1627048  36.6564465
   4.6532512  39.3878327  31.0222197   5.0377664  39.1686034  31.7738742
   4.4044132  40.2141273  31.1523273   4.6734584  39.4776473  31.1523274
   4.8201052  32.6684742  50.7384781   4.5054493  33.4384305  50.4754344
   4.4990985  32.1054998  50.1537008   4.7259971  32.6995011  50.6126131
  15.3867699  43.1624965  42.0332866  15.0813516  43.8953022  42.3946181
  14.6673915  42.7562894  41.7525652  15.2355042  43.2106698  42.0446003
   6.3951169  44.6448460  38.3641094   6.4690177  44.4823632  39.2182944
   7.2120675  44.8338650  38.1201576   6.5267527  44.6485202  38.4539120
   2.3732949  31.0575264  36.3530978   1.5055375  31.1297863  36.4188587
   2.6608153  31.8597343  36.5418953   2.2872697  31.1869411  36.3905744
  11.4965838  31.2053123  44.6842299  12.2419430  31.0162934  44.2705725
  11.0803142  31.7311361  44.1256156  11.5450812  31.2555269  44.5406873
   4.9355754  47.6083203  33.0954567   5.2254053  47.2172184  32.3713794
   5.6659235  47.7899908  33.5359843   5.0862639  47.5777017  33.0537374
   5.5250500  42.4100949  44.1807698   5.0262193  43.1216717  44.2592586
   6.3350724  42.7301616  44.1425860   5.5706606  42.5627798  44.1864266
   2.8761670  49.5850586  36.1614717   2.6561965  49.2947940  36.9541384
   2.6556192  48.9265541  35.6332629   2.8109264  49.4450294  36.2003626
   1.7878617  41.6723902  38.4270419   1.4991866  41.0461373  38.9616146
   2.6561965  41.6144189  38.4935099   1.8738869  41.5711446  38.5161373
  12.5756515  36.8158685  38.7452401  12.2321281  36.0949021  39.0959650
  12.6749558  36.6072537  37.9030759  12.5398558  36.6782889  38.6724081
   5.0429626  50.9579975  34.9445409   5.6953684  50.4256418  35.1736436
   4.3455234  50.6048628  35.3313284   5.0360344  50.8269498  35.0357577
   1.9910891  43.3119153  34.3512784   2.7456859  43.6932192  34.5648246
   1.3981503  43.7630297  34.8059480   2.0147604  43.4347981  34.4495662
  13.0369544  43.2784390  34.2876389  13.6027577  43.9377599  34.2034932
  12.3897447  43.6234088  34.7592791  13.0248300  43.4266331  34.3449145
   4.4517558  35.2681993  49.4769996   3.6417333  35.5739773  49.3659838
   4.9292244  35.9887576  49.5922580   4.4021036  35.4196595  49.4777067
   3.3109117  44.4827714  39.7252899   2.7889871  44.6228006  40.4104764
   3.6983137  43.7238379  39.9155017   3.2912818  44.3913238  39.8553976
   9.5076122  46.2223174  33.7113468   9.2662798  45.4891034  33.3040533
   9.6877455  46.7710031  33.0579801   9.4983746  46.1945565  33.5543691
   4.7375443  41.5131734  35.1234390   4.5418225  42.1206468  34.5294693
   4.9609788  40.8199678  34.6426064   4.7410084  41.5009259  34.9650471
   3.1353973  38.3986471  35.2415259   3.8576625  38.5627630  34.7819065
   2.6561966  39.1196136  35.1354598   3.1717703  38.5284701  35.1580873
  11.0947480  34.7350270  40.6211944  10.2558581  34.7611549  40.3850207
  11.1651848  35.3821006  41.2017290  10.9815874  34.8346396  40.6721060
   0.7861589  40.8044544  44.3469398   1.2982686  41.0828797  43.6978158
   0.4997932  41.5433838  44.7132212   0.8196453  40.9546898  44.3059277
   9.5416759  31.6335647  35.3539559  10.2443111  31.4343396  34.8759518
   9.2760947  30.8611590  35.6608403   9.6063391  31.4898613  35.3285001
  14.9705004  39.9418257  37.9073185  14.8838979  40.0973683  38.7607964
  14.5155484  40.5856333  37.5332590  14.8908261  40.0594012  37.9780292
   4.3045315  32.8970932  44.4070440   4.1128512  32.9126067  45.2569864
   5.1543911  33.0934607  44.3837095   4.4021037  32.9285284  44.5293735
   8.8430820  37.2629004  36.5298745   8.5965535  37.1824755  37.3635534
   9.1715943  36.4782472  36.3361272   8.8552064  37.1355269  36.6246268
  12.7378869  43.9712363  40.3185526  12.5993228  44.6693409  40.8234268
  11.9578867  43.8161020  39.9621708  12.6022096  44.0512530  40.3411800
  11.0756954  40.2708739  46.5707908  11.0704993  39.3988555  46.5750334
  11.7817948  40.4696908  46.0977363  11.1801958  40.1712613  46.5014943
   4.8027848  39.9985723  45.9421728   4.9471223  40.5786931  45.3064838
   5.1503496  40.3762019  46.6471582   4.8755309  40.1406427  45.9520723
   6.9747765  39.1975891  43.7246859   6.2271079  39.3906905  43.3195138
   7.1289290  38.3721111  43.4870981   6.8870192  39.1041002  43.6292265
   3.8755603  48.1888494  42.8082755   4.0245166  47.6291410  42.1556159
   4.6555605  48.2680496  43.1915274   4.0129696  48.1174060  42.7679704
  14.2332242  43.3290617  31.0802025  13.8539051  42.5427755  31.0731315
  13.5698487  43.8777474  30.9373669  14.0790717  43.2935441  31.0582822
   6.4008903  48.3603137  44.0867246   6.3252574  47.6911948  44.6418034
   6.3298762  49.0620926  44.6007912   6.3789510  48.3648045  44.2444094
   7.2149542  33.0926442  44.6142263   7.6722156  33.8250416  44.7415055
   7.2905871  32.6692907  45.3729519   7.2940512  33.1383680  44.7443340
  11.6876868  26.2716317  38.4836106  11.8060436  26.7292780  37.7503409
  11.5139044  25.4661578  38.1972324  11.6796039  26.2210089  38.3337040
   7.0579150  46.8804136  34.9190852   7.8229041  46.6113780  34.5973516
   6.9557240  46.3954147  35.6360914   7.1560646  46.7693701  34.9770679
   5.0931920  35.0828546  41.4584087   4.3027995  34.9020006  41.7801423
   5.4892543  34.3055498  41.4414382   5.0348796  34.9416007  41.5036636
   9.5797811  43.9116320  26.8990801  10.3470796  43.9716445  26.4896653
   9.1329120  43.3396761  26.4147119   9.6271238  43.8352896  26.7668511
  10.4775606  42.7170976  39.1843533   9.8020608  42.4856208  39.6856920
  10.4867982  42.1092159  38.5585638  10.3794111  42.5929901  39.1659685
   7.6069750  37.5588805  45.9407586   7.5428891  38.4198761  45.8127723
   7.7466938  37.2420798  45.1403137   7.6185220  37.6388971  45.8035799
  12.4792341  45.5736108  31.4153711  12.5612178  46.3803094  31.0915162
  12.9642083  45.5932067  32.1394485  12.5629499  45.6956771  31.4740610
   6.2888844  40.2520944  40.0823789   5.8651093  40.4525443  39.3462807
   6.1133699  39.4049792  40.1948089   6.1999725  40.1569726  39.9897479
   5.7900537  51.7671457  42.5445246   6.2796468  51.0682246  42.3620911
   5.2184770  51.4695327  43.1321304   5.7785067  51.6197681  42.6046287
   1.5771289  40.7472996  35.5151762   1.7335908  40.6819798  36.3707754
   1.9171882  41.5221548  35.3030441   1.6504524  40.8522194  35.6106356
   8.1150434  40.1230879  34.3845125   8.6565979  39.6201260  34.8483745
   8.4296993  40.0696074  33.5734610   8.2414831  40.0410300  34.3328937
  11.9867541  44.3333527  51.4972037  12.8002406  44.0618675  51.6577169
  11.8262507  44.0341066  50.6932233  12.0837489  44.2488453  51.4017443
   6.2836883  45.5148231  31.6685153   6.3529704  44.6562769  31.8078153
   7.0625338  45.7320112  31.3404177   6.4089733  45.4201095  31.6402310
   9.2639703  35.0167184  44.4367425   9.4781673  34.3778098  43.8830779
   8.6473602  35.4613008  44.0075287   9.2045032  34.9877327  44.2917856
  10.6744371  47.9385932  35.8821646  10.2824163  47.6352647  35.1644512
  10.8297443  48.7755022  35.6926600  10.6397961  48.0169769  35.7478143
  11.4278791  36.6256249  45.3750732  10.6155473  36.3182139  45.4563905
  11.8868726  36.1455249  45.9393445  11.3759176  36.5092741  45.4705327
  10.8384046  44.5035921  35.8227677  10.4798700  44.6750564  36.5991709
  10.3522756  44.9649126  35.2655675  10.7142743  44.5974892  35.8552946
   8.6554432  28.1267119  39.4254768   7.7847990  28.1005840  39.3788078
   8.9094773  27.9544312  38.6080614   8.5647992  28.0977263  39.2974905
   5.6272411  40.1835086  28.3627911   5.9164936  40.9599969  28.6371485
   5.7144210  39.6723818  29.0642410   5.6826667  40.2227005  28.5070409
   8.5232298  38.0316320  50.1579435   8.9931930  38.6558437  50.5447309
   8.5694179  37.3633296  50.7172649   8.6000174  38.0251001  50.2979506
   5.6803572  30.1373348  40.8828238   5.1642061  29.4453539  41.0079817
   5.1197501  30.8044125  40.8290837   5.5210085  30.1336605  40.8934304
   7.7495806  30.6766308  42.7121091   7.3627559  30.7015339  43.4934621
   7.2628743  30.1107986  42.2595608   7.6208314  30.5962059  42.7608995
  11.9988785  45.3939817  46.7694878  12.6368506  44.9000012  46.4357334
  11.3562877  45.3217217  46.1847104  11.9983012  45.3098825  46.6337233
  13.7245785  37.2428963  41.3360793  13.2973393  37.1555311  40.5808893
  13.0871838  37.3506738  41.9215637  13.5675392  37.2461623  41.3106235
   7.4152947  27.5633293  45.0031351   8.0446065  28.0993593  44.7252421
   7.5838810  27.4710652  45.8544917   7.5330742  27.6294656  45.0879879
   7.2166862  32.3504488  47.2757763   8.0440292  32.0789637  47.3316377
   7.2374708  33.1465330  47.6321581   7.3419712  32.4284242  47.3372945
  12.0543042  46.0859625  43.4100234  12.8435420  45.7348690  43.5302316
  12.2286639  46.8996013  43.1476868  12.1963323  46.1545482  43.3888102
   1.7936352  39.4968351  40.4628023   0.9524359  39.3972225  40.6706917
   2.0026360  40.2663831  40.8142344   1.7001045  39.5960394  40.5455338
  10.9076866  30.0969182  37.9716653  11.1126459  30.0291490  38.8173650
  10.5803290  30.9028003  37.9037830  10.8892114  30.2055122  38.0876308
   5.6053017  37.4249750  39.7125621   5.3016154  36.8705738  40.3136028
   4.9032438  37.6041960  39.2253655   5.4569227  37.3694532  39.7295326
   4.6619114  34.7350270  34.2770323   4.9378848  34.0169182  33.8647890
   5.2617783  35.3335190  34.0691429   4.7912379  34.7170641  34.1851084
   3.6671368  44.6399471  44.4197718   3.5591723  44.6501533  45.2859777
   3.8767149  45.4654251  44.2302672   3.6821479  44.7640546  44.5201810
  14.1610553  30.6500946  37.4519418  13.5484867  31.1371348  37.8373150
  14.2574728  29.9744437  37.9957069  14.0848451  30.6219255  37.5898276
   8.1629634  32.4063787  32.5516918   8.6173381  32.5774348  33.2764762
   8.6369680  31.7931898  32.1514693   8.2997955  32.3414672  32.5990679
   1.6845160  41.8912113  41.8819656   1.0933093  42.5321611  41.8522671
   2.4466183  42.3149730  41.8550956   1.7093421  42.0487952  41.8734803
   2.0805783  33.0514111  42.5487674   2.5407264  33.1253040  43.2862797
   2.1261889  33.8495365  42.1987495   2.1556338  33.1808258  42.6060430
   3.7289132  33.7180806  47.1159701   3.3374698  33.0714153  47.5515479
   3.8974995  34.3092241  47.7353956   3.6960043  33.7095074  47.2722407
  17.8035581  41.7217883  42.8796934  17.8618705  42.1704532  43.6256911
  17.1702049  42.1316696  42.4427014  17.7186877  41.8491617  42.9249483
  11.4434676  47.3421425  39.3151680  11.2454365  47.8312239  38.6207892
  10.8222387  47.5462666  39.8935814  11.3222241  47.4437963  39.2974904
   5.5042654  39.1106322  33.6561925   6.2484699  39.4980598  33.8944875
   5.6503351  38.2663747  33.8202413   5.6353240  39.0436794  33.7155894
   7.4222230  30.9056580  38.6893786   6.5758275  31.0779388  38.5635136
   7.4193362  30.1005924  39.0259615   7.2969380  30.8117609  38.7204913
   8.4920530  34.6831795  39.5555844   8.0180485  34.1573557  40.0661155
   8.8638666  34.1361268  38.9870706   8.4770419  34.5247791  39.5470991
  14.7557261  39.7434171  40.9662625  14.5155484  38.9040586  40.9705051
  15.2349268  39.8234337  41.6903398  14.7909445  39.6315570  41.0737427
  10.4204030  35.5768349  32.6181598   9.8927049  35.6597093  31.9287307
  10.8799738  36.3186221  32.6146243  10.4105880  35.6989012  32.5156293
  16.7562448  36.5235628  38.9191884  16.5172218  36.4831462  38.0812668
  16.9196349  37.3706780  39.0457605  16.7452751  36.6427713  38.8145366
  13.3608478  40.9085577  44.8496929  14.0842677  40.4558103  44.6707949
  13.0958440  41.1890243  44.0669257  13.4289751  40.8836546  44.7075644
   2.2295346  35.5045751  41.5849808   1.6048417  35.5164143  40.9775761
   1.8940941  35.9805926  42.2341048   2.0880838  35.5764268  41.5906377
   2.4137095  33.8470869  27.6422493   2.0649899  34.4990594  28.1054042
   1.9333541  33.8327982  26.9146364   2.2907339  33.9413923  27.6033584
   9.9741112  44.1471913  31.7491255  10.6975311  44.6130026  31.6055828
   9.5341704  44.2145523  30.9988852  10.0156805  44.2255750  31.6176036
   9.1427268  41.0069455  42.9991944   8.5284261  40.4627506  43.2940579
   9.6594553  40.4933692  42.5197760   9.1282930  40.8505864  42.9716172
   8.3823565  42.0773725  40.7336243   7.9551173  41.4523444  40.3001678
   8.3748509  41.7948647  41.5595250   8.3182706  41.9426506  40.7916070
   1.4986092  37.1138898  43.8024677   1.6579579  36.3582222  44.2076398
   1.3178985  37.6629838  44.4565414   1.4951451  37.0832712  43.9587383
   9.4406395  29.2800134  44.3575466   8.9446956  29.4763808  43.6667033
  10.1975457  29.6792802  44.1864268   9.4793220  29.3677868  44.2295603
   6.7109274  32.9542480  40.9478777   6.7351762  32.4202592  40.2591557
   6.9620748  32.4459789  41.6104367   6.7519193  32.8003384  40.9443421
   2.9910597  31.6813298  40.3284521   3.0308968  32.1822505  41.0419228
   2.1660261  31.7723692  40.0590444   2.8750123  31.7695114  40.3935059
   5.1740210  41.2474038  48.4304815   4.3235840  41.3845752  48.5662460
   5.3368337  40.5137816  48.8752517   5.0724073  41.1588139  48.5160415
   4.4124960  38.1973808  42.6258420   3.5816890  38.3647626  42.4193668
   4.3576477  37.8209759  43.4107305   4.2814375  38.1663539  42.7106948
   2.2208743  31.6882701  48.2614831   2.8461447  31.1444834  48.5344263
   1.7659223  31.2077618  47.6922621   2.2457004  31.5372182  48.2176424
   2.7861004  36.4729399  33.1548538   2.9263965  36.9701864  33.8577179
   3.2843537  35.7715694  33.2962751   2.8802085  36.4431378  33.2800117
   2.8161226  37.3396510  30.4841114   3.4506306  37.9356936  30.4190576
   2.8986837  37.0399968  31.2986985   2.9217777  37.3837419  30.5944201
  15.7943792  39.8711988  43.3527479  16.3861632  40.5109239  43.3845677
  16.2302787  39.1735025  43.6419545  15.9462223  39.8630338  43.4008311
   4.3940209  33.2710486  30.4586556   4.7156050  32.7913568  29.8045819
   4.6567153  34.0810132  30.2677368   4.4806235  33.3200384  30.3342048
   7.6237182  44.2929360  43.9785373   7.1162273  44.8465207  44.4226003
   7.3263828  44.3537650  43.1604147   7.5042067  44.3835671  43.9233829
   9.7899364  32.6582680  42.8210036  10.2154436  32.2055206  42.2093562
   9.1756357  32.1042751  43.0974823   9.7628009  32.5096656  42.7715061
  10.2344962  48.2092618  31.9089316   9.5174272  48.0353480  31.4436553
  10.8851700  47.9745190  31.3764802  10.2246813  48.1488410  31.7618534
   8.2293587  29.1297780  36.2300613   7.5861905  28.9795426  36.7985751
   7.8892994  28.8840125  35.4649717   8.0838664  29.0709902  36.2003628
  12.8192933  37.0857206  35.6530621  12.1484123  37.6286909  35.5243687
  13.5132684  37.5552062  35.4112316  12.8221801  37.2355478  35.5986149
   6.8679667  49.2253918  40.8842379   6.6445322  48.4672748  41.2526406
   6.3789510  49.2551940  40.1622819   6.7623116  49.1176143  40.8319120
  12.9821061  33.5413090  38.5620994  13.3348671  33.1142813  39.2366793
  12.1235862  33.4563934  38.6922071  12.9070506  33.4657831  38.6816005
   1.6804746  36.1720610  36.6203841   0.9616735  36.5884742  36.8876704
   2.0517108  36.7374849  36.0695479   1.6296678  36.3169891  36.5786648
  10.9804327  36.8048459  42.5105837  10.9602254  36.6231754  43.3640615
  11.0283527  37.6760477  42.4865420  10.9838968  36.9064997  42.6329131
   8.9250657  43.3935651  48.4354313   8.8846511  42.7485328  47.8499469
   9.7373975  43.3372268  48.7479725   9.0393810  43.2894618  48.3951262
   5.5158124  49.4454377  38.3379464   5.1018523  48.7828507  37.9483306
   6.2005498  49.5932235  37.8175158   5.5556496  49.3695035  38.2035961
   8.8823418  48.6044462  39.0903081   8.4839701  48.7146732  38.3223901
   8.2674638  48.8126528  39.6729640   8.7322308  48.6518030  39.0634380
   7.4551320  35.2118610  31.9577220   6.8616160  35.5335606  31.4061787
   7.4926598  34.3659705  31.7498326   7.3725709  35.1342938  31.8459992
  14.4145121  28.6631502  39.4905307  13.9075986  27.9560642  39.4226484
  15.2112555  28.3324691  39.6206383  14.4572360  28.5104653  39.5004302
  10.3309137  35.1698114  35.3878971  10.1022830  35.1930816  34.5457329
  10.5907213  34.3455581  35.5073981  10.3355325  35.0514194  35.2804168
   4.6128365  37.0232587  44.9904071   4.1007268  36.4153770  45.3489102
   4.4407861  37.7389180  45.4578047   4.5118002  37.0395887  45.1120294
   3.3853899  33.7074660  36.6833166   3.8611266  34.0691740  36.0483347
   2.8842499  34.3631128  36.9633309   3.3819258  33.8568849  36.6309907
  16.6165261  43.1796429  32.4746171  16.9998867  43.9287785  32.7044268
  15.8209374  43.4262248  32.2158160  16.5559043  43.3266122  32.4703745
   8.4897436  34.9456832  47.4306326   9.0468866  34.7170641  46.7984792
   8.1658501  35.7062497  47.1541539   8.5243846  35.0240669  47.2962823
   6.2080553  38.0324485  48.3958333   6.9591880  38.3476162  48.7097888
   6.4003129  37.8303656  47.5692255   6.3471967  38.0491867  48.3201729
   5.4280552  35.8515860  30.0506550   5.8079517  35.8695489  29.2657665
   4.6873149  36.2969849  29.9297398   5.3749390  35.9197635  29.9170118
  13.0565843  34.1598051  35.6382129  13.0560069  34.0046708  36.4966405
  12.8522023  35.0061039  35.5823514  13.0265621  34.2618672  35.7570068
  10.7806695  38.8395553  39.2918336  11.2760360  38.1218548  39.2522356
   9.9706471  38.5366351  39.1772823  10.7350588  38.6893200  39.2692062
   6.2265307  42.6893367  31.4415340   5.4176629  42.3660040  31.3948650
   6.7340215  41.9826589  31.3743589   6.1814973  42.5374683  31.4245635
  12.8458514  41.5899241  41.9795465  13.2713585  41.0673663  41.4265890
  12.4815434  42.1880078  41.4584087  12.8545116  41.6009468  41.8204474
   2.4812594  49.8863458  40.7392810   2.7959153  50.6999847  40.7470592
   2.8906007  49.5013677  41.4074969   2.5880692  49.9492161  40.8396902
   9.4337113  45.3033505  38.3096622   9.9048292  46.0173768  38.4786607
   9.7697292  44.7032255  38.8456491   9.5532228  45.3204969  38.4128998
  11.5214098  46.9134818  50.4888694  11.6311063  46.1243379  50.8445441
  11.8504995  46.8240755  49.6863032  11.5866504  46.7840671  50.4231085
   6.3506608  30.0760976  45.2654717   6.4834514  29.2791969  45.5935692
   6.7351761  30.6027379  45.8452992   6.4262937  30.0360892  45.3998220
  10.0711060  45.0951439  45.0724315   9.5232006  44.4709323  44.8044380
  10.5324088  45.2845711  44.3568394  10.0578269  45.0310489  44.9274746
   9.4238963  26.9991302  41.8635810   8.6184927  26.8889031  42.1803648
   9.2945699  27.1003757  41.0065676   9.2859096  26.9974972  41.7843850
  12.8804924  33.1636794  42.4575507  12.2967913  33.6646000  42.0453074
  13.2009218  32.6566350  41.8239830  12.8418099  33.1628629  42.3034014
   5.4199723  32.0777388  32.7334182   6.2415418  32.2475701  32.4915877
   4.9569374  32.2324649  32.0100479   5.4730885  32.1259121  32.5905826
   4.0095055  30.0720151  43.5132611   4.5539468  29.7311277  44.1036952
   4.0631991  30.9305612  43.6553895   4.0984174  30.1475410  43.6214484
   9.6369386  46.1002512  41.6033656  10.4567760  45.9565478  41.8649951
   9.3563464  46.7248711  42.1450094   9.7166129  46.1712864  41.7221595
  19.3082721  52.8443015  39.3229463  18.4520617  53.0051513  39.3738579
  19.3550375  51.9735079  39.3434524  19.1881833  52.7393816  39.3335529
  13.6923861  62.3805732  35.0866694  12.9406760  62.0021271  34.8582739
  14.1409873  62.4124166  34.3385504  13.6473528  62.3291340  34.9424196
  22.6176438  59.1129540  48.9289919  23.3243205  58.6181571  49.0576853
  22.8064373  59.5538622  48.1992577  22.7504343  59.1047891  48.8398964
  19.1448821  62.8031102  30.5152241  18.8100189  63.4808024  30.0796463
  19.6575691  62.4136413  29.9269113  19.1714402  62.8455680  30.3639033
  18.6853112  64.7545371  36.4563353  19.0692491  65.3232269  35.9168128
  18.6212253  64.0294881  35.9769169  18.7326539  64.7320834  36.3057215
  22.1534542  54.9035059  41.9661114  22.6990502  55.5820145  42.0255084
  22.0951419  54.7622519  41.1062696  22.2250457  54.9827060  41.8473175
  15.2708617  62.3924125  37.3529467  15.3718980  61.5824479  37.6626594
  14.6750362  62.2981071  36.7229145  15.1981156  62.2589153  37.3055705
  23.9299611  56.3319666  32.8394842  23.8139137  57.0827352  33.2686980
  24.7255498  56.0743619  33.0890929  24.0304200  56.4054513  32.9398934
  15.1109357  67.3101714  38.7544323  15.7546812  67.7514878  39.1440481
  15.4365612  66.5055140  38.6674581  15.2541185  67.2566909  38.7989800
   8.4673661  58.4144411  36.9781800   8.2323846  57.5812064  36.8714069
   8.6059302  58.6949077  36.1643001   8.4529324  58.3327915  36.8424155
  10.7663749  50.5830142  39.8766108  10.1468780  49.9922789  39.7076123
  10.6647612  51.1741577  39.2430431  10.6601424  50.5834224  39.7571098
  15.8129936  60.3213689  34.1264184  16.1345777  60.8618896  33.5225493
  16.4602033  59.7510460  34.2586474  15.9555992  60.3172864  34.0571220
  17.8631644  52.3229684  34.2098571  18.5611809  52.5017811  34.7020034
  18.1783977  51.8000023  33.5868960  18.0126982  52.2723456  34.1900581
  10.4932882  54.1282423  42.1209677  10.3691579  54.7144869  42.7559496
  11.1451166  53.6342619  42.4221952  10.5706531  54.1421228  42.2595606
  18.0519580  58.7100129  34.1978363  18.4913215  58.1017229  34.6433135
  17.9024243  58.3307502  33.4263828  18.0941046  58.5638600  34.1497530
  15.5191223  57.3044140  41.3997188  16.1640225  56.8116584  41.0808137
  15.7593000  57.4468927  42.2263266  15.6501808  57.2521583  41.4746721
  18.0577314  60.1499046  41.0504081  18.3400557  59.3550452  40.8290837
  18.7863475  60.6279634  41.0709142  18.2066878  60.1033643  41.0207096
  16.0358508  47.6922080  38.2919846  15.7061838  48.1433224  37.6223544
  15.3603510  47.6138244  38.8392852  15.8868944  47.7473215  38.2743069
  21.6528916  57.0627310  31.1509132  21.5680212  57.9188277  31.2958701
  22.1413300  56.7871634  31.8191291  21.7117814  57.1484631  31.2711213
  22.5847350  53.6812104  32.6506867  22.0558821  53.8971738  33.3104173
  23.1072370  54.3748243  32.5707836  22.5835803  53.8155241  32.7362466
  14.4746957  57.5775321  31.4514335  13.8904173  58.0825352  31.8580199
  14.0717053  57.3517708  30.7110927  14.3286261  57.6183569  31.4019360
  10.0290986  63.2930082  38.2538006   9.5458564  64.0180572  38.2297590
  10.8414304  63.5906212  38.3648164  10.0781734  63.4432436  38.2665286
  16.1005140  62.0862263  40.8587821  15.5832082  61.7269678  40.2549129
  16.7979531  61.5624437  40.8693887  16.1270721  61.9559951  40.7718080
  19.7568732  62.5357077  46.8203994  19.8452078  62.3483217  47.6682204
  20.1858445  61.8894506  46.4208841  19.8330834  62.4120084  46.8875745
  17.3239192  61.8188237  45.8021656  16.7610027  61.4060847  46.3261317
  18.0860215  61.7441142  46.2214799  17.3533640  61.7465637  45.9414657
  18.9324172  53.8240973  29.9283256  19.1720176  54.0318957  29.1158599
  19.2540013  53.0198482  30.0372200  19.0161330  53.7355074  29.8243809
  14.2414462  45.7534369  33.7742793  14.9960430  46.1212686  33.5359844
  14.0641997  46.1273923  34.5421973  14.3268941  45.8632557  33.8527682
  12.8835183  63.8086258  38.4058286  13.5855763  63.2938247  38.4631043
  12.8032666  64.1360409  39.2105161  12.9758944  63.7800484  38.5331079
  27.5349361  51.9028809  41.8190333  26.6977782  51.9730996  42.0537927
  27.5037592  51.9053304  40.9464635  27.4067643  51.9139036  41.7249881
  13.9314090  54.0461845  47.5338701  14.1034594  53.9367739  48.3823983
  14.4683447  54.6916250  47.2969894  14.0359094  54.1253846  47.6243798
  12.5971527  48.1604688  30.4720906  12.4147100  48.3776568  29.6461899
  13.4597140  48.2743700  30.5279521  12.6976116  48.2094586  30.3575394
  12.2085959  59.9992610  37.9143894  13.0474858  60.2315543  37.9617656
  12.2397728  59.1296921  37.8450930  12.3367676  59.9049556  37.9108539
  12.8338662  60.4193485  42.2157200  13.3736887  60.2764616  42.8860572
  12.1508608  60.8190236  42.5841226  12.8130816  60.4573156  42.3691622
  18.2771246  45.1631098  33.5069930  19.0057406  44.9847053  33.0608087
  18.3666139  46.0049178  33.7177108  18.3977908  45.2614977  33.4723448
  22.2579547  56.0984486  37.4102224  23.0137062  56.5316000  37.4491133
  22.3641871  55.4489255  37.9836860  22.3849717  56.0661970  37.5000250
  25.2959718  59.9257763  38.1604627  24.8594950  59.9294505  38.9163599
  24.9622633  60.6063262  37.7284205  25.1822338  60.0270219  38.2085460
  19.8688791  61.9666096  49.4847778  20.6529208  62.0796944  49.8503520
  19.6685386  61.1407233  49.6806463  19.9554817  61.8612815  49.5682164
   8.2375807  56.6393776  42.3691621   7.9714222  55.8232893  42.5282612
   8.2514371  56.6846931  41.4987137   8.2000529  56.5250681  42.2645103
  12.1433554  51.4378860  28.9843380  11.4291731  51.1517040  29.3965812
  12.6277522  51.7775486  29.6249767  12.1092917  51.4460510  29.1399014
  12.9874413  50.1772154  45.0158629  12.2946210  49.7069134  45.2619361
  13.6034741  49.9510459  45.5900336  12.9758943  50.0739286  45.1367782
  20.0259185  63.8776198  43.1314233  19.2274430  63.6375698  43.3888102
  20.4745196  63.9290591  43.8781281  19.9733796  63.8498589  43.2799157
  19.3180872  59.9408814  29.3605188  19.7332020  59.6093838  28.6689683
  18.4872801  59.7077716  29.2325324  19.2568880  59.8580070  29.2396035
   8.6469220  57.4252555  39.6503366   8.4644794  57.3999441  38.7975658
   9.3818889  57.8951493  39.6892274   8.7283284  57.4913917  39.5301284
  11.7114972  54.1437558  46.1585474  12.4354944  54.1290589  46.6450369
  11.8131109  54.8532913  45.6607443  11.8333181  54.2462261  46.1564261
  19.0859922  57.6236643  51.0234421  18.2932902  57.9380155  51.2087041
  19.2008849  57.8388111  50.1855206  18.9855332  57.7020479  50.9272756
  21.7591241  54.3470634  35.3129437  21.8538095  55.0859928  35.7669063
  21.1350084  53.9188109  35.7464002  21.6800271  54.3931954  35.4437585
  20.0143714  57.5256846  45.9619718  20.5882576  56.8884091  46.1168282
  19.9358518  57.5260929  45.0929376  20.0876949  57.4321958  45.8566129
   8.6140131  54.3046056  39.8002432   9.1913633  54.1682507  40.4394678
   7.9154193  53.8481840  40.0548017   8.5961152  54.2168322  39.9324722
  22.0114262  56.1919374  28.5466389  21.9294424  56.2621561  29.4121376
  22.6493982  56.7549118  28.3550130  22.0934099  56.2858345  28.6456339
  15.3707433  55.9580112  38.0140916  15.1126677  55.1251846  37.9872215
  15.4255916  56.1837725  37.1733416  15.3407211  55.8677883  37.8861052
  20.4508483  48.0608562  38.1145008  19.7464810  47.5717748  38.2728927
  20.4993457  48.0731037  37.2433453  20.3538535  47.9898210  38.0084348
  14.3442145  53.5117874  38.5005810  13.7691736  53.6710042  39.1369771
  13.9677821  52.8753283  38.0374261  14.2044957  53.4415687  38.5260369
  18.0115434  51.9841223  43.3598189  17.6229867  51.5595441  42.7050380
  17.3470132  52.2323373  43.8675215  17.8562362  51.9579944  43.3386057
   4.0898964  53.1557949  36.5150251   4.1759216  52.7789817  37.2963781
   4.7174761  52.7818394  36.0370209   4.1955515  53.0443431  36.5595728
  21.8341795  45.6815852  40.8722173  22.2152307  44.9994023  41.2590047
  21.0305080  45.3925454  40.6897837  21.7718257  45.5382901  40.9026229
  19.1154372  56.2139828  31.5574996  19.9295011  56.5054721  31.4457767
  19.0513513  55.5599690  30.9833289  19.2257111  56.1605023  31.4563833
  25.3363862  58.8965824  45.9704571  25.1002500  58.0653889  45.8516632
  25.9807091  58.8451431  46.5559415  25.3958533  58.7663512  46.0390465
  14.9862280  59.6861345  36.6847308  15.6236227  59.4473093  37.2299101
  15.4117352  59.8898504  35.9500468  15.1438447  59.6812356  36.6564465
   9.6774923  61.9249682  40.5681611   9.7179068  62.1964533  39.7401391
  10.2369447  62.4491590  40.9839399   9.7658269  62.0425437  40.5073500
  15.6265095  54.9063635  31.0222197  16.0110248  54.6871342  31.7738742
  15.3776716  55.7326581  31.1523273  15.6467168  54.9961781  31.1523274
  15.7933636  48.1870050  50.7384781  15.4787077  48.9569613  50.4754344
  15.4723568  47.6240306  50.1537008  15.6992555  48.2180319  50.6126131
  26.3600283  58.6810273  42.0332866  26.0546100  59.4138330  42.3946181
  25.6406499  58.2748202  41.7525652  26.2087625  58.7292006  42.0446003
  17.3683752  60.1633768  38.3641094  17.4422761  60.0008940  39.2182944
  18.1853259  60.3523958  38.1201576  17.5000111  60.1670510  38.4539120
  32.0602075  55.3203274  41.3601210  31.9926575  55.3399233  40.4903797
  32.0457737  56.1633601  41.5856881  32.0480831  55.4477008  41.2653687
  11.1289509  60.5091631  35.3935537  10.3027627  60.7553368  35.2669816
  11.1901500  60.4303712  36.2597596  11.0163676  60.5336580  35.5024482
  13.3465533  46.5760572  36.3530978  12.4787958  46.6483171  36.4188587
  13.6340737  47.3782651  36.5418953  13.2605281  46.7054719  36.3905744
  22.4698421  46.7238431  44.6842299  23.2152013  46.5348242  44.2705725
  22.0535726  47.2496669  44.1256156  22.5183396  46.7740577  44.5406873
  15.9088338  63.1268511  33.0954567  16.1986636  62.7357492  32.3713794
  16.6391819  63.3085216  33.5359843  16.0595222  63.0962325  33.0537374
  16.4983083  57.9286257  44.1807698  15.9994777  58.6402025  44.2592586
  17.3083307  58.2486924  44.1425860  16.5439190  58.0813106  44.1864266
  13.8494254  65.1035894  36.1614717  13.6294549  64.8133248  36.9541384
  13.6288776  64.4450849  35.6332629  13.7841848  64.9635602  36.2003626
  12.7611201  57.1909210  38.4270419  12.4724449  56.5646681  38.9616146
  13.6294549  57.1329497  38.4935099  12.8471453  57.0896754  38.5161373
  23.5489099  52.3343993  38.7452401  23.2053864  51.6134329  39.0959650
  23.6482141  52.1257845  37.9030759  23.5131141  52.1968197  38.6724081
  16.0162209  66.4765283  34.9445409  16.6686267  65.9441726  35.1736436
  15.3187818  66.1233936  35.3313284  16.0092927  66.3454806  35.0357577
  12.9643474  58.8304461  34.3512784  13.7189442  59.2117500  34.5648246
  12.3714087  59.2815605  34.8059480  12.9880188  58.9533288  34.4495662
  24.0102128  58.7969697  34.2876389  24.5760160  59.4562907  34.2034932
  23.3630031  59.1419396  34.7592791  23.9980884  58.9451639  34.3449145
  15.4250141  50.7867301  49.4769996  14.6149917  51.0925081  49.3659838
  15.9024828  51.5072884  49.5922580  15.3753620  50.9381903  49.4777067
  14.2841701  60.0013022  39.7252899  13.7622454  60.1413314  40.4104764
  14.6715721  59.2423687  39.9155017  14.2645402  59.9098546  39.8553976
  11.2732885  50.0518831  33.7947854  10.9857681  49.6820102  33.0579801
  11.9603353  50.5213686  33.5331559  11.3321782  50.0665801  33.6462930
  20.4808706  61.7408482  33.7113468  20.2395382  61.0076342  33.3040533
  20.6610039  62.2895339  33.0579801  20.4716330  61.7130873  33.5543691
  15.7108026  57.0317041  35.1234390  15.5150809  57.6391776  34.5294693
  15.9342372  56.3384985  34.6426064  15.7142667  57.0194567  34.9650471
  14.1086556  53.9171779  35.2415259  14.8309208  54.0812937  34.7819065
  13.6294549  54.6381444  35.1354598  14.1450287  54.0470009  35.1580873
  22.0680064  50.2535578  40.6211944  21.2291165  50.2796857  40.3850207
  22.1384431  50.9006314  41.2017290  21.9548457  50.3531704  40.6721060
  11.7594173  56.3229852  44.3469398  12.2715270  56.6014105  43.6978158
  11.4730516  57.0619146  44.7132212  11.7929036  56.4732205  44.3059277
  20.5149342  47.1520955  35.3539559  21.2175695  46.9528703  34.8759518
  20.2493531  46.3796898  35.6608403  20.5795975  47.0083921  35.3285001
   8.8461079  50.8300044  34.6433135   8.9477216  51.6326205  34.9714110
   9.6416966  50.6287380  34.3456216   8.9788985  50.9185942  34.6468490
  15.2777898  48.4156240  44.4070440  15.0861095  48.4311375  45.2569864
  16.1276494  48.6119915  44.3837095  15.3753620  48.4470592  44.5293735
   9.6624811  50.9447222  42.3854257   9.5210303  50.0931162  42.5098764
   9.9465375  50.9875882  41.5616463   9.6832658  50.8246972  42.2821881
  19.8163404  52.7814312  36.5298745  19.5698118  52.7010063  37.3635534
  20.1448527  51.9967780  36.3361272  19.8284647  52.6540577  36.6246268
  23.7111453  59.4897671  40.3185526  23.5725812  60.1878717  40.8234268
  22.9311451  59.3346328  39.9621708  23.5754680  59.5697838  40.3411800
  22.0489538  55.7894047  46.5707908  22.0437576  54.9173863  46.5750334
  22.7550532  55.9882216  46.0977363  22.1534542  55.6897921  46.5014943
  15.7760431  55.5171031  45.9421728  15.9203807  56.0972239  45.3064838
  16.1236080  55.8947327  46.6471582  15.8487892  55.6591735  45.9520723
  17.9480348  54.7161199  43.7246859  17.2003663  54.9092213  43.3195138
  18.1021874  53.8906419  43.4870981  17.8602776  54.6226310  43.6292265
  14.8488186  63.7073802  42.8082755  14.9977750  63.1476718  42.1556159
  15.6288188  63.7865804  43.1915274  14.9862280  63.6359368  42.7679704
  25.2064825  58.8475925  31.0802025  24.8271634  58.0613063  31.0731315
  24.5431071  59.3962782  30.9373669  25.0523300  58.8120749  31.0582822
  17.3741487  63.8788445  44.0867246  17.2985158  63.2097256  44.6418034
  17.3031346  64.5806233  44.6007912  17.3522094  63.8833353  44.2444094
  18.1882125  48.6111750  44.6142263  18.6454740  49.3435724  44.7415055
  18.2638454  48.1878215  45.3729519  18.2673095  48.6568988  44.7443340
  10.4315117  48.8577569  45.7031707   9.8957306  48.2457928  46.0192474
  10.4932881  49.4325705  46.3565374  10.3610749  48.8524497  45.8467134
  18.0311734  62.3989444  34.9190852  18.7961625  62.1299088  34.5973516
  17.9289824  61.9139455  35.6360914  18.1293229  62.2879009  34.9770679
  16.0664503  50.6013854  41.4584087  15.2760578  50.4205314  41.7801423
  16.4625126  49.8240806  41.4414382  16.0081380  50.4601315  41.5036636
  20.5530394  59.4301628  26.8990801  21.3203379  59.4901753  26.4896653
  20.1061703  58.8582069  26.4147119  20.6003821  59.3538204  26.7668511
  21.4508190  58.2356284  39.1843533  20.7753192  58.0041516  39.6856920
  21.4600566  57.6277467  38.5585638  21.3526694  58.1115209  39.1659685
  18.5802334  53.0774113  45.9407586  18.5161475  53.9384069  45.8127723
  18.7199521  52.7606106  45.1403137  18.5917804  53.1574279  45.8035799
  23.4524924  61.0921416  31.4153711  23.5344762  61.8988402  31.0915162
  23.9374666  61.1117375  32.1394485  23.5362082  61.2142079  31.4740610
  17.2621428  55.7706252  40.0823789  16.8383677  55.9710751  39.3462807
  17.0866283  54.9235100  40.1948089  17.1732308  55.6755034  39.9897479
  16.7633121  67.2856765  42.5445246  17.2529051  66.5867554  42.3620911
  16.1917353  66.9880635  43.1321304  16.7517651  67.1382989  42.6046287
  12.5503873  56.2658304  35.5151762  12.7068492  56.2005106  36.3707754
  12.8904466  57.0406856  35.3030441  12.6237107  56.3707502  35.6106356
  19.0883017  55.6416187  34.3845125  19.6298563  55.1386568  34.8483745
  19.4029576  55.5881382  33.5734610  19.2147414  55.5595608  34.3328937
  22.9600125  59.8518834  51.4972037  23.7734990  59.5803983  51.6577169
  22.7995091  59.5526374  50.6932233  23.0570073  59.7673760  51.4017443
  17.2569467  61.0333539  31.6685153  17.3262287  60.1748077  31.8078153
  18.0357922  61.2505420  31.3404177  17.3822317  60.9386403  31.6402310
  20.2372287  50.5352492  44.4367425  20.4514256  49.8963406  43.8830779
  19.6206186  50.9798315  44.0075287  20.1777616  50.5062635  44.2917856
  21.6476954  63.4571240  35.8821646  21.2556746  63.1537955  35.1644512
  21.8030027  64.2940330  35.6926600  21.6130544  63.5355077  35.7478143
   9.1238134  53.4493254  35.8312529   9.5037099  53.8677799  35.1672796
   8.5493499  54.0306710  36.1381372   9.0949459  53.5971113  35.7789270
  22.4011375  52.1441557  45.3750732  21.5888056  51.8367447  45.4563905
  22.8601309  51.6640557  45.9393445  22.3491759  52.0278049  45.4705327
  21.8116629  60.0221229  35.8227677  21.4531284  60.1935872  36.5991709
  21.3255340  60.4834434  35.2655675  21.6875326  60.1160200  35.8552946
  19.6287015  43.6452427  39.4254768  18.7580573  43.6191148  39.3788078
  19.8827356  43.4729619  38.6080614  19.5380575  43.6162571  39.2974905
  16.6004995  55.7020394  28.3627911  16.8897519  56.4785277  28.6371485
  16.6876793  55.1909126  29.0642410  16.6559251  55.7412313  28.5070409
  19.4964882  53.5501628  50.1579435  19.9664513  54.1743745  50.5447309
  19.5426762  52.8818604  50.7172649  19.5732758  53.5436309  50.2979506
  16.6536156  45.6558656  40.8828238  16.1374644  44.9638847  41.0079817
  16.0930085  46.3229433  40.8290837  16.4942669  45.6521913  40.8934304
  18.7228389  46.1951616  42.7121091  18.3360142  46.2200647  43.4934621
  18.2361326  45.6293294  42.2595608  18.5940898  46.1147367  42.7608995
  22.9721369  60.9125125  46.7694878  23.6101089  60.4185320  46.4357334
  22.3295460  60.8402525  46.1847104  22.9715595  60.8284133  46.6337233
  24.6978369  52.7614271  41.3360793  24.2705977  52.6740619  40.5808893
  24.0604422  52.8692046  41.9215637  24.5407976  52.7646931  41.3106235
  18.3885531  43.0818601  45.0031351  19.0178649  43.6178901  44.7252421
  18.5571394  42.9895960  45.8544917  18.5063325  43.1479963  45.0879879
  18.1899446  47.8689796  47.2757763  19.0172875  47.5974945  47.3316377
  18.2107292  48.6650638  47.6321581  18.3152296  47.9469550  47.3372945
  23.0275625  61.6044933  43.4100234  23.8168003  61.2533998  43.5302316
  23.2019223  62.4181321  43.1476868  23.1695907  61.6730790  43.3888102
  12.7668936  55.0153659  40.4628023  11.9256942  54.9157533  40.6706917
  12.9758944  55.7849139  40.8142344  12.6733628  55.1145702  40.5455338
  10.2444503  52.6373196  38.2912774   9.8501200  52.7116208  37.5162883
   9.6884619  53.0231142  38.8421136  10.1047315  52.7054970  38.2580434
  16.5785600  52.9435058  39.7125621  16.2748738  52.3891046  40.3136028
  15.8765021  53.1227268  39.2253655  16.4301810  52.8879840  39.7295326
  15.6351698  50.2535578  34.2770323  15.9111432  49.5354490  33.8647890
  16.2350367  50.8520498  34.0691429  15.7644962  50.2355948  34.1851084
  14.6403951  60.1584779  44.4197718  14.5324306  60.1686841  45.2859777
  14.8499733  60.9839559  44.2302672  14.6554063  60.2825853  44.5201810
  19.1362218  47.9249095  32.5516918  19.5905965  48.0959656  33.2764762
  19.6102264  47.3117206  32.1514693  19.2730538  47.8599980  32.5990679
  12.6577743  57.4097421  41.8819656  12.0665677  58.0506919  41.8522671
  13.4198767  57.8335038  41.8550956  12.6826004  57.5673259  41.8734803
  13.0538366  48.5699419  42.5487674  13.5139848  48.6438348  43.2862797
  13.0994473  49.3680673  42.1987495  13.1288922  48.6993566  42.6060430
  14.7021716  49.2366114  47.1159701  14.3107281  48.5899461  47.5515479
  14.8707579  49.8277549  47.7353956  14.6692626  49.2280382  47.2722407
  28.7768165  57.2403191  42.8796934  28.8351289  57.6889839  43.6256911
  28.1434633  57.6502004  42.4427014  28.6919460  57.3676925  42.9249483
  22.4167260  62.8606733  39.3151680  22.2186948  63.3497547  38.6207892
  21.7954971  63.0647974  39.8935814  22.2954824  62.9623271  39.2974904
  16.4775238  54.6291629  33.6561925  17.2217283  55.0165906  33.8944875
  16.6235934  53.7849055  33.8202413  16.6085823  54.5622102  33.7155894
  18.3954814  46.4241888  38.6893786  17.5490859  46.5964696  38.5635136
  18.3925946  45.6191232  39.0259615  18.2701963  46.3302917  38.7204913
  19.4653114  50.2017103  39.5555844  18.9913068  49.6758865  40.0661155
  19.8371250  49.6546576  38.9870706  19.4503003  50.0433099  39.5470991
   9.8426144  52.1988609  44.9239390  10.7051757  52.0984319  44.8376720
   9.5117927  51.6183319  44.3624962   9.9211340  52.0980236  44.8284796
  25.7289844  55.2619478  40.9662625  25.4888067  54.4225894  40.9705051
  26.2081852  55.3419645  41.6903398  25.7642028  55.1500878  41.0737427
  21.3936614  51.0953657  32.6181598  20.8659632  51.1782401  31.9287307
  21.8532322  51.8371529  32.6146243  21.3838464  51.2174320  32.5156293
  27.7295032  52.0420936  38.9191884  27.4904801  52.0016770  38.0812668
  27.8928933  52.8892088  39.0457605  27.7185335  52.1613021  38.8145366
  24.3341062  56.4270885  44.8496929  25.0575261  55.9743411  44.6707949
  24.0691024  56.7075551  44.0669257  24.4022335  56.4021853  44.7075644
  13.2027930  51.0231058  41.5849808  12.5781000  51.0349450  40.9775761
  12.8673525  51.4991234  42.2341048  13.0613422  51.0949575  41.5906377
  13.3869679  49.3656177  27.6422493  13.0382483  50.0175902  28.1054042
  12.9066125  49.3513290  26.9146364  13.2639923  49.4599231  27.6033584
   9.9153606  59.0831519  43.0253572   9.3853530  58.3923957  43.0748547
  10.1878699  59.0741704  42.1966281   9.8778328  58.9798650  42.9100988
  20.9473696  59.6657221  31.7491255  21.6707895  60.1315334  31.6055828
  20.5074287  59.7330831  30.9988852  20.9889388  59.7441058  31.6176036
  20.1159851  56.5254763  42.9991944  19.5016844  55.9812813  43.2940579
  20.6327136  56.0119000  42.5197760  20.1015514  56.3691172  42.9716172
  19.3556148  57.5959033  40.7336243  18.9283756  56.9708752  40.3001678
  19.3481093  57.3133955  41.5595250  19.2915289  57.4611814  40.7916070
  12.4718675  52.6324206  43.8024677  12.6312162  51.8767530  44.2076398
  12.2911569  53.1815146  44.4565414  12.4684034  52.6018020  43.9587383
  20.4138978  44.7985442  44.3575466  19.9179540  44.9949116  43.6667033
  21.1708040  45.1978110  44.1864268  20.4525803  44.8863176  44.2295603
  17.6841858  48.4727788  40.9478777  17.7084345  47.9387900  40.2591557
  17.9353332  47.9645097  41.6104367  17.7251777  48.3188692  40.9443421
   5.1949448  55.7559283  40.3821921   5.0892897  55.7106127  39.5174005
   4.4449668  56.1013063  40.6636206   5.0685051  55.8000191  40.2959250
  13.9643180  47.1998606  40.3284521  14.0041552  47.7007813  41.0419228
  13.1392845  47.2909000  40.0590444  13.8482706  47.2880422  40.3935059
  16.1472793  56.7659346  48.4304815  15.2968424  56.9031060  48.5662460
  16.3100921  56.0323124  48.8752517  16.0456657  56.6773447  48.5160415
  15.3857544  53.7159116  42.6258420  14.5549473  53.8832934  42.4193668
  15.3309061  53.3395067  43.4107305  15.2546958  53.6848847  42.7106948
  13.1941327  47.2068009  48.2614831  13.8194030  46.6630142  48.5344263
  12.7391807  46.7262926  47.6922621  13.2189587  47.0557490  48.2176424
  13.7593587  51.9914707  33.1548538  13.8996549  52.4887172  33.8577179
  14.2576120  51.2901002  33.2962751  13.8534668  51.9616686  33.2800117
  13.7893810  52.8581818  30.4841114  14.4238889  53.4542243  30.4190576
  13.8719421  52.5585276  31.2986985  13.8950361  52.9022727  30.5944201
  26.7676376  55.3897296  43.3527479  27.3594216  56.0294546  43.3845677
  27.2035370  54.6920332  43.6419545  26.9194807  55.3815646  43.4008311
  15.3672793  48.7895794  30.4586556  15.6888634  48.3098876  29.8045819
  15.6299736  49.5995440  30.2677368  15.4538818  48.8385692  30.3342048
  18.5969765  59.8114668  43.9785373  18.0894857  60.3650515  44.4226003
  18.2996412  59.8722958  43.1604147  18.4774650  59.9020979  43.9233829
  20.7631948  48.1767988  42.8210036  21.1887019  47.7240514  42.2093562
  20.1488941  47.6228058  43.0974823  20.7360593  48.0281964  42.7715061
  10.2946798  55.0549659  33.7530660  10.8039027  55.6514167  34.1341966
  10.7681070  54.7875633  33.0707080  10.4390173  55.1035475  33.7085183
  19.2026171  44.6483088  36.2300613  18.5594488  44.4980734  36.7985751
  18.8625578  44.4025433  35.4649717  19.0571248  44.5895210  36.2003628
  23.7925517  52.6042514  35.6530621  23.1216707  53.1472217  35.5243687
  24.4865267  53.0737370  35.4112316  23.7954384  52.7540786  35.5986149
  17.8412251  64.7439226  40.8842379  17.6177905  63.9858056  41.2526406
  17.3522094  64.7737248  40.1622819  17.7355700  64.6361451  40.8319120
  23.9553644  49.0598398  38.5620994  24.3081255  48.6328121  39.2366793
  23.0968446  48.9749242  38.6922071  23.8803089  48.9843139  38.6816005
  12.6537329  51.6905918  36.6203841  11.9349319  52.1070050  36.8876704
  13.0249692  52.2560156  36.0695479  12.6029261  51.8355199  36.5786648
  21.9536910  52.3233767  42.5105837  21.9334838  52.1417062  43.3640615
  22.0016111  53.1945785  42.4865420  21.9571551  52.4250305  42.6329131
  19.8983240  58.9120959  48.4354313  19.8579095  58.2670636  47.8499469
  20.7106558  58.8557576  48.7479725  20.0126394  58.8079925  48.3951262
  16.4890708  64.9639684  38.3379464  16.0751106  64.3013815  37.9483306
  17.1738082  65.1117543  37.8175158  16.5289079  64.8880343  38.2035961
  19.8556002  64.1229770  39.0903081  19.4572285  64.2332040  38.3223901
  19.2407221  64.3311836  39.6729640  19.7054891  64.1703338  39.0634380
  18.4283904  50.7303918  31.9577220  17.8348743  51.0520914  31.4061787
  18.4659182  49.8845013  31.7498326  18.3458293  50.6528246  31.8459992
  21.3041720  50.6883422  35.3878971  21.0755413  50.7116124  34.5457329
  21.5639797  49.8640889  35.5073981  21.3087908  50.5699502  35.2804168
  15.5860949  52.5417895  44.9904071  15.0739852  51.9339078  45.3489102
  15.4140445  53.2574488  45.4578047  15.4850586  52.5581194  45.1120294
  10.4326664  50.9855470  47.6406433  10.2629254  51.6456845  47.0954639
   9.9892613  51.1962032  48.3618922  10.3425997  51.1141453  47.6668062
  14.3586483  49.2259968  36.6833166  14.8343849  49.5877048  36.0483347
  13.8575083  49.8816436  36.9633309  14.3551842  49.3754157  36.6309907
  19.4630019  50.4642140  47.4306326  20.0201449  50.2355949  46.7984792
  19.1391084  51.2247805  47.1541539  19.4976429  50.5425976  47.2962823
   7.3328728  53.8902336  42.8994922   6.7855447  53.2202982  43.0175791
   8.1221106  53.5232184  42.9638390   7.3680912  53.7367322  42.9263623
  17.1813136  53.5509793  48.3958333  17.9324463  53.8661470  48.7097888
  17.3735713  53.3488964  47.5692255  17.3204551  53.5677175  48.3201729
  16.4013136  51.3701168  30.0506550  16.7812101  51.3880797  29.2657665
  15.6605732  51.8155157  29.9297398  16.3481974  51.4382943  29.9170118
   6.0915698  53.1023144  40.0540945   5.9137459  52.6499753  40.7795861
   5.8034720  53.9049305  40.2379423   6.0228651  53.1545702  40.1884448
  21.7539279  54.3580861  39.2918336  22.2492944  53.6403856  39.2522356
  20.9439054  54.0551659  39.1772823  21.7083172  54.2078507  39.2692062
  17.1997890  58.2078674  31.4415340  16.3909213  57.8845348  31.3948650
  17.7072799  57.5011897  31.3743589  17.1547557  58.0559991  31.4245635
   7.8288167  55.6350868  37.1662705   6.9633687  55.6236558  37.0545476
   7.9286983  55.4481090  38.0133844   7.7162334  55.6056929  37.2751649
  23.8191097  57.1084549  41.9795465  24.2446169  56.5858971  41.4265890
  23.4548017  57.7065386  41.4584087  23.8277700  57.1194776  41.8204474
  13.4545177  65.4048766  40.7392810  13.7691736  66.2185155  40.7470592
  13.8638591  65.0198985  41.4074969  13.5613275  65.4677469  40.8396902
  20.4069697  60.8218813  38.3096622  20.8780875  61.5359076  38.4786607
  20.7429875  60.2217563  38.8456491  20.5264812  60.8390277  38.4128998
  22.4946682  62.4320126  50.4888694  22.6043647  61.6428687  50.8445441
  22.8237578  62.3426063  49.6863032  22.5599087  62.3025979  50.4231085
  17.3239192  45.5946284  45.2654717  17.4567097  44.7977277  45.5935692
  17.7084345  46.1212687  45.8452992  17.3995521  45.5546200  45.3998220
  21.0443643  60.6136747  45.0724315  20.4964589  59.9894631  44.8044380
  21.5056672  60.8031019  44.3568394  21.0310853  60.5495797  44.9274746
  20.3971547  42.5176610  41.8635810  19.5917511  42.4074339  42.1803648
  20.2678283  42.6189065  41.0065676  20.2591680  42.5160280  41.7843850
  23.8537508  48.6822102  42.4575507  23.2700496  49.1831308  42.0453074
  24.1741802  48.1751658  41.8239830  23.8150683  48.6813937  42.3034014
  16.3932307  47.5962696  32.7334182  17.2148001  47.7661009  32.4915877
  15.9301958  47.7509957  32.0100479  16.4463469  47.6444429  32.5905826
  14.9827639  45.5905459  43.5132611  15.5272052  45.2496585  44.1036952
  15.0364574  46.4490920  43.6553895  15.0716758  45.6660718  43.6214484
  10.7958197  59.3521875  40.3871418  11.4003055  59.3117709  39.7585239
  10.5885510  60.1993027  40.4175474  10.8547095  59.4709877  40.2987535
  20.6101970  61.6187820  41.6033656  21.4300343  61.4750786  41.8649951
  20.3296047  62.2434019  42.1450094  20.6898713  61.6898172  41.7221595
   6.0309480  58.3356492  40.2570342   5.9333758  57.5252764  40.5660398
   6.8138349  58.3148286  39.8716610   6.1325616  58.2123582  40.2457204
  37.0815620  69.2752671  34.5676532  37.0509624  70.1297308  34.7394802
  37.6796969  68.9747964  35.1262676  37.1652778  69.3569168  34.6751334
  30.2815305  68.3628322  39.3229463  29.4253200  68.5236821  39.3738579
  30.3282959  67.4920386  39.3434524  30.1614416  68.2579124  39.3335529
  33.5909021  74.6314848  48.9289919  34.2975789  74.1366879  49.0576853
  33.7796957  75.0723930  48.1992577  33.7236927  74.6233198  48.8398964
  33.1267126  70.4220366  41.9661114  33.6723086  71.1005453  42.0255084
  33.0684002  70.2807827  41.1062696  33.1983040  70.5012368  41.8473175
  34.9032194  71.8504974  32.8394842  34.7871720  72.6012660  33.2686980
  35.6988081  71.5928927  33.0890929  35.0036784  71.9239820  32.9398934
  21.7396332  66.1015450  39.8766108  21.1201364  65.5108097  39.7076123
  21.6380196  66.6926885  39.2430431  21.6334008  66.1019532  39.7571098
  26.7862520  75.8398997  34.1264184  27.1078361  76.3804204  33.5225493
  27.4334616  75.2695768  34.2586474  26.9288575  75.8358172  34.0571220
  28.8364228  67.8414991  34.2098571  29.5344393  68.0203119  34.7020034
  29.1516561  67.3185331  33.5868960  28.9859565  67.7908764  34.1900581
  21.4665465  69.6467731  42.1209677  21.3424162  70.2330177  42.7559496
  22.1183750  69.1527927  42.4221952  21.5439115  69.6606536  42.2595606
  29.0252163  74.2285437  34.1978363  29.4645799  73.6202537  34.6433135
  28.8756826  73.8492810  33.4263828  29.0673629  74.0823908  34.1497530
  29.0309898  75.6684354  41.0504081  29.3133141  74.8735760  40.8290837
  29.7596058  76.1464942  41.0709142  29.1799461  75.6218951  41.0207096
  27.0091092  63.2107388  38.2919846  26.6794422  63.6618532  37.6223544
  26.3336093  63.1323551  38.8392852  26.8601528  63.2658523  38.2743069
  32.6261500  72.5812618  31.1509132  32.5412795  73.4373584  31.2958701
  33.1145883  72.3056942  31.8191291  32.6850397  72.6669939  31.2711213
  33.5579933  69.1997412  32.6506867  33.0291405  69.4157046  33.3104173
  34.0804953  69.8933550  32.5707836  33.5568386  69.3340549  32.7362466
  39.0127986  74.7743716  38.0239911  38.1825689  74.9854360  38.1873328
  38.9637238  73.9480771  37.7482195  38.8834722  74.6833323  38.0077277
  25.4479541  73.0960629  31.4514335  24.8636756  73.6010660  31.8580199
  25.0449636  72.8703016  30.7110927  25.3018845  73.1368877  31.4019360
  30.7301316  78.0542385  46.8203994  30.8184662  77.8668525  47.6682204
  31.1591028  77.4079814  46.4208841  30.8063418  77.9305392  46.8875745
  29.9056755  69.3426281  29.9283256  30.1452759  69.5504265  29.1158599
  30.2272596  68.5383790  30.0372200  29.9893913  69.2540382  29.8243809
  25.2147046  61.2719677  33.7742793  25.9693014  61.6397994  33.5359844
  25.0374580  61.6459231  34.5421973  25.3001524  61.3817864  33.8527682
  38.5081944  67.4214117  41.8190333  37.6710365  67.4916304  42.0537927
  38.4770175  67.4238612  40.9464635  38.3800227  67.4324344  41.7249881
  24.9046673  69.5647153  47.5338701  25.0767177  69.4553047  48.3823983
  25.4416031  70.2101558  47.2969894  25.0091677  69.6439154  47.6243798
  23.5704110  63.6789996  30.4720906  23.3879684  63.8961876  29.6461899
  24.4329723  63.7929008  30.5279521  23.6708700  63.7279893  30.3575394
  33.2312130  71.6169794  37.4102224  33.9869645  72.0501308  37.4491133
  33.3374455  70.9674563  37.9836860  33.3582301  71.5847277  37.5000250
  36.2692301  75.4443071  38.1604627  35.8327533  75.4479813  38.9163599
  35.9355217  76.1248570  37.7284205  36.1554921  75.5455527  38.2085460
  30.8421375  77.4851404  49.4847778  31.6261792  77.5982251  49.8503520
  30.6417969  76.6592541  49.6806463  30.9287400  77.3798123  49.5682164
  19.2108390  72.1579084  42.3691621  18.9446806  71.3418200  42.5282612
  19.2246955  72.2032239  41.4987137  19.1733113  72.0435989  42.2645103
  36.1889784  62.4856899  40.4034055  36.8315693  62.5555003  40.9895970
  36.4412805  61.8186122  39.9013597  36.3211916  62.3983247  40.4161334
  23.1166137  66.9564168  28.9843380  22.4024314  66.6702348  29.3965812
  23.6010106  67.2960794  29.6249767  23.0825501  66.9645818  29.1399014
  23.9606997  65.6957462  45.0158629  23.2678794  65.2254442  45.2619361
  24.5767324  65.4695767  45.5900336  23.9491527  65.5924594  45.1367782
  39.4036648  72.1623991  37.0524264  40.0653082  71.6014659  36.9520173
  38.7628060  71.6676021  37.3776956  39.4065515  72.0060400  37.0856605
  30.2913455  75.4594122  29.3605188  30.7064604  75.1279146  28.6689683
  29.4605385  75.2263024  29.2325324  30.2301464  75.3765378  29.2396035
  19.6201804  72.9437863  39.6503366  19.4377377  72.9184749  38.7975658
  20.3551473  73.4136801  39.6892274  19.7015868  73.0099225  39.5301284
  35.6901478  73.1789373  36.7936253  35.9257067  73.3234572  35.9663104
  35.8391042  73.9431781  37.1867767  35.7467282  73.3128428  36.7299857
  22.6847556  69.6622866  46.1585474  23.4087528  69.6475897  46.6450369
  22.7863692  70.3718221  45.6607443  22.8065765  69.7647569  46.1564261
  37.5191935  72.0191039  34.6305857  37.8500152  72.5518679  34.0245952
  38.0925023  72.0729927  35.2867808  37.6525614  72.1060608  34.6383639
  30.0592505  73.1421951  51.0234421  29.2665486  73.4565462  51.2087041
  30.1741432  73.3573419  50.1855206  29.9587916  73.2205787  50.9272756
  32.7323824  69.8655942  35.3129437  32.8270678  70.6045236  35.7669063
  32.1082668  69.4373417  35.7464002  32.6532854  69.9117262  35.4437585
  30.9876298  73.0442154  45.9619718  31.5615160  72.4069399  46.1168282
  30.9091102  73.0446237  45.0929376  31.0609533  72.9507266  45.8566129
  19.5872714  69.8231364  39.8002432  20.1646217  69.6867815  40.4394678
  18.8886776  69.3667148  40.0548017  19.5693736  69.7353630  39.9324722
  32.9846845  71.7104682  28.5466389  32.9027008  71.7806869  29.4121376
  33.6226566  72.2734426  28.3550130  33.0666683  71.8043653  28.6456339
  26.3440017  71.4765420  38.0140916  26.0859261  70.6437154  37.9872215
  26.3988499  71.7023033  37.1733416  26.3139794  71.3863191  37.8861052
  31.4241067  63.5793870  38.1145008  30.7197393  63.0903056  38.2728927
  31.4726041  63.5916345  37.2433453  31.3271118  63.5083518  38.0084348
  25.3174729  69.0303182  38.5005810  24.7424320  69.1895350  39.1369771
  24.9410405  68.3938591  38.0374261  25.1777541  68.9600995  38.5260369
  28.9848017  67.5026531  43.3598189  28.5962450  67.0780749  42.7050380
  28.3202716  67.7508681  43.8675215  28.8294945  67.4765252  43.3386057
  38.6271287  67.2601536  36.1346019  38.3707851  66.4481477  35.9443901
  39.4700600  67.2679103  35.9076206  38.7137312  67.1413533  36.0730836
  15.0631548  68.6743257  36.5150251  15.1491799  68.2975125  37.2963781
  15.6907345  68.3003702  36.0370209  15.1688099  68.5628739  36.5595728
  32.8074379  61.2001160  40.8722173  33.1884891  60.5179331  41.2590047
  32.0037663  60.9110762  40.6897837  32.7450841  61.0568209  40.9026229
  30.0886956  71.7325136  31.5574996  30.9027594  72.0240029  31.4457767
  30.0246097  71.0784998  30.9833289  30.1989695  71.6790331  31.4563833
  36.3096446  74.4151132  45.9704571  36.0735083  73.5839197  45.8516632
  36.9539675  74.3636739  46.5559415  36.3691117  74.2848820  46.0390465
  25.9594864  75.2046653  36.6847308  26.5968811  74.9658401  37.2299101
  26.3849935  75.4083812  35.9500468  26.1171030  75.1997664  36.6564465
  26.5997679  70.4248943  31.0222197  26.9842832  70.2056650  31.7738742
  26.3509299  71.2511889  31.1523273  26.6199751  70.5147089  31.1523274
  26.7666219  63.7055358  50.7384781  26.4519660  64.4754921  50.4754344
  26.4456152  63.1425614  50.1537008  26.6725138  63.7365627  50.6126131
  37.3332866  74.1995581  42.0332866  37.0278683  74.9323638  42.3946181
  36.6139082  73.7933510  41.7525652  37.1820209  74.2477314  42.0446003
  28.3416336  75.6819076  38.3641094  28.4155344  75.5194248  39.2182944
  29.1585842  75.8709266  38.1201576  28.4732694  75.6855818  38.4539120
  43.0334659  70.8388581  41.3601210  42.9659159  70.8584541  40.4903797
  43.0190321  71.6818909  41.5856881  43.0213415  70.9662316  41.2653687
  24.3198116  62.0945880  36.3530978  23.4520542  62.1668479  36.4188587
  24.6073321  62.8967959  36.5418953  24.2337864  62.2240027  36.3905744
  33.4431005  62.2423739  44.6842299  34.1884597  62.0533550  44.2705725
  33.0268310  62.7681977  44.1256156  33.4915979  62.2925885  44.5406873
  40.8193276  69.6132968  39.6347804  41.3701197  68.9801037  39.8744897
  40.8037391  70.1448360  40.3263309  40.8978472  69.5981916  39.7726663
  27.4715667  73.4471565  44.1807698  26.9727360  74.1587333  44.2592586
  28.2815891  73.7672232  44.1425860  27.5171773  73.5998414  44.1864266
  23.7343784  72.7094518  38.4270419  23.4457033  72.0831989  38.9616146
  24.6027132  72.6514805  38.4935099  23.8204036  72.6082062  38.5161373
  34.5221682  67.8529301  38.7452401  34.1786448  67.1319637  39.0959650
  34.6214725  67.6443152  37.9030759  34.4863725  67.7153505  38.6724081
  23.9376058  74.3489769  34.3512784  24.6922026  74.7302808  34.5648246
  23.3446670  74.8000913  34.8059480  23.9612771  74.4718596  34.4495662
  34.9834711  74.3155005  34.2876389  35.5492744  74.9748215  34.2034932
  34.3362615  74.6604703  34.7592791  34.9713468  74.4636947  34.3449145
  26.3982725  66.3052609  49.4769996  25.5882500  66.6110389  49.3659838
  26.8757411  67.0258192  49.5922580  26.3486203  66.4567210  49.4777067
  25.2574284  75.5198330  39.7252899  24.7355038  75.6598622  40.4104764
  25.6448305  74.7608995  39.9155017  25.2377985  75.4283854  39.8553976
  22.2465468  65.5704139  33.7947854  21.9590264  65.2005409  33.0579801
  22.9335937  66.0398994  33.5331559  22.3054366  65.5851108  33.6462930
  31.4541289  77.2593790  33.7113468  31.2127965  76.5261650  33.3040533
  31.6342622  77.8080647  33.0579801  31.4448913  77.2316181  33.5543691
  26.6840610  72.5502349  35.1234390  26.4883393  73.1577084  34.5294693
  26.9074956  71.8570293  34.6426064  26.6875251  72.5379875  34.9650471
  25.0819140  69.4357087  35.2415259  25.8041792  69.5998245  34.7819065
  24.6027133  70.1566752  35.1354598  25.1182871  69.5655317  35.1580873
  33.0412648  65.7720886  40.6211944  32.2023748  65.7982165  40.3850207
  33.1117015  66.4191622  41.2017290  32.9281041  65.8717012  40.6721060
  22.7326757  71.8415160  44.3469398  23.2447854  72.1199413  43.6978158
  22.4463099  72.5804454  44.7132212  22.7661620  71.9917513  44.3059277
  36.9170171  70.9788873  37.9073185  36.8304146  71.1344299  38.7607964
  36.4620651  71.6226948  37.5332590  36.8373428  71.0964628  37.9780292
  19.8193663  66.3485352  34.6433135  19.9209799  67.1511513  34.9714110
  20.6149550  66.1472687  34.3456216  19.9521569  66.4371250  34.6468490
  26.2510482  63.9341548  44.4070440  26.0593679  63.9496683  45.2569864
  27.1009078  64.1305223  44.3837095  26.3486204  63.9655899  44.5293735
  20.6357395  66.4632530  42.3854257  20.4942887  65.6116470  42.5098764
  20.9197958  66.5061190  41.5616463  20.6565241  66.3432280  42.2821881
  30.7895987  68.2999620  36.5298745  30.5430702  68.2195371  37.3635534
  31.1181110  67.5153088  36.3361272  30.8017231  68.1725885  36.6246268
  34.6844036  75.0082979  40.3185526  34.5458396  75.7064025  40.8234268
  33.9044034  74.8531636  39.9621708  34.5487263  75.0883146  40.3411800
  33.0222121  71.3079355  46.5707908  33.0170160  70.4359171  46.5750334
  33.7283115  71.5067524  46.0977363  33.1267125  71.2083229  46.5014943
  26.7493015  71.0356339  45.9421728  26.8936390  71.6157547  45.3064838
  27.0968663  71.4132635  46.6471582  26.8220476  71.1777043  45.9520723
  28.9212932  70.2346507  43.7246859  28.1736246  70.4277521  43.3195138
  29.0754457  69.4091726  43.4870981  28.8335360  70.1411618  43.6292265
  36.1797409  74.3661233  31.0802025  35.8004218  73.5798371  31.0731315
  35.5163654  74.9148090  30.9373669  36.0255884  74.3306057  31.0582822
  29.1614709  64.1297058  44.6142263  29.6187323  64.8621032  44.7415055
  29.2371038  63.7063523  45.3729519  29.2405679  64.1754296  44.7443340
  21.4047700  64.3762877  45.7031707  20.8689890  63.7643236  46.0192474
  21.4665465  64.9511013  46.3565374  21.3343333  64.3709805  45.8467134
  33.6342035  57.3086933  38.4836106  33.7525603  57.7663396  37.7503409
  33.4604211  56.5032194  38.1972324  33.6261206  57.2580705  38.3337040
  27.0397087  66.1199162  41.4584087  26.2493162  65.9390622  41.7801423
  27.4357710  65.3426114  41.4414382  26.9813963  65.9786622  41.5036636
  31.5262978  74.9486936  26.8990801  32.2935963  75.0087061  26.4896653
  31.0794287  74.3767377  26.4147119  31.5736405  74.8723512  26.7668511
  32.4240773  73.7541592  39.1843533  31.7485775  73.5226824  39.6856920
  32.4333149  73.1462775  38.5585638  32.3259278  73.6300517  39.1659685
  29.5534917  68.5959421  45.9407586  29.4894058  69.4569377  45.8127723
  29.6932105  68.2791414  45.1403137  29.5650387  68.6759587  45.8035799
  34.4257508  76.6106724  31.4153711  34.5077345  77.4173710  31.0915162
  34.9107250  76.6302683  32.1394485  34.5094666  76.7327386  31.4740610
  28.2354011  71.2891560  40.0823789  27.8116260  71.4896059  39.3462807
  28.0598866  70.4420408  40.1948089  28.1464892  71.1940341  39.9897479
  23.5236456  71.7843611  35.5151762  23.6801075  71.7190414  36.3707754
  23.8637049  72.5592164  35.3030441  23.5969691  71.8892810  35.6106356
  30.0615601  71.1601495  34.3845125  30.6031146  70.6571876  34.8483745
  30.3762160  71.1066690  33.5734610  30.1879998  71.0780916  34.3328937
  33.9332708  75.3704142  51.4972037  34.7467573  75.0989291  51.6577169
  33.7727674  75.0711682  50.6932233  34.0302657  75.2859068  51.4017443
  28.2302050  76.5518847  31.6685153  28.2994871  75.6933385  31.8078153
  29.0090506  76.7690727  31.3404177  28.3554901  76.4571711  31.6402310
  31.2104870  66.0537800  44.4367425  31.4246840  65.4148714  43.8830779
  30.5938769  66.4983623  44.0075287  31.1510199  66.0247943  44.2917856
  20.0970718  68.9678562  35.8312529  20.4769682  69.3863107  35.1672796
  19.5226082  69.5492018  36.1381372  20.0682043  69.1156421  35.7789270
  33.3743958  67.6626865  45.3750732  32.5620640  67.3552755  45.4563905
  33.8333893  67.1825865  45.9393445  33.3224343  67.5463357  45.4705327
  32.7849213  75.5406537  35.8227677  32.4263868  75.7121180  36.5991709
  32.2987924  76.0019742  35.2655675  32.6607910  75.6345508  35.8552946
  27.5737578  71.2205702  28.3627911  27.8630103  71.9970585  28.6371485
  27.6609377  70.7094434  29.0642410  27.6291834  71.2597620  28.5070409
  30.4697466  69.0686936  50.1579435  30.9397097  69.6929053  50.5447309
  30.5159346  68.4003912  50.7172649  30.5465341  69.0621616  50.2979506
  27.6268739  61.1743964  40.8828238  27.1107228  60.4824155  41.0079817
  27.0662668  61.8414741  40.8290837  27.4675253  61.1707221  40.8934304
  29.6960973  61.7136924  42.7121091  29.3092726  61.7385955  43.4934621
  29.2093910  61.1478602  42.2595608  29.5673482  61.6332675  42.7608995
  33.9453952  76.4310433  46.7694878  34.5833673  75.9370628  46.4357334
  33.3028044  76.3587833  46.1847104  33.9448179  76.3469441  46.6337233
  35.6710952  68.2799579  41.3360793  35.2438560  68.1925927  40.5808893
  35.0337005  68.3877354  41.9215637  35.5140559  68.2832238  41.3106235
  29.3618114  58.6003909  45.0031351  29.9911232  59.1364209  44.7252421
  29.5303977  58.5081268  45.8544917  29.4795909  58.6665271  45.0879879
  29.1632029  63.3875104  47.2757763  29.9905459  63.1160253  47.3316377
  29.1839875  64.1835946  47.6321581  29.2884879  63.4654858  47.3372945
  34.0008209  77.1230241  43.4100234  34.7900587  76.7719306  43.5302316
  34.1751807  77.9366629  43.1476868  34.1428490  77.1916098  43.3888102
  23.7401519  70.5338967  40.4628023  22.8989526  70.4342841  40.6706917
  23.9491527  71.3034447  40.8142344  23.6466212  70.6331010  40.5455338
  21.2177086  68.1558504  38.2912774  20.8233784  68.2301515  37.5162883
  20.6617203  68.5416450  38.8421136  21.0779898  68.2240278  38.2580434
  27.5518184  68.4620366  39.7125621  27.2481322  67.9076354  40.3136028
  26.8497605  68.6412576  39.2253655  27.4034394  68.4065148  39.7295326
  26.6084281  65.7720886  34.2770323  26.8844015  65.0539798  33.8647890
  27.2082950  66.3705806  34.0691429  26.7377546  65.7541256  34.1851084
  23.6310327  72.9282729  41.8819656  23.0398260  73.5692227  41.8522671
  24.3931351  73.3520346  41.8550956  23.6558588  73.0858567  41.8734803
  24.0270950  64.0884727  42.5487674  24.4872431  64.1623656  43.2862797
  24.0727057  64.8865981  42.1987495  24.1021505  64.2178874  42.6060430
  25.6754300  64.7551422  47.1159701  25.2839865  64.1084769  47.5515479
  25.8440162  65.3462857  47.7353956  25.6425210  64.7465689  47.2722407
  39.7500749  72.7588499  42.8796934  39.8083872  73.2075147  43.6256911
  39.1167216  73.1687311  42.4427014  39.6652044  72.8862233  42.9249483
  33.3899843  78.3792041  39.3151680  33.1919532  78.8682855  38.6207892
  32.7687554  78.5833282  39.8935814  33.2687408  78.4808579  39.2974904
  27.4507822  70.1476937  33.6561925  28.1949867  70.5351214  33.8944875
  27.5968518  69.3034363  33.8202413  27.5818407  70.0807410  33.7155894
  29.3687397  61.9427196  38.6893786  28.5223442  62.1150004  38.5635136
  29.3658530  61.1376540  39.0259615  29.2434547  61.8488225  38.7204913
  30.4385698  65.7202411  39.5555844  29.9645652  65.1944173  40.0661155
  30.8103833  65.1731884  38.9870706  30.4235586  65.5618407  39.5470991
  20.8158728  67.7173917  44.9239390  21.6784341  67.6169627  44.8376720
  20.4850511  67.1368627  44.3624962  20.8943924  67.6165544  44.8284796
  36.7022428  70.7804786  40.9662625  36.4620651  69.9411202  40.9705051
  37.1814435  70.8604953  41.6903398  36.7374612  70.6686186  41.0737427
  32.3669197  66.6138965  32.6181598  31.8392216  66.6967709  31.9287307
  32.8264905  67.3556837  32.6146243  32.3571048  66.7359628  32.5156293
  38.7027615  67.5606244  38.9191884  38.4637385  67.5202078  38.0812668
  38.8661516  68.4077396  39.0457605  38.6917919  67.6798329  38.8145366
  35.3073645  71.9456193  44.8496929  36.0307844  71.4928719  44.6707949
  35.0423608  72.2260859  44.0669257  35.3754919  71.9207161  44.7075644
  24.1760514  66.5416366  41.5849808  23.5513584  66.5534758  40.9775761
  23.8406108  67.0176542  42.2341048  24.0346005  66.6134883  41.5906377
  24.3602262  64.8841485  27.6422493  24.0115067  65.5361210  28.1054042
  23.8798708  64.8698598  26.9146364  24.2372506  64.9784538  27.6033584
  20.8886189  74.6016826  43.0253572  20.3586114  73.9109265  43.0748547
  21.1611282  74.5927012  42.1966281  20.8510911  74.4983958  42.9100988
  31.9206280  75.1842529  31.7491255  32.6440479  75.6500642  31.6055828
  31.4806871  75.2516138  30.9988852  31.9621972  75.2626366  31.6176036
  31.0892435  72.0440071  42.9991944  30.4749428  71.4998121  43.2940579
  31.6059720  71.5304308  42.5197760  31.0748097  71.8876480  42.9716172
  30.3288732  73.1144341  40.7336243  29.9016340  72.4894060  40.3001678
  30.3213676  72.8319263  41.5595250  30.2647873  72.9797122  40.7916070
  23.4451259  68.1509514  43.8024677  23.6044746  67.3952838  44.2076398
  23.2644153  68.7000454  44.4565414  23.4416618  68.1203328  43.9587383
  31.3871562  60.3170750  44.3575466  30.8912123  60.5134424  43.6667033
  32.1440624  60.7163418  44.1864268  31.4258387  60.4048484  44.2295603
  28.6574442  63.9913096  40.9478777  28.6816929  63.4573208  40.2591557
  28.9085915  63.4830404  41.6104367  28.6984360  63.8374000  40.9443421
  16.1682031  71.2744591  40.3821921  16.0625480  71.2291435  39.5174005
  15.4182251  71.6198371  40.6636206  16.0417634  71.3185499  40.2959250
  24.9375764  62.7183914  40.3284521  24.9774135  63.2193120  41.0419228
  24.1125428  62.8094308  40.0590444  24.8215290  62.8065730  40.3935059
  27.1205377  72.2844654  48.4304815  26.2701007  72.4216368  48.5662460
  27.2833504  71.5508432  48.8752517  27.0189240  72.1958755  48.5160415
  26.3590127  69.2344424  42.6258420  25.5282057  69.4018242  42.4193668
  26.3041644  68.8580375  43.4107305  26.2279542  69.2034155  42.7106948
  24.1673910  62.7253317  48.2614831  24.7926614  62.1815449  48.5344263
  23.7124390  62.2448234  47.6922621  24.1922171  62.5742798  48.2176424
  24.7326171  67.5100015  33.1548538  24.8729132  68.0072480  33.8577179
  25.2308704  66.8086310  33.2962751  24.8267252  67.4801994  33.2800117
  24.7626393  68.3767126  30.4841114  25.3971473  68.9727551  30.4190576
  24.8452004  68.0770584  31.2986985  24.8682944  68.4208034  30.5944201
  37.7408959  70.9082604  43.3527479  38.3326799  71.5479854  43.3845677
  38.1767954  70.2105640  43.6419545  37.8927390  70.9000954  43.4008311
  26.3405376  64.3081102  30.4586556  26.6621217  63.8284184  29.8045819
  26.6032320  65.1180748  30.2677368  26.4271402  64.3571000  30.3342048
  29.5702349  75.3299976  43.9785373  29.0627440  75.8835823  44.4226003
  29.2728995  75.3908266  43.1604147  29.4507234  75.4206287  43.9233829
  31.7364531  63.6953296  42.8210036  32.1619603  63.2425822  42.2093562
  31.1221524  63.1413366  43.0974823  31.7093177  63.5467272  42.7715061
  21.2679381  70.5734967  33.7530660  21.7771611  71.1699475  34.1341966
  21.7413654  70.3060941  33.0707080  21.4122757  70.6220783  33.7085183
  34.7658101  68.1227822  35.6530621  34.0949290  68.6657525  35.5243687
  35.4597851  68.5922678  35.4112316  34.7686968  68.2726094  35.5986149
  34.9286228  64.5783706  38.5620994  35.2813838  64.1513429  39.2366793
  34.0701030  64.4934549  38.6922071  34.8535673  64.5028447  38.6816005
  23.6269913  67.2091226  36.6203841  22.9081902  67.6255358  36.8876704
  23.9982275  67.7745464  36.0695479  23.5761845  67.3540507  36.5786648
  32.9269494  67.8419075  42.5105837  32.9067421  67.6602370  43.3640615
  32.9748695  68.7131093  42.4865420  32.9304135  67.9435613  42.6329131
  30.8715824  74.4306267  48.4354313  30.8311679  73.7855943  47.8499469
  31.6839142  74.3742884  48.7479725  30.9858977  74.3265233  48.3951262
  29.4016487  66.2489226  31.9577220  28.8081327  66.5706222  31.4061787
  29.4391765  65.4030321  31.7498326  29.3190877  66.1713554  31.8459992
  36.3610288  59.7002118  39.4905307  35.8541153  58.9931257  39.4226484
  37.1577722  59.3695307  39.6206383  36.4037527  59.5475269  39.5004302
  32.2774304  66.2068730  35.3878971  32.0487997  66.2301431  34.5457329
  32.5372380  65.3826197  35.5073981  32.2820492  66.0884810  35.2804168
  21.4059247  66.5040778  47.6406433  21.2361837  67.1642153  47.0954639
  20.9625197  66.7147340  48.3618922  21.3158581  66.6326761  47.6668062
  25.3319066  64.7445276  36.6833166  25.8076433  65.1062356  36.0483347
  24.8307666  65.4001744  36.9633309  25.3284425  64.8939465  36.6309907
  38.5630428  74.2167044  32.4746171  38.9464034  74.9658401  32.7044268
  37.7674541  74.4632864  32.2158160  38.5024210  74.3636738  32.4703745
  30.4362603  65.9827448  47.4306326  30.9934033  65.7541257  46.7984792
  30.1123668  66.7433113  47.1541539  30.4709013  66.0611284  47.2962823
  18.3061312  69.4087644  42.8994922  17.7588031  68.7388290  43.0175791
  19.0953690  69.0417492  42.9638390  18.3413495  69.2552630  42.9263623
  28.1545720  69.0695101  48.3958333  28.9057047  69.3846778  48.7097888
  28.3468296  68.8674272  47.5692255  28.2937134  69.0862483  48.3201729
  27.3745720  66.8886476  30.0506550  27.7544684  66.9066105  29.2657665
  26.6338316  67.3340465  29.9297398  27.3214557  66.9568251  29.9170118
  35.0031010  65.1968667  35.6382129  35.0025237  65.0417324  36.4966405
  34.7987190  66.0431654  35.5823514  34.9730788  65.2989288  35.7570068
  17.0648281  68.6208452  40.0540945  16.8870042  68.1685061  40.7795861
  16.7767303  69.4234613  40.2379423  16.9961234  68.6731010  40.1884448
  32.7271862  69.8766169  39.2918336  33.2225528  69.1589164  39.2522356
  31.9171638  69.5736967  39.1772823  32.6815755  69.7263815  39.2692062
  28.1730474  73.7263982  31.4415340  27.3641796  73.4030656  31.3948650
  28.6805383  73.0197204  31.3743589  28.1280140  73.5745299  31.4245635
  18.8020751  71.1536175  37.1662705  17.9366270  71.1421866  37.0545476
  18.9019567  70.9666398  38.0133844  18.6894918  71.1242237  37.2751649
  34.7923681  72.6269857  41.9795465  35.2178753  72.1044278  41.4265890
  34.4280601  73.2250694  41.4584087  34.8010284  72.6380084  41.8204474
  31.3802281  76.3404121  38.3096622  31.8513459  77.0544383  38.4786607
  31.7162459  75.7402871  38.8456491  31.4997396  76.3575585  38.4128998
  33.4679265  77.9505434  50.4888694  33.5776231  77.1613995  50.8445441
  33.7970162  77.8611370  49.6863032  33.5331671  77.8211287  50.4231085
  28.2971775  61.1131591  45.2654717  28.4299681  60.3162585  45.5935692
  28.6816928  61.6397994  45.8452992  28.3728104  61.0731508  45.3998220
  32.0176227  76.1322055  45.0724315  31.4697173  75.5079939  44.8044380
  32.4789256  76.3216327  44.3568394  32.0043436  76.0681105  44.9274746
  31.3704131  58.0361918  41.8635810  30.5650094  57.9259647  42.1803648
  31.2410866  58.1374373  41.0065676  31.2324263  58.0345588  41.7843850
  34.8270091  64.2007409  42.4575507  34.2433080  64.7016616  42.0453074
  35.1474385  63.6936966  41.8239830  34.7883267  64.1999245  42.3034014
  27.3664890  63.1148004  32.7334182  28.1880585  63.2846317  32.4915877
  26.9034541  63.2695265  32.0100479  27.4196053  63.1629737  32.5905826
  25.9560222  61.1090767  43.5132611  26.5004635  60.7681893  44.1036952
  26.0097158  61.9676228  43.6553895  26.0449342  61.1846026  43.6214484
  31.5834553  77.1373128  41.6033656  32.4032927  76.9936094  41.8649951
  31.3028631  77.7619327  42.1450094  31.6631297  77.2083480  41.7221595
  37.9823675  78.7292696  38.2919846  37.6527005  79.1803840  37.6223544
  37.3068677  78.6508859  38.8392852  37.8334112  78.7843831  38.2743069
  45.1900083  74.7178219  36.5369456  44.8753524  75.4081698  36.9689879
  44.6727025  74.6623001  35.8354957  45.0664553  74.8113108  36.4966406
  36.1879629  76.7904984  33.7742793  36.9425597  77.1583302  33.5359844
  36.0107164  77.1644539  34.5421973  36.2734108  76.9003172  33.8527682
  49.4814528  82.9399425  41.8190333  48.6442949  83.0101612  42.0537927
  49.4502759  82.9423920  40.9464635  49.3532810  82.9509652  41.7249881
  40.2236413  76.2001714  33.5069930  40.9522574  76.0217669  33.0608087
  40.3131306  77.0419794  33.7177108  40.3443075  76.2985593  33.4723448
  47.1622368  78.0042207  40.4034055  47.8048276  78.0740311  40.9895970
  47.4145389  77.3371430  39.9013597  47.2944500  77.9168555  40.4161334
  42.3973650  79.0979178  38.1145008  41.6929977  78.6088364  38.2728927
  42.4458625  79.1101653  37.2433453  42.3003702  79.0268826  38.0084348
  49.6003870  82.7786844  36.1346019  49.3440435  81.9666785  35.9443901
  50.4433184  82.7864411  35.9076206  49.6869895  82.6598841  36.0730836
  43.7806962  76.7186468  40.8722173  44.1617474  76.0364639  41.2590047
  42.9770247  76.4296070  40.6897837  43.7183424  76.5753516  40.9026229
  37.7398803  79.2240666  50.7384781  37.4252244  79.9940229  50.4754344
  37.4188735  78.6610922  50.1537008  37.6457722  79.2550935  50.6126131
  35.2930700  77.6131188  36.3530978  34.4253125  77.6853787  36.4188587
  35.5805904  78.4153267  36.5418953  35.2070448  77.7425335  36.3905744
  44.4163589  77.7609047  44.6842299  45.1617181  77.5718857  44.2705725
  44.0000893  78.2867285  44.1256156  44.4648563  77.8111192  44.5406873
  44.0145231  81.2906194  40.6211944  43.1756332  81.3167473  40.3850207
  44.0849598  81.9376929  41.2017290  43.9013625  81.3902320  40.6721060
  42.4614509  78.1891571  35.3539559  43.1640862  77.9899319  34.8759518
  42.1958698  77.4167513  35.6608403  42.5261142  78.0454537  35.3285001
  37.2243066  79.4526856  44.4070440  37.0326263  79.4681991  45.2569864
  38.0741662  79.6490530  44.3837095  37.3218788  79.4841207  44.5293735
  40.1347293  79.6482366  44.6142263  40.5919907  80.3806340  44.7415055
  40.2103621  79.2248831  45.3729519  40.2138263  79.6939604  44.7443340
  44.6074619  72.8272241  38.4836106  44.7258187  73.2848704  37.7503409
  44.4336794  72.0217502  38.1972324  44.5993790  72.7766013  38.3337040
  41.5752182  74.6823043  39.4254768  40.7045740  74.6561764  39.3788078
  41.8292524  74.5100235  38.6080614  41.4845742  74.6533187  39.2974905
  38.6001323  76.6929272  40.8828238  38.0839811  76.0009463  41.0079817
  38.0395252  77.3600049  40.8290837  38.4407836  76.6892529  40.8934304
  40.6693556  77.2322232  42.7121091  40.2825309  77.2571263  43.4934621
  40.1826494  76.6663910  42.2595608  40.5406065  77.1517982  42.7608995
  40.3350698  74.1189217  45.0031351  40.9643816  74.6549517  44.7252421
  40.5036561  74.0266576  45.8544917  40.4528493  74.1850579  45.0879879
  40.1364613  78.9060412  47.2757763  40.9638042  78.6345561  47.3316377
  40.1572459  79.7021253  47.6321581  40.2617463  78.9840166  47.3372945
  43.8274616  76.6525106  37.9716653  44.0324210  76.5847413  38.8173650
  43.5001040  77.4583927  37.9037830  43.8089864  76.7611046  38.0876308
  47.0808304  77.2056870  37.4519418  46.4682618  77.6927272  37.8373150
  47.1772479  76.5300361  37.9957069  47.0046202  77.1775179  37.5898276
  41.0827385  78.9619711  32.5516918  41.5371132  79.1330271  33.2764762
  41.5567431  78.3487822  32.1514693  41.2195705  78.8970596  32.5990679
  40.3419981  77.4612504  38.6893786  39.4956026  77.6335312  38.5635136
  40.3391113  76.6561848  39.0259615  40.2167131  77.3673533  38.7204913
  41.4118281  81.2387719  39.5555844  40.9378235  80.7129481  40.0661155
  41.7836417  80.6917191  38.9870706  41.3968170  81.0803715  39.5470991
  49.6760199  83.0791551  38.9191884  49.4369969  83.0387386  38.0812668
  49.8394100  83.9262704  39.0457605  49.6650502  83.1983636  38.8145366
  42.3604146  75.8356058  44.3575466  41.8644707  76.0319732  43.6667033
  43.1173208  76.2348726  44.1864268  42.3990970  75.9233791  44.2295603
  39.6307025  79.5098404  40.9478777  39.6549512  78.9758516  40.2591557
  39.8818499  79.0015712  41.6104367  39.6716944  79.3559308  40.9443421
  35.9108347  78.2369222  40.3284521  35.9506719  78.7378428  41.0419228
  35.0858012  78.3279616  40.0590444  35.7947873  78.3251038  40.3935059
  35.1406494  78.2438625  48.2614831  35.7659197  77.7000757  48.5344263
  34.6856974  77.7633542  47.6922621  35.1654755  78.0928106  48.2176424
  42.7097115  79.2138604  42.8210036  43.1352186  78.7611130  42.2093562
  42.0954108  78.6598674  43.0974823  42.6825760  79.0652580  42.7715061
  41.1491338  75.6853703  36.2300613  40.5059656  75.5351350  36.7985751
  40.8090745  75.4396049  35.4649717  41.0036415  75.6265826  36.2003628
  45.9018812  80.0969014  38.5620994  46.2546422  79.6698737  39.2366793
  45.0433613  80.0119857  38.6922071  45.8268256  80.0213755  38.6816005
  47.3342872  75.2187426  39.4905307  46.8273736  74.5116565  39.4226484
  48.1310305  74.8880615  39.6206383  47.3770111  75.0660577  39.5004302
  43.2506888  81.7254038  35.3878971  43.0220581  81.7486739  34.5457329
  43.5104964  80.9011505  35.5073981  43.2553076  81.6070118  35.2804168
  45.9763594  80.7153975  35.6382129  45.9757820  80.5602632  36.4966405
  45.7719774  81.5616962  35.5823514  45.9463372  80.8174596  35.7570068
  39.2704359  76.6316899  45.2654717  39.4032265  75.8347893  45.5935692
  39.6549512  77.1583302  45.8452992  39.3460688  76.5916816  45.3998220
  42.3436714  73.5547226  41.8635810  41.5382678  73.4444955  42.1803648
  42.2143450  73.6559681  41.0065676  42.2056847  73.5530896  41.7843850
  45.8002675  79.7192717  42.4575507  45.2165664  80.2201924  42.0453074
  46.1206969  79.2122274  41.8239830  45.7615850  79.7184552  42.3034014
  38.3397474  78.6333312  32.7334182  39.1613168  78.8031625  32.4915877
  37.8767125  78.7880573  32.0100479  38.3928636  78.6815045  32.5905826
  36.9292806  76.6276074  43.5132611  37.4737219  76.2867201  44.1036952
  36.9829742  77.4861536  43.6553895  37.0181925  76.7031334  43.6214484
  14.8301277  15.1760187  21.5016579  14.7995281  16.0304824  21.6734848
  15.4282625  14.8755479  22.0602723  14.9138435  15.2576683  21.6091381
   8.0300962  14.2635838  26.2569509   7.1738857  14.4244336  26.3078626
   8.0768615  13.3927902  26.2774570   7.9100073  14.1586640  26.2675575
   2.4142101  23.7998556  22.0206741   1.6625001  23.4214094  21.7922786
   2.8628113  23.8316989  21.2725551   2.3691768  23.7484163  21.8764243
  11.3394678  20.5322363  35.8629966  12.0461445  20.0374394  35.9916900
  11.5282614  20.9731445  35.1332624  11.4722584  20.5240714  35.7739011
   7.8667061  24.2223925  17.4492288   7.5318430  24.9000847  17.0136510
   8.3793932  23.8329236  16.8609160   7.8932642  24.2648503  17.2979080
   7.4071352  26.1738194  23.3903400   7.7910732  26.7425093  22.8508175
   7.3430494  25.4487704  22.9109216   7.4544780  26.1513657  23.2397262
  10.8752783  16.3227882  28.9001161  11.4208743  17.0012968  28.9595131
  10.8169659  16.1815343  28.0402743  10.9468697  16.4019883  28.7813222
   3.9926857  23.8116948  24.2869513   4.0937220  23.0017302  24.5966641
   3.3968603  23.7173894  23.6569192   3.9199396  23.6781976  24.2395752
  12.6517851  17.7512489  19.7734889  12.5357377  18.5020175  20.2027027
  13.4473738  17.4936442  20.0230976  12.7522441  17.8247336  19.8738980
   3.8327597  28.7294537  25.6884370   4.4765053  29.1707701  26.0780528
   4.1583853  27.9247963  25.6014628   3.9759426  28.6759732  25.7329847
   4.5348177  21.7406512  21.0604231   4.8564018  22.2811719  20.4565539
   5.1820273  21.1703283  21.1926521   4.6774232  21.7365687  20.9911267
   6.5849885  13.7422507  21.1438618   7.2830050  13.9210634  21.6360081
   6.9002217  13.2192846  20.5209007   6.7345222  13.6916279  21.1240628
   6.7737820  20.1292952  21.1318409   7.2131456  19.5210052  21.5773182
   6.6242483  19.7500325  20.3603874   6.8159286  19.9831423  21.0837577
   4.2409463  18.7236964  28.3337235   4.8858466  18.2309407  28.0148183
   4.4811240  18.8661750  29.1603313   4.3720048  18.6714406  28.4086768
   6.7795555  21.5691870  27.9844127   7.0618797  20.7743275  27.7630883
   7.5081715  22.0472457  28.0049188   6.9285118  21.5226466  27.9547143
  10.3747157  18.4820133  18.0849179  10.2898452  19.3381100  18.2298747
  10.8631540  18.2064457  18.7531338  10.4336054  18.5677455  18.2051260
  11.3065590  15.1004927  19.5846914  10.7777061  15.3164561  20.2444220
  11.8290610  15.7941066  19.5047883  11.3054043  15.2348064  19.6702513
  16.7613643  20.6751232  24.9579958  15.9311346  20.8861875  25.1213375
  16.7122895  19.8488286  24.6822242  16.6320378  20.5840838  24.9417324
   4.8223380  23.5055086  27.7927868   4.3050322  23.1462501  27.1889176
   5.5197772  22.9817260  27.8033934   4.8488962  23.3752774  27.7058126
   8.4786972  23.9549900  33.7544041   8.5670318  23.7676040  34.6022251
   8.9076685  23.3087330  33.3548888   8.5549075  23.8312908  33.8215792
   6.0457432  23.2381060  32.7361703   5.4828267  22.8253670  33.2601364
   6.8078456  23.1633966  33.1554846   6.0751881  23.1658460  32.8754703
   1.6053424  25.2279081  25.3398333   2.3074003  24.7131070  25.3971090
   1.5250907  25.5553232  26.1445208   1.6977184  25.1993307  25.4671125
  16.2567601  13.3221632  28.7530380  15.4196022  13.3923819  28.9877974
  16.2255832  13.3246127  27.8804682  16.1285884  13.3331859  28.6589928
   2.6532330  15.4654668  34.4678748   2.8252834  15.3560563  35.3164030
   3.1901688  16.1109073  34.2309941   2.7577334  15.5446670  34.5583845
   0.9304199  21.4185433  24.8483941   1.7693099  21.6508366  24.8957703
   0.9615968  20.5489745  24.7790977   1.0585917  21.3242380  24.8448586
   1.5556902  21.8386308  29.1497247   2.0955127  21.6957439  29.8200619
   0.8726848  22.2383059  29.5181273   1.5349056  21.8765979  29.3031668
  10.9797787  17.5177309  24.3442271  11.7355302  17.9508823  24.3831180
  11.0860111  16.8682079  24.9176907  11.1067958  17.4854793  24.4340297
  14.0177958  21.3450586  25.0944674  13.5813190  21.3487329  25.8503645
  13.6840874  22.0256085  24.6624252  13.9040578  21.4463042  25.1425507
   8.5907032  23.3858919  36.4187824   9.3747448  23.4989767  36.7843567
   8.3903626  22.5600056  36.6146510   8.6773057  23.2805638  36.5022210
  13.9375441   8.3864414  27.3374102  14.5801349   8.4562519  27.9236017
  14.1898462   7.7193637  26.8353644  14.0697573   8.2990763  27.3501381
   8.7477425  25.2969021  30.0654280   7.9492671  25.0568521  30.3228149
   9.1963437  25.3483414  30.8121328   8.6952036  25.2691412  30.2139204
  17.1522304  18.0631506  23.9864311  17.8138738  17.5022175  23.8860220
  16.5113716  17.5683537  24.3117002  17.1551172  17.9067915  24.0196651
   8.0399112  21.3601637  16.2945235   8.4550261  21.0286661  15.6029730
   7.2091042  21.1270540  16.1665371   7.9787121  21.2772893  16.1736082
  13.4387135  19.0796888  23.7276300  13.6742724  19.2242087  22.9003151
  13.5876699  19.8439296  24.1207814  13.4952938  19.2135943  23.6639904
   0.4333213  15.5630381  33.0925521   1.1573185  15.5483412  33.5790416
   0.5349349  16.2725737  32.5947489   0.5551422  15.6655085  33.0904308
  15.2677592  17.9198554  21.5645904  15.5985809  18.4526195  20.9585999
  15.8410680  17.9737442  22.2207855  15.4011271  18.0068123  21.5723686
   7.8078162  19.0429466  37.9574468   7.0151143  19.3572978  38.1427088
   7.9227089  19.2580934  37.1195253   7.7073572  19.1213303  37.8612803
  10.4809481  15.7663457  22.2469484  10.5756335  16.5052751  22.7009109
   9.8568324  15.3380933  22.6804049  10.4018511  15.8124778  22.3777632
   8.7361955  18.9449670  32.8959765   9.3100816  18.3076914  33.0508329
   8.6576758  18.9453752  32.0269423   8.8095190  18.8514781  32.7906176
   4.0925673  17.3772935  24.9480962   3.8344918  16.5444670  24.9212262
   4.1474156  17.6030548  24.1073463   4.0625451  17.2870706  24.8201099
   9.1726724   9.4801386  25.0485055   8.4683050   8.9910571  25.2068974
   9.2211698   9.4923860  24.1773499   9.0756775   9.4091034  24.9424395
   3.0660386  14.9310697  25.4345857   2.4909977  15.0902866  26.0709818
   2.6896062  14.2946106  24.9714308   2.9263198  14.8608510  25.4600415
   6.7333674  13.4034047  30.2938235   6.3448107  12.9788264  29.6390427
   6.0688373  13.6516196  30.8015262   6.5780602  13.3772768  30.2726103
  16.3756943  13.1609051  23.0686066  16.1193508  12.3488993  22.8783948
  17.2186257  13.1686618  22.8416253  16.4622969  13.0421049  23.0070883
  10.5560036   7.1008675  27.8062220  10.9370547   6.4186846  28.1930094
   9.7523320   6.8118277  27.6237884  10.4936497   6.9575724  27.8366276
   7.8372612  17.6332651  18.4915042   8.6513251  17.9247544  18.3797814
   7.7731754  16.9792514  17.9173335   7.9475351  17.5797846  18.3903880
  14.0582103  20.3158647  32.9044618  13.8220740  19.4846712  32.7856679
  14.7025332  20.2644255  33.4899462  14.1176773  20.1856335  32.9730512
   3.7080521  21.1054169  23.6187355   4.3454468  20.8665916  24.1639148
   4.1335592  21.3091328  22.8840515   3.8656687  21.1005179  23.5904512
  15.0818523  20.1003096  28.9672913  14.7764340  20.8331153  29.3286228
  14.3624739  19.6941026  28.6865699  14.9305865  20.1484829  28.9786050
   6.0901993  21.5826591  25.2981141   6.1641001  21.4201763  26.1522991
   6.9071499  21.7716781  25.0541622   6.2218351  21.5863334  25.3879166
  20.7820315  16.7396097  28.2941257  20.7144816  16.7592056  27.4243843
  20.7675978  17.5826424  28.5196927  20.7699072  16.8669831  28.1993734
  11.1916662   8.1431254  31.6182346  11.9370254   7.9541065  31.2045772
  10.7753966   8.6689492  31.0596203  11.2401636   8.1933400  31.4746920
   4.6306578  24.5461334  20.0294614   4.9204877  24.1550316  19.3053841
   5.3610059  24.7278039  20.4699889   4.7813463  24.5155148  19.9877421
  18.5678933  15.5140483  26.5687851  19.1186854  14.8808552  26.8084943
  18.5523048  16.0455876  27.2603356  18.6464129  15.4989431  26.7066709
   5.2201324  19.3479080  31.1147745   4.7213017  20.0594848  31.1932633
   6.0301548  19.6679747  31.0765907   5.2657430  19.5005929  31.1204313
   1.4829441  18.6102033  25.3610466   1.1942690  17.9839505  25.8956193
   2.3512789  18.5522321  25.4275146   1.5689693  18.5089577  25.4501420
  12.2707339  13.7536817  25.6792447  11.9272105  13.0327152  26.0299697
  12.3700381  13.5450668  24.8370806  12.2349382  13.6161020  25.6064127
   4.7380450  27.8958107  21.8785456   5.3904508  27.3634549  22.1076482
   4.0406058  27.5426759  22.2653330   4.7311168  27.7647630  21.9697624
   1.6861714  20.2497284  21.2852831   2.4407682  20.6310323  21.4988293
   1.0932327  20.7008428  21.7399527   1.7098428  20.3726112  21.3835709
  12.7320368  20.2162521  21.2216436  13.2978401  20.8755731  21.1374979
  12.0848271  20.5612219  21.6932838  12.7199124  20.3644462  21.2789192
   4.1468382  12.2060125  36.4110043   3.3368157  12.5117904  36.2999885
   4.6243068  12.9265707  36.5262627   4.0971860  12.3574726  36.4117114
   3.0059941  21.4205846  26.6592946   2.4840695  21.5606137  27.3444811
   3.3933961  20.6616510  26.8495063   2.9863642  21.3291369  26.7894023
   9.2026946  23.1601305  20.6453515   8.9613622  22.4269166  20.2380580
   9.3828279  23.7088162  19.9919848   9.1934570  23.1323696  20.4883738
   4.4326267  18.4509865  22.0574437   4.2369049  19.0584599  21.4634740
   4.6560612  17.7577809  21.5766111   4.4360908  18.4387390  21.8990518
   2.8304797  15.3364603  22.1755305   3.5527449  15.5005761  21.7159111
   2.3512789  16.0574267  22.0694645   2.8668527  15.4662832  22.0920919
  10.7898304  11.6728401  27.5551990   9.9509405  11.6989680  27.3190254
  10.8602672  12.3199137  28.1357337  10.6766698  11.7724527  27.6061107
   9.2367583   8.5713778  22.2879606   9.9393935   8.3721527  21.8099565
   8.9711771   7.7989721  22.5948450   9.3014215   8.4276744  22.2625048
  14.6655828  16.8796388  24.8413232  14.5789803  17.0351814  25.6948011
  14.2106308  17.5234464  24.4672637  14.5859085  16.9972143  24.9120339
   3.9996139   9.8349064  31.3410487   3.8079336   9.8504198  32.1909910
   4.8494735  10.0312738  31.3177142   4.0971861   9.8663415  31.4633782
   8.5381644  14.2007135  23.4638792   8.2916358  14.1202886  24.2975581
   8.8666767  13.4160603  23.2701319   8.5502888  14.0733401  23.5586315
  12.4329693  20.9090495  27.2525573  12.2944052  21.6071540  27.7574315
  11.6529691  20.7539151  26.8961755  12.2972920  20.9890661  27.2751847
  10.7707778  17.2086870  33.5047955  10.7655817  16.3366686  33.5090381
  11.4768772  17.4075039  33.0317410  10.8752782  17.1090744  33.4354990
   4.4978671  16.9363854  32.8761775   4.6422047  17.5165062  32.2404885
   4.8454320  17.3140151  33.5811629   4.5706133  17.0784558  32.8860770
   6.6698589  16.1354022  30.6586906   5.9221903  16.3285037  30.2535184
   6.8240114  15.3099242  30.4211028   6.5821016  16.0419134  30.5632312
   3.5706426  25.1266626  29.7422802   3.7195990  24.5669542  29.0896206
   4.3506429  25.2058627  30.1255320   3.7080520  25.0552191  29.7019751
  13.9283066  20.2668748  18.0142072  13.5489875  19.4805886  18.0071361
  13.2649311  20.8155605  17.8713716  13.7741541  20.2313572  17.9922869
   6.9100366  10.0304573  31.5482310   7.3672980  10.7628547  31.6755102
   6.9856695   9.6071038  32.3069566   6.9891336  10.0761811  31.6783387
   6.7529974  23.8182267  21.8530898   7.5179865  23.5491911  21.5313563
   6.6508064  23.3332278  22.5700961   6.8511469  23.7071832  21.9110726
   4.7882744  12.0206677  28.3924134   3.9978819  11.8398137  28.7141470
   5.1843367  11.2433629  28.3754429   4.7299620  11.8794138  28.4376682
  10.1726430  19.6549107  26.1183580   9.4971432  19.4234339  26.6196967
  10.1818806  19.0470290  25.4925685  10.0744935  19.5308032  26.0999732
   7.3020574  14.4966936  32.8747633   7.2379715  15.3576892  32.7467770
   7.4417762  14.1798929  32.0743184   7.3136044  14.5767103  32.7375846
  12.1743165  22.5114239  18.3493758  12.2563002  23.3181226  18.0255209
  12.6592907  22.5310199  19.0734531  12.2580323  22.6334902  18.4080657
   5.9839668  17.1899075  27.0163836   5.5601917  17.3903574  26.2802854
   5.8084523  16.3427923  27.1288136   5.8950549  17.0947857  26.9237526
   5.4851361  28.7049588  29.4785293   5.9747292  28.0060378  29.2960958
   4.9135594  28.4073458  30.0661350   5.4735891  28.5575812  29.5386334
   1.2722113  17.6851127  22.4491808   1.4286732  17.6197930  23.3047800
   1.6122706  18.4599679  22.2370488   1.3455348  17.7900325  22.5446403
   7.8101258  17.0609010  21.3185172   8.3516803  16.5579391  21.7823792
   8.1247817  17.0074205  20.5074657   7.9365655  16.9788431  21.2668984
  11.6818365  21.2711658  38.4312084  12.4953230  20.9996807  38.5917216
  11.5213331  20.9719198  37.6272280  11.7788313  21.1866584  38.3357490
   5.9787707  22.4526362  18.6025200   6.0480528  21.5940900  18.7418200
   6.7576162  22.6698243  18.2744224   6.1040557  22.3579226  18.5742357
   8.9590527  11.9545315  31.3707472   9.1732496  11.3156229  30.8170826
   8.3424426  12.3991139  30.9415334   8.8995856  11.9255459  31.2257903
  10.3695195  24.8764063  22.8161693   9.9774987  24.5730778  22.0984559
  10.5248267  25.7133153  22.6266647  10.3348785  24.9547900  22.6818190
  11.1229615  13.5634380  32.3090779  10.3106297  13.2560270  32.3903952
  11.5819550  13.0833380  32.8733491  11.0710000  13.4470872  32.4045373
  10.5334870  21.4414052  22.7567724  10.1749524  21.6128695  23.5331756
  10.0473580  21.9027258  22.1995722  10.4093567  21.5353023  22.7892993
   8.2183122  14.9694451  37.0919481   8.6882754  15.5936568  37.4787356
   8.2645003  14.3011427  37.6512696   8.2950998  14.9629132  37.2319553
  11.6939609  22.3317948  33.7034924  12.3319329  21.8378144  33.3697380
  11.0513701  22.2595348  33.1187151  11.6933835  22.2476956  33.5677279
  13.4196609  14.1807094  28.2700840  12.9924217  14.0933443  27.5148940
  12.7822662  14.2884869  28.8555684  13.2626216  14.1839754  28.2446282
   6.9117686   9.2882619  34.2097809   7.7391115   9.0167768  34.2656424
   6.9325532  10.0843461  34.5661627   7.0370536   9.3662373  34.2712992
  11.7493866  23.0237756  30.3440281  12.5386244  22.6726821  30.4642363
  11.9237463  23.8374145  30.0816915  11.8914147  23.0923613  30.3228149
   1.4887176  16.4346482  27.3968070   0.6475183  16.3350356  27.6046964
   1.6977184  17.2041962  27.7482391   1.3951869  16.5338525  27.4795385
  10.6027690   7.0347313  24.9056700  10.8077283   6.9669621  25.7513697
  10.2754114   7.8406134  24.8377877  10.5842938   7.1433253  25.0216355
   5.3003841  14.3627881  26.6465668   4.9966978  13.8083869  27.2476075
   4.5983262  14.5420091  26.1593702   5.1520051  14.3072664  26.6635373
   3.3622192  21.5777602  31.3537765   3.2542547  21.5879664  32.2199823
   3.5717973  22.4032382  31.1642719   3.3772303  21.7018677  31.4541857
  13.8561377   7.5879077  24.3859465  13.2435691   8.0749479  24.7713197
  13.9525552   6.9122568  24.9297116  13.7799275   7.5597386  24.5238323
   1.3795984  18.8290244  28.8159703   0.7883917  19.4699742  28.7862718
   2.1417007  19.2527862  28.7891002   1.4044244  18.9866083  28.8074850
   3.4239956  10.6558937  34.0499748   3.0325521  10.0092284  34.4855525
   3.5925819  11.2470372  34.6694003   3.3910867  10.6473205  34.2062454
  17.4986405  18.6596014  29.8136981  17.5569529  19.1082663  30.5596958
  16.8652873  19.0694827  29.3767061  17.4137700  18.7869749  29.8589529
  11.1385500  24.2799556  26.2491727  10.9405189  24.7690370  25.5547939
  10.5173211  24.4840797  26.8275861  11.0173065  24.3816094  26.2314951
   5.1993478  16.0484453  20.5901972   5.9435523  16.4358729  20.8284921
   5.3454175  15.2041878  20.7542459   5.3304064  15.9814926  20.6495941
   8.1871354  11.6209926  26.4895891   7.7131309  11.0951688  27.0001202
   8.5589490  11.0739399  25.9210752   8.1721243  11.4625923  26.4811038
  14.4508085  16.6812302  27.9002671  14.2106308  15.8418717  27.9045098
  14.9300092  16.7612468  28.6243445  14.4860269  16.5693701  28.0077474
  16.4513272  13.4613759  25.8531931  16.2123042  13.4209593  25.0152715
  16.6147173  14.3084911  25.9797652  16.4403575  13.5805844  25.7485413
  13.0559302  17.8463708  31.7836976  13.7793501  17.3936235  31.6047996
  12.7909264  18.1268374  31.0009304  13.1240575  17.8214677  31.6415691
   1.9246170  12.4423882  28.5189855   1.2999241  12.4542274  27.9115808
   1.5891765  12.9184057  29.1681095   1.7831662  12.5142399  28.5246423
   9.6691936  21.0850044  18.6831302  10.3926135  21.5508157  18.5395875
   9.2292527  21.1523654  17.9328899   9.7107629  21.1633881  18.5516083
   8.8378091  17.9447586  29.9331991   8.2235085  17.4005637  30.2280626
   9.3545376  17.4311823  29.4537807   8.8233754  17.7883995  29.9056219
   8.0774389  19.0151856  27.6676289   7.6501997  18.3901575  27.2341725
   8.0699333  18.7326778  28.4935297   8.0133530  18.8804637  27.7256117
   1.1936916  14.0517029  30.7364723   1.3530402  13.2960354  31.1416445
   1.0129809  14.6007969  31.3905461   1.1902275  14.0210843  30.8927429
   9.1357219   6.2178265  31.2915513   8.6397780   6.4141939  30.6007080
   9.8926281   6.6170933  31.1204315   9.1744043   6.3055999  31.1635650
   6.4060098   9.8920611  27.8818823   6.4302586   9.3580723  27.1931603
   6.6571572   9.3837920  28.5444414   6.4470017   9.7381515  27.8783468
   4.8691033  18.1852169  35.3644862   4.0186664  18.3223883  35.5002507
   5.0319161  17.4515947  35.8092564   4.7674897  18.0966270  35.4500461
   4.1075784  15.1351939  29.5598467   3.2767714  15.3025757  29.3533715
   4.0527301  14.7587890  30.3447352   3.9765199  15.1041670  29.6446995
  15.4894616  16.8090119  30.2867525  16.0812456  17.4487370  30.3185723
  15.9253610  16.1113156  30.5759592  15.6413047  16.8008469  30.3348358
   7.3188006  21.2307491  30.9125419   6.8113097  21.7843338  31.3566050
   7.0214652  21.2915781  30.0944194   7.1992891  21.3213803  30.8573876
   9.4850188   9.5960811  29.7550082   9.9105260   9.1433337  29.1433609
   8.8707181   9.0420882  30.0314870   9.4578833   9.4474787  29.7055108
   9.9295786  25.1470749  18.8429363   9.2125096  24.9731611  18.3776600
  10.5802524  24.9123321  18.3104849   9.9197637  25.0866542  18.6958581
  12.5143757  14.0235338  22.5870668  11.8434947  14.5665040  22.4583733
  13.2083508  14.4930193  22.3452363  12.5172625  14.1733609  22.5326196
   6.5630491  26.1632050  27.8182426   6.3396146  25.4050879  28.1866453
   6.0740334  26.1930071  27.0962866   6.4573940  26.0554274  27.7659167
  12.6771885  10.4791221  25.4961041  13.0299495  10.0520944  26.1706840
  11.8186686  10.3942065  25.6262118  12.6021329  10.4035962  25.6156052
   1.3755570  13.1098741  23.5543888   0.6567559  13.5262874  23.8216751
   1.7467932  13.6752980  23.0035526   1.3247502  13.2548022  23.5126695
  10.6755151  13.7426590  29.4445883  10.6553078  13.5609885  30.2980662
  10.7234351  14.6138608  29.4205467  10.6789792  13.8443128  29.5669178
   8.6201480  20.3313782  35.3694360   8.5797335  19.6863459  34.7839516
   9.4324799  20.2750399  35.6819772   8.7344634  20.2272749  35.3291309
   5.2108948  26.3832508  25.2719511   4.7969347  25.7206638  24.8823353
   5.8956322  26.5310367  24.7515205   5.2507320  26.3073166  25.1376008
   8.5774242  25.5422593  26.0243127   8.1790525  25.6524863  25.2563948
   7.9625462  25.7504659  26.6069687   8.4273131  25.5896161  25.9974427
  14.1095945   5.6009633  26.4245354  13.6026810   4.8938773  26.3566531
  14.9063379   5.2702822  26.5546430  14.1523184   5.4482784  26.4344349
  10.0259961  12.1076245  22.3219017   9.7973654  12.1308947  21.4797376
  10.2858037  11.2833712  22.4414028  10.0306149  11.9892325  22.2144215
   4.3079189  13.9610718  31.9244118   3.7958092  13.3531901  32.2829149
   4.1358685  14.6767311  32.3918093   4.2068826  13.9774018  32.0460341
   3.0804723  10.6452792  23.6173213   3.5562090  11.0069871  22.9823394
   2.5793323  11.3009259  23.8973356   3.0770082  10.7946980  23.5649954
  16.3116085  20.1174560  19.4086218  16.6949691  20.8665916  19.6384315
  15.5160198  20.3640379  19.1498207  16.2509867  20.2644254  19.4043792
   8.1848260  11.8834963  34.3646373   8.7419690  11.6548773  33.7324839
   7.8609325  12.6440629  34.0881586   8.2194670  11.9618800  34.2302870
   5.9031377  14.9702616  35.3298380   6.6542704  15.2854293  35.6437934
   6.0953953  14.7681787  34.5032302   6.0422791  14.9869998  35.2541776
  12.7516667  11.0976183  22.5722176  12.7510893  10.9424839  23.4306452
  12.5472847  11.9439170  22.5163561  12.7216445  11.1996803  22.6910115
  10.4757519  15.7773684  26.2258383  10.9711184  15.0596679  26.1862403
   9.6657295  15.4744482  26.1112870  10.4301412  15.6271331  26.2032108
   5.9216130  19.6271498  18.3755387   5.1127453  19.3038171  18.3288696
   6.4291039  18.9204720  18.3083636   5.8765797  19.4752814  18.3585681
  12.5409338  18.5277372  28.9135511  12.9664409  18.0051794  28.3605936
  12.1766258  19.1258209  28.3924134  12.5495940  18.5387599  28.7544521
   2.1763418  26.8241589  27.6732857   2.4909977  27.6377978  27.6810639
   2.5856831  26.4391808  28.3415016   2.2831516  26.8870292  27.7736948
   9.1287937  22.2411636  25.2436669   9.5999115  22.9551899  25.4126654
   9.4648116  21.6410386  25.7796538   9.2483052  22.2583100  25.3469045
   9.7661884  22.0329570  32.0064361   9.2182830  21.4087454  31.7384427
  10.2274912  22.2223842  31.2908441   9.7529093  21.9688621  31.8614793
  12.5755748  10.1014925  29.3915554  11.9918737  10.6024131  28.9793121
  12.8960042   9.5944481  28.7579877  12.5368923  10.1006760  29.2374061
   9.3320210  23.0380643  28.5373703  10.1518584  22.8943609  28.7989998
   9.0514288  23.6626842  29.0790141   9.4116953  23.1090995  28.6561642
  19.0033545  29.7821146  26.2569509  18.1471441  29.9429644  26.3078626
  19.0501199  28.9113210  26.2774570  18.8832657  29.6771948  26.2675575
  13.3874685  39.3183864  22.0206741  12.6357584  38.9399402  21.7922786
  13.8360697  39.3502297  21.2725551  13.3424352  39.2669471  21.8764243
  18.8399645  39.7409233  17.4492288  18.5051013  40.4186155  17.0136510
  19.3526515  39.3514544  16.8609160  18.8665226  39.7833811  17.2979080
  18.3803936  41.6923502  23.3903400  18.7643315  42.2610400  22.8508175
  18.3163077  40.9673012  22.9109216  18.4277363  41.6698965  23.2397262
  14.9659441  39.3302256  24.2869513  15.0669804  38.5202610  24.5966641
  14.3701186  39.2359202  23.6569192  14.8931980  39.1967284  24.2395752
  23.6250435  33.2697797  19.7734889  23.5089961  34.0205483  20.2027027
  24.4206322  33.0121750  20.0230976  23.7255024  33.3432644  19.8738980
  14.8060181  44.2479845  25.6884370  15.4497636  44.6893009  26.0780528
  15.1316436  43.4433271  25.6014628  14.9492009  44.1945040  25.7329847
   8.1624485  35.3522542  23.9121847   7.9274670  34.5190195  23.8054116
   8.3010126  35.6327208  23.0983048   8.1480148  35.2706046  23.7764202
  10.4614573  27.5208273  26.8106155   9.8419604  26.9300920  26.6416170
  10.3598436  28.1119708  26.1770478  10.3552248  27.5212355  26.6911144
  15.5080760  37.2591820  21.0604231  15.8296601  37.7997027  20.4565539
  16.1552857  36.6888591  21.1926521  15.6506816  37.2550995  20.9911267
  17.5582468  29.2607815  21.1438618  18.2562633  29.4395942  21.6360081
  17.8734801  28.7378154  20.5209007  17.7077806  29.2101587  21.1240628
  10.1883706  31.0660555  29.0549724  10.0642403  31.6523000  29.6899543
  10.8401990  30.5720750  29.3561999  10.2657355  31.0799359  29.1935653
  17.7470404  35.6478260  21.1318409  18.1864039  35.0395360  21.5773182
  17.5975067  35.2685633  20.3603874  17.7891869  35.5016731  21.0837577
  15.2142047  34.2422272  28.3337235  15.8591049  33.7494715  28.0148183
  15.4543824  34.3847058  29.1603313  15.3452632  34.1899714  28.4086768
  17.7528138  37.0877177  27.9844127  18.0351381  36.2928583  27.7630883
  18.4814299  37.5657765  28.0049188  17.9017702  37.0411774  27.9547143
  15.7309332  24.6300211  25.2259893  15.4012662  25.0811355  24.5563591
  15.0554334  24.5516375  25.7732899  15.5819768  24.6851347  25.2083116
  21.3479740  34.0005441  18.0849179  21.2631035  34.8566408  18.2298747
  21.8364124  33.7249765  18.7531338  21.4068638  34.0862762  18.2051260
  22.9385740  20.6185734  23.4709503  22.6239181  21.3089213  23.9029926
  22.4212681  20.5630517  22.7695004  22.8150210  20.7120623  23.4306452
  22.2798174  30.6190235  19.5846914  21.7509645  30.8349869  20.2444220
  22.8023194  31.3126374  19.5047883  22.2786627  30.7533372  19.6702513
  14.1697781  34.5153452  18.3854382  13.5854997  35.0203483  18.7920246
  13.7667877  34.2895839  17.6450974  14.0237085  34.5561700  18.3359407
   9.7241810  40.2308213  25.1878053   9.2409388  40.9558703  25.1637637
  10.5365128  40.5284343  25.2988211   9.7732558  40.3810567  25.2005333
  15.7955964  39.0240394  27.7927868  15.2782906  38.6647809  27.1889176
  16.4930355  38.5002568  27.8033934  15.8221545  38.8938082  27.7058126
  18.6274996  30.7619104  16.8623302  18.8670999  30.9697088  16.0498645
  18.9490837  29.9576613  16.9712247  18.7112154  30.6733205  16.7583855
  13.9365286  22.6912500  20.7082840  14.6911254  23.0590817  20.4699890
  13.7592821  23.0652054  21.4762020  14.0219764  22.8010688  20.7867729
  12.5786007  40.7464389  25.3398333  13.2806587  40.2316378  25.3971090
  12.4983490  41.0738540  26.1445208  12.6709768  40.7178615  25.4671125
  13.6264914  30.9839976  34.4678748  13.7985418  30.8745871  35.3164030
  14.1634271  31.6294381  34.2309941  13.7309918  31.0631978  34.5583845
  12.2922351  25.0982819  17.4060953  12.1097924  25.3154700  16.5801946
  13.1547964  25.2121832  17.4619568  12.3926940  25.1472717  17.2915440
  11.9036783  36.9370741  24.8483941  12.7425682  37.1693674  24.8957703
  11.9348552  36.0675052  24.7790977  12.0318500  36.8427687  24.8448586
  12.5289486  37.3571616  29.1497247  13.0687711  37.2142747  29.8200619
  11.8459432  37.7568367  29.5181273  12.5081640  37.3951287  29.3031668
  17.9722070  22.1009230  20.4409977  18.7008230  21.9225184  19.9948133
  18.0616963  22.9427309  20.6517155  18.0928732  22.1993108  20.4063495
   7.9326631  33.5771907  29.3031668   7.6665046  32.7611024  29.4622659
   7.9465195  33.6225063  28.4327184   7.8951353  33.4628812  29.1985150
  11.8384378  28.3756991  15.9183426  11.1242555  28.0895171  16.3305859
  12.3228346  28.7153617  16.5589814  11.8043741  28.3838641  16.0739061
  12.6825237  27.1150285  31.9498676  11.9897034  26.6447265  32.1959408
  13.2985564  26.8888590  32.5240383  12.6709767  27.0117417  32.0707829
  19.0131696  36.8786945  16.2945235  19.4282844  36.5471969  15.6029730
  18.1823625  36.6455848  16.1665371  18.9519704  36.7958201  16.1736082
   8.3420044  34.3630686  26.5843412   8.1595618  34.3377572  25.7315705
   9.0769713  34.8329624  26.6232321   8.4234108  34.4292049  26.4641331
  24.4119719  34.5982196  23.7276300  24.6475308  34.7427395  22.9003151
  24.5609282  35.3624604  24.1207814  24.4685522  34.7321251  23.6639904
  11.4065796  31.0815689  33.0925521  12.1305768  31.0668720  33.5790416
  11.5081933  31.7911045  32.5947489  11.5284005  31.1840392  33.0904308
  26.2410175  33.4383862  21.5645904  26.5718392  33.9711502  20.9585999
  26.8143263  33.4922750  22.2207855  26.3743854  33.5253431  21.5723686
  18.7810746  34.5614774  37.9574468  17.9883726  34.8758286  38.1427088
  18.8959673  34.7766242  37.1195253  18.6806156  34.6398611  37.8612803
  21.4542064  31.2848765  22.2469484  21.5488919  32.0238059  22.7009109
  20.8300908  30.8566241  22.6804049  21.3751095  31.3310086  22.3777632
   8.3090955  31.2424187  26.7342479   8.8864457  31.1060638  27.3734724
   7.6105016  30.7859971  26.9888063   8.2911976  31.1546453  26.8664769
  21.7065086  33.1297505  15.4806436  21.6245248  33.1999692  16.3461423
  22.3444806  33.6927249  15.2890177  21.7884923  33.2236476  15.5796385
  15.0658257  32.8958243  24.9480962  14.8077501  32.0629978  24.9212262
  15.1206740  33.1215856  24.1073463  15.0358035  32.8056014  24.8201099
  20.1459307  24.9986693  25.0485055  19.4415634  24.5095879  25.2068974
  20.1944281  25.0109168  24.1773499  20.0489359  24.9276341  24.9424395
  14.0392969  30.4496005  25.4345857  13.4642560  30.6088174  26.0709818
  13.6628645  29.8131414  24.9714308  13.8995781  30.3793818  25.4600415
  17.7066258  28.9219355  30.2938235  17.3180690  28.4973572  29.6390427
  17.0420956  29.1701504  30.8015262  17.5513186  28.8958076  30.2726103
   3.7849788  30.0936080  23.4490298   3.8710040  29.7167948  24.2303828
   4.4125585  29.7196526  22.9710256   3.8906339  29.9821562  23.4935775
  18.8105196  33.1517959  18.4915042  19.6245835  33.4432852  18.3797814
  18.7464337  32.4977821  17.9173335  18.9207935  33.0983154  18.3903880
  14.6813104  36.6239477  23.6187355  15.3187051  36.3851224  24.1639148
  15.1068176  36.8276635  22.8840515  14.8389270  36.6190487  23.5904512
   9.3725747  38.8627813  27.5021658   9.4129892  39.1342664  26.6741438
   9.9320271  39.3869721  27.9179446   9.4609093  38.9803568  27.4413546
  15.3215919  31.8441766  17.9562244  15.7061072  31.6249473  18.7078789
  15.0727540  32.6704712  18.0863320  15.3417992  31.9339913  18.0863320
  15.4884460  25.1248182  37.6724828  15.1737901  25.8947744  37.4094391
  15.1674392  24.5618438  37.0877055  15.3943379  25.1558450  37.5466178
  17.0634576  37.1011899  25.2981141  17.1373584  36.9387071  26.1522991
  17.8804083  37.2902089  25.0541622  17.1950935  37.1048642  25.3879166
  10.8240333  37.4469762  22.3275584   9.9978451  37.6931499  22.2009863
  10.8852324  37.3681843  23.1937642  10.7114500  37.4714711  22.4364529
  13.0416357  23.5138703  23.2871024  12.1738782  23.5861303  23.3528634
  13.3291561  24.3160782  23.4759000  12.9556105  23.6432850  23.3245791
  15.6039162  40.0646642  20.0294614  15.8937460  39.6735624  19.3053841
  16.3342643  40.2463347  20.4699889  15.7546046  40.0340456  19.9877421
  16.1933907  34.8664388  31.1147745  15.6945601  35.5780156  31.1932633
  17.0034131  35.1865055  31.0765907  16.2390014  35.0191237  31.1204313
  13.5445078  42.0414025  23.0954764  13.3245373  41.7511379  23.8881431
  13.3239600  41.3828980  22.5672676  13.4792672  41.9013733  23.1343673
  12.4562025  34.1287341  25.3610466  12.1675273  33.5024812  25.8956193
  13.3245373  34.0707629  25.4275146  12.5422277  34.0274885  25.4501420
  15.7113033  43.4143415  21.8785456  16.3637091  42.8819857  22.1076482
  15.0138642  43.0612067  22.2653330  15.7043751  43.2832938  21.9697624
  12.6594298  35.7682592  21.2852831  13.4140266  36.1495631  21.4988293
  12.0664911  36.2193736  21.7399527  12.6831012  35.8911420  21.3835709
  23.7052952  35.7347829  21.2216436  24.2710984  36.3941039  21.1374979
  23.0580855  36.0797527  21.6932838  23.6931708  35.8829770  21.2789192
  15.1200965  27.7245433  36.4110043  14.3100741  28.0303212  36.2999885
  15.5975652  28.4451015  36.5262627  15.0704444  27.8760034  36.4117114
  13.9792525  36.9391154  26.6592946  13.4573278  37.0791445  27.3444811
  14.3666545  36.1801818  26.8495063  13.9596226  36.8476677  26.7894023
  10.9683709  26.9896962  20.7287901  10.6808504  26.6198233  19.9919848
  11.6554177  27.4591818  20.4671606  11.0272606  27.0043932  20.5802976
  20.1759530  38.6786613  20.6453515  19.9346206  37.9454474  20.2380580
  20.3560863  39.2273470  19.9919848  20.1667154  38.6509004  20.4883738
  15.4058850  33.9695173  22.0574437  15.2101633  34.5769907  21.4634740
  15.6293196  33.2763117  21.5766111  15.4093491  33.9572698  21.8990518
  13.8037380  30.8549911  22.1755305  14.5260032  31.0191069  21.7159111
  13.3245373  31.5759575  22.0694645  13.8401111  30.9848140  22.0920919
  11.4544997  33.2607983  31.2809445  11.9666094  33.5392236  30.6318205
  11.1681340  33.9997277  31.6472258  11.4879860  33.4110337  31.2399323
  20.2100166  24.0899086  22.2879606  20.9126519  23.8906835  21.8099565
  19.9444355  23.3175029  22.5948450  20.2746798  23.9462052  22.2625048
   8.5411903  27.7678175  21.5773182   8.6428040  28.5704336  21.9054157
   9.3367790  27.5665511  21.2796262   8.6739809  27.8564074  21.5808537
  14.9728722  25.3534372  31.3410487  14.7811919  25.3689506  32.1909910
  15.8227318  25.5498046  31.3177142  15.0704444  25.3848723  31.4633782
   9.3575635  27.8825353  29.3194303   9.2161127  27.0309294  29.4438811
   9.6416199  27.9254014  28.4956509   9.3783481  27.7625103  29.2161927
  19.5114228  29.7192443  23.4638792  19.2648942  29.6388194  24.2975581
  19.8399351  28.9345911  23.2701319  19.5235471  29.5918709  23.5586315
  15.4711255  32.4549162  32.8761775  15.6154631  33.0350370  32.2404885
  15.8186904  32.8325459  33.5811629  15.5438716  32.5969866  32.8860770
  14.5439010  40.6451934  29.7422802  14.6928574  40.0854849  29.0896206
  15.3239012  40.7243935  30.1255320  14.6813104  40.5737499  29.7019751
  24.9015649  35.7854056  18.0142072  24.5222458  34.9991194  18.0071361
  24.2381895  36.3340913  17.8713716  24.7474124  35.7498880  17.9922869
  17.8832949  25.5489881  31.5482310  18.3405564  26.2813855  31.6755102
  17.9589278  25.1256346  32.3069566  17.9623919  25.5947119  31.6783387
  10.1265941  25.7955701  32.6371754   9.5908130  25.1836059  32.9532521
  10.1883705  26.3703837  33.2905420  10.0561573  25.7902628  32.7807180
  22.3560275  18.7279756  25.4176153  22.4743843  19.1856219  24.6843456
  22.1822451  17.9225017  25.1312371  22.3479446  18.6773528  25.2677087
  17.7262558  39.3367575  21.8530898  18.4912449  39.0677219  21.5313563
  17.6240648  38.8517586  22.5700961  17.8244053  39.2257140  21.9110726
  15.7615327  27.5391985  28.3924134  14.9711402  27.3583445  28.7141470
  16.1575950  26.7618937  28.3754429  15.7032204  27.3979446  28.4376682
  20.2481218  36.3679759  13.8330848  21.0154203  36.4279884  13.4236699
  19.8012527  35.7960201  13.3487166  20.2954645  36.2916335  13.7008558
  21.1459014  35.1734415  26.1183580  20.4704015  34.9419647  26.6196967
  21.1551390  34.5655598  25.4925685  21.0477518  35.0493340  26.0999732
  18.2753158  30.0152244  32.8747633  18.2112299  30.8762200  32.7467770
  18.4150345  29.6984237  32.0743184  18.2868628  30.0952411  32.7375846
  23.1475748  38.0299547  18.3493758  23.2295586  38.8366534  18.0255209
  23.6325490  38.0495507  19.0734531  23.2312906  38.1520210  18.4080657
  16.9572252  32.7084383  27.0163836  16.5334501  32.9088882  26.2802854
  16.7817107  31.8613231  27.1288136  16.8683132  32.6133165  26.9237526
  16.4583945  44.2234896  29.4785293  16.9479875  43.5245685  29.2960958
  15.8868177  43.9258766  30.0661350  16.4468475  44.0761120  29.5386334
  12.2454697  33.2036435  22.4491808  12.4019316  33.1383238  23.3047800
  12.5855290  33.9784987  22.2370488  12.3187931  33.3085633  22.5446403
  18.7833841  32.5794318  21.3185172  19.3249387  32.0764699  21.7823792
  19.0980400  32.5259513  20.5074657  18.9098238  32.4973739  21.2668984
  16.9520291  37.9711670  18.6025200  17.0213111  37.1126208  18.7418200
  17.7308746  38.1883551  18.2744224  17.0773141  37.8764534  18.5742357
  21.3427778  40.3949371  22.8161693  20.9507570  40.0916086  22.0984559
  21.4980851  41.2318461  22.6266647  21.3081368  40.4733208  22.6818190
   8.8188958  30.3871385  22.7652576   9.1987923  30.8055930  22.1012843
   8.2444323  30.9684841  23.0721419   8.7900283  30.5349244  22.7129317
  21.5067453  36.9599360  22.7567724  21.1482108  37.1314003  23.5331756
  21.0206164  37.4212566  22.1995722  21.3826150  37.0538331  22.7892993
  19.3237839  20.5830558  26.3594815  18.4531397  20.5569280  26.3128124
  19.5778180  20.4107751  25.5420661  19.2331399  20.5540702  26.2314952
  16.2955819  32.6398525  15.2967958  16.5848343  33.4163408  15.5711532
  16.3827617  32.1287257  15.9982457  16.3510075  32.6790444  15.4410456
  19.1915706  30.4879759  37.0919481  19.6615337  31.1121876  37.4787356
  19.2377586  29.8196735  37.6512696  19.2683582  30.4814440  37.2319553
  16.3486980  22.5936787  27.8168285  15.8325468  21.9016978  27.9419864
  15.7880909  23.2607564  27.7630884  16.1893493  22.5900045  27.8274351
  18.4179213  23.1329747  29.6461138  18.0310966  23.1578778  30.4274668
  17.9312150  22.5671426  29.1935654  18.2891722  23.0525498  29.6949042
  18.0836355  20.0196732  31.9371398  18.7129473  20.5557032  31.6592468
  18.2522218  19.9274091  32.7884963  18.2014149  20.0858095  32.0219926
  17.8850270  24.8067927  34.2097809  18.7123699  24.5353076  34.2656424
  17.9058116  25.6028769  34.5661627  18.0103120  24.8847681  34.2712992
  12.4619760  31.9531790  27.3968070  11.6207766  31.8535664  27.6046964
  12.6709767  32.7227270  27.7482391  12.3684452  32.0523833  27.4795385
   9.9395326  29.5751327  25.2252821   9.5452024  29.6494339  24.4502930
   9.3835443  29.9609273  25.7761182   9.7998139  29.6433101  25.1920480
  21.5760273  22.5532621  24.9056700  21.7809867  22.4854929  25.7513697
  21.2486697  23.3591442  24.8377877  21.5575521  22.6618561  25.0216355
  16.2736424  29.8813189  26.6465668  15.9699562  29.3269177  27.2476075
  15.5715845  30.0605399  26.1593702  16.1252634  29.8257971  26.6635373
  15.3302522  27.1913709  21.2110369  15.6062256  26.4732621  20.7987937
  15.9301191  27.7898629  21.0031475  15.4595786  27.1734080  21.1191131
  14.3354775  37.0962910  31.3537765  14.2275130  37.1064972  32.2199823
  14.5450557  37.9217690  31.1642719  14.3504886  37.2203985  31.4541857
  24.8293961  23.1064385  24.3859465  24.2168275  23.5934787  24.7713197
  24.9258136  22.4307876  24.9297116  24.7531859  23.0782694  24.5238323
  18.8313042  24.8627226  19.4856964  19.2856789  25.0337787  20.2104809
  19.3053088  24.2495337  19.0854740  18.9681362  24.7978112  19.5330726
  12.3528567  34.3475552  28.8159703  11.7616501  34.9885050  28.7862718
  13.1149591  34.7713169  28.7891002  12.3776828  34.5051391  28.8074850
  12.7489190  25.5077550  29.4827720  13.2090672  25.5816479  30.2202844
  12.7945297  26.3058804  29.1327542  12.8239746  25.6371697  29.5400477
  14.3972540  26.1744245  34.0499748  14.0058105  25.5277592  34.4855525
  14.5658403  26.7655680  34.6694003  14.3643450  26.1658513  34.2062454
  22.1118084  39.7984864  26.2491727  21.9137772  40.2875678  25.5547939
  21.4905795  40.0026105  26.8275861  21.9905648  39.9001402  26.2314951
  16.1726062  31.5669761  20.5901972  16.9168107  31.9544037  20.8284921
  16.3186758  30.7227186  20.7542459  16.3036647  31.5000233  20.6495941
  18.0905637  23.3620020  25.6233833  17.2441683  23.5342827  25.4975183
  18.0876770  22.5569363  25.9599661  17.9652787  23.2681048  25.6544960
  19.1603938  27.1395234  26.4895891  18.6863892  26.6136996  27.0001202
  19.5322074  26.5924707  25.9210752  19.1453827  26.9811231  26.4811038
   9.5376968  29.1366741  31.8579437  10.4002581  29.0362450  31.7716767
   9.2068751  28.5561450  31.2965009   9.6162164  29.0358367  31.7624843
  21.0887438  28.0331789  19.5521645  20.5610456  28.1160533  18.8627354
  21.5483146  28.7749660  19.5486289  21.0789288  28.1552451  19.4496340
  12.8978754  27.9609190  28.5189855  12.2731824  27.9727582  27.9115808
  12.5624349  28.4369365  29.1681095  12.7564246  28.0327707  28.5246423
  13.0820503  26.3034308  14.5762540  12.7333307  26.9554033  15.0394089
  12.6016948  26.2891421  13.8486411  12.9590747  26.3977362  14.5373631
   9.6104430  36.0209650  29.9593619   9.0804354  35.3302089  30.0088594
   9.8829523  36.0119835  29.1306328   9.5729152  35.9176782  29.8441035
  20.6424520  36.6035352  18.6831302  21.3658719  37.0693465  18.5395875
  20.2025111  36.6708962  17.9328899  20.6840212  36.6819189  18.5516083
  19.0506972  34.5337164  27.6676289  18.6234580  33.9086883  27.2341725
  19.0431917  34.2512086  28.4935297  18.9866113  34.3989945  27.7256117
  12.1669499  29.5702337  30.7364723  12.3262986  28.8145662  31.1416445
  11.9862393  30.1193277  31.3905461  12.1634858  29.5396151  30.8927429
  20.1089802  21.7363573  31.2915513  19.6130364  21.9327247  30.6007080
  20.8658864  22.1356241  31.1204315  20.1476627  21.8241307  31.1635650
  17.3792682  25.4105919  27.8818823  17.4035169  24.8766031  27.1931603
  17.6304156  24.9023228  28.5444414  17.4202601  25.2566823  27.8783468
   4.8900272  32.6937414  27.3161967   4.7843721  32.6484258  26.4514052
   4.1400492  33.0391194  27.5976252   4.7635875  32.7378322  27.2299297
  13.6594004  24.1376737  27.2624568  13.6992376  24.6385944  27.9759275
  12.8343669  24.2287131  26.9930491  13.5433530  24.2258553  27.3275106
  15.8423617  33.7037477  35.3644862  14.9919248  33.8409191  35.5002507
  16.0051745  32.9701255  35.8092564  15.7407481  33.6151578  35.4500461
  15.0808368  30.6537247  29.5598467  14.2500297  30.8211065  29.3533715
  15.0259885  30.2773198  30.3447352  14.9497782  30.6226978  29.6446995
  12.8892151  24.1446140  35.1954877  13.5144854  23.6008273  35.4684310
  12.4342631  23.6641057  34.6262668  12.9140411  23.9935621  35.1516471
  13.4544411  28.9292839  20.0888584  13.5947372  29.4265303  20.7917226
  13.9526944  28.2279133  20.2302798  13.5485492  28.8994817  20.2140163
  13.4844634  29.7959950  17.4181161  14.1189713  30.3920375  17.3530623
  13.5670245  29.4963407  18.2327031  13.5901185  29.8400858  17.5284248
  15.0623617  25.7273925  17.3926603  15.3839458  25.2477007  16.7385866
  15.3250560  26.5373571  17.2017415  15.1489642  25.7763823  17.2682095
  18.2920589  36.7492799  30.9125419  17.7845680  37.3028646  31.3566050
  17.9947236  36.8101089  30.0944194  18.1725474  36.8399111  30.8573876
   9.9897622  31.9927790  20.6870707  10.4989851  32.5892298  21.0682013
  10.4631894  31.7253764  20.0047127  10.1340997  32.0413606  20.6425230
  20.9028370  40.6656057  18.8429363  20.1857679  40.4916919  18.3776600
  21.5535107  40.4308629  18.3104849  20.8930220  40.6051850  18.6958581
  18.8976994  21.5861219  23.1640659  18.2545312  21.4358865  23.7325798
  18.5576401  21.3403564  22.3989764  18.7522072  21.5273341  23.1343674
  17.5363075  41.6817358  27.8182426  17.3128729  40.9236187  28.1866453
  17.0472918  41.7115379  27.0962866  17.4306524  41.5739582  27.7659167
  12.3488153  28.6284049  23.5543888  11.6300143  29.0448181  23.8216751
  12.7200516  29.1938288  23.0035526  12.2980085  28.7733330  23.5126695
  16.1841532  41.9017816  25.2719511  15.7701930  41.2391946  24.8823353
  16.8688906  42.0495674  24.7515205  16.2239903  41.8258474  25.1376008
  19.5506826  41.0607901  26.0243127  19.1523109  41.1710171  25.2563948
  18.9358045  41.2689967  26.6069687  19.4005715  41.1081469  25.9974427
  18.1234728  27.6682049  18.8917267  17.5299567  27.9899045  18.3401834
  18.1610005  26.8223144  18.6838373  18.0409117  27.5906377  18.7800038
  25.0828528  21.1194941  26.4245354  24.5759393  20.4124081  26.3566531
  25.8795962  20.7888130  26.5546430  25.1255768  20.9668092  26.4344349
  20.9992544  27.6261553  22.3219017  20.7706237  27.6494255  21.4797376
  21.2590621  26.8019020  22.4414028  21.0038732  27.5077633  22.2144215
  15.2811773  29.4796026  31.9244118  14.7690676  28.8717209  32.2829149
  15.1091269  30.1952619  32.3918093  15.1801410  29.4959326  32.0460341
  10.1277487  27.9233602  34.5746479   9.9580078  28.5834976  34.0294686
   9.6843437  28.1340163  35.2958968  10.0376821  28.0519584  34.6008109
  14.0537307  26.1638100  23.6173213  14.5294673  26.5255179  22.9823394
  13.5525906  26.8194567  23.8973356  14.0502666  26.3132288  23.5649954
  27.2848668  35.6359868  19.4086218  27.6682274  36.3851224  19.6384315
  26.4892782  35.8825687  19.1498207  27.2242451  35.7829562  19.4043792
  19.1580843  27.4020271  34.3646373  19.7152273  27.1734080  33.7324839
  18.8341908  28.1625937  34.0881586  19.1927253  27.4804108  34.2302870
   7.0279552  30.8280467  29.8334969   6.4806271  30.1581113  29.9515838
   7.8171930  30.4610315  29.8978436   7.0631736  30.6745454  29.8603670
  16.8763960  30.4887924  35.3298380  17.6275287  30.8039601  35.6437934
  17.0686537  30.2867095  34.5032302  17.0155375  30.5055306  35.2541776
  16.0963960  28.3079299  16.9846597  16.4762925  28.3258929  16.1997712
  15.3556556  28.7533288  16.8637444  16.0432798  28.3761074  16.8510165
  23.7249251  26.6161491  22.5722176  23.7243477  26.4610147  23.4306452
  23.5205431  27.4624478  22.5163561  23.6949028  26.7182111  22.6910115
   5.7866521  30.0401275  26.9880992   5.6088283  29.5877884  27.7135908
   5.4985544  30.8427436  27.1719470   5.7179475  30.0923833  27.1224495
  16.8948714  35.1456806  18.3755387  16.0860037  34.8223479  18.3288696
  17.4023623  34.4390028  18.3083636  16.8498381  34.9938122  18.3585681
   7.5238991  32.5728999  24.1002751   6.6584511  32.5614689  23.9885523
   7.6237807  32.3859222  24.9473891   7.4113158  32.5435060  24.2091696
  13.1496001  42.3426897  27.6732857  13.4642560  43.1563286  27.6810639
  13.5589415  41.9577116  28.3415016  13.2564099  42.4055600  27.7736948
  20.1020521  37.7596944  25.2436669  20.5731699  38.4737207  25.4126654
  20.4380699  37.1595694  25.7796538  20.2215636  37.7768408  25.3469045
  17.0190016  22.5324415  32.1994764  17.1517921  21.7355408  32.5275739
  17.4035169  23.0590818  32.7793039  17.0946345  22.4924331  32.3338266
  20.0922371  19.4554741  28.7975857  19.2868335  19.3452470  29.1143695
  19.9629106  19.5567197  27.9405723  19.9542504  19.4538411  28.7183897
  16.0883131  24.5340828  19.6674229  16.9098825  24.7039140  19.4255923
  15.6252782  24.6888089  18.9440526  16.1414293  24.5822561  19.5245873
  14.6778463  22.5283590  30.4472657  15.2222876  22.1874717  31.0376999
  14.7315398  23.3869051  30.5893942  14.7667582  22.6038849  30.5554531
  10.4909021  36.2900006  27.3211465  11.0953879  36.2495840  26.6925286
  10.2836334  37.1371158  27.3515521  10.5497919  36.4088008  27.2327582
   5.7260304  35.2734623  27.1910388   5.6284582  34.4630895  27.5000445
   6.5089173  35.2526417  26.8056656   5.8276440  35.1501714  27.1797251
  36.7766444  46.2130803  21.5016579  36.7460448  47.0675439  21.6734848
  37.3747793  45.9126095  22.0602723  36.8603602  46.2947299  21.6091381
  29.9766129  45.3006454  26.2569509  29.1204024  45.4614952  26.3078626
  30.0233782  44.4298518  26.2774570  29.8565240  45.1957256  26.2675575
  24.3607268  54.8369172  22.0206741  23.6090168  54.4584710  21.7922786
  24.8093280  54.8687605  21.2725551  24.3156935  54.7854779  21.8764243
  29.8132228  55.2594541  17.4492288  29.4783597  55.9371463  17.0136510
  30.3259099  54.8699852  16.8609160  29.8397809  55.3019119  17.2979080
  29.3536520  57.2108810  23.3903400  29.7375899  57.7795708  22.8508175
  29.2895661  56.4858320  22.9109216  29.4009947  57.1884273  23.2397262
  32.8217950  47.3598498  28.9001161  33.3673910  48.0383584  28.9595131
  32.7634826  47.2185958  28.0402743  32.8933864  47.4390499  28.7813222
  25.9392025  54.8487564  24.2869513  26.0402388  54.0387918  24.5966641
  25.3433770  54.7544510  23.6569192  25.8664563  54.7152592  24.2395752
  34.5983018  48.7883105  19.7734889  34.4822544  49.5390791  20.2027027
  35.3938905  48.5307058  20.0230976  34.6987608  48.8617952  19.8738980
  25.7792764  59.7665153  25.6884370  26.4230220  60.2078317  26.0780528
  26.1049020  58.9618579  25.6014628  25.9224593  59.7130348  25.7329847
  19.1357069  50.8707850  23.9121847  18.9007253  50.0375503  23.8054116
  19.2742710  51.1512516  23.0983048  19.1212731  50.7891354  23.7764202
  21.4347156  43.0393581  26.8106155  20.8152188  42.4486228  26.6416170
  21.3331020  43.6305016  26.1770478  21.3284832  43.0397663  26.6911144
  26.4813344  52.7777128  21.0604231  26.8029185  53.3182335  20.4565539
  27.1285440  52.2073899  21.1926521  26.6239399  52.7736303  20.9911267
  28.5315052  44.7793123  21.1438618  29.2295217  44.9581250  21.6360081
  28.8467385  44.2563462  20.5209007  28.6810389  44.7286895  21.1240628
  21.1616289  46.5845863  29.0549724  21.0374986  47.1708308  29.6899543
  21.8134574  46.0906058  29.3561999  21.2389939  46.5984667  29.1935653
  28.7202987  51.1663568  21.1318409  29.1596623  50.5580668  21.5773182
  28.5707650  50.7870941  20.3603874  28.7624453  51.0202039  21.0837577
  26.1874630  49.7607580  28.3337235  26.8323633  49.2680023  28.0148183
  26.4276407  49.9032366  29.1603313  26.3185215  49.7085022  28.4086768
  28.7260722  52.6062485  27.9844127  29.0083965  51.8113891  27.7630883
  29.4546882  53.0843073  28.0049188  28.8750285  52.5597082  27.9547143
  26.7041916  40.1485519  25.2259893  26.3745246  40.5996663  24.5563591
  26.0286917  40.0701683  25.7732899  26.5552352  40.2036655  25.2083116
  32.3212324  49.5190749  18.0849179  32.2363619  50.3751716  18.2298747
  32.8096707  49.2435073  18.7531338  32.3801221  49.6048070  18.2051260
  33.2530757  46.1375543  19.5846914  32.7242229  46.3535177  20.2444220
  33.7755777  46.8311682  19.5047883  33.2519210  46.2718680  19.6702513
  25.1430365  50.0338760  18.3854382  24.5587580  50.5388791  18.7920246
  24.7400460  49.8081147  17.6450974  24.9969669  50.0747008  18.3359407
  20.6974394  55.7493521  25.1878053  20.2141972  56.4744011  25.1637637
  21.5097712  56.0469651  25.2988211  20.7465141  55.8995875  25.2005333
  26.7688548  54.5425702  27.7927868  26.2515489  54.1833117  27.1889176
  27.4662939  54.0187876  27.8033934  26.7954129  54.4123390  27.7058126
  29.6007579  46.2804412  16.8623302  29.8403583  46.4882396  16.0498645
  29.9223420  45.4761921  16.9712247  29.6844737  46.1918513  16.7583855
  24.9097870  38.2097808  20.7082840  25.6643838  38.5776125  20.4699890
  24.7325404  38.5837362  21.4762020  24.9952348  38.3195996  20.7867729
  23.5518591  56.2649697  25.3398333  24.2539170  55.7501686  25.3971090
  23.4716074  56.5923848  26.1445208  23.6442351  56.2363923  25.4671125
  23.2654934  40.6168127  17.4060953  23.0830508  40.8340008  16.5801946
  24.1280547  40.7307139  17.4619568  23.3659524  40.6658025  17.2915440
  22.8769366  52.4556049  24.8483941  23.7158266  52.6878982  24.8957703
  22.9081135  51.5860360  24.7790977  23.0051084  52.3612995  24.8448586
  23.5022069  52.8756924  29.1497247  24.0420294  52.7328055  29.8200619
  22.8192016  53.2753675  29.5181273  23.4814223  52.9136595  29.3031668
  28.9454653  37.6194537  20.4409977  29.6740814  37.4410492  19.9948133
  29.0349546  38.4612617  20.6517155  29.0661316  37.7178416  20.4063495
  18.9059214  49.0957215  29.3031668  18.6397630  48.2796332  29.4622659
  18.9197778  49.1410371  28.4327184  18.8683937  48.9814120  29.1985150
  22.8116961  43.8942299  15.9183426  22.0975138  43.6080479  16.3305859
  23.2960930  44.2338925  16.5589814  22.7776325  43.9023949  16.0739061
  29.9864279  52.3972253  16.2945235  30.4015428  52.0657277  15.6029730
  29.1556209  52.1641156  16.1665371  29.9252288  52.3143509  16.1736082
  19.3152628  49.8815994  26.5843412  19.1328201  49.8562880  25.7315705
  20.0502297  50.3514932  26.6232321  19.3966692  49.9477357  26.4641331
  22.3798380  46.6000997  33.0925521  23.1038352  46.5854028  33.5790416
  22.4814516  47.3096352  32.5947489  22.5016589  46.7025700  33.0904308
  32.4274648  46.8034073  22.2469484  32.5221502  47.5423367  22.7009109
  31.8033492  46.3751548  22.6804049  32.3483678  46.8495394  22.3777632
  19.2823538  46.7609495  26.7342479  19.8597041  46.6245946  27.3734724
  18.5837600  46.3045279  26.9888063  19.2644560  46.6731761  26.8664769
  32.6797669  48.6482813  15.4806436  32.5977832  48.7185000  16.3461423
  33.3177390  49.2112557  15.2890177  32.7617507  48.7421784  15.5796385
  26.0390840  48.4143551  24.9480962  25.7810085  47.5815286  24.9212262
  26.0939323  48.6401164  24.1073463  26.0090618  48.3241322  24.8201099
  31.1191891  40.5172001  25.0485055  30.4148217  40.0281187  25.2068974
  31.1676865  40.5294476  24.1773499  31.0221942  40.4461649  24.9424395
  25.0125553  45.9681313  25.4345857  24.4375144  46.1273482  26.0709818
  24.6361229  45.3316722  24.9714308  24.8728365  45.8979126  25.4600415
  28.6798841  44.4404662  30.2938235  28.2913274  44.0158880  29.6390427
  28.0153540  44.6886812  30.8015262  28.5245769  44.4143384  30.2726103
  38.3222110  44.1979667  23.0686066  38.0658675  43.3859609  22.8783948
  39.1651424  44.2057234  22.8416253  38.4088136  44.0791665  23.0070883
  14.7582372  45.6121388  23.4490298  14.8442623  45.2353256  24.2303828
  15.3858169  45.2381834  22.9710256  14.8638923  45.5006870  23.4935775
  32.5025203  38.1379291  27.8062220  32.8835715  37.4557462  28.1930094
  31.6988487  37.8488893  27.6237884  32.4401665  37.9946340  27.8366276
  29.7837780  48.6703267  18.4915042  30.5978418  48.9618160  18.3797814
  29.7196921  48.0163129  17.9173335  29.8940519  48.6168462  18.3903880
  25.6545688  52.1424784  23.6187355  26.2919635  51.9036532  24.1639148
  26.0800759  52.3461943  22.8840515  25.8121854  52.1375795  23.5904512
  20.3458330  54.3813121  27.5021658  20.3862475  54.6527972  26.6741438
  20.9052854  54.9055029  27.9179446  20.4341676  54.4988876  27.4413546
  26.2948503  47.3627074  17.9562244  26.6793656  47.1434781  18.7078789
  26.0460123  48.1890020  18.0863320  26.3150575  47.4525221  18.0863320
  28.0367160  52.6197207  25.2981141  28.1106168  52.4572379  26.1522991
  28.8536666  52.8087397  25.0541622  28.1683518  52.6233949  25.3879166
  21.7972916  52.9655070  22.3275584  20.9711034  53.2116807  22.2009863
  21.8584908  52.8867151  23.1937642  21.6847083  52.9900019  22.4364529
  24.0148940  39.0324011  23.2871024  23.1471366  39.1046610  23.3528634
  24.3024145  39.8346090  23.4759000  23.9288688  39.1618158  23.3245791
  26.5771745  55.5831950  20.0294614  26.8670044  55.1920932  19.3053841
  27.3075226  55.7648655  20.4699889  26.7278630  55.5525764  19.9877421
  24.5177661  57.5599333  23.0954764  24.2977956  57.2696687  23.8881431
  24.2972183  56.9014288  22.5672676  24.4525255  57.4199041  23.1343673
  23.4294608  49.6472649  25.3610466  23.1407857  49.0210120  25.8956193
  24.2977956  49.5892937  25.4275146  23.5154860  49.5460193  25.4501420
  26.6845617  58.9328723  21.8785456  27.3369675  58.4005165  22.1076482
  25.9871226  58.5797375  22.2653330  26.6776335  58.8018246  21.9697624
  23.6326882  51.2867900  21.2852831  24.3872850  51.6680939  21.4988293
  23.0397494  51.7379044  21.7399527  23.6563595  51.4096728  21.3835709
  34.6785535  51.2533137  21.2216436  35.2443568  51.9126346  21.1374979
  34.0313439  51.5982835  21.6932838  34.6664292  51.4015078  21.2789192
  24.9525108  52.4576462  26.6592946  24.4305862  52.5976753  27.3444811
  25.3399129  51.6987126  26.8495063  24.9328809  52.3661985  26.7894023
  21.9416292  42.5082270  20.7287901  21.6541088  42.1383541  19.9919848
  22.6286761  42.9777126  20.4671606  22.0005190  42.5229240  20.5802976
  31.1492113  54.1971921  20.6453515  30.9078789  53.4639781  20.2380580
  31.3293446  54.7458778  19.9919848  31.1399737  54.1694312  20.4883738
  26.3791434  49.4880481  22.0574437  26.1834217  50.0955215  21.4634740
  26.6025779  48.7948425  21.5766111  26.3826075  49.4758006  21.8990518
  24.7769964  46.3735218  22.1755305  25.4992616  46.5376377  21.7159111
  24.2977957  47.0944883  22.0694645  24.8133695  46.5033448  22.0920919
  32.7363471  42.7099017  27.5551990  31.8974572  42.7360296  27.3190254
  32.8067839  43.3569753  28.1357337  32.6231865  42.8095143  27.6061107
  22.4277581  48.7793291  31.2809445  22.9398678  49.0577544  30.6318205
  22.1413923  49.5182585  31.6472258  22.4612444  48.9295645  31.2399323
  31.1832750  39.6084394  22.2879606  31.8859103  39.4092143  21.8099565
  30.9176938  38.8360337  22.5948450  31.2479382  39.4647360  22.2625048
  19.5144487  43.2863483  21.5773182  19.6160623  44.0889644  21.9054157
  20.3100374  43.0850819  21.2796262  19.6472393  43.3749381  21.5808537
  30.4846811  45.2377751  23.4638792  30.2381526  45.1573502  24.2975581
  30.8131934  44.4531219  23.2701319  30.4968055  45.1104016  23.5586315
  34.3794860  51.9461110  27.2525573  34.2409219  52.6442156  27.7574315
  33.5994858  51.7909767  26.8961755  34.2438087  52.0261277  27.2751847
  25.5171594  56.1637242  29.7422802  25.6661157  55.6040157  29.0896206
  26.2971596  56.2429243  30.1255320  25.6545687  56.0922807  29.7019751
  35.8748233  51.3039364  18.0142072  35.4955042  50.5176502  18.0071361
  35.2114478  51.8526221  17.8713716  35.7206708  51.2684188  17.9922869
  28.0424894  56.3351884  31.0207292  27.9668565  55.6660695  31.5758081
  27.9714753  57.0369673  31.5347959  28.0205501  56.3396792  31.1784140
  28.6995141  54.8552883  21.8530898  29.4645032  54.5862527  21.5313563
  28.5973231  54.3702894  22.5700961  28.7976637  54.7442448  21.9110726
  26.7347911  43.0577293  28.3924134  25.9443986  42.8768753  28.7141470
  27.1308534  42.2804245  28.3754429  26.6764787  42.9164754  28.4376682
  31.2213802  51.8865067  13.8330848  31.9886787  51.9465192  13.4236699
  30.7745111  51.3145508  13.3487166  31.2687229  51.8101643  13.7008558
  32.1191597  50.6919723  26.1183580  31.4436599  50.4604955  26.6196967
  32.1283973  50.0840906  25.4925685  32.0210102  50.5678648  26.0999732
  34.1208332  53.5484855  18.3493758  34.2028169  54.3551841  18.0255209
  34.6058074  53.5680814  19.0734531  34.2045490  53.6705518  18.4080657
  27.9304835  48.2269691  27.0163836  27.5067084  48.4274190  26.2802854
  27.7549690  47.3798539  27.1288136  27.8415716  48.1318473  26.9237526
  27.4316529  59.7420204  29.4785293  27.9212459  59.0430993  29.2960958
  26.8600761  59.4444074  30.0661350  27.4201059  59.5946428  29.5386334
  23.2187280  48.7221743  22.4491808  23.3751899  48.6568545  23.3047800
  23.5587873  49.4970295  22.2370488  23.2920515  48.8270941  22.5446403
  29.7566425  48.0979626  21.3185172  30.2981970  47.5950007  21.7823792
  30.0712984  48.0444821  20.5074657  29.8830822  48.0159047  21.2668984
  27.9252874  53.4896978  18.6025200  27.9945695  52.6311516  18.7418200
  28.7041330  53.7068859  18.2744224  28.0505724  53.3949842  18.5742357
  32.3160362  55.9134679  22.8161693  31.9240154  55.6101394  22.0984559
  32.4713434  56.7503769  22.6266647  32.2813952  55.9918516  22.6818190
  19.7921542  45.9056693  22.7652576  20.1720506  46.3241238  22.1012843
  19.2176906  46.4870149  23.0721419  19.7632866  46.0534552  22.7129317
  32.4800037  52.4784668  22.7567724  32.1214691  52.6499311  23.5331756
  31.9938748  52.9397874  22.1995722  32.3558734  52.5723639  22.7892993
  27.2688402  48.1583833  15.2967958  27.5580927  48.9348716  15.5711532
  27.3560201  47.6472565  15.9982457  27.3242658  48.1975752  15.4410456
  23.4352343  47.4717098  27.3968070  22.5940350  47.3720972  27.6046964
  23.6442351  48.2412578  27.7482391  23.3417036  47.5709141  27.4795385
  20.9127910  45.0936635  25.2252821  20.5184608  45.1679647  24.4502930
  20.3568027  45.4794581  25.7761182  20.7730722  45.1618409  25.1920480
  27.2469008  45.3998497  26.6465668  26.9432145  44.8454485  27.2476075
  26.5448429  45.5790707  26.1593702  27.0985218  45.3443279  26.6635373
  26.3035105  42.7099017  21.2110369  26.5794839  41.9917929  20.7987937
  26.9033774  43.3083937  21.0031475  26.4328370  42.6919388  21.1191131
  25.3087359  52.6148218  31.3537765  25.2007714  52.6250280  32.2199823
  25.5183140  53.4402998  31.1642719  25.3237470  52.7389293  31.4541857
  35.8026545  38.6249693  24.3859465  35.1900858  39.1120095  24.7713197
  35.8990719  37.9493184  24.9297116  35.7264442  38.5968002  24.5238323
  29.8045626  40.3812534  19.4856964  30.2589372  40.5523095  20.2104809
  30.2785671  39.7680645  19.0854740  29.9413946  40.3163419  19.5330726
  23.3261151  49.8660860  28.8159703  22.7349084  50.5070358  28.7862718
  24.0882175  50.2898477  28.7891002  23.3509412  50.0236699  28.8074850
  27.1458646  47.0855069  20.5901972  27.8900691  47.4729345  20.8284921
  27.2919342  46.2412494  20.7542459  27.2769231  47.0185541  20.6495941
  30.1336521  42.6580542  26.4895891  29.6596476  42.1322304  27.0001202
  30.5054657  42.1110015  25.9210752  30.1186410  42.4996538  26.4811038
  32.0620021  43.5517096  19.5521645  31.5343040  43.6345840  18.8627354
  32.5215729  44.2934968  19.5486289  32.0521872  43.6737759  19.4496340
  23.8711338  43.4794498  28.5189855  23.2464408  43.4912890  27.9115808
  23.5356932  43.9554673  29.1681095  23.7296829  43.5513015  28.5246423
  24.0553086  41.8219616  14.5762540  23.7065891  42.4739341  15.0394089
  23.5749532  41.8076729  13.8486411  23.9323330  41.9162670  14.5373631
  20.5837013  51.5394958  29.9593619  20.0536938  50.8487397  30.0088594
  20.8562106  51.5305143  29.1306328  20.5461735  51.4362089  29.8441035
  31.6157104  52.1220660  18.6831302  32.3391302  52.5878773  18.5395875
  31.1757695  52.1894270  17.9328899  31.6572796  52.2004497  18.5516083
  30.7843259  48.9818202  29.9331991  30.1700252  48.4376253  30.2280626
  31.3010544  48.4682439  29.4537807  30.7698921  48.8254611  29.9056219
  30.0239556  50.0522472  27.6676289  29.5967164  49.4272191  27.2341725
  30.0164500  49.7697394  28.4935297  29.9598697  49.9175253  27.7256117
  23.1402083  45.0887645  30.7364723  23.2995570  44.3330970  31.1416445
  22.9594977  45.6378585  31.3905461  23.1367442  45.0581459  30.8927429
  28.3525266  40.9291227  27.8818823  28.3767753  40.3951339  27.1931603
  28.6036739  40.4208536  28.5444414  28.3935184  40.7752131  27.8783468
  15.8632855  48.2122722  27.3161967  15.7576304  48.1669566  26.4514052
  15.1133075  48.5576502  27.5976252  15.7368458  48.2563630  27.2299297
  24.6326588  39.6562045  27.2624568  24.6724959  40.1571252  27.9759275
  23.8076252  39.7472439  26.9930491  24.5166114  39.7443861  27.3275106
  26.0540951  46.1722555  29.5598467  25.2232881  46.3396373  29.3533715
  25.9992468  45.7958506  30.3447352  25.9230366  46.1412286  29.6446995
  24.4276995  44.4478146  20.0888584  24.5679956  44.9450611  20.7917226
  24.9259528  43.7464441  20.2302798  24.5218076  44.4180125  20.2140163
  24.4577217  45.3145258  17.4181161  25.0922297  45.9105683  17.3530623
  24.5402828  45.0148715  18.2327031  24.5633768  45.3586166  17.5284248
  26.0356200  41.2459233  17.3926603  26.3572041  40.7662315  16.7385866
  26.2983144  42.0558879  17.2017415  26.1222226  41.2949131  17.2682095
  20.9630205  47.5113098  20.6870707  21.4722435  48.1077606  21.0682013
  21.4364478  47.2439072  20.0047127  21.1073581  47.5598914  20.6425230
  31.8760953  56.1841365  18.8429363  31.1590263  56.0102227  18.3776600
  32.5267691  55.9493937  18.3104849  31.8662804  56.1237157  18.6958581
  34.4608924  45.0605953  22.5870668  33.7900114  45.6035656  22.4583733
  35.1548675  45.5300809  22.3452363  34.4637792  45.2104225  22.5326196
  28.5095658  57.2002665  27.8182426  28.2861313  56.4421495  28.1866453
  28.0205502  57.2300687  27.0962866  28.4039107  57.0924890  27.7659167
  34.6237052  41.5161837  25.4961041  34.9764662  41.0891560  26.1706840
  33.7651853  41.4312681  25.6262118  34.5486497  41.4406578  25.6156052
  23.3220737  44.1469357  23.5543888  22.6032726  44.5633489  23.8216751
  23.6933099  44.7123596  23.0035526  23.2712669  44.2918638  23.5126695
  27.1574115  57.4203124  25.2719511  26.7434514  56.7577254  24.8823353
  27.8421489  57.5680982  24.7515205  27.1972487  57.3443782  25.1376008
  30.5239409  56.5793209  26.0243127  30.1255693  56.6895479  25.2563948
  29.9090629  56.7875275  26.6069687  30.3738299  56.6266777  25.9974427
  29.0967311  43.1867357  18.8917267  28.5032151  43.5084353  18.3401834
  29.1342589  42.3408452  18.6838373  29.0141700  43.1091685  18.7800038
  31.9725128  43.1446861  22.3219017  31.7438821  43.1679563  21.4797376
  32.2323204  42.3204328  22.4414028  31.9771316  43.0262941  22.2144215
  25.0269890  41.6823408  23.6173213  25.5027257  42.0440487  22.9823394
  24.5258490  42.3379875  23.8973356  25.0235249  41.8317596  23.5649954
  18.0012136  46.3465775  29.8334969  17.4538855  45.6766421  29.9515838
  18.7904514  45.9795623  29.8978436  18.0364319  46.1930762  29.8603670
  27.0696544  43.8264607  16.9846597  27.4495508  43.8444236  16.1997712
  26.3289140  44.2718596  16.8637444  27.0165381  43.8946382  16.8510165
  34.6981834  42.1346799  22.5722176  34.6976061  41.9795455  23.4306452
  34.4938014  42.9809786  22.5163561  34.6681612  42.2367419  22.6910115
  16.7599105  45.5586583  26.9880992  16.5820866  45.1063192  27.7135908
  16.4718127  46.3612744  27.1719470  16.6912058  45.6109141  27.1224495
  32.4222686  46.8144300  26.2258383  32.9176351  46.0967295  26.1862403
  31.6122462  46.5115098  26.1112870  32.3766579  46.6641947  26.2032108
  27.8681298  50.6642114  18.3755387  27.0592620  50.3408787  18.3288696
  28.3756207  49.9575336  18.3083636  27.8230964  50.5123430  18.3585681
  18.4971575  48.0914307  24.1002751  17.6317094  48.0799997  23.9885523
  18.5970391  47.9044530  24.9473891  18.3845742  48.0620368  24.2091696
  24.1228585  57.8612205  27.6732857  24.4375144  58.6748594  27.6810639
  24.5321998  57.4762424  28.3415016  24.2296683  57.9240908  27.7736948
  31.0753104  53.2782252  25.2436669  31.5464283  53.9922515  25.4126654
  31.4113283  52.6781002  25.7796538  31.1948219  53.2953716  25.3469045
  27.0615714  40.0526135  19.6674229  27.8831409  40.2224448  19.4255923
  26.5985365  40.2073396  18.9440526  27.1146877  40.1007868  19.5245873
  21.4641605  51.8085314  27.3211465  22.0686462  51.7681148  26.6925286
  21.2568917  52.6556466  27.3515521  21.5230502  51.9273316  27.2327582
  16.6992887  50.7919931  27.1910388  16.6017165  49.9816203  27.5000445
  17.4821757  50.7711725  26.8056656  16.8009024  50.6687021  27.1797251
  35.3339852  70.3554479  22.0206741  34.5822752  69.9770018  21.7922786
  35.7825864  70.3872913  21.2725551  35.2889519  70.3040087  21.8764243
  44.2592429  67.0878287  35.8629966  44.9659196  66.5930318  35.9916900
  44.4480364  67.5287369  35.1332624  44.3920334  67.0796638  35.7739011
  40.7864812  70.7779849  17.4492288  40.4516180  71.4556771  17.0136510
  41.2991682  70.3885160  16.8609160  40.8130393  70.8204427  17.2979080
  40.3269103  72.7294118  23.3903400  40.7108483  73.2981016  22.8508175
  40.2628244  72.0043628  22.9109216  40.3742530  72.7069581  23.2397262
  43.7950533  62.8783806  28.9001161  44.3406493  63.5568892  28.9595131
  43.7367410  62.7371266  28.0402743  43.8666448  62.9575807  28.7813222
  36.9124608  70.3672872  24.2869513  37.0134971  69.5573226  24.5966641
  36.3166353  70.2729818  23.6569192  36.8397147  70.2337900  24.2395752
  45.5715602  64.3068413  19.7734889  45.4555128  65.0576099  20.2027027
  46.3671489  64.0492366  20.0230976  45.6720191  64.3803260  19.8738980
  36.7525348  75.2850461  25.6884370  37.3962803  75.7263625  26.0780528
  37.0781603  74.4803887  25.6014628  36.8957176  75.2315656  25.7329847
  30.1089652  66.3893158  23.9121847  29.8739837  65.5560811  23.8054116
  30.2475293  66.6697824  23.0983048  30.0945315  66.3076662  23.7764202
  32.4079740  58.5578889  26.8106155  31.7884772  57.9671536  26.6416170
  32.3063604  59.1490324  26.1770478  32.3017415  58.5582971  26.6911144
  37.4545928  68.2962436  21.0604231  37.7761769  68.8367643  20.4565539
  38.1018024  67.7259207  21.1926521  37.5971983  68.2921611  20.9911267
  39.5047636  60.2978431  21.1438618  40.2027800  60.4766558  21.6360081
  39.8199968  59.7748770  20.5209007  39.6542973  60.2472203  21.1240628
  39.6935571  66.6848876  21.1318409  40.1329206  66.0765976  21.5773182
  39.5440234  66.3056249  20.3603874  39.7357037  66.5387347  21.0837577
  39.6993305  68.1247793  27.9844127  39.9816548  67.3299199  27.7630883
  40.4279466  68.6028381  28.0049188  39.8482869  68.0782390  27.9547143
  43.2944908  65.0376057  18.0849179  43.2096203  65.8937024  18.2298747
  43.7829291  64.7620381  18.7531338  43.3533805  65.1233378  18.2051260
  44.2263341  61.6560851  19.5846914  43.6974812  61.8720485  20.2444220
  44.7488361  62.3496990  19.5047883  44.2251794  61.7903988  19.6702513
  49.6811394  67.2307156  24.9579958  48.8509097  67.4417799  25.1213375
  49.6320646  66.4044210  24.6822242  49.5518129  67.1396762  24.9417324
  36.1162949  65.5524068  18.3854382  35.5320164  66.0574099  18.7920246
  35.7133044  65.3266455  17.6450974  35.9702252  65.5932316  18.3359407
  31.6706977  71.2678829  25.1878053  31.1874555  71.9929319  25.1637637
  32.4830295  71.5654959  25.2988211  31.7197725  71.4181183  25.2005333
  37.7421131  70.0611010  27.7927868  37.2248073  69.7018425  27.1889176
  38.4395522  69.5373184  27.8033934  37.7686712  69.9308698  27.7058126
  41.3984723  70.5105824  33.7544041  41.4868069  70.3231964  34.6022251
  41.8274436  69.8643253  33.3548888  41.4746826  70.3868831  33.8215792
  38.9655183  69.7936984  32.7361703  38.4026018  69.3809594  33.2601364
  39.7276206  69.7189889  33.1554846  38.9949632  69.7214384  32.8754703
  40.5740163  61.7989720  16.8623302  40.8136167  62.0067704  16.0498645
  40.8956004  60.9947229  16.9712247  40.6577321  61.7103821  16.7583855
  35.8830453  53.7283116  20.7082840  36.6376421  54.0961433  20.4699890
  35.7057988  54.1022670  21.4762020  35.9684932  53.8381304  20.7867729
  34.5251174  71.7835005  25.3398333  35.2271754  71.2686994  25.3971090
  34.4448657  72.1109156  26.1445208  34.6174935  71.7549231  25.4671125
  34.2387518  56.1353435  17.4060953  34.0563091  56.3525315  16.5801946
  35.1013131  56.2492447  17.4619568  34.3392107  56.1843333  17.2915440
  33.8501950  67.9741357  24.8483941  34.6890849  68.2064290  24.8957703
  33.8813719  67.1045668  24.7790977  33.9783667  67.8798303  24.8448586
  34.4754653  68.3942232  29.1497247  35.0152878  68.2513363  29.8200619
  33.7924599  68.7938983  29.5181273  34.4546807  68.4321903  29.3031668
  43.8995538  64.0733233  24.3442271  44.6553053  64.5064747  24.3831180
  44.0057862  63.4238002  24.9176907  44.0265708  64.0410717  24.4340297
  46.9375709  67.9006510  25.0944674  46.5010941  67.9043252  25.8503645
  46.6038624  68.5812009  24.6624252  46.8238329  68.0018966  25.1425507
  41.5104782  69.9414843  36.4187824  42.2945199  70.0545691  36.7843567
  41.3101377  69.1155980  36.6146510  41.5970808  69.8361562  36.5022210
  29.8791798  64.6142523  29.3031668  29.6130213  63.7981640  29.4622659
  29.8930362  64.6595678  28.4327184  29.8416520  64.4999428  29.1985150
  33.7849545  59.4127607  15.9183426  33.0707722  59.1265787  16.3305859
  34.2693514  59.7524233  16.5589814  33.7508908  59.4209257  16.0739061
  41.6675176  71.8524945  30.0654280  40.8690422  71.6124445  30.3228149
  42.1161187  71.9039338  30.8121328  41.6149787  71.8247336  30.2139204
  40.9596863  67.9157561  16.2945235  41.3748011  67.5842585  15.6029730
  40.1288792  67.6826464  16.1665371  40.8984872  67.8328817  16.1736082
  30.2885212  65.4001302  26.5843412  30.1060785  65.3748188  25.7315705
  31.0234880  65.8700240  26.6232321  30.3699275  65.4662665  26.4641331
  46.3584886  65.6352812  23.7276300  46.5940475  65.7798011  22.9003151
  46.5074449  66.3995220  24.1207814  46.4150689  65.7691867  23.6639904
  48.1875342  64.4754478  21.5645904  48.5183560  65.0082118  20.9585999
  48.7608431  64.5293366  22.2207855  48.3209022  64.5624047  21.5723686
  40.7275913  65.5985390  37.9574468  39.9348893  65.9128902  38.1427088
  40.8424840  65.8136858  37.1195253  40.6271323  65.6769226  37.8612803
  43.4007232  62.3219381  22.2469484  43.4954086  63.0608675  22.7009109
  42.7766075  61.8936856  22.6804049  43.3216262  62.3680701  22.3777632
  41.6559705  65.5005594  32.8959765  42.2298567  64.8632838  33.0508329
  41.5774509  65.5009676  32.0269423  41.7292940  65.4070705  32.7906176
  43.6530253  64.1668121  15.4806436  43.5710415  64.2370308  16.3461423
  44.2909973  64.7297865  15.2890177  43.7350090  64.2607092  15.5796385
  37.0123424  63.9328859  24.9480962  36.7542668  63.1000594  24.9212262
  37.0671907  64.1586472  24.1073463  36.9823202  63.8426630  24.8201099
  25.7314955  61.1306696  23.4490298  25.8175207  60.7538564  24.2303828
  26.3590753  60.7567141  22.9710256  25.8371506  61.0192178  23.4935775
  40.7570363  64.1888575  18.4915042  41.5711002  64.4803468  18.3797814
  40.6929504  63.5348437  17.9173335  40.8673102  64.1353770  18.3903880
  46.9779853  66.8714571  32.9044618  46.7418491  66.0402636  32.7856679
  47.6223082  66.8200178  33.4899462  47.0374524  66.7412259  32.9730512
  36.6278271  67.6610092  23.6187355  37.2652218  67.4221840  24.1639148
  37.0533343  67.8647251  22.8840515  36.7854438  67.6561103  23.5904512
  31.3190914  69.8998429  27.5021658  31.3595059  70.1713280  26.6741438
  31.8785438  70.4240337  27.9179446  31.4074260  70.0174184  27.4413546
  37.2681086  62.8812382  17.9562244  37.6526239  62.6620089  18.7078789
  37.0192707  63.7075328  18.0863320  37.2883159  62.9710528  18.0863320
  39.0099743  68.1382515  25.2981141  39.0838752  67.9757687  26.1522991
  39.8269250  68.3272705  25.0541622  39.1416102  68.1419257  25.3879166
  32.7705500  68.4840378  22.3275584  31.9443618  68.7302115  22.2009863
  32.8317491  68.4052459  23.1937642  32.6579667  68.5085327  22.4364529
  37.5504329  71.1017258  20.0294614  37.8402627  70.7106239  19.3053841
  38.2807810  71.2833963  20.4699889  37.7011213  71.0711072  19.9877421
  38.1399074  65.9035004  31.1147745  37.6410768  66.6150772  31.1932633
  38.9499299  66.2235671  31.0765907  38.1855181  66.0561853  31.1204313
  35.4910245  73.0784641  23.0954764  35.2710540  72.7881995  23.8881431
  35.2704767  72.4199596  22.5672676  35.4257839  72.9384349  23.1343673
  34.4027192  65.1657957  25.3610466  34.1140440  64.5395428  25.8956193
  35.2710540  65.1078244  25.4275146  34.4887444  65.0645501  25.4501420
  37.6578200  74.4514030  21.8785456  38.3102258  73.9190473  22.1076482
  36.9603809  74.0982683  22.2653330  37.6508918  74.3203553  21.9697624
  34.6059465  66.8053208  21.2852831  35.3605433  67.1866247  21.4988293
  34.0130078  67.2564352  21.7399527  34.6296179  66.9282035  21.3835709
  45.6518119  66.7718444  21.2216436  46.2176151  67.4311654  21.1374979
  45.0046022  67.1168143  21.6932838  45.6396875  66.9200386  21.2789192
  37.0666132  58.7616048  36.4110043  36.2565908  59.0673828  36.2999885
  37.5440819  59.4821631  36.5262627  37.0169611  58.9130650  36.4117114
  35.9257692  67.9761769  26.6592946  35.4038445  68.1162061  27.3444811
  36.3131712  67.2172434  26.8495063  35.9061393  67.8847293  26.7894023
  32.9148876  58.0267578  20.7287901  32.6273672  57.6568849  19.9919848
  33.6019344  58.4962433  20.4671606  32.9737773  58.0414548  20.5802976
  42.1224697  69.7157229  20.6453515  41.8811373  68.9825089  20.2380580
  42.3026030  70.2644086  19.9919848  42.1132321  69.6879620  20.4883738
  37.3524017  65.0065788  22.0574437  37.1566800  65.6140523  21.4634740
  37.5758363  64.3133732  21.5766111  37.3558658  64.9943314  21.8990518
  35.7502547  61.8920526  22.1755305  36.4725199  62.0561684  21.7159111
  35.2710540  62.6130191  22.0694645  35.7866278  62.0218756  22.0920919
  30.4877070  58.8048791  21.5773182  30.5893207  59.6074952  21.9054157
  31.2832957  58.6036127  21.2796262  30.6204976  58.8934689  21.5808537
  41.4579395  60.7563059  23.4638792  41.2114109  60.6758810  24.2975581
  41.7864518  59.9716527  23.2701319  41.4700638  60.6289324  23.5586315
  45.3527444  67.4646418  27.2525573  45.2141803  68.1627464  27.7574315
  44.5727442  67.3095075  26.8961755  45.2170671  67.5446585  27.2751847
  43.6905529  63.7642794  33.5047955  43.6853567  62.8922610  33.5090381
  44.3966523  63.9630963  33.0317410  43.7950533  63.6646668  33.4354990
  36.4904177  71.6822549  29.7422802  36.6393741  71.1225465  29.0896206
  37.2704179  71.7614551  30.1255320  36.6278271  71.6108115  29.7019751
  46.8480817  66.8224672  18.0142072  46.4687625  66.0361810  18.0071361
  46.1847062  67.3711529  17.8713716  46.6939291  66.7869496  17.9922869
  39.0157478  71.8537192  31.0207292  38.9401149  71.1846003  31.5758081
  38.9447337  72.5554980  31.5347959  38.9938085  71.8582100  31.1784140
  39.6727725  70.3738191  21.8530898  40.4377616  70.1047835  21.5313563
  39.5705815  69.8888202  22.5700961  39.7709220  70.2627756  21.9110726
  42.1946385  67.4050375  13.8330848  42.9619370  67.4650500  13.4236699
  41.7477694  66.8330816  13.3487166  42.2419813  67.3286951  13.7008558
  43.0924181  66.2105031  26.1183580  42.4169183  65.9790263  26.6196967
  43.1016557  65.6026214  25.4925685  42.9942685  66.0863956  26.0999732
  45.0940915  69.0670163  18.3493758  45.1760753  69.8737149  18.0255209
  45.5790658  69.0866122  19.0734531  45.1778073  69.1890826  18.4080657
  38.9037419  63.7454999  27.0163836  38.4799668  63.9459498  26.2802854
  38.7282274  62.8983847  27.1288136  38.8148299  63.6503781  26.9237526
  38.4049112  75.2605512  29.4785293  38.8945042  74.5616301  29.2960958
  37.8333344  74.9629382  30.0661350  38.3933642  75.1131736  29.5386334
  34.1919864  64.2407051  22.4491808  34.3484483  64.1753853  23.3047800
  34.5320457  65.0155603  22.2370488  34.2653098  64.3456249  22.5446403
  40.7299008  63.6164934  21.3185172  41.2714554  63.1135315  21.7823792
  41.0445567  63.5630129  20.5074657  40.8563405  63.5344355  21.2668984
  44.6016116  67.8267581  38.4312084  45.4150981  67.5552730  38.5917216
  44.4411082  67.5275121  37.6272280  44.6986064  67.7422508  38.3357490
  38.8985458  69.0082286  18.6025200  38.9678278  68.1496824  18.7418200
  39.6773913  69.2254167  18.2744224  39.0238308  68.9135150  18.5742357
  43.2892946  71.4319987  22.8161693  42.8972737  71.1286702  22.0984559
  43.4446018  72.2689077  22.6266647  43.2546535  71.5103824  22.6818190
  30.7654125  61.4242001  22.7652576  31.1453090  61.8426546  22.1012843
  30.1909490  62.0055457  23.0721419  30.7365450  61.5719860  22.7129317
  43.4532620  67.9969976  22.7567724  43.0947275  68.1684619  23.5331756
  42.9671331  68.4583181  22.1995722  43.3291317  68.0908947  22.7892993
  38.2420986  63.6769141  15.2967958  38.5313511  64.4534024  15.5711532
  38.3292785  63.1657873  15.9982457  38.2975242  63.7161060  15.4410456
  44.6137360  68.8873872  33.7034924  45.2517080  68.3934067  33.3697380
  43.9711451  68.8151272  33.1187151  44.6131586  68.8032880  33.5677279
  44.6691616  69.5793680  30.3440281  45.4583994  69.2282745  30.4642363
  44.8435214  70.3930068  30.0816915  44.8111898  69.6479537  30.3228149
  31.8860494  60.6121943  25.2252821  31.4917191  60.6864955  24.4502930
  31.3300611  60.9979889  25.7761182  31.7463306  60.6803717  25.1920480
  37.2767689  58.2284325  21.2110369  37.5527423  57.5103237  20.7987937
  37.8766358  58.8269245  21.0031475  37.4060953  58.2104695  21.1191131
  36.2819943  68.1333526  31.3537765  36.1740297  68.1435588  32.2199823
  36.4915724  68.9588306  31.1642719  36.2970054  68.2574600  31.4541857
  44.0583251  70.8355480  26.2491727  43.8602939  71.3246294  25.5547939
  43.4370962  71.0396721  26.8275861  43.9370815  70.9372018  26.2314951
  38.1191229  62.6040376  20.5901972  38.8633274  62.9914653  20.8284921
  38.2651925  61.7597802  20.7542459  38.2501814  62.5370849  20.6495941
  45.9757053  64.4019632  31.7836976  46.6991252  63.9492158  31.6047996
  45.7107015  64.6824298  31.0009304  46.0438326  64.3770600  31.6415691
  35.0285670  57.3404924  14.5762540  34.6798474  57.9924649  15.0394089
  34.5482116  57.3262037  13.8486411  34.9055914  57.4347978  14.5373631
  31.5569597  67.0580266  29.9593619  31.0269521  66.3672705  30.0088594
  31.8294690  67.0490451  29.1306328  31.5194319  66.9547397  29.8441035
  42.5889687  67.6405968  18.6831302  43.3123886  68.1064081  18.5395875
  42.1490278  67.7079578  17.9328899  42.6305379  67.7189805  18.5516083
  41.7575842  64.5003510  29.9331991  41.1432835  63.9561561  30.2280626
  42.2743127  63.9867747  29.4537807  41.7431505  64.3439919  29.9056219
  40.9972139  65.5707780  27.6676289  40.5699747  64.9457499  27.2341725
  40.9897084  65.2882702  28.4935297  40.9331281  65.4360561  27.7256117
  26.8365439  63.7308030  27.3161967  26.7308888  63.6854874  26.4514052
  26.0865659  64.0761810  27.5976252  26.7101042  63.7748938  27.2299297
  37.7888784  64.7408093  35.3644862  36.9384415  64.8779807  35.5002507
  37.9516912  64.0071871  35.8092564  37.6872648  64.6522194  35.4500461
  35.4009579  59.9663454  20.0888584  35.5412540  60.4635919  20.7917226
  35.8992111  59.2649749  20.2302798  35.4950659  59.9365433  20.2140163
  35.4309801  60.8330565  17.4181161  36.0654880  61.4290990  17.3530623
  35.5135412  60.5334023  18.2327031  35.5366352  60.8771474  17.5284248
  37.0088784  56.7644541  17.3926603  37.3304625  56.2847623  16.7385866
  37.2715728  57.5744187  17.2017415  37.0954809  56.8134439  17.2682095
  40.2385757  67.7863415  30.9125419  39.7310848  68.3399262  31.3566050
  39.9412403  67.8471705  30.0944194  40.1190641  67.8769726  30.8573876
  31.9362789  63.0298406  20.6870707  32.4455018  63.6262914  21.0682013
  32.4097061  62.7624380  20.0047127  32.0806164  63.0784222  20.6425230
  42.8493537  71.7026673  18.8429363  42.1322847  71.5287535  18.3776600
  43.5000274  71.4679245  18.3104849  42.8395387  71.6422465  18.6958581
  39.4828242  72.7187973  27.8182426  39.2593896  71.9606803  28.1866453
  38.9938085  72.7485995  27.0962866  39.3771691  72.6110198  27.7659167
  34.2953321  59.6654665  23.5543888  33.5765310  60.0818797  23.8216751
  34.6665683  60.2308904  23.0035526  34.2445252  59.8103946  23.5126695
  41.5399231  66.8869706  35.3694360  41.4995086  66.2419383  34.7839516
  42.3522549  66.8306323  35.6819772  41.6542385  66.7828672  35.3291309
  38.1306699  72.9388432  25.2719511  37.7167097  72.2762562  24.8823353
  38.8154073  73.0866290  24.7515205  38.1705070  72.8629090  25.1376008
  41.4971993  72.0978517  26.0243127  41.0988276  72.2080787  25.2563948
  40.8823212  72.3060583  26.6069687  41.3470882  72.1452085  25.9974427
  40.0699895  58.7052665  18.8917267  39.4764734  59.0269661  18.3401834
  40.1075173  57.8593760  18.6838373  39.9874284  58.6276993  18.7800038
  49.2313836  66.6730484  19.4086218  49.6147441  67.4221840  19.6384315
  48.4357949  66.9196303  19.1498207  49.1707618  66.8200177  19.4043792
  28.9744719  61.8651083  29.8334969  28.4271439  61.1951729  29.9515838
  29.7637097  61.4980931  29.8978436  29.0096903  61.7116069  29.8603670
  38.0429127  59.3449915  16.9846597  38.4228092  59.3629544  16.1997712
  37.3021723  59.7903904  16.8637444  37.9897965  59.4131690  16.8510165
  27.7331689  61.0771891  26.9880992  27.5553450  60.6248500  27.7135908
  27.4450711  61.8798052  27.1719470  27.6644642  61.1294449  27.1224495
  43.3955270  62.3329608  26.2258383  43.8908935  61.6152603  26.1862403
  42.5855045  62.0300406  26.1112870  43.3499163  62.1827254  26.2032108
  38.8413881  66.1827421  18.3755387  38.0325204  65.8594095  18.3288696
  39.3488790  65.4760644  18.3083636  38.7963548  66.0308738  18.3585681
  29.4704158  63.6099615  24.1002751  28.6049678  63.5985305  23.9885523
  29.5702974  63.4229837  24.9473891  29.3578325  63.5805676  24.2091696
  35.0961168  73.3797513  27.6732857  35.4107727  74.1933902  27.6810639
  35.5054582  72.9947732  28.3415016  35.2029266  73.4426216  27.7736948
  42.0485688  68.7967560  25.2436669  42.5196866  69.5107823  25.4126654
  42.3845867  68.1966310  25.7796538  42.1680803  68.8139024  25.3469045
  44.1362673  70.4068873  37.4228741  44.2459638  69.6177434  37.7785488
  44.4653569  70.3174810  36.6203079  44.2015078  70.2774726  37.3571132
  42.6859634  68.5885494  32.0064361  42.1380580  67.9643378  31.7384427
  43.1472663  68.7779766  31.2908441  42.6726844  68.5244544  31.8614793
  38.0348298  55.5711443  19.6674229  38.8563992  55.7409756  19.4255923
  37.5717949  55.7258704  18.9440526  38.0879460  55.6193176  19.5245873
  32.4374189  67.3270622  27.3211465  33.0419046  67.2866456  26.6925286
  32.2301501  68.1741774  27.3515521  32.4963086  67.4458624  27.2327582
  42.2517961  69.5936567  28.5373703  43.0716334  69.4499533  28.7989998
  41.9712038  70.2182766  29.0790141  42.3314704  69.6646919  28.6561642
  27.6725471  66.3105239  27.1910388  27.5749749  65.5001511  27.5000445
  28.4554341  66.2897033  26.8056656  27.7741607  66.1872329  27.1797251
  58.7231611  77.2501419  21.5016579  58.6925615  78.1046055  21.6734848
  59.3212960  76.9496711  22.0602723  58.8068769  77.3317915  21.6091381
  51.9231296  76.3377070  26.2569509  51.0669191  76.4985568  26.3078626
  51.9698950  75.4669133  26.2774570  51.8030407  76.2327871  26.2675575
  55.2325012  82.6063595  35.8629966  55.9391780  82.1115626  35.9916900
  55.4212948  83.0472677  35.1332624  55.3652918  82.5981946  35.7739011
  54.7683117  78.3969113  28.9001161  55.3139077  79.0754200  28.9595131
  54.7099993  78.2556574  28.0402743  54.8399031  78.4761115  28.7813222
  43.3812324  74.0764197  26.8106155  42.7617355  73.4856844  26.6416170
  43.2796187  74.6675632  26.1770478  43.2749999  74.0768279  26.6911144
  50.4780219  75.8163739  21.1438618  51.1760384  75.9951866  21.6360081
  50.7932552  75.2934078  20.5209007  50.6275556  75.7657511  21.1240628
  43.1081457  77.6216478  29.0549724  42.9840153  78.2078924  29.6899543
  43.7599741  77.1276674  29.3561999  43.1855106  77.6355283  29.1935653
  48.1339798  80.7978195  28.3337235  48.7788800  80.3050639  28.0148183
  48.3741575  80.9402982  29.1603313  48.2650383  80.7455638  28.4086768
  50.6725889  83.6433101  27.9844127  50.9549132  82.8484507  27.7630883
  51.4012049  84.1213689  28.0049188  50.8215453  83.5967698  27.9547143
  48.6507083  71.1856135  25.2259893  48.3210413  71.6367279  24.5563591
  47.9752085  71.1072299  25.7732899  48.5017519  71.2407270  25.2083116
  55.8583490  67.1741658  23.4709503  55.5436931  67.8645137  23.9029926
  55.3410432  67.1186440  22.7695004  55.7347961  67.2676547  23.4306452
  46.8563037  69.2468424  20.7082840  47.6109005  69.6146741  20.4699890
  46.6790571  69.6207978  21.4762020  46.9417515  69.3566611  20.7867729
  60.1497936  75.3962864  28.7530380  59.3126357  75.4665051  28.9877974
  60.1186166  75.3987359  27.8804682  60.0216218  75.4073091  28.6589928
  46.5462665  77.5395900  34.4678748  46.7183168  77.4301794  35.3164030
  47.0832022  78.1850305  34.2309941  46.6507669  77.6187901  34.5583845
  45.2120101  71.6538743  17.4060953  45.0295675  71.8710623  16.5801946
  46.0745714  71.7677755  17.4619568  45.3124691  71.7028641  17.2915440
  50.8919821  68.6565153  20.4409977  51.6205981  68.4781108  19.9948133
  50.9814714  69.4983233  20.6517155  51.0126483  68.7549032  20.4063495
  54.8728121  79.5918541  24.3442271  55.6285636  80.0250055  24.3831180
  54.9790446  78.9423310  24.9176907  54.9998292  79.5596024  24.4340297
  40.8524381  80.1327831  29.3031668  40.5862797  79.3166947  29.4622659
  40.8662946  80.1780986  28.4327184  40.8149104  80.0184736  29.1985150
  57.8305775  70.4605646  27.3374102  58.4731684  70.5303750  27.9236017
  58.0828796  69.7934869  26.8353644  57.9627907  70.3731994  27.3501381
  44.7582128  74.9312915  15.9183426  44.0440306  74.6451095  16.3305859
  45.2426097  75.2709541  16.5589814  44.7241492  74.9394565  16.0739061
  45.6022988  73.6706209  31.9498676  44.9094785  73.2003189  32.1959408
  46.2183315  73.4444514  32.5240383  45.5907518  73.5673341  32.0707829
  41.2617795  80.9186610  26.5843412  41.0793368  80.8933496  25.7315705
  41.9967464  81.3885548  26.6232321  41.3431859  80.9847972  26.4641331
  44.3263547  77.6371613  33.0925521  45.0503519  77.6224644  33.5790416
  44.4279683  78.3466968  32.5947489  44.4481756  77.7396316  33.0904308
  51.7008496  81.1170698  37.9574468  50.9081477  81.4314210  38.1427088
  51.8157423  81.3322166  37.1195253  51.6003907  81.1954534  37.8612803
  54.3739815  77.8404689  22.2469484  54.4686670  78.5793983  22.7009109
  53.7498659  77.4122164  22.6804049  54.2948845  77.8866009  22.3777632
  52.6292289  81.0190901  32.8959765  53.2031151  80.3818146  33.0508329
  52.5507093  81.0194984  32.0269423  52.7025524  80.9256013  32.7906176
  41.2288705  77.7980111  26.7342479  41.8062208  77.6616562  27.3734724
  40.5302767  77.3415895  26.9888063  41.2109727  77.7102377  26.8664769
  47.9856008  79.4514167  24.9480962  47.7275252  78.6185901  24.9212262
  48.0404490  79.6771780  24.1073463  47.9555786  79.3611938  24.8201099
  53.0657058  71.5542617  25.0485055  52.3613385  71.0651803  25.2068974
  53.1142032  71.5665092  24.1773499  52.9687109  71.4832265  24.9424395
  46.9590720  77.0051929  25.4345857  46.3840311  77.1644097  26.0709818
  46.5826396  76.3687338  24.9714308  46.8193532  76.9349742  25.4600415
  50.6264008  75.4775278  30.2938235  50.2378441  75.0529496  29.6390427
  49.9618707  75.7257428  30.8015262  50.4710936  75.4513999  30.2726103
  60.2687278  75.2350283  23.0686066  60.0123842  74.4230224  22.8783948
  61.1116592  75.2427850  22.8416253  60.3553303  75.1162280  23.0070883
  36.7047539  76.6492004  23.4490298  36.7907791  76.2723872  24.2303828
  37.3323336  76.2752449  22.9710256  36.8104090  76.5377486  23.4935775
  54.4490370  69.1749907  27.8062220  54.8300882  68.4928078  28.1930094
  53.6453654  68.8859509  27.6237884  54.3866832  69.0316956  27.8366276
  47.6010855  83.1795400  23.6187355  48.2384802  82.9407148  24.1639148
  48.0265927  83.3832559  22.8840515  47.7587021  83.1746411  23.5904512
  48.2413670  78.3997690  17.9562244  48.6258823  78.1805397  18.7078789
  47.9925290  79.2260636  18.0863320  48.2615743  78.4895836  18.0863320
  48.4082210  71.6804105  37.6724828  48.0935651  72.4503668  37.4094391
  48.0872143  71.1174361  37.0877055  48.3141129  71.7114374  37.5466178
  49.9832327  83.6567823  25.2981141  50.0571335  83.4942995  26.1522991
  50.8001833  83.8458013  25.0541622  50.1148686  83.6604565  25.3879166
  45.9614107  70.0694627  23.2871024  45.0936533  70.1417226  23.3528634
  46.2489312  70.8716706  23.4759000  45.8753855  70.1988774  23.3245791
  55.0846996  70.2172486  31.6182346  55.8300588  70.0282297  31.2045772
  54.6684301  70.7430724  31.0596203  55.1331970  70.2674632  31.4746920
  62.4609267  77.5881715  26.5687851  63.0117189  76.9549784  26.8084943
  62.4453382  78.1197107  27.2603356  62.5394463  77.5730663  26.7066709
  49.1131658  81.4220312  31.1147745  48.6143351  82.1336080  31.1932633
  49.9231882  81.7420979  31.0765907  49.1587765  81.5747161  31.1204313
  45.3759775  80.6843265  25.3610466  45.0873024  80.0580736  25.8956193
  46.2443123  80.6263552  25.4275146  45.4620027  80.5830809  25.4501420
  56.1637673  75.8278048  25.6792447  55.8202439  75.1068384  26.0299697
  56.2630716  75.6191900  24.8370806  56.1279716  75.6902252  25.6064127
  45.5792049  82.3238516  21.2852831  46.3338017  82.7051555  21.4988293
  44.9862661  82.7749660  21.7399527  45.6028762  82.4467343  21.3835709
  48.0398716  74.2801356  36.4110043  47.2298492  74.5859136  36.2999885
  48.5173403  75.0006939  36.5262627  47.9902195  74.4315958  36.4117114
  46.8990275  83.4947077  26.6592946  46.3771029  83.6347369  27.3444811
  47.2864296  82.7357742  26.8495063  46.8793976  83.4032601  26.7894023
  43.8881459  73.5452886  20.7287901  43.6006255  73.1754157  19.9919848
  44.5751928  74.0147741  20.4671606  43.9470357  73.5599855  20.5802976
  48.3256601  80.5251096  22.0574437  48.1299384  81.1325831  21.4634740
  48.5490947  79.8319040  21.5766111  48.3291242  80.5128622  21.8990518
  46.7235131  77.4105834  22.1755305  47.4457783  77.5746992  21.7159111
  46.2443124  78.1315499  22.0694645  46.7598862  77.5404064  22.0920919
  54.6828639  73.7469633  27.5551990  53.8439739  73.7730912  27.3190254
  54.7533006  74.3940369  28.1357337  54.5697032  73.8465759  27.6061107
  44.3742748  79.8163907  31.2809445  44.8863845  80.0948160  30.6318205
  44.0879090  80.5553201  31.6472258  44.4077611  79.9666260  31.2399323
  53.1297917  70.6455010  22.2879606  53.8324270  70.4462758  21.8099565
  52.8642106  69.8730952  22.5948450  53.1944549  70.5017976  22.2625048
  58.5586162  78.9537620  24.8413232  58.4720137  79.1093046  25.6948011
  58.1036642  79.5975695  24.4672637  58.4789419  79.0713375  24.9120339
  41.4609654  74.3234099  21.5773182  41.5625790  75.1260260  21.9054157
  42.2565541  74.1221434  21.2796262  41.5937560  74.4119997  21.5808537
  47.8926473  71.9090295  31.3410487  47.7009670  71.9245430  32.1909910
  48.7425069  72.1053970  31.3177142  47.9902195  71.9404647  31.4633782
  42.2773386  74.4381277  29.3194303  42.1358878  73.5865217  29.4438811
  42.5613950  74.4809937  28.4956509  42.2981232  74.3181027  29.2161927
  52.4311979  76.2748367  23.4638792  52.1846693  76.1944118  24.2975581
  52.7597102  75.4901835  23.2701319  52.4433222  76.1474632  23.5586315
  54.6638112  79.2828102  33.5047955  54.6586151  78.4107918  33.5090381
  55.3699106  79.4816271  33.0317410  54.7683116  79.1831976  33.4354990
  48.3909006  79.0105086  32.8761775  48.5352382  79.5906294  32.2404885
  48.7384654  79.3881382  33.5811629  48.4636467  79.1525790  32.8860770
  50.5628923  78.2095254  30.6586906  49.8152237  78.4026268  30.2535184
  50.7170448  77.3840473  30.4211028  50.4751351  78.1160365  30.5632312
  50.8030700  72.1045805  31.5482310  51.2603314  72.8369779  31.6755102
  50.8787029  71.6812270  32.3069566  50.8821670  72.1503043  31.6783387
  43.0463691  72.3511624  32.6371754  42.5105881  71.7391983  32.9532521
  43.1081456  72.9259760  33.2905420  42.9759324  72.3458552  32.7807180
  55.2758026  65.2835680  25.4176153  55.3941594  65.7412143  24.6843456
  55.1020202  64.4780941  25.1312371  55.2677197  65.2329452  25.2677087
  48.6813078  74.0947909  28.3924134  47.8909153  73.9139369  28.7141470
  49.0773701  73.3174861  28.3754429  48.6229954  73.9535370  28.4376682
  54.0656764  81.7290339  26.1183580  53.3901766  81.4975571  26.6196967
  54.0749140  81.1211522  25.4925685  53.9675269  81.6049264  26.0999732
  51.1950908  76.5708168  32.8747633  51.1310050  77.4318124  32.7467770
  51.3348096  76.2540161  32.0743184  51.2066378  76.6508334  32.7375846
  49.8770002  79.2640307  27.0163836  49.4532251  79.4644806  26.2802854
  49.7014857  78.4169155  27.1288136  49.7880883  79.1689089  26.9237526
  45.1652447  79.7592358  22.4491808  45.3217066  79.6939161  23.3047800
  45.5053040  80.5340911  22.2370488  45.2385682  79.8641557  22.5446403
  51.7031592  79.1350242  21.3185172  52.2447137  78.6320623  21.7823792
  52.0178151  79.0815437  20.5074657  51.8295989  79.0529663  21.2668984
  55.5748699  83.3452889  38.4312084  56.3883565  83.0738038  38.5917216
  55.4143666  83.0460429  37.6272280  55.6718648  83.2607815  38.3357490
  52.8520861  74.0286547  31.3707472  53.0662831  73.3897461  30.8170826
  52.2354760  74.4732370  30.9415334  52.7926190  73.9996690  31.2257903
  41.7386709  76.9427309  22.7652576  42.1185674  77.3611854  22.1012843
  41.1642074  77.5240765  23.0721419  41.7098034  77.0905168  22.7129317
  55.0159949  75.6375612  32.3090779  54.2036631  75.3301502  32.3903952
  55.4749884  75.1574612  32.8733491  54.9640334  75.5212104  32.4045373
  52.1113457  77.0435683  37.0919481  52.5813088  77.6677800  37.4787356
  52.1575337  76.3752659  37.6512696  52.1881333  77.0370363  37.2319553
  49.2684730  69.1492711  27.8168285  48.7523219  68.4572902  27.9419864
  48.7078659  69.8163488  27.7630884  49.1091244  69.1455968  27.8274351
  51.3376964  69.6885671  29.6461138  50.9508717  69.7134702  30.4274668
  50.8509901  69.1227349  29.1935654  51.2089473  69.6081422  29.6949042
  57.3126943  76.2548326  28.2700840  56.8854551  76.1674674  27.5148940
  56.6752996  76.3626101  28.8555684  57.1556551  76.2580985  28.2446282
  50.8048020  71.3623851  34.2097809  51.6321450  71.0909000  34.2656424
  50.8255866  72.1584693  34.5661627  50.9300870  71.4403605  34.2712992
  45.3817510  78.5087714  27.3968070  44.5405517  78.4091588  27.6046964
  45.5907518  79.2783194  27.7482391  45.2882203  78.6079757  27.4795385
  42.8593077  76.1307251  25.2252821  42.4649775  76.2050262  24.4502930
  42.3033194  76.5165197  25.7761182  42.7195890  76.1989025  25.1920480
  54.4958024  69.1088545  24.9056700  54.7007617  69.0410853  25.7513697
  54.1684448  69.9147366  24.8377877  54.4773272  69.2174485  25.0216355
  49.1934175  76.4369113  26.6465668  48.8897313  75.8825101  27.2476075
  48.4913596  76.6161323  26.1593702  49.0450385  76.3813895  26.6635373
  48.2500272  73.7469633  21.2110369  48.5260007  73.0288545  20.7987937
  48.8498942  74.3454553  21.0031475  48.3793537  73.7290003  21.1191131
  57.7491712  69.6620309  24.3859465  57.1366025  70.1490711  24.7713197
  57.8455887  68.9863800  24.9297116  57.6729609  69.6338618  24.5238323
  51.7510793  71.4183150  19.4856964  52.2054539  71.5893710  20.2104809
  52.2250838  70.8051261  19.0854740  51.8879113  71.3534035  19.5330726
  45.2726318  80.9031476  28.8159703  44.6814251  81.5440974  28.7862718
  46.0347342  81.3269093  28.7891002  45.2974579  81.0607314  28.8074850
  45.6686941  72.0633474  29.4827720  46.1288422  72.1372403  30.2202844
  45.7143048  72.8614728  29.1327542  45.7437496  72.1927621  29.5400477
  47.3170291  72.7300169  34.0499748  46.9255856  72.0833516  34.4855525
  47.4856153  73.3211604  34.6694003  47.2841201  72.7214436  34.2062454
  49.0923813  78.1225684  20.5901972  49.8365858  78.5099961  20.8284921
  49.2384509  77.2783110  20.7542459  49.2234398  78.0556157  20.6495941
  51.0103388  69.9175943  25.6233833  50.1639433  70.0898751  25.4975183
  51.0074521  69.1125287  25.9599661  50.8850538  69.8236972  25.6544960
  52.0801689  73.6951158  26.4895891  51.6061643  73.1692920  27.0001202
  52.4519824  73.1480631  25.9210752  52.0651578  73.5367154  26.4811038
  42.4574719  75.6922664  31.8579437  43.3200332  75.5918374  31.7716767
  42.1266502  75.1117374  31.2965009  42.5359915  75.5914291  31.7624843
  58.3438419  78.7553533  27.9002671  58.1036642  77.9159949  27.9045098
  58.8230426  78.8353700  28.6243445  58.3790603  78.6434933  28.0077474
  54.0085188  74.5887712  19.5521645  53.4808207  74.6716456  18.8627354
  54.4680896  75.3305584  19.5486289  53.9987039  74.7108375  19.4496340
  60.3443606  75.5354991  25.8531931  60.1053376  75.4950825  25.0152715
  60.5077507  76.3826143  25.9797652  60.3333910  75.6547076  25.7485413
  56.9489636  79.9204940  31.7836976  57.6723835  79.4677466  31.6047996
  56.6839599  80.2009606  31.0009304  57.0170910  79.8955908  31.6415691
  45.8176505  74.5165113  28.5189855  45.1929575  74.5283505  27.9115808
  45.4822100  74.9925289  29.1681095  45.6761997  74.5883630  28.5246423
  46.0018253  72.8590232  14.5762540  45.6531058  73.5109957  15.0394089
  45.5214699  72.8447345  13.8486411  45.8788497  72.9533285  14.5373631
  52.7308426  80.0188818  29.9331991  52.1165419  79.4746868  30.2280626
  53.2475711  79.5053055  29.4537807  52.7164088  79.8625227  29.9056219
  51.9704723  81.0893088  27.6676289  51.5432331  80.4642807  27.2341725
  51.9629667  80.8068010  28.4935297  51.9063864  80.9545869  27.7256117
  45.0867250  76.1258261  30.7364723  45.2460737  75.3701585  31.1416445
  44.9060144  76.6749201  31.3905461  45.0832609  76.0952075  30.8927429
  53.0287553  68.2919497  31.2915513  52.5328114  68.4883171  30.6007080
  53.7856615  68.6912165  31.1204315  53.0674378  68.3797231  31.1635650
  50.2990433  71.9661843  27.8818823  50.3232920  71.4321955  27.1931603
  50.5501906  71.4579152  28.5444414  50.3400351  71.8122747  27.8783468
  37.8098022  79.2493338  27.3161967  37.7041472  79.2040182  26.4514052
  37.0598242  79.5947118  27.5976252  37.6833625  79.2934246  27.2299297
  46.5791755  70.6932661  27.2624568  46.6190126  71.1941868  27.9759275
  45.7541420  70.7843055  26.9930491  46.4631281  70.7814477  27.3275106
  48.7621368  80.2593401  35.3644862  47.9116998  80.3965115  35.5002507
  48.9249496  79.5257179  35.8092564  48.6605231  80.1707502  35.4500461
  48.0006118  77.2093171  29.5598467  47.1698048  77.3766989  29.3533715
  47.9457635  76.8329122  30.3447352  47.8695533  77.1782902  29.6446995
  45.8089902  70.7002064  35.1954877  46.4342605  70.1564196  35.4684310
  45.3540381  70.2196981  34.6262668  45.8338162  70.5491545  35.1516471
  46.3742162  75.4848762  20.0888584  46.5145123  75.9821227  20.7917226
  46.8724695  74.7835057  20.2302798  46.4683243  75.4550741  20.2140163
  46.4042384  76.3515873  17.4181161  47.0387464  76.9476298  17.3530623
  46.4867995  76.0519331  18.2327031  46.5098935  76.3956782  17.5284248
  59.3824950  78.8831351  30.2867525  59.9742791  79.5228601  30.3185723
  59.8183945  78.1854387  30.5759592  59.5343381  78.8749701  30.3348358
  47.9821367  72.2829849  17.3926603  48.3037208  71.8032931  16.7385866
  48.2448311  73.0929495  17.2017415  48.0687393  72.3319747  17.2682095
  51.2118340  83.3048723  30.9125419  50.7043431  83.8584570  31.3566050
  50.9144986  83.3657013  30.0944194  51.0923225  83.3955034  30.8573876
  53.3780522  71.6702043  29.7550082  53.8035594  71.2174569  29.1433609
  52.7637515  71.1162113  30.0314870  53.3509168  71.5216019  29.7055108
  42.9095372  78.5483714  20.6870707  43.4187602  79.1448222  21.0682013
  43.3829645  78.2809688  20.0047127  43.0538748  78.5969530  20.6425230
  51.8174745  68.1417143  23.1640659  51.1743063  67.9914789  23.7325798
  51.4774152  67.8959488  22.3989764  51.6719823  68.0829265  23.1343674
  56.4074092  76.0976569  22.5870668  55.7365282  76.6406272  22.4583733
  57.1013842  76.5671425  22.3452363  56.4102959  76.2474841  22.5326196
  56.5702219  72.5532453  25.4961041  56.9229829  72.1262176  26.1706840
  55.7117021  72.4683297  25.6262118  56.4951664  72.4777194  25.6156052
  45.2685904  75.1839973  23.5543888  44.5497893  75.6004105  23.8216751
  45.6398266  75.7494211  23.0035526  45.2177836  75.3289254  23.5126695
  54.5685485  75.8167822  29.4445883  54.5483412  75.6351117  30.2980662
  54.6164686  76.6879840  29.4205467  54.5720126  75.9184360  29.5669178
  52.5131815  82.4055014  35.3694360  52.4727670  81.7604691  34.7839516
  53.3255133  82.3491631  35.6819772  52.6274968  82.3013980  35.3291309
  51.0432478  74.2237973  18.8917267  50.4497318  74.5454969  18.3401834
  51.0807756  73.3779068  18.6838373  50.9606868  74.1462301  18.7800038
  58.0026279  67.6750865  26.4245354  57.4957144  66.9680004  26.3566531
  58.7993713  67.3444054  26.5546430  58.0453518  67.5224016  26.4344349
  53.9190295  74.1817477  22.3219017  53.6903988  74.2050179  21.4797376
  54.1788371  73.3574944  22.4414028  53.9236483  74.0633557  22.2144215
  48.2009523  76.0351950  31.9244118  47.6888427  75.4273133  32.2829149
  48.0289020  76.7508543  32.3918093  48.0999161  76.0515249  32.0460341
  43.0475238  74.4789525  34.5746479  42.8777828  75.1390900  34.0294686
  42.6041188  74.6896087  35.2958968  42.9574572  74.6075508  34.6008109
  46.9735058  72.7194023  23.6173213  47.4492424  73.0811103  22.9823394
  46.4723657  73.3750491  23.8973356  46.9700417  72.8688212  23.5649954
  52.0778594  73.9576195  34.3646373  52.6350024  73.7290004  33.7324839
  51.7539659  74.7181860  34.0881586  52.1125004  74.0360031  34.2302870
  39.9477303  77.3836391  29.8334969  39.4004022  76.7137037  29.9515838
  40.7369681  77.0166239  29.8978436  39.9829486  77.2301377  29.8603670
  49.7961711  77.0443848  35.3298380  50.5473038  77.3595525  35.6437934
  49.9884288  76.8423019  34.5032302  49.9353125  77.0611230  35.2541776
  49.0161711  74.8635223  16.9846597  49.3960676  74.8814852  16.1997712
  48.2754307  75.3089212  16.8637444  48.9630548  74.9316998  16.8510165
  56.6447001  73.1717414  22.5722176  56.6441228  73.0166071  23.4306452
  56.4403181  74.0180401  22.5163561  56.6146779  73.2738035  22.6910115
  38.7064272  76.5957199  26.9880992  38.5286033  76.1433808  27.7135908
  38.4183294  77.3983360  27.1719470  38.6377225  76.6479757  27.1224495
  54.3687853  77.8514916  26.2258383  54.8641519  77.1337911  26.1862403
  53.5587629  77.5485714  26.1112870  54.3231747  77.7012562  26.2032108
  40.4436742  79.1284923  24.1002751  39.5782262  79.1170613  23.9885523
  40.5435558  78.9415145  24.9473891  40.3310909  79.0990984  24.2091696
  56.4339672  80.6018604  28.9135511  56.8594744  80.0793025  28.3605936
  56.0696592  81.1999441  28.3924134  56.4426275  80.6128831  28.7544521
  53.0218272  84.3152868  25.2436669  53.4929450  85.0293131  25.4126654
  53.3578450  83.7151618  25.7796538  53.1413387  84.3324332  25.3469045
  49.9387767  69.0880339  32.1994764  50.0715672  68.2911332  32.5275739
  50.3232919  69.6146741  32.7793039  50.0144095  69.0480255  32.3338266
  53.6592218  84.1070802  32.0064361  53.1113164  83.4828686  31.7384427
  54.1205247  84.2965074  31.2908441  53.6459427  84.0429852  31.8614793
  56.4686082  72.1756157  29.3915554  55.8849071  72.6765363  28.9793121
  56.7890376  71.6685713  28.7579877  56.4299258  72.1747992  29.2374061
  49.0080881  71.0896751  19.6674229  49.8296576  71.2595064  19.4255923
  48.5450532  71.2444012  18.9440526  49.0612044  71.1378484  19.5245873
  47.5976213  69.0839514  30.4472657  48.1420626  68.7430640  31.0376999
  47.6513149  69.9424975  30.5893942  47.6865333  69.1594773  30.5554531
  22.0078086  12.9885803  22.7970012  22.7144853  12.4937833  22.9256947
  22.1966021  13.4294884  22.0672670  22.1405991  12.9804153  22.7079058
  19.1470380  16.4113339  20.6884088  19.2353726  16.2239480  21.5362298
  19.5760093  15.7650769  20.2888934  19.2232482  16.2876347  20.7555839
  16.7140840  15.6944499  19.6701750  16.1511675  15.2817109  20.1941411
  17.4761863  15.6197405  20.0894893  16.7435288  15.6221900  19.8094750
  13.3215738   7.9218107  21.4018795  13.4936241   7.8124002  22.2504076
  13.8585095   8.5672513  21.1649987  13.4260742   8.0010109  21.4923892
  19.2590439  15.8422358  23.3527871  20.0430856  15.9553206  23.7183613
  19.0587034  15.0163495  23.5486557  19.3456465  15.7369078  23.4362257
  19.4160833  17.7532460  16.9994327  18.6176078  17.5131960  17.2568195
  19.8646844  17.8046853  17.7461374  19.3635444  17.7254851  17.1479251
  18.4761569  11.4992905  24.8914515  17.6834550  11.8136417  25.0767135
  18.5910497  11.7144374  24.0535300  18.3756980  11.5776742  24.7952850
  19.4045362  11.4013109  19.8299812  19.9784224  10.7640353  19.9848376
  19.3260166  11.4017191  18.9609469  19.4778597  11.3078220  19.7246223
  24.7265510  12.7722086  19.8384665  24.4904147  11.9410151  19.7196726
  25.3708739  12.7207694  20.4239509  24.7860181  12.6419774  19.9070558
  25.7501931  12.5566535  15.9012959  25.4447748  13.2894592  16.2626275
  25.0308146  12.1504465  15.6205745  25.5989273  12.6048268  15.9126096
  31.4503723   9.1959536  15.2281304  31.3828223   9.2155495  14.3583890
  31.4359385  10.0389863  15.4536974  31.4382479   9.3233271  15.1333781
  15.8884731  11.8042519  18.0487791  15.3896425  12.5158287  18.1272680
  16.6984955  12.1243186  18.0105954  15.9340838  11.9569368  18.0544360
  14.8151789   4.6623564  23.3450090  14.0051565   4.9681343  23.2339932
  15.2926476   5.3829146  23.4602674  14.7655268   4.8138165  23.3457161
  21.4391186   9.6650309  20.4388001  21.4339224   8.7930126  20.4430428
  22.1452180   9.8638478  19.9657457  21.5436190   9.5654183  20.3695037
  15.1662079   9.3927293  19.8101822  15.3105455   9.9728501  19.1744932
  15.5137728   9.7703590  20.5151676  15.2389540   9.5347997  19.8200816
  14.2389834  17.5830065  16.6762848  14.3879398  17.0232981  16.0236253
  15.0189836  17.6622066  17.0595367  14.3763928  17.5115630  16.6359797
  16.7643135  17.7544708  17.9547339  16.6886806  17.0853518  18.5098127
  16.6932994  18.4562496  18.4688005  16.7423742  17.7589615  18.1124187
  16.1534769  21.1613027  16.4125340  16.6430699  20.4623817  16.2301005
  15.5819001  20.8636897  17.0001397  16.1419299  21.0139251  16.4726381
  22.3501772  13.7275097  25.3652131  23.1636638  13.4560246  25.5257263
  22.1896739  13.4282637  24.5612327  22.4471721  13.6430023  25.2697536
  21.7913022   6.0197819  19.2430826  20.9789704   5.7123710  19.3243999
  22.2502957   5.5396819  19.8073538  21.7393407   5.9034312  19.3385420
  18.8866530   7.4257891  24.0259528  19.3566161   8.0500007  24.4127402
  18.9328410   6.7574866  24.5852743  18.9634406   7.4192571  24.1659600
  22.3623016  14.7881387  20.6374971  23.0002737  14.2941583  20.3037427
  21.7197108  14.7158788  20.0527198  22.3617243  14.7040396  20.5017326
  22.4177273  15.4801195  17.2780328  23.2069651  15.1290260  17.3982410
  22.5920871  16.2937584  17.0156962  22.5597555  15.5487052  17.2568196
  14.0305599  14.0341041  18.2877812  13.9225954  14.0443103  19.1539870
  14.2401381  14.8595821  18.0982766  14.0455710  14.1582116  18.3881904
  28.1669813  11.1159453  16.7477028  28.2252937  11.5646102  17.4937004
  27.5336280  11.5258266  16.3107108  28.0821108  11.2433188  16.7929576
  21.8068908  16.7362995  13.1831774  21.6088596  17.2253809  12.4887985
  21.1856619  16.9404236  13.7615908  21.6856472  16.8379533  13.1654997
  23.7242710  10.3027147  18.7177022  24.4476908   9.8499674  18.5388042
  23.4592672  10.5831813  17.9349350  23.7923983  10.2778116  18.5755738
  15.5374441  10.6415608  22.2984909  14.6870072  10.7787323  22.4342554
  15.7002569   9.9079387  22.7432611  15.4358305  10.5529710  22.3840508
  26.1578023   9.2653558  17.2207572  26.7495864   9.9050809  17.2525770
  26.5937018   8.5676595  17.5099639  26.3096455   9.2571908  17.2688405
  17.9871413  13.6870930  17.8465466  17.4796504  14.2406777  18.2906097
  17.6898060  13.7479220  17.0284241  17.8676298  13.7777242  17.7913923
  17.2313899  18.6195489  14.7522473  17.0079553  17.8614318  15.1206499
  16.7423742  18.6493510  14.0302913  17.1257348  18.5117713  14.6999214
  19.2884888  12.7877221  22.3034407  19.2480743  12.1426898  21.7179563
  20.1008206  12.7313838  22.6159819  19.4028042  12.6836188  22.2631356
  18.8531667   4.3398402  21.2986420  19.4103097   4.1112212  20.6664885
  18.5292732   5.1004068  21.0221632  18.8878077   4.4182239  21.1642917
  16.5714784   7.4266055  22.2638427  17.3226111   7.7417732  22.5777981
  16.7637361   7.2245226  21.4372349  16.7106198   7.4433437  22.1881823
  23.2092745  10.9840811  15.8475558  23.6347817  10.4615233  15.2945983
  22.8449665  11.5821648  15.3264181  23.2179348  10.9951038  15.6884568
  12.8446825  19.2805029  14.6072904  13.1593384  20.0941417  14.6150685
  13.2540239  18.8955247  15.2755063  12.9514923  19.3433731  14.7076995
  21.8848329  16.3076389  24.3568788  21.9945295  15.5184949  24.7125535
  22.2139226  16.2182325  23.5543126  21.9500735  16.1782242  24.2911178
  20.4345291  14.4893009  18.9404408  19.8866237  13.8650893  18.6724474
  20.8958320  14.6787281  18.2248488  20.4212501  14.4252060  18.7954839
  20.0003617  15.4944082  15.4713749  20.8201991  15.3507048  15.7330045
  19.7197695  16.1190281  16.0130187  20.0800361  15.5654434  15.5901689
  36.4717268  23.1508934   8.4356626  36.4411272  24.0053571   8.6074895
  37.0698617  22.8504226   8.9942769  36.5554426  23.2325430   8.5431428
  29.6716953  22.2384585  13.1909556  28.8154848  22.3993083  13.2418673
  29.7184606  21.3676649  13.2114617  29.5516064  22.1335387  13.2015622
  24.0558092  31.7747303   8.9546788  23.3040992  31.3962841   8.7262833
  24.5044104  31.8065736   8.2065598  24.0107759  31.7232910   8.8104290
  29.5083052  32.1972672   4.3832335  29.1734421  32.8749594   3.9476557
  30.0209923  31.8077984   3.7949207  29.5348633  32.2397250   4.2319126
  29.0487344  34.1486941  10.3243446  29.4326723  34.7173840   9.7848222
  28.9846485  33.4236451   9.8449263  29.0960771  34.1262404  10.1737309
  32.5168774  24.2976629  15.8341208  33.0624734  24.9761715  15.8935178
  32.4585650  24.1564090  14.9742789  32.5884688  24.3768630  15.7153268
  25.6342849  31.7865695  11.2209560  25.7353211  30.9766049  11.5306688
  25.0384594  31.6922641  10.5909239  25.5615387  31.6530723  11.1735799
  34.2933842  25.7261236   6.7074936  34.1773368  26.4768922   7.1367074
  35.0889729  25.4685189   6.9571023  34.3938432  25.7996083   6.8079027
  25.4743588  36.7043284  12.6224416  26.1181044  37.1456448  13.0120575
  25.7999844  35.8996710  12.5354675  25.6175417  36.6508479  12.6669894
  18.8307893  27.8085981  10.8461894  18.5958077  26.9753634  10.7394163
  18.9693534  28.0890647  10.0323095  18.8163555  27.7269485  10.7104249
  21.1297980  19.9771712  13.7446202  20.5103012  19.3864359  13.5756216
  21.0281844  20.5683147  13.1110525  21.0235656  19.9775795  13.6251191
  26.1764168  29.7155259   7.9944278  26.4980009  30.2560466   7.3905586
  26.8236264  29.1452030   8.1266568  26.3190223  29.7114434   7.9251313
  28.2265876  21.7171254   8.0778665  28.9246041  21.8959381   8.5700128
  28.5418208  21.1941593   7.4549054  28.3761213  21.6665026   8.0580675
  20.8567113  23.5223994  15.9889771  20.7325810  24.1086439  16.6239589
  21.5085398  23.0284189  16.2902046  20.9340763  23.5362798  16.1275700
  28.4153811  28.1041699   8.0658456  28.8547447  27.4958799   8.5113229
  28.2658474  27.7249072   7.2943921  28.4575277  27.9580170   8.0177624
  25.8825454  26.6985711  15.2677282  26.5274457  26.2058154  14.9488230
  26.1227231  26.8410497  16.0943360  26.0136039  26.6463153  15.3426815
  28.4211546  29.5440617  14.9184174  28.7034789  28.7492022  14.6970930
  29.1497706  30.0221204  14.9389235  28.5701109  29.4975213  14.8887189
  26.3992740  17.0863651  12.1599939  26.0696070  17.5374794  11.4903638
  25.7237741  17.0079814  12.7072946  26.2503176  17.1414786  12.1423163
  32.0163148  26.4568880   5.0189225  31.9314443  27.3129847   5.1638794
  32.5047531  26.1813204   5.6871385  32.0752045  26.5426202   5.1391307
  33.6069147  13.0749173  10.4049550  33.2922588  13.7652652  10.8369972
  33.0896089  13.0193956   9.7035051  33.4833618  13.1684062  10.3646499
  32.9481581  23.0753674   6.5186961  32.4193053  23.2913308   7.1784267
  33.4706601  23.7689813   6.4387930  32.9470034  23.2096811   6.6042560
  38.4029634  28.6499979  11.8920005  37.5727337  28.8610622  12.0553422
  38.3538886  27.8237033  11.6162289  38.2736369  28.5589585  11.8757370
  20.3925218  32.6871652  12.1218100  19.9092796  33.4122142  12.0977684
  21.2048536  32.9847782  12.2328258  20.4415965  32.8374006  12.1345379
  26.4639372  31.4803833  14.7267915  25.9466313  31.1211248  14.1229223
  27.1613763  30.9566007  14.7373981  26.4904953  31.3501521  14.6398173
  27.6873423  31.2129807  19.6701750  27.1244258  30.8002417  20.1941411
  28.4494447  31.1382713  20.0894893  27.7167872  31.1407208  19.8094750
  23.2469415  33.2027828  12.2738380  23.9489994  32.6879817  12.3311137
  23.1666898  33.5301980  13.0785255  23.3393175  33.1742054  12.4011172
  37.8983592  21.2970379  15.6870426  37.0612013  21.3672567  15.9218021
  37.8671823  21.2994874  14.8144729  37.7701875  21.3080606  15.5929974
  24.2948321  23.4403415  21.4018795  24.4668825  23.3309310  22.2504076
  24.8317679  24.0857821  21.1649987  24.3993325  23.5195417  21.4923892
  22.5720190  29.3934180  11.7823988  23.4109090  29.6257113  11.8297750
  22.6031959  28.5238492  11.7131023  22.7001908  29.2991127  11.7788633
  23.1972893  29.8135055  16.0837294  23.7371118  29.6706186  16.7540666
  22.5142839  30.2131806  16.4521320  23.1765047  29.8514726  16.2371715
  32.6213778  25.4926056  11.2782318  33.3771293  25.9257570  11.3171227
  32.7276103  24.8430826  11.8516954  32.7483949  25.4603540  11.3680343
  35.6593949  29.3199333  12.0284721  35.2229181  29.3236076  12.7843692
  35.3256865  30.0004832  11.5964298  35.5456569  29.4211789  12.0765553
  18.6010038  26.0335346  16.2371715  18.3348454  25.2174463  16.3962705
  18.6148602  26.0788502  15.3667231  18.5634761  25.9192251  16.1325197
  35.5791432  16.3613161  14.2714149  36.2217341  16.4311266  14.8576064
  35.8314453  15.6942384  13.7693691  35.7113564  16.2739510  14.2841428
  23.3508645  19.5713724  18.8838723  22.6580441  19.1010704  19.1299454
  23.9668972  19.3452029  19.4580430  23.3393175  19.4680856  19.0047875
  30.3893416  33.2717768  16.9994327  29.5908662  33.0317268  17.2568195
  30.8379428  33.3232161  17.7461374  30.3368027  33.2440159  17.1479251
  38.7938295  26.0380253  10.9204358  39.4554730  25.4770922  10.8200267
  38.1529707  25.5432284  11.2457049  38.7967163  25.8816662  10.9536698
  29.6815103  29.3350385   3.2285281  30.0966252  29.0035408   2.5369777
  28.8507033  29.1019287   3.1005418  29.6203112  29.2521640   3.1076129
  19.0103452  26.8194126  13.5183459  18.8279025  26.7941012  12.6655752
  19.7453121  27.2893063  13.5572368  19.0917516  26.8855488  13.3981378
  35.0803126  27.0545636  10.6616347  35.3158715  27.1990834   9.8343198
  35.2292690  27.8188044  11.0547861  35.1368929  27.1884690  10.5979951
  22.0749204  23.5379128  20.0265568  22.7989176  23.5232159  20.5130463
  22.1765340  24.2474484  19.5287536  22.1967413  23.6403832  20.0244355
  36.9093583  25.8947301   8.4985951  37.2401800  26.4274942   7.8926046
  37.4826671  25.9486189   9.1547902  37.0427262  25.9816870   8.5063732
  32.1225472  23.7412204   9.1809531  32.2172326  24.4801498   9.6349156
  31.4984316  23.3129680   9.6144095  32.0434502  23.7873525   9.3117678
  30.3777946  26.9198417  19.8299812  30.9516807  26.2825661  19.9848376
  30.2992750  26.9202499  18.9609469  30.4511181  26.8263528  19.7246223
  18.9774362  23.6987626  13.6682526  19.5547865  23.5624077  14.3074771
  18.2788424  23.2423410  13.9228110  18.9595384  23.6109892  13.8004816
  25.7341664  25.3521682  11.8821009  25.4760909  24.5193417  11.8552309
  25.7890147  25.5779295  11.0413509  25.7041442  25.2619453  11.7541146
  30.8142715  17.4550133  11.9825102  30.1099041  16.9659318  12.1409021
  30.8627689  17.4672607  11.1113546  30.7172766  17.3839781  11.8764442
  24.7076377  22.9059444  12.3685904  24.1325968  23.0651613  13.0049865
  24.3312053  22.2694853  11.9054354  24.5679189  22.8357257  12.3940462
  28.3749665  21.3782794  17.2278282  27.9864098  20.9537011  16.5730473
  27.7104364  21.6264943  17.7355309  28.2196593  21.3521515  17.2066150
  38.0172934  21.1357798  10.0026112  37.7609499  20.3237740   9.8123995
  38.8602248  21.1435365   9.7756300  38.1038960  21.0169796   9.9410929
  32.1976027  15.0757422  14.7402267  32.5786539  14.3935593  15.1270141
  31.3939311  14.7867024  14.5577931  32.1352489  14.9324471  14.7706322
  29.4788604  25.6081398   5.4255089  30.2929242  25.8996291   5.3137861
  29.4147745  24.9541261   4.8513382  29.5891343  25.5546593   5.3243927
  35.6998094  28.2907394  19.8384665  35.4636731  27.4595459  19.7196726
  36.3441323  28.2393002  20.4239509  35.7592764  28.1605082  19.9070558
  25.3496512  29.0802916  10.5527401  25.9870459  28.8414663  11.0979195
  25.7751583  29.2840075   9.8180562  25.5072678  29.0753926  10.5244559
  20.0409154  31.3191252  14.4361705  20.0813299  31.5906103  13.6081485
  20.6003678  31.8433160  14.8519493  20.1292500  31.4367007  14.3753593
  26.1567867  17.5811621  24.6064875  25.8421308  18.3511183  24.3434438
  25.8357800  17.0181877  24.0217102  26.0626786  17.6121889  24.4806225
  36.7234514  28.0751843  15.9012959  36.4180331  28.8079900  16.2626275
  36.0040730  27.6689773  15.6205745  36.5721857  28.1233576  15.9126096
  27.7317984  29.5575338  12.2321188  27.8056992  29.3950510  13.0863038
  28.5487490  29.7465528  11.9881669  27.8634342  29.5612081  12.3219213
  42.4236306  24.7144844  15.2281304  42.3560807  24.7340803  14.3583890
  42.4091969  25.5575171  15.4536974  42.4115063  24.8418578  15.1333781
  21.4923740  29.9033201   9.2615631  20.6661858  30.1494938   9.1349910
  21.5535732  29.8245282  10.1277689  21.3797907  29.9278150   9.3704576
  32.8332653  16.1180002  18.5522393  33.5786245  15.9289812  18.1385819
  32.4169958  16.6438239  17.9936249  32.8817627  16.1682147  18.4086966
  26.2722569  32.5210081   6.9634661  26.5620868  32.1299063   6.2393888
  27.0026050  32.7026786   7.4039936  26.4229454  32.4903895   6.9217468
  40.2094924  23.4889230  13.5027898  40.7602845  22.8557299  13.7424990
  40.1939039  24.0204623  14.1943402  40.2880120  23.4738178  13.6406756
  26.8617315  27.3227827  18.0487791  26.3629008  28.0343595  18.1272680
  27.6717539  27.6428494  18.0105954  26.9073421  27.4754676  18.0544360
  24.2128485  34.4977464  10.0294811  23.9928780  34.2074818  10.8221478
  23.9923007  33.8392419   9.5012723  24.1476079  34.3577172  10.0683719
  23.1245432  26.5850780  12.2950512  22.8358681  25.9588252  12.8296240
  23.9928780  26.5271068  12.3615193  23.2105684  26.4838325  12.3841467
  33.9123330  21.7285564  12.6132494  33.5688096  21.0075899  12.9639744
  34.0116373  21.5199415  11.7710853  33.8765373  21.5909767  12.5404174
  26.3796441  35.8706854   8.8125503  27.0320499  35.3383296   9.0416529
  25.6822049  35.5175506   9.1993377  26.3727159  35.7396377   8.9037671
  23.3277706  28.2246031   8.2192877  24.0823674  28.6059070   8.4328340
  22.7348318  28.6757175   8.6739574  23.3514419  28.3474859   8.3175756
  34.3736359  28.1911268   8.1556482  34.9394392  28.8504478   8.0715025
  33.7264263  28.5360966   8.6272885  34.3615116  28.3393209   8.2129239
  25.7884373  20.1808872  23.3450090  24.9784148  20.4866651  23.2339932
  26.2659059  20.9014454  23.4602674  25.7387851  20.3323473  23.3457161
  24.6475932  29.3954593  13.5932993  24.1256686  29.5354884  14.2784858
  25.0349952  28.6365257  13.7835110  24.6279633  29.3040117  13.7234069
  30.8442937  31.1350052   7.5793562  30.6029613  30.4017913   7.1720627
  31.0244270  31.6836909   6.9259895  30.8350561  31.1072443   7.4223785
  26.0742258  26.4258612   8.9914484  25.8785040  27.0333346   8.3974787
  26.2976603  25.7326556   8.5106158  26.0776899  26.4136137   8.8330565
  24.4720788  23.3113350   9.1095352  25.1943440  23.4754508   8.6499158
  23.9928781  24.0323014   9.0034692  24.5084518  23.4411579   9.0260966
  32.4314295  19.6477148  14.4892037  31.5925396  19.6738427  14.2530300
  32.5018663  20.2947884  15.0697384  32.3182689  19.7473274  14.5401154
  22.1228404  25.7171422  18.2149492  22.6349501  25.9955675  17.5658252
  21.8364747  26.4560716  18.5812305  22.1563268  25.8673776  18.1739370
  30.8783574  16.5462525   9.2219653  31.5809926  16.3470274   8.7439611
  30.6127762  15.7738468   9.5288497  30.9430206  16.4025491   9.1965095
  36.3071819  24.8545135  11.7753279  36.2205794  25.0100561  12.6288058
  35.8522299  25.4983211  11.4012684  36.2275076  24.9720890  11.8460386
  25.6412130  17.8097811  18.2750534  25.4495327  17.8252945  19.1249957
  26.4910726  18.0061485  18.2517189  25.7387852  17.8412162  18.3973828
  20.0259043  20.3388792  16.2534350  19.8844535  19.4872733  16.3778858
  20.3099606  20.3817453  15.4296556  20.0466889  20.2188542  16.1501974
  30.1797635  22.1755882  10.3978838  29.9332350  22.0951633  11.2315627
  30.5082758  21.3909350  10.2041366  30.1918879  22.0482148  10.4926362
  34.0745684  28.8839242  14.1865620  33.9360043  29.5820287  14.6914362
  33.2945682  28.7287898  13.8301801  33.9388911  28.9639408  14.2091894
  26.1394663  24.9112601  19.8101822  26.2838038  25.4913809  19.1744932
  26.4870311  25.2888898  20.5151676  26.2122124  25.0533305  19.8200816
  28.3114580  24.1102769  17.5926953  27.5637894  24.3033784  17.1875231
  28.4656105  23.2847989  17.3551074  28.2237008  24.0167881  17.4972359
  25.2122418  33.1015373  16.6762848  25.3611981  32.5418289  16.0236253
  25.9922420  33.1807374  17.0595367  25.3496511  33.0300938  16.6359797
  35.5699057  28.2417495   4.9482119  35.1905866  27.4554633   4.9411408
  34.9065302  28.7904352   4.8053763  35.4157532  28.2062319   4.9262916
  27.7375718  33.2730016  17.9547339  27.6619389  32.6038826  18.5098127
  27.6665577  33.9747804  18.4688005  27.7156325  33.2774923  18.1124187
  28.5516357  18.0053320  18.4822357  29.0088971  18.7377294  18.6095149
  28.6272686  17.5819785  19.2409613  28.6307327  18.0510558  18.6123433
  20.7949348  18.2519140  19.5711801  20.2591538  17.6399498  19.8872568
  20.8567113  18.8267276  20.2245467  20.7244981  18.2466067  19.7147227
  33.0243683  11.1843195  12.3516200  33.1427251  11.6419658  11.6183502
  32.8505859  10.3788456  12.0652417  33.0162854  11.1336967  12.2017133
  28.3945965  31.7931014   8.7870945  29.1595856  31.5240658   8.4653609
  28.2924055  31.3081025   9.5041008  28.4927461  31.6820579   8.8450773
  26.4298735  19.9955424  15.3264181  25.6394810  19.8146884  15.6481517
  26.8259358  19.2182376  15.3094475  26.3715611  19.8542885  15.3716729
  31.8142421  27.6297854  13.0523627  31.1387423  27.3983086  13.5537014
  31.8234797  27.0219037  12.4265732  31.7160926  27.5056779  13.0339779
  28.9436565  22.4715683  19.8087680  28.8795706  23.3325639  19.6807816
  29.0833753  22.1547676  19.0083231  28.9552035  22.5515850  19.6715893
  33.8159156  30.4862986   5.2833805  33.8978993  31.2929973   4.9595256
  34.3008898  30.5058946   6.0074578  33.8996314  30.6083649   5.3420703
  27.6255659  25.1647822  13.9503883  27.2017908  25.3652321  13.2142901
  27.4500514  24.3176670  14.0628182  27.5366540  25.0696604  13.8577573
  27.1267353  36.6798335  16.4125340  27.6163283  35.9809125  16.2301005
  26.5551585  36.3822205  17.0001397  27.1151882  36.5324559  16.4726381
  22.9138104  25.6599874   9.3831855  23.0702723  25.5946677  10.2387847
  23.2538697  26.4348426   9.1710535  22.9871339  25.7649072   9.4786449
  29.4517249  25.0357757   8.2525218  29.9932794  24.5328138   8.7163839
  29.7663808  24.9822952   7.4414704  29.5781646  24.9537178   8.2009030
  27.6203698  30.4275109   5.5365246  27.6896519  29.5689647   5.6758247
  28.3992153  30.6446990   5.2084271  27.7456548  30.3327973   5.5082404
  30.6006518  19.9294062  18.3047519  30.8148488  19.2904976  17.7510873
  29.9840417  20.3739886  17.8755381  30.5411847  19.9004206  18.1597950
  32.0111186  32.8512810   9.7501740  31.6190978  32.5479525   9.0324606
  32.1664258  33.6881900   9.5606694  31.9764776  32.9296647   9.6158237
  19.4872366  22.8434824   9.6992622  19.8671330  23.2619369   9.0352890
  18.9127730  23.4248280  10.0061466  19.4583690  22.9912683   9.6469363
  32.7645606  21.5383127  19.2430826  31.9522288  21.2309017  19.3243999
  33.2235541  21.0582127  19.8073538  32.7125991  21.4219619  19.3385420
  32.1750861  29.4162799   9.6907770  31.8165515  29.5877442  10.4671803
  31.6889571  29.8776005   9.1335769  32.0509558  29.5101770   9.7233039
  29.9921247  13.0393998  13.2934862  29.1214805  13.0132719  13.2468171
  30.2461588  12.8671190  12.4760707  29.9014807  13.0104141  13.1654998
  29.8599114  22.9443199  24.0259528  30.3298745  23.5685315  24.4127402
  29.9060994  22.2760174  24.5852743  29.9366989  22.9377879  24.1659600
  27.0170387  15.0500226  14.7508332  26.5008876  14.3580417  14.8759911
  26.4564316  15.7171003  14.6970931  26.8576900  15.0463484  14.7614398
  29.0862621  15.5893186  16.5801185  28.6994374  15.6142218  17.3614715
  28.5995558  15.0234865  16.1275701  28.9575130  15.5088937  16.6289088
  35.0612600  22.1555841  15.2040887  34.6340208  22.0682190  14.4488986
  34.4238653  22.2633616  15.7895731  34.9042207  22.1588501  15.1786328
  28.7519762  12.4760172  18.8711445  29.3812880  13.0120472  18.5932515
  28.9205625  12.3837530  19.7225010  28.8697557  12.5421534  18.9559973
  28.5533677  17.2631366  21.1437856  29.3807107  16.9916515  21.1996471
  28.5741523  18.0592208  21.5001674  28.6786527  17.3411120  21.2053039
  33.3909857  30.9986503  17.2780328  34.1802235  30.6475568  17.3982410
  33.5653454  31.8122892  17.0156962  33.5330138  31.0672360  17.2568196
  23.1303167  24.4095229  14.3308117  22.2891174  24.3099103  14.5387011
  23.3393175  25.1790709  14.6822437  23.0367860  24.5087272  14.4135432
  20.6078734  22.0314766  12.1592867  20.2135432  22.1057778  11.3842977
  20.0518851  22.4172712  12.7101229  20.4681546  22.0996541  12.1260527
  32.2443681  15.0096060  11.8396746  32.4493274  14.9418368  12.6853743
  31.9170105  15.8154881  11.7717924  32.2258929  15.1182000  11.9556401
  26.9419832  22.3376628  13.5805714  26.6382969  21.7832616  14.1816122
  26.2399253  22.5168838  13.0933749  26.7936042  22.2821411  13.5975420
  25.0038183  29.5526349  18.2877812  24.8958538  29.5628411  19.1539870
  25.2133964  30.3781129  18.0982766  25.0188294  29.6767424  18.3881904
  35.4977369  15.5627824  11.3199512  34.8851682  16.0498226  11.7053244
  35.5941543  14.8871315  11.8637163  35.4215266  15.5346133  11.4578370
  23.0211975  26.8038991  15.7499750  22.4299908  27.4448490  15.7202765
  23.7832998  27.2276609  15.7231049  23.0460236  26.9614830  15.7414897
  23.4172598  17.9640989  16.4167767  23.8774079  18.0379919  17.1542891
  23.4628704  18.7622243  16.0667589  23.4923153  18.0935136  16.4740524
  25.0655947  18.6307684  20.9839794  24.6741513  17.9841031  21.4195572
  25.2341810  19.2219119  21.6034050  25.0326858  18.6221952  21.1402500
  39.1402396  26.6344761  16.7477028  39.1985520  27.0831410  17.4937004
  38.5068864  27.0443574  16.3107108  39.0553692  26.7618496  16.7929576
  32.7801491  32.2548303  13.1831774  32.5821180  32.7439117  12.4887985
  32.1589202  32.4589544  13.7615908  32.6589056  32.3564841  13.1654997
  26.8409470  24.0233200   7.5242018  27.5851514  24.4107476   7.7624968
  26.9870166  23.1790625   7.6882506  26.9720055  23.9563673   7.5835988
  28.7589045  15.8183459  12.5573880  27.9125090  15.9906266  12.4315230
  28.7560177  15.0132802  12.8939708  28.6336195  15.7244488  12.5885007
  29.8287345  19.5958673  13.4235938  29.3547300  19.0700435  13.9341249
  30.2005481  19.0488146  12.8550799  29.8137234  19.4374670  13.4151085
  20.2060376  21.5930180  18.7919484  21.0685989  21.4925889  18.7056813
  19.8752159  21.0124889  18.2305056  20.2845572  21.4921806  18.6964889
  36.0924076  24.6561049  14.8342718  35.8522299  23.8167464  14.8385145
  36.5716083  24.7361215  15.5583492  36.1276260  24.5442448  14.9417521
  38.0929263  21.4362506  12.7871977  37.8539033  21.3958340  11.9492762
  38.2563164  22.2833658  12.9137698  38.0819566  21.5554591  12.6825459
  34.6975293  25.8212455  18.7177022  35.4209492  25.3684982  18.5388042
  34.4325255  26.1017121  17.9349350  34.7656566  25.7963424  18.5755738
  23.5662161  20.4172629  15.4529902  22.9415232  20.4291021  14.8455854
  23.2307756  20.8932804  16.1021142  23.4247653  20.4891146  15.4586470
  20.2787837  28.4773089  16.8933666  19.7487762  27.7865528  16.9428641
  20.5512930  28.4683274  16.0646375  20.2412559  28.3740221  16.7781082
  31.3107928  29.0598791   5.6171349  32.0342126  29.5256904   5.4735922
  30.8708519  29.1272401   4.8668946  31.3523620  29.1382628   5.4856130
  30.4794083  25.9196333  16.8672038  29.8651076  25.3754384  17.1620673
  30.9961368  25.4060570  16.3877854  30.4649745  25.7632742  16.8396266
  29.7190380  26.9900603  14.6016336  29.2917988  26.3650322  14.1681772
  29.7115324  26.7075525  15.4275343  29.6549521  26.8553384  14.6596164
  22.8352907  22.0265777  17.6704770  22.9946394  21.2709101  18.0756492
  22.6545800  22.5756716  18.3245508  22.8318266  21.9959590  17.8267476
  30.7773210  14.1927012  18.2255560  30.2813771  14.3890686  17.5347126
  31.5342272  14.5919680  18.0544361  30.8160035  14.2804746  18.0975696
  28.0476089  17.8669358  14.8158870  28.0718577  17.3329470  14.1271650
  28.2987563  17.3586667  15.4784461  28.0886008  17.7130262  14.8123515
  15.5583679  25.1500853  14.2502014  15.4527128  25.1047697  13.3854098
  14.8083899  25.4954634  14.5316299  15.4319282  25.1941761  14.1639344
  24.3277412  16.5940176  14.1964615  24.3675783  17.0949383  14.9099322
  23.5027076  16.6850570  13.9270538  24.2116938  16.6821993  14.2615153
  26.5107025  26.1600916  22.2984909  25.6602655  26.2972631  22.4342554
  26.6735152  25.4264694  22.7432611  26.4090888  26.0715017  22.3840508
  25.7491775  23.1100686  16.4938514  24.9183705  23.2774504  16.2873762
  25.6943292  22.7336637  17.2787399  25.6181190  23.0790417  16.5787042
  23.5575558  16.6009579  22.1294924  24.1828262  16.0571712  22.4024357
  23.1026038  16.1204497  21.5602715  23.5823819  16.4499060  22.0856518
  37.1310607  24.7838866  17.2207572  37.7228447  25.4236117  17.2525770
  37.5669602  24.0861903  17.5099639  37.2829038  24.7757216  17.2688405
  28.9603997  29.2056238  17.8465466  28.4529088  29.7592085  18.2906097
  28.6630643  29.2664528  17.0284241  28.8408882  29.2962550  17.7913923
  31.1266179  17.5709558  16.6890129  31.5521251  17.1182084  16.0773656
  30.5123172  17.0169629  16.9654917  31.0994825  17.4223534  16.6395154
  31.5711777  33.1219496   5.7769410  30.8541087  32.9480358   5.3116647
  32.2218515  32.8872068   5.2444896  31.5613628  33.0615289   5.6298628
  34.1559748  21.9984085   9.5210715  33.4850938  22.5413787   9.3923780
  34.8499499  22.4678940   9.2792410  34.1588616  22.1482356   9.4666242
  28.2046482  34.1380797  14.7522473  27.9812137  33.3799626  15.1206499
  27.7156325  34.1678818  14.0302913  28.0989931  34.0303021  14.6999214
  34.3187876  18.4539968  12.4301088  34.6715486  18.0269691  13.1046887
  33.4602677  18.3690812  12.5602164  34.2437321  18.3784709  12.5496098
  23.0171561  21.0847488  10.4883934  22.2983550  21.5011621  10.7556798
  23.3883923  21.6501727   9.9375573  22.9663493  21.2296769  10.4466741
  32.3171142  21.7175337  16.3785930  32.2969069  21.5358632  17.2320709
  32.3650342  22.5887355  16.3545514  32.3205783  21.8191875  16.5009225
  30.2617472  28.3062529  22.3034407  30.2213326  27.6612206  21.7179563
  31.0740790  28.2499146  22.6159819  30.3760625  28.2021496  22.2631356
  26.8524939  34.3581255  12.2059558  26.4385338  33.6955385  11.8163399
  27.5372313  34.5059114  11.6855252  26.8923311  34.2821913  12.0716055
  30.2190233  33.5171340  12.9583174  29.8206516  33.6273610  12.1903995
  29.6041453  33.7253406  13.5409734  30.0689123  33.5644908  12.9314474
  35.7511936  13.5758380  13.3585400  35.2442801  12.8687520  13.2906578
  36.5479370  13.2451569  13.4886477  35.7939175  13.4231532  13.3684395
  31.6675952  20.0824992   9.2559064  31.4389645  20.1057694   8.4137422
  31.9274028  19.2582459   9.3754075  31.6722140  19.9641072   9.1484262
  25.9495180  21.9359465  18.8584164  25.4374083  21.3280648  19.2169196
  25.7774676  22.6516058  19.3258140  25.8484817  21.9522765  18.9800388
  20.7960895  20.3797041  21.5086526  20.6263485  21.0398416  20.9634733
  20.3526845  20.5903602  22.2299015  20.7060229  20.5083023  21.5348156
  24.7220714  18.6201539  10.5513260  25.1978081  18.9818619   9.9163441
  24.2209314  19.2758006  10.8313403  24.7186073  18.7695727  10.4990001
  37.9532076  28.0923307   6.3426265  38.3365682  28.8414663   6.5724362
  37.1576189  28.3389126   6.0838254  37.8925858  28.2393001   6.3383838
  29.8264251  19.8583710  21.2986420  30.3835681  19.6297520  20.6664885
  29.5025316  20.6189376  21.0221632  29.8610661  19.9367547  21.1642917
  17.6962959  23.2843906  16.7675016  17.1489679  22.6144552  16.8855884
  18.4855338  22.9173754  16.8318483  17.7315143  23.1308893  16.7943717
  27.5447368  22.9451363  22.2638427  28.2958695  23.2603040  22.5777981
  27.7369944  22.7430534  21.4372349  27.6838782  22.9618745  22.1881823
  34.3932658  19.0724930   9.5062223  34.3926884  18.9173586  10.3646499
  34.1888838  19.9187917   9.4503608  34.3632436  19.1745550   9.6250162
  16.4549929  22.4964714  13.9221039  16.2771690  22.0441323  14.6475955
  16.1668951  23.2990875  14.1059517  16.3862882  22.5487272  14.0564542
  32.1173510  23.7522431  13.1598429  32.6127175  23.0345427  13.1202450
  31.3073286  23.4493229  13.0452916  32.0717403  23.6020078  13.1372155
  27.5632122  27.6020245   5.3095434  26.7543444  27.2786918   5.2628743
  28.0707030  26.8953467   5.2423682  27.5181788  27.4501561   5.2925728
  18.1922399  25.0292438  11.0342798  17.3267918  25.0178128  10.9225569
  18.2921215  24.8422661  11.8813937  18.0796566  24.9998499  11.1431743
  34.1825329  26.5026119  15.8475558  34.6080400  25.9800541  15.2945983
  33.8182249  27.1006956  15.3264181  34.1911932  26.5136346  15.6884568
  23.8179409  34.7990336  14.6072904  24.1325968  35.6126725  14.6150685
  24.2272822  34.4140555  15.2755063  23.9247507  34.8619039  14.7076995
  30.7703928  30.2160383  12.1776716  31.2415107  30.9300646  12.3466701
  31.1064107  29.6159133  12.7136585  30.8899043  30.2331848  12.2809092
  27.6873423  14.9887854  19.1334810  27.8201329  14.1918847  19.4615786
  28.0718576  15.5154257  19.7133086  27.7629752  14.9487771  19.2678313
  31.4077875  30.0078317  18.9404408  30.8598821  29.3836201  18.6724474
  31.8690903  30.1972589  18.2248488  31.3945084  29.9437368  18.7954839
  30.7605779  11.9118180  15.7315904  29.9551742  11.8015910  16.0483742
  30.6312514  12.0130636  14.8745769  30.6225911  11.9101850  15.6523944
  34.2171739  18.0763672  16.3255601  33.6334728  18.5772878  15.9133168
  34.5376033  17.5693228  15.6919924  34.1784914  18.0755507  16.1714108
  25.3461870  14.9847029  17.3812704  25.8906283  14.6438156  17.9717046
  25.3998806  15.8432490  17.5233989  25.4350990  15.0602288  17.4894578
  21.1592429  28.7463445  14.2551512  21.7637286  28.7059279  13.6265333
  20.9519741  29.5934597  14.2855568  21.2181326  28.8651447  14.1667629
  30.9736201  31.0129390  15.4713749  31.7934575  30.8692356  15.7330045
  30.6930279  31.6375589  16.0130187  31.0532944  31.0839742  15.5901689
  16.3943711  27.7298062  14.1250435  16.2967989  26.9194334  14.4340492
  17.1772581  27.7089856  13.7396703  16.4959848  27.6065153  14.1137298
  47.4449851  38.6694242   8.4356626  47.4143856  39.5238878   8.6074895
  48.0431200  38.3689534   8.9942769  47.5287009  38.7510738   8.5431428
  40.6449536  37.7569893  13.1909556  39.7887432  37.9178391  13.2418673
  40.6917190  36.8861957  13.2114617  40.5248648  37.6520695  13.2015622
  35.0290676  47.2932611   8.9546788  34.2773575  46.9148149   8.7262833
  35.4776688  47.3251044   8.2065598  34.9840343  47.2418218   8.8104290
  40.4815636  47.7157980   4.3832335  40.1467004  48.3934902   3.9476557
  40.9942506  47.3263291   3.7949207  40.5081217  47.7582558   4.2319126
  40.0219927  49.6672249  10.3243446  40.4059306  50.2359147   9.7848222
  39.9579068  48.9421759   9.8449263  40.0693354  49.6447712  10.1737309
  43.4901357  39.8161937  15.8341208  44.0357317  40.4947023  15.8935178
  43.4318234  39.6749398  14.9742789  43.5617272  39.8953938  15.7153268
  36.6075432  47.3051003  11.2209560  36.7085795  46.4951357  11.5306688
  36.0117177  47.2107949  10.5909239  36.5347971  47.1716031  11.1735799
  45.2666426  41.2446544   6.7074936  45.1505952  41.9954230   7.1367074
  46.0622313  40.9870497   6.9571023  45.3671015  41.3181391   6.8079027
  36.4476172  52.2228592  12.6224416  37.0913627  52.6641756  13.0120575
  36.7732427  51.4182018  12.5354675  36.5908000  52.1693787  12.6669894
  29.8040476  43.3271289  10.8461894  29.5690661  42.4938942  10.7394163
  29.9426117  43.6075955  10.0323095  29.7896139  43.2454793  10.7104249
  32.1030564  35.4957020  13.7446202  31.4835595  34.9049667  13.5756216
  32.0014427  36.0868455  13.1110525  31.9968239  35.4961102  13.6251191
  37.1496751  45.2340567   7.9944278  37.4712593  45.7745774   7.3905586
  37.7968848  44.6637338   8.1266568  37.2922807  45.2299742   7.9251313
  39.1998459  37.2356562   8.0778665  39.8978624  37.4144689   8.5700128
  39.5150792  36.7126901   7.4549054  39.3493797  37.1850334   8.0580675
  31.8299697  39.0409302  15.9889771  31.7058394  39.6271747  16.6239589
  32.4817981  38.5469497  16.2902046  31.9073346  39.0548106  16.1275700
  39.3886395  43.6227007   8.0658456  39.8280030  43.0144107   8.5113229
  39.2391058  43.2434380   7.2943921  39.4307861  43.4765478   8.0177624
  36.8558038  42.2171019  15.2677282  37.5007040  41.7243462  14.9488230
  37.0959815  42.3595805  16.0943360  36.9868623  42.1648461  15.3426815
  39.3944129  45.0625924  14.9184174  39.6767372  44.2677330  14.6970930
  40.1230290  45.5406512  14.9389235  39.5433693  45.0160521  14.8887189
  37.3725323  32.6048958  12.1599939  37.0428653  33.0560102  11.4903638
  36.6970325  32.5265122  12.7072946  37.2235759  32.6600094  12.1423163
  42.9895731  41.9754188   5.0189225  42.9047027  42.8315155   5.1638794
  43.4780115  41.6998512   5.6871385  43.0484629  42.0611510   5.1391307
  44.5801731  28.5934481  10.4049550  44.2655172  29.2837960  10.8369972
  44.0628673  28.5379264   9.7035051  44.4566201  28.6869370  10.3646499
  43.9214165  38.5938982   6.5186961  43.3925636  38.8098616   7.1784267
  44.4439185  39.2875121   6.4387930  43.9202618  38.7282119   6.6042560
  49.3762218  44.1685287  11.8920005  48.5459921  44.3795930  12.0553422
  49.3271470  43.3422341  11.6162289  49.2468953  44.0774893  11.8757370
  35.8113772  42.4902199   5.3194429  35.2270988  42.9952230   5.7260292
  35.4083868  42.2644586   4.5791021  35.6653076  42.5310447   5.2699454
  31.3657801  48.2056960  12.1218100  30.8825379  48.9307450  12.0977684
  32.1781119  48.5033090  12.2328258  31.4148549  48.3559314  12.1345379
  37.4371955  46.9989141  14.7267915  36.9198897  46.6396556  14.1229223
  38.1346346  46.4751315  14.7373981  37.4637536  46.8686829  14.6398173
  41.0935547  47.4483955  20.6884088  41.1818893  47.2610095  21.5362298
  41.5225260  46.8021384  20.2888934  41.1697649  47.3246963  20.7555839
  38.6606007  46.7315115  19.6701750  38.0976842  46.3187725  20.1941411
  39.4227030  46.6568021  20.0894893  38.6900456  46.6592515  19.8094750
  40.2690987  38.7367851   3.7963349  40.5086991  38.9445835   2.9838692
  40.5906828  37.9325360   3.9052294  40.3528145  38.6481952   3.6923902
  35.5781277  30.6661247   7.6422887  36.3327245  31.0339564   7.4039937
  35.4008812  31.0400801   8.4102067  35.6635756  30.7759435   7.7207776
  34.2201998  48.7213136  12.2738380  34.9222578  48.2065125  12.3311137
  34.1399481  49.0487287  13.0785255  34.3125759  48.6927362  12.4011172
  48.8716176  36.8155687  15.6870426  48.0344597  36.8857874  15.9218021
  48.8404407  36.8180182  14.8144729  48.7434458  36.8265914  15.5929974
  35.2680905  38.9588723  21.4018795  35.4401409  38.8494618  22.2504076
  35.8050262  39.6043128  21.1649987  35.3725909  39.0380725  21.4923892
  33.9338342  33.0731566   4.3401000  33.7513915  33.2903447   3.5141993
  34.7963955  33.1870579   4.3959615  34.0342931  33.1221464   4.2255487
  33.5452774  44.9119488  11.7823988  34.3841673  45.1442421  11.8297750
  33.5764543  44.0423799  11.7131023  33.6734491  44.8176435  11.7788633
  34.1705477  45.3320363  16.0837294  34.7103702  45.1891494  16.7540666
  33.4875423  45.7317114  16.4521320  34.1497631  45.3700034  16.2371715
  39.6138061  30.0757977   7.3750024  40.3424221  29.8973931   6.9288180
  39.7032954  30.9176056   7.5857202  39.7344723  30.1741855   7.3403542
  43.5946362  41.0111364  11.2782318  44.3503877  41.4442878  11.3171227
  43.7008686  40.3616134  11.8516954  43.7216532  40.9788848  11.3680343
  46.6326533  44.8384641  12.0284721  46.1961765  44.8421384  12.7843692
  46.2989448  45.5190140  11.5964298  46.5189153  44.9397097  12.0765553
  29.5742622  41.5520654  16.2371715  29.3081037  40.7359771  16.3962705
  29.5881186  41.5973810  15.3667231  29.5367344  41.4377559  16.1325197
  46.5524016  31.8798469  14.2714149  47.1949924  31.9496574  14.8576064
  46.8047036  31.2127692  13.7693691  46.6846148  31.7924818  14.2841428
  33.4800369  36.3505738   2.8523473  32.7658546  36.0643918   3.2645906
  33.9644338  36.6902364   3.4929861  33.4459732  36.3587388   3.0079108
  34.3241228  35.0899032  18.8838723  33.6313025  34.6196012  19.1299454
  34.9401556  34.8637337  19.4580430  34.3125758  34.9866164  19.0047875
  41.3626000  48.7903076  16.9994327  40.5641245  48.5502576  17.2568195
  41.8112011  48.8417469  17.7461374  41.3100611  48.7625467  17.1479251
  49.7670879  41.5565561  10.9204358  50.4287313  40.9956230  10.8200267
  49.1262291  41.0617592  11.2457049  49.7699747  41.4001970  10.9536698
  40.6547687  44.8535692   3.2285281  41.0698835  44.5220716   2.5369777
  39.8239616  44.6204595   3.1005418  40.5935695  44.7706948   3.1076129
  29.9836036  42.3379433  13.5183459  29.8011609  42.3126319  12.6655752
  30.7185704  42.8078371  13.5572368  30.0650099  42.4040796  13.3981378
  46.0535710  42.5730943  10.6616347  46.2891299  42.7176142   9.8343198
  46.2025273  43.3373351  11.0547861  46.1101513  42.7069998  10.5979951
  33.0481787  39.0564436  20.0265568  33.7721760  39.0417467  20.5130463
  33.1497924  39.7659792  19.5287536  33.1699996  39.1589140  20.0244355
  47.8826166  41.4132609   8.4985951  48.2134384  41.9460250   7.8926046
  48.4559255  41.4671497   9.1547902  48.0159846  41.5002178   8.5063732
  43.0958056  39.2597512   9.1809531  43.1904910  39.9986806   9.6349156
  42.4716899  38.8314988   9.6144095  43.0167086  39.3058833   9.3117678
  41.3510529  42.4383725  19.8299812  41.9249391  41.8010969  19.9848376
  41.2725333  42.4387807  18.9609469  41.4243764  42.3448836  19.7246223
  29.9506946  39.2172934  13.6682526  30.5280448  39.0809385  14.3074771
  29.2521008  38.7608718  13.9228110  29.9327967  39.1295200  13.8004816
  43.3481077  41.1046252   2.4146483  43.2661239  41.1748439   3.2801470
  43.9860797  41.6675996   2.2230223  43.4300914  41.1985223   2.5136432
  36.7074248  40.8706990  11.8821009  36.4493492  40.0378725  11.8552309
  36.7622731  41.0964603  11.0413509  36.6774026  40.7804761  11.7541146
  41.7875298  32.9735441  11.9825102  41.0831625  32.4844626  12.1409021
  41.8360272  32.9857915  11.1113546  41.6905350  32.9025088  11.8764442
  35.6808960  38.4244752  12.3685904  35.1058551  38.5836921  13.0049865
  35.3044636  37.7880161  11.9054354  35.5411773  38.3542565  12.3940462
  39.3482249  36.8968102  17.2278282  38.9596682  36.4722319  16.5730473
  38.6836947  37.1450251  17.7355309  39.1929177  36.8706823  17.2066150
  48.9905518  36.6543106  10.0026112  48.7342083  35.8423048   9.8123995
  49.8334832  36.6620673   9.7756300  49.0771543  36.5355104   9.9410929
  25.4265779  38.0684827  10.3830344  25.5126031  37.6916695  11.1643874
  26.0541577  37.6945273   9.9050303  25.5322330  37.9570309  10.4275822
  43.1708610  30.5942730  14.7402267  43.5519122  29.9120901  15.1270141
  42.3671895  30.3052332  14.5577931  43.1085072  30.4509779  14.7706322
  40.4521187  41.1266706   5.4255089  41.2661826  41.4181599   5.3137861
  40.3880328  40.4726569   4.8513382  40.5623926  41.0731901   5.3243927
  46.6730677  43.8092702  19.8384665  46.4369315  42.9780767  19.7196726
  47.3173906  43.7578309  20.4239509  46.7325348  43.6790390  19.9070558
  36.3229095  44.5988224  10.5527401  36.9603042  44.3599971  11.0979195
  36.7484167  44.8025383   9.8180562  36.4805262  44.5939234  10.5244559
  31.0141738  46.8376560  14.4361705  31.0545883  47.1091411  13.6081485
  31.5736262  47.3618468  14.8519493  31.1025084  46.9552315  14.3753593
  36.9631910  39.8190513   4.8902291  37.3477063  39.5998220   5.6418836
  36.7143531  40.6453459   5.0203367  36.9833983  39.9088660   5.0203367
  47.6967098  43.5937151  15.9012959  47.3912915  44.3265208  16.2626275
  46.9773314  43.1875081  15.6205745  47.5454440  43.6418884  15.9126096
  38.7050567  45.0760646  12.2321188  38.7789576  44.9135818  13.0863038
  39.5220074  45.2650836  11.9881669  38.8366926  45.0797389  12.3219213
  53.3968890  40.2330152  15.2281304  53.3293390  40.2526111  14.3583890
  53.3824552  41.0760479  15.4536974  53.3847646  40.3603886  15.1333781
  32.4656324  45.4218509   9.2615631  31.6394442  45.6680246   9.1349910
  32.5268315  45.3430590  10.1277689  32.3530491  45.4463458   9.3704576
  34.6832348  31.4887450  10.2211071  33.8154773  31.5610050  10.2868680
  34.9707552  32.2909529  10.4099046  34.5972096  31.6181597  10.2585838
  43.8065236  31.6365309  18.5522393  44.5518828  31.4475120  18.1385819
  43.3902541  32.1623547  17.9936249  43.8550211  31.6867455  18.4086966
  37.2455153  48.0395389   6.9634661  37.5353451  47.6484371   6.2393888
  37.9758634  48.2212094   7.4039936  37.3962037  48.0089203   6.9217468
  51.1827507  39.0074538  13.5027898  51.7335429  38.3742607  13.7424990
  51.1671623  39.5389931  14.1943402  51.2612704  38.9923486  13.6406756
  37.8349898  42.8413135  18.0487791  37.3361592  43.5528903  18.1272680
  38.6450122  43.1613802  18.0105954  37.8806005  42.9939984  18.0544360
  35.1861069  50.0162772  10.0294811  34.9661364  49.7260126  10.8221478
  34.9655591  49.3577727   9.5012723  35.1208663  49.8762480  10.0683719
  34.0978016  42.1036088  12.2950512  33.8091264  41.4773559  12.8296240
  34.9661364  42.0456376  12.3615193  34.1838268  42.0023632  12.3841467
  44.8855914  37.2470872  12.6132494  44.5420679  36.5261207  12.9639744
  44.9848956  37.0384723  11.7710853  44.8497956  37.1095075  12.5404174
  37.3529024  51.3892162   8.8125503  38.0053082  50.8568604   9.0416529
  36.6554633  51.0360814   9.1993377  37.3459742  51.2581685   8.9037671
  34.3010289  43.7431339   8.2192877  35.0556257  44.1244378   8.4328340
  33.7080902  44.1942483   8.6739574  34.3247003  43.8660167   8.3175756
  45.3468943  43.7096576   8.1556482  45.9126975  44.3689786   8.0715025
  44.6996846  44.0546274   8.6272885  45.3347699  43.8578517   8.2129239
  36.7616956  35.6994180  23.3450090  35.9516732  36.0051959  23.2339932
  37.2391643  36.4199762  23.4602674  36.7120435  35.8508781  23.3457161
  35.6208516  44.9139901  13.5932993  35.0989269  45.0540192  14.2784858
  36.0082536  44.1550565  13.7835110  35.6012217  44.8225424  13.7234069
  32.6099700  34.9645709   7.6627948  32.3224496  34.5946980   6.9259895
  33.2970168  35.4340565   7.4011652  32.6688597  34.9792679   7.5143023
  41.8175521  46.6535360   7.5793562  41.5762197  45.9203221   7.1720627
  41.9976854  47.2022217   6.9259895  41.8083145  46.6257751   7.4223785
  37.0474841  41.9443920   8.9914484  36.8517624  42.5518654   8.3974787
  37.2709187  41.2511864   8.5106158  37.0509482  41.9321445   8.8330565
  35.4453371  38.8298658   9.1095352  36.1676023  38.9939816   8.6499158
  34.9661364  39.5508322   9.0034692  35.4817102  38.9596887   9.0260966
  43.4046879  35.1662456  14.4892037  42.5657980  35.1923735  14.2530300
  43.4751246  35.8133192  15.0697384  43.2915272  35.2658582  14.5401154
  33.0960988  41.2356730  18.2149492  33.6082085  41.5140983  17.5658252
  32.8097331  41.9746024  18.5812305  33.1295851  41.3859084  18.1739370
  41.8516157  32.0647833   9.2219653  42.5542510  31.8655582   8.7439611
  41.5860346  31.2923776   9.5288497  41.9162790  31.9210799   9.1965095
  47.2804403  40.3730443  11.7753279  47.1938377  40.5285869  12.6288058
  46.8254883  41.0168519  11.4012684  47.2007659  40.4906198  11.8460386
  30.1827894  35.7426922   8.5113229  30.2844031  36.5453083   8.8394204
  30.9783781  35.5414258   8.2136309  30.3155800  35.8312821   8.5148584
  36.6144713  33.3283119  18.2750534  36.4227911  33.3438253  19.1249957
  37.4643309  33.5246793  18.2517189  36.7120435  33.3597470  18.3973828
  30.9991626  35.8574100  16.2534350  30.8577118  35.0058041  16.3778858
  31.2832190  35.9002761  15.4296556  31.0199473  35.7373850  16.1501974
  41.1530219  37.6941190  10.3978838  40.9064933  37.6136941  11.2315627
  41.4815342  36.9094658  10.2041366  41.1651462  37.5667456  10.4926362
  45.0478268  44.4024550  14.1865620  44.9092627  45.1005595  14.6914362
  44.2678266  44.2473206  13.8301801  44.9121495  44.4824716  14.2091894
  43.3856353  40.7020925  20.4388001  43.3804391  39.8300741  20.4430428
  44.0917347  40.9009094  19.9657457  43.4901357  40.6024799  20.3695037
  37.1127246  40.4297909  19.8101822  37.2570622  41.0099117  19.1744932
  37.4602895  40.8074206  20.5151676  37.1854707  40.5718613  19.8200816
  39.2847163  39.6288077  17.5926953  38.5370478  39.8219092  17.1875231
  39.4388689  38.8033297  17.3551074  39.1969591  39.5353189  17.4972359
  36.1855001  48.6200681  16.6762848  36.3344565  48.0603597  16.0236253
  36.9655003  48.6992682  17.0595367  36.3229095  48.5486246  16.6359797
  46.5431641  43.7602803   4.9482119  46.1638449  42.9739941   4.9411408
  45.8797886  44.3089660   4.8053763  46.3890115  43.7247627   4.9262916
  38.7108302  48.7915324  17.9547339  38.6351973  48.1224134  18.5098127
  38.6398161  49.4933112  18.4688005  38.6888909  48.7960231  18.1124187
  39.5248941  33.5238628  18.4822357  39.9821555  34.2562602  18.6095149
  39.6005269  33.1005093  19.2409613  39.6039910  33.5695866  18.6123433
  31.7681932  33.7704448  19.5711801  31.2324121  33.1584806  19.8872568
  31.8299696  34.3452584  20.2245467  31.6977564  33.7651375  19.7147227
  43.9976266  26.7028503  12.3516200  44.1159835  27.1604966  11.6183502
  43.8238442  25.8973764  12.0652417  43.9895437  26.6522275  12.2017133
  39.3678549  47.3116322   8.7870945  40.1328440  47.0425966   8.4653609
  39.2656639  46.8266333   9.5041008  39.4660044  47.2005887   8.8450773
  37.4031318  35.5140732  15.3264181  36.6127393  35.3332192  15.6481517
  37.7991941  34.7367684  15.3094475  37.3448195  35.3728193  15.3716729
  41.8897209  44.3428506   0.7670894  42.6570194  44.4028631   0.3576746
  41.4428518  43.7708948   0.2827213  41.9370636  44.2665082   0.6348605
  42.7875005  43.1483162  13.0523627  42.1120007  42.9168394  13.5537014
  42.7967381  42.5404345  12.4265732  42.6893509  43.0242087  13.0339779
  39.9169149  37.9900991  19.8087680  39.8528290  38.8510947  19.6807816
  40.0566336  37.6732984  19.0083231  39.9284619  38.0701158  19.6715893
  44.7891739  46.0048294   5.2833805  44.8711577  46.8115281   4.9595256
  45.2741482  46.0244254   6.0074578  44.8728897  46.1268957   5.3420703
  38.5988243  40.6833130  13.9503883  38.1750492  40.8837629  13.2142901
  38.4233098  39.8361978  14.0628182  38.5099123  40.5881912  13.8577573
  33.8870688  41.1785182   9.3831855  34.0435307  41.1131985  10.2387847
  34.2271281  41.9533734   9.1710535  33.9603922  41.2834380   9.4786449
  40.4249832  40.5543065   8.2525218  40.9665378  40.0513446   8.7163839
  40.7396391  40.5008260   7.4414704  40.5514229  40.4722486   8.2009030
  38.5936282  45.9460417   5.5365246  38.6629102  45.0874955   5.6758247
  39.3724737  46.1632298   5.2084271  38.7189132  45.8513281   5.5082404
  41.5739102  35.4479370  18.3047519  41.7881071  34.8090284  17.7510873
  40.9573001  35.8925194  17.8755381  41.5144431  35.4189514  18.1597950
  42.9843769  48.3698118   9.7501740  42.5923561  48.0664833   9.0324606
  43.1396842  49.2067208   9.5606694  42.9497359  48.4481955   9.6158237
  30.4604949  38.3620132   9.6992622  30.8403914  38.7804677   9.0352890
  29.8860314  38.9433588  10.0061466  30.4316274  38.5097991   9.6469363
  43.7378190  37.0568435  19.2430826  42.9254871  36.7494325  19.3243999
  44.1968124  36.5767435  19.8073538  43.6858574  36.9404927  19.3385420
  43.1483444  44.9348107   9.6907770  42.7898099  45.1062750  10.4671803
  42.6622155  45.3961313   9.1335769  43.0242141  45.0287078   9.7233039
  40.9653830  28.5579305  13.2934862  40.0947388  28.5318027  13.2468171
  41.2194171  28.3856498  12.4760707  40.8747390  28.5289449  13.1654998
  37.9371810  40.6147272   2.2308005  38.2264334  41.3912155   2.5051579
  38.0243609  40.1036004   2.9322504  37.9926066  40.6539191   2.3750503
  37.9902971  30.5685534  14.7508332  37.4741459  29.8765725  14.8759911
  37.4296900  31.2356311  14.6970931  37.8309484  30.5648792  14.7614398
  40.0595204  31.1078494  16.5801185  39.6726957  31.1327525  17.3614715
  39.5728141  30.5420173  16.1275701  39.9307713  31.0274245  16.6289088
  46.0345184  37.6741149  15.2040887  45.6072792  37.5867497  14.4488986
  45.3971237  37.7818924  15.7895731  45.8774791  37.6773809  15.1786328
  39.7252346  27.9945479  18.8711445  40.3545464  28.5305779  18.5932515
  39.8938209  27.9022838  19.7225010  39.8430140  28.0606842  18.9559973
  39.5266261  32.7816674  21.1437856  40.3539690  32.5101823  21.1996471
  39.5474107  33.5777516  21.5001674  39.6519111  32.8596428  21.2053039
  44.3642440  46.5171811  17.2780328  45.1534818  46.1660876  17.3982410
  44.5386038  47.3308200  17.0156962  44.5062722  46.5857668  17.2568196
  34.1035751  39.9280537  14.3308117  33.2623757  39.8284411  14.5387011
  34.3125759  40.6976017  14.6822437  34.0100443  40.0272580  14.4135432
  31.5811318  37.5500074  12.1592867  31.1868015  37.6243086  11.3842977
  31.0251434  37.9358020  12.7101229  31.4414130  37.6181849  12.1260527
  43.2176264  30.5281368  11.8396746  43.4225858  30.4603676  12.6853743
  42.8902688  31.3340189  11.7717924  43.1991512  30.6367308  11.9556401
  37.9152415  37.8561936  13.5805714  37.6115553  37.3017924  14.1816122
  37.2131836  38.0354146  13.0933749  37.7668625  37.8006718  13.5975420
  36.9718513  35.1662456   8.1450416  37.2478247  34.4481368   7.7327984
  37.5717182  35.7647376   7.9371522  37.1011777  35.1482827   8.0531177
  35.9770767  45.0711657  18.2877812  35.8691121  45.0813719  19.1539870
  36.1866548  45.8966437  18.0982766  35.9920878  45.1952732  18.3881904
  46.4709952  31.0813132  11.3199512  45.8584266  31.5683534  11.7053244
  46.5674127  30.4056623  11.8637163  46.3947850  31.0531441  11.4578370
  40.4729033  32.8375973   6.4197011  40.9272780  33.0086534   7.1444856
  40.9469079  32.2244084   6.0194787  40.6097353  32.7726859   6.4670773
  33.9944558  42.3224299  15.7499750  33.4032492  42.9633797  15.7202765
  34.7565582  42.7461917  15.7231049  34.0192819  42.4800138  15.7414897
  34.3905181  33.4826297  16.4167767  34.8506663  33.5565226  17.1542891
  34.4361288  34.2807551  16.0667589  34.4655737  33.6120444  16.4740524
  36.0388531  34.1492992  20.9839794  35.6474096  33.5026339  21.4195572
  36.2074394  34.7404427  21.6034050  36.0059441  34.1407260  21.1402500
  50.1134980  42.1530069  16.7477028  50.1718104  42.6016718  17.4937004
  49.4801448  42.5628882  16.3107108  50.0286275  42.2803804  16.7929576
  43.7534075  47.7733611  13.1831774  43.5553763  48.2624425  12.4887985
  43.1321786  47.9774852  13.7615908  43.6321639  47.8750149  13.1654997
  37.8142053  39.5418508   7.5242018  38.5584098  39.9292784   7.7624968
  37.9602749  38.6975933   7.6882506  37.9452638  39.4748980   7.5835988
  39.7321629  31.3368767  12.5573880  38.8857674  31.5091574  12.4315230
  39.7292761  30.5318110  12.8939708  39.6068778  31.2429796  12.5885007
  40.8019929  35.1143981  13.4235938  40.3279883  34.5885743  13.9341249
  41.1738065  34.5673454  12.8550799  40.7869818  34.9559978  13.4151085
  31.1792959  37.1115488  18.7919484  32.0418572  37.0111197  18.7056813
  30.8484742  36.5310197  18.2305056  31.2578155  37.0107114  18.6964889
  47.0656660  40.1746357  14.8342718  46.8254882  39.3352772  14.8385145
  47.5448667  40.2546523  15.5583492  47.1008843  40.0627756  14.9417521
  42.7303429  36.0080536   6.4861692  42.2026447  36.0909280   5.7967400
  43.1899137  36.7498407   6.4826336  42.7205279  36.1301198   6.3836387
  49.0661847  36.9547814  12.7871977  48.8271617  36.9143648  11.9492762
  49.2295748  37.8018966  12.9137698  49.0552150  37.0739899  12.6825459
  45.6707877  41.3397763  18.7177022  46.3942076  40.8870290  18.5388042
  45.4057839  41.6202429  17.9349350  45.7389150  41.3148732  18.5755738
  34.5394745  35.9357937  15.4529902  33.9147815  35.9476329  14.8455854
  34.2040340  36.4118112  16.1021142  34.3980237  36.0076454  15.4586470
  34.7236494  34.2783055   1.5102587  34.3749298  34.9302780   1.9734136
  34.2432940  34.2640168   0.7826458  34.6006738  34.3726109   1.4713678
  31.2520421  43.9958397  16.8933666  30.7220345  43.3050836  16.9428641
  31.5245514  43.9868582  16.0646375  31.2145143  43.8925529  16.7781082
  42.2840511  44.5784099   5.6171349  43.0074710  45.0442212   5.4735922
  41.8441102  44.6457709   4.8668946  42.3256203  44.6567936   5.4856130
  41.4526666  41.4381641  16.8672038  40.8383659  40.8939692  17.1620673
  41.9693951  40.9245878  16.3877854  41.4382329  41.2818050  16.8396266
  40.6922963  42.5085911  14.6016336  40.2650571  41.8835630  14.1681772
  40.6847908  42.2260833  15.4275343  40.6282105  42.3738692  14.6596164
  33.8085490  37.5451084  17.6704770  33.9678977  36.7894409  18.0756492
  33.6278384  38.0942024  18.3245508  33.8050849  37.5144898  17.8267476
  41.7505793  29.7112320  18.2255560  41.2546355  29.9075994  17.5347126
  42.5074855  30.1104988  18.0544361  41.7892618  29.7990054  18.0975696
  39.0208673  33.3854666  14.8158870  39.0451160  32.8514778  14.1271650
  39.2720147  32.8771975  15.4784461  39.0618592  33.2315570  14.8123515
  26.5316263  40.6686161  14.2502014  26.4259712  40.6233005  13.3854098
  25.7816483  41.0139941  14.5316299  26.4051866  40.7127069  14.1639344
  35.3009995  32.1125484  14.1964615  35.3408367  32.6134691  14.9099322
  34.4759660  32.2035878  13.9270538  35.1849521  32.2007301  14.2615153
  37.4839608  41.6786224  22.2984909  36.6335239  41.8157938  22.4342554
  37.6467736  40.9450002  22.7432611  37.3823472  41.5900325  22.3840508
  36.7224359  38.6285994  16.4938514  35.8916288  38.7959812  16.2873762
  36.6675876  38.2521945  17.2787399  36.5913774  38.5975725  16.5787042
  35.0960402  36.9041586   7.0228631  35.2363364  37.4014050   7.7257273
  35.5942935  36.2027880   7.1642845  35.1901483  36.8743564   7.1480210
  35.1260625  37.7708697   4.3521208  35.7605704  38.3669122   4.2870670
  35.2086236  37.4712154   5.1667078  35.2317176  37.8149605   4.4624295
  48.1043191  40.3024174  17.2207572  48.6961031  40.9421425  17.2525770
  48.5402185  39.6047211  17.5099639  48.2561622  40.2942524  17.2688405
  36.7039608  33.7022672   4.3266650  37.0255449  33.2225755   3.6725912
  36.9666551  34.5122318   4.1357462  36.7905633  33.7512570   4.2022142
  39.9336580  44.7241546  17.8465466  39.4261672  45.2777393  18.2906097
  39.6363227  44.7849836  17.0284241  39.8141465  44.8147858  17.7913923
  42.0998763  33.0894866  16.6890129  42.5253834  32.6367392  16.0773656
  41.4855756  32.5354937  16.9654917  42.0727408  32.9408842  16.6395154
  31.6313613  39.9676537   7.6210754  32.1405842  40.5641045   8.0022060
  32.1047885  39.7002511   6.9387174  31.7756988  40.0162353   7.5765277
  42.5444361  48.6404804   5.7769410  41.8273671  48.4665666   5.3116647
  43.1951098  48.4057376   5.2444896  42.5346211  48.5800597   5.6298628
  40.5392986  29.5609966  10.0980706  39.8961303  29.4107612  10.6665845
  40.1992393  29.3152311   9.3329811  40.3938063  29.5022088  10.0683721
  45.1292332  37.5169393   9.5210715  44.4583522  38.0599095   9.3923780
  45.8232082  37.9864248   9.2792410  45.1321200  37.6667664   9.4666242
  39.1779066  49.6566105  14.7522473  38.9544720  48.8984934  15.1206499
  38.6888909  49.6864126  14.0302913  39.0722515  49.5488329  14.6999214
  45.2920459  33.9725276  12.4301088  45.6448070  33.5454999  13.1046887
  44.4335261  33.8876120  12.5602164  45.2169904  33.8970017  12.5496098
  33.9904144  36.6032796  10.4883934  33.2716134  37.0196928  10.7556798
  34.3616507  37.1687035   9.9375573  33.9396076  36.7482077  10.4466741
  43.2903725  37.2360645  16.3785930  43.2701653  37.0543940  17.2320709
  43.3382926  38.1072663  16.3545514  43.2938366  37.3377183  16.5009225
  41.2350055  43.8247837  22.3034407  41.1945910  43.1797514  21.7179563
  42.0473373  43.7684454  22.6159819  41.3493209  43.7206804  22.2631356
  37.8257523  49.8766563  12.2059558  37.4117921  49.2140693  11.8163399
  38.5104897  50.0244421  11.6855252  37.8655894  49.8007221  12.0716055
  41.1922817  49.0356648  12.9583174  40.7939100  49.1458918  12.1903995
  40.5774036  49.2438714  13.5409734  41.0421706  49.0830216  12.9314474
  39.7650719  35.6430796   5.8257314  39.1715558  35.9647792   5.2741881
  39.8025997  34.7971891   5.6178420  39.6825108  35.5655124   5.7140085
  46.7244520  29.0943688  13.3585400  46.2175384  28.3872828  13.2906578
  47.5211953  28.7636877  13.4886477  46.7671759  28.9416839  13.3684395
  42.6408535  35.6010300   9.2559064  42.4122228  35.6243002   8.4137422
  42.9006612  34.7767767   9.3754075  42.6454723  35.4826380   9.1484262
  36.9227764  37.4544773  18.8584164  36.4106667  36.8465956  19.2169196
  36.7507260  38.1701366  19.3258140  36.8217401  37.4708073  18.9800388
  35.6953298  34.1386847  10.5513260  36.1710664  34.5003926   9.9163441
  35.1941898  34.7943314  10.8313403  35.6918657  34.2881035  10.4990001
  48.9264660  43.6108615   6.3426265  49.3098265  44.3599971   6.5724362
  48.1308773  43.8574434   6.0838254  48.8658442  43.7578309   6.3383838
  40.7996834  35.3769018  21.2986420  41.3568264  35.1482828  20.6664885
  40.4757899  36.1374684  21.0221632  40.8343244  35.4552855  21.1642917
  28.6695543  38.8029214  16.7675016  28.1222263  38.1329860  16.8855884
  29.4587921  38.4359062  16.8318483  28.7047727  38.6494201  16.7943717
  38.5179951  38.4636671  22.2638427  39.2691278  38.7788348  22.5777981
  38.7102528  38.2615842  21.4372349  38.6571366  38.4804053  22.1881823
  37.7379951  36.2828046   3.9186644  38.1178916  36.3007676   3.1337759
  36.9972547  36.7282035   3.7977491  37.6848789  36.3509821   3.7850212
  45.3665242  34.5910238   9.5062223  45.3659468  34.4358894  10.3646499
  45.1621422  35.4373225   9.4503608  45.3365019  34.6930858   9.6250162
  27.4282513  38.0150022  13.9221039  27.2504274  37.5626631  14.6475955
  27.1401535  38.8176183  14.1059517  27.3595466  38.0672580  14.0564542
  43.0906094  39.2707739  13.1598429  43.5859759  38.5530734  13.1202450
  42.2805869  38.9678537  13.0452916  43.0449987  39.1205386  13.1372155
  38.5364705  43.1205553   5.3095434  37.7276028  42.7972226   5.2628743
  39.0439614  42.4138775   5.2423682  38.4914372  42.9686869   5.2925728
  29.1654982  40.5477746  11.0342798  28.3000502  40.5363436  10.9225569
  29.2653798  40.3607969  11.8813937  29.0529149  40.5183807  11.1431743
  45.1557913  42.0211427  15.8475558  45.5812984  41.4985849  15.2945983
  44.7914832  42.6192264  15.3264181  45.1644515  42.0321654  15.6884568
  34.7911992  50.3175644  14.6072904  35.1058551  51.1312033  14.6150685
  35.2005406  49.9325863  15.2755063  34.8980090  50.3804347  14.7076995
  41.7436512  45.7345691  12.1776716  42.2147690  46.4485954  12.3466701
  42.0796690  45.1344441  12.7136585  41.8631627  45.7517155  12.2809092
  38.6606007  30.5073162  19.1334810  38.7933913  29.7104155  19.4615786
  39.0451160  31.0339565  19.7133086  38.7362336  30.4673078  19.2678313
  42.3810458  45.5263625  18.9404408  41.8331404  44.9021509  18.6724474
  42.8423487  45.7157897  18.2248488  42.3677668  45.4622675  18.7954839
  41.7338362  27.4303488  15.7315904  40.9284326  27.3201218  16.0483742
  41.6045098  27.5315944  14.8745769  41.5958495  27.4287158  15.6523944
  45.1904323  33.5948980  16.3255601  44.6067311  34.0958186  15.9133168
  45.5108617  33.0878536  15.6919924  45.1517498  33.5940815  16.1714108
  37.7299122  32.5089575   6.6014275  38.5514816  32.6787887   6.3595970
  37.2668773  32.6636836   5.8780573  37.7830284  32.5571308   6.4585920
  36.3194454  30.5032337  17.3812704  36.8638867  30.1623464  17.9717046
  36.3731389  31.3617798  17.5233989  36.4083573  30.5787596  17.4894578
  32.1325012  44.2648753  14.2551512  32.7369870  44.2244587  13.6265333
  31.9252325  45.1119905  14.2855568  32.1913910  44.3836755  14.1667629
  41.9468785  46.5314698  15.4713749  42.7667158  46.3877664  15.7330045
  41.6662862  47.1560897  16.0130187  42.0265528  46.6025050  15.5901689
  27.3676295  43.2483370  14.1250435  27.2700573  42.4379642  14.4340492
  28.1505164  43.2275164  13.7396703  27.4692431  43.1250461  14.1137298
  58.4182435  54.1879550   8.4356626  58.3876439  55.0424186   8.6074895
  59.0163784  53.8874842   8.9942769  58.5019593  54.2696046   8.5431428
  51.6182120  53.2755201  13.1909556  50.7620015  53.4363699  13.2418673
  51.6649774  52.4047265  13.2114617  51.4981231  53.1706003  13.2015622
  46.0023260  62.8117919   8.9546788  45.2506159  62.4333457   8.7262833
  46.4509271  62.8436352   8.2065598  45.9572926  62.7603526   8.8104290
  54.9275836  59.5441726  22.7970012  55.6342604  59.0493757  22.9256947
  55.1163772  59.9850808  22.0672670  55.0603742  59.5360077  22.7079058
  54.4633941  55.3347245  15.8341208  55.0089901  56.0132331  15.8935178
  54.4050817  55.1934706  14.9742789  54.5349855  55.4139246  15.7153268
  47.5808016  62.8236311  11.2209560  47.6818379  62.0136665  11.5306688
  46.9849761  62.7293257  10.5909239  47.5080554  62.6901339  11.1735799
  47.4208755  67.7413900  12.6224416  48.0646211  68.1827064  13.0120575
  47.7465011  66.9367326  12.5354675  47.5640584  67.6879095  12.6669894
  40.7773060  58.8456597  10.8461894  40.5423244  58.0124250  10.7394163
  40.9158701  59.1261263  10.0323095  40.7628722  58.7640101  10.7104249
  43.0763147  51.0142328  13.7446202  42.4568179  50.4234975  13.5756216
  42.9747011  51.6053763  13.1110525  42.9700823  51.0146410  13.6251191
  50.1731043  52.7541870   8.0778665  50.8711208  52.9329997   8.5700128
  50.4883376  52.2312209   7.4549054  50.3226380  52.7035642   8.0580675
  42.8032280  54.5594610  15.9889771  42.6790977  55.1457055  16.6239589
  43.4550565  54.0654805  16.2902046  42.8805930  54.5733414  16.1275700
  50.3618978  59.1412315   8.0658456  50.8012614  58.5329415   8.5113229
  50.2123641  58.7619688   7.2943921  50.4040444  58.9950786   8.0177624
  47.8290621  57.7356327  15.2677282  48.4739624  57.2428770  14.9488230
  48.0692399  57.8781113  16.0943360  47.9601207  57.6833769  15.3426815
  50.3676713  60.5811232  14.9184174  50.6499956  59.7862638  14.6970930
  51.0962873  61.0591820  14.9389235  50.5166277  60.5345829  14.8887189
  48.3457907  48.1234266  12.1599939  48.0161237  48.5745410  11.4903638
  47.6702908  48.0450430  12.7072946  48.1968343  48.1785402  12.1423163
  55.5534314  44.1119789  10.4049550  55.2387755  44.8023268  10.8369972
  55.0361256  44.0564572   9.7035051  55.4298785  44.2054678  10.3646499
  60.3494801  59.6870595  11.8920005  59.5192504  59.8981238  12.0553422
  60.3004053  58.8607649  11.6162289  60.2201537  59.5960201  11.8757370
  42.3390385  63.7242268  12.1218100  41.8557963  64.4492758  12.0977684
  43.1513703  64.0218398  12.2328258  42.3881132  63.8744622  12.1345379
  48.4104539  62.5174449  14.7267915  47.8931480  62.1581864  14.1229223
  49.1078930  61.9936623  14.7373981  48.4370120  62.3872137  14.6398173
  52.0668131  62.9669263  20.6884088  52.1551477  62.7795403  21.5362298
  52.4957843  62.3206692  20.2888934  52.1430233  62.8432271  20.7555839
  49.6338590  62.2500423  19.6701750  49.0709425  61.8373033  20.1941411
  50.3959614  62.1753328  20.0894893  49.6633039  62.1777823  19.8094750
  46.5513861  46.1846555   7.6422887  47.3059829  46.5524872   7.4039937
  46.3741395  46.5586109   8.4102067  46.6368339  46.2944743   7.7207776
  45.1934582  64.2398444  12.2738380  45.8955161  63.7250433  12.3311137
  45.1132065  64.5672595  13.0785255  45.2858342  64.2112670  12.4011172
  59.8448759  52.3340995  15.6870426  59.0077181  52.4043182  15.9218021
  59.8136990  52.3365490  14.8144729  59.7167042  52.3451222  15.5929974
  44.9070925  48.5916874   4.3401000  44.7246499  48.8088755   3.5141993
  45.7696538  48.7055886   4.3959615  45.0075515  48.6406772   4.2255487
  44.5185357  60.4304796  11.7823988  45.3574257  60.6627729  11.8297750
  44.5497127  59.5609107  11.7131023  44.6467075  60.3361742  11.7788633
  45.1438060  60.8505671  16.0837294  45.6836285  60.7076802  16.7540666
  44.4608007  61.2502422  16.4521320  45.1230214  60.8885342  16.2371715
  50.5870645  45.5943284   7.3750024  51.3156805  45.4159239   6.9288180
  50.6765537  46.4361364   7.5857202  50.7077307  45.6927163   7.3403542
  54.5678945  56.5296672  11.2782318  55.3236460  56.9628186  11.3171227
  54.6741270  55.8801442  11.8516954  54.6949116  56.4974156  11.3680343
  57.6059116  60.3569949  12.0284721  57.1694348  60.3606691  12.7843692
  57.2722032  61.0375448  11.5964298  57.4921736  60.4582405  12.0765553
  40.5475205  57.0705962  16.2371715  40.2813621  56.2545079  16.3962705
  40.5613770  57.1159118  15.3667231  40.5099928  56.9562867  16.1325197
  57.5256599  47.3983777  14.2714149  58.1682508  47.4681881  14.8576064
  57.7779620  46.7313000  13.7693691  57.6578731  47.3110126  14.2841428
  44.4532952  51.8691046   2.8523473  43.7391130  51.5829226   3.2645906
  44.9376921  52.2087672   3.4929861  44.4192316  51.8772696   3.0079108
  52.3358583  64.3088384  16.9994327  51.5373829  64.0687884  17.2568195
  52.7844595  64.3602777  17.7461374  52.2833195  64.2810775  17.1479251
  60.7403463  57.0750869  10.9204358  61.4019897  56.5141537  10.8200267
  60.0994875  56.5802900  11.2457049  60.7432330  56.9187278  10.9536698
  40.9568619  57.8564741  13.5183459  40.7744192  57.8311627  12.6655752
  41.6918288  58.3263679  13.5572368  41.0382683  57.9226104  13.3981378
  57.0268293  58.0916251  10.6616347  57.2623882  58.2361450   9.8343198
  57.1757857  58.8558659  11.0547861  57.0834097  58.2255306  10.5979951
  54.0690639  54.7782820   9.1809531  54.1637494  55.5172114   9.6349156
  53.4449483  54.3500295   9.6144095  53.9899669  54.8244141   9.3117678
  52.3243113  57.9569033  19.8299812  52.8981975  57.3196277  19.9848376
  52.2457917  57.9573115  18.9609469  52.3976348  57.8634144  19.7246223
  40.9239529  54.7358242  13.6682526  41.5013032  54.5994693  14.3074771
  40.2253591  54.2794026  13.9228110  40.9060551  54.6480508  13.8004816
  47.6806832  56.3892298  11.8821009  47.4226076  55.5564033  11.8552309
  47.7355314  56.6149911  11.0413509  47.6506609  56.2990069  11.7541146
  52.7607882  48.4920748  11.9825102  52.0564208  48.0029934  12.1409021
  52.8092856  48.5043223  11.1113546  52.6637933  48.4210396  11.8764442
  46.6541544  53.9430060  12.3685904  46.0791135  54.1022229  13.0049865
  46.2777220  53.3065469  11.9054354  46.5144356  53.8727873  12.3940462
  50.3214832  52.4153409  17.2278282  49.9329265  51.9907627  16.5730473
  49.6569531  52.6635559  17.7355309  50.1661760  52.3892131  17.2066150
  59.9638102  52.1728414  10.0026112  59.7074666  51.3608356   9.8123995
  60.8067415  52.1805981   9.7756300  60.0504127  52.0540412   9.9410929
  36.3998363  53.5870135  10.3830344  36.4858614  53.2102003  11.1643874
  37.0274160  53.2130581   9.9050303  36.5054914  53.4755617  10.4275822
  54.1441194  46.1128038  14.7402267  54.5251706  45.4306209  15.1270141
  53.3404478  45.8237640  14.5577931  54.0817656  45.9695087  14.7706322
  57.6463261  59.3278010  19.8384665  57.4101898  58.4966075  19.7196726
  58.2906490  59.2763617  20.4239509  57.7057932  59.1975698  19.9070558
  47.2961679  60.1173532  10.5527401  47.9335626  59.8785279  11.0979195
  47.7216750  60.3210690   9.8180562  47.4537845  60.1124542  10.5244559
  41.9874321  62.3561868  14.4361705  42.0278467  62.6276719  13.6081485
  42.5468845  62.8803776  14.8519493  42.0757667  62.4737623  14.3753593
  47.9364494  55.3375821   4.8902291  48.3209647  55.1183528   5.6418836
  47.6876114  56.1638767   5.0203367  47.9566567  55.4273968   5.0203367
  58.6699681  59.1122459  15.9012959  58.3645498  59.8450516  16.2626275
  57.9505897  58.7060388  15.6205745  58.5187024  59.1604192  15.9126096
  49.6783151  60.5945954  12.2321188  49.7522159  60.4321126  13.0863038
  50.4952657  60.7836144  11.9881669  49.8099509  60.5982697  12.3219213
  64.3701474  55.7515460  15.2281304  64.3025974  55.7711419  14.3583890
  64.3557136  56.5945787  15.4536974  64.3580230  55.8789194  15.1333781
  43.4388908  60.9403817   9.2615631  42.6127025  61.1865554   9.1349910
  43.5000899  60.8615898  10.1277689  43.3263075  60.9648766   9.3704576
  45.6564931  47.0072758  10.2211071  44.7887357  47.0795357  10.2868680
  45.9440136  47.8094837  10.4099046  45.5704679  47.1366905  10.2585838
  54.7797820  47.1550617  18.5522393  55.5251412  46.9660428  18.1385819
  54.3635125  47.6808855  17.9936249  54.8282794  47.2052763  18.4086966
  62.1560091  54.5259846  13.5027898  62.7068012  53.8927915  13.7424990
  62.1404206  55.0575239  14.1943402  62.2345287  54.5108794  13.6406756
  48.8082482  58.3598443  18.0487791  48.3094175  59.0714211  18.1272680
  49.6182706  58.6799110  18.0105954  48.8538588  58.5125292  18.0544360
  46.1593652  65.5348080  10.0294811  45.9393948  65.2445434  10.8221478
  45.9388174  64.8763035   9.5012723  46.0941246  65.3947788  10.0683719
  45.0710599  57.6221396  12.2950512  44.7823848  56.9958867  12.8296240
  45.9393947  57.5641684  12.3615193  45.1570851  57.5208940  12.3841467
  55.8588497  52.7656180  12.6132494  55.5153263  52.0446515  12.9639744
  55.9581540  52.5570031  11.7710853  55.8230540  52.6280383  12.5404174
  45.2742873  59.2616647   8.2192877  46.0288841  59.6429686   8.4328340
  44.6813485  59.7127791   8.6739574  45.2979586  59.3845475   8.3175756
  46.5941099  60.4325209  13.5932993  46.0721853  60.5725500  14.2784858
  46.9815120  59.6735873  13.7835110  46.5744800  60.3410732  13.7234069
  43.5832283  50.4831017   7.6627948  43.2957079  50.1132288   6.9259895
  44.2702752  50.9525873   7.4011652  43.6421181  50.4977987   7.5143023
  48.0207425  57.4629228   8.9914484  47.8250208  58.0703962   8.3974787
  48.2441771  56.7697172   8.5106158  48.0242066  57.4506753   8.8330565
  46.4185955  54.3483966   9.1095352  47.1408607  54.5125124   8.6499158
  45.9393948  55.0693630   9.0034692  46.4549686  54.4782195   9.0260966
  54.3779463  50.6847764  14.4892037  53.5390563  50.7109043  14.2530300
  54.4483830  51.3318500  15.0697384  54.2647856  50.7843890  14.5401154
  52.8248741  47.5833141   9.2219653  53.5275094  47.3840890   8.7439611
  52.5592930  46.8109084   9.5288497  52.8895373  47.4396107   9.1965095
  58.2536986  55.8915751  11.7753279  58.1670961  56.0471177  12.6288058
  57.7987466  56.5353827  11.4012684  58.1740243  56.0091506  11.8460386
  41.1560478  51.2612230   8.5113229  41.2576614  52.0638391   8.8394204
  41.9516365  51.0599566   8.2136309  41.2888384  51.3498129   8.5148584
  41.9724210  51.3759408  16.2534350  41.8309702  50.5243349  16.3778858
  42.2564773  51.4188069  15.4296556  41.9932056  51.2559158  16.1501974
  52.1262802  53.2126498  10.3978838  51.8797517  53.1322249  11.2315627
  52.4547926  52.4279966  10.2041366  52.1384046  53.0852763  10.4926362
  56.0210851  59.9209857  14.1865620  55.8825211  60.6190903  14.6914362
  55.2410849  59.7658514  13.8301801  55.8854078  60.0010024  14.2091894
  54.3588936  56.2206233  20.4388001  54.3536975  55.3486049  20.4430428
  55.0649930  56.4194402  19.9657457  54.4633940  56.1210107  20.3695037
  50.2579747  55.1473385  17.5926953  49.5103061  55.3404400  17.1875231
  50.4121272  54.3218605  17.3551074  50.1702175  55.0538497  17.4972359
  47.1587585  64.1385989  16.6762848  47.3077148  63.5788904  16.0236253
  47.9387587  64.2177990  17.0595367  47.2961678  64.0671554  16.6359797
  49.6840885  64.3100631  17.9547339  49.6084556  63.6409442  18.5098127
  49.6130744  65.0118420  18.4688005  49.6621492  64.3145539  18.1124187
  50.4981524  49.0423936  18.4822357  50.9554138  49.7747910  18.6095149
  50.5737853  48.6190401  19.2409613  50.5772494  49.0881174  18.6123433
  54.9708850  42.2213811  12.3516200  55.0892418  42.6790274  11.6183502
  54.7971026  41.4159072  12.0652417  54.9628021  42.1707583  12.2017133
  48.3763902  51.0326040  15.3264181  47.5859977  50.8517500  15.6481517
  48.7724525  50.2552992  15.3094475  48.3180778  50.8913501  15.3716729
  53.7607588  58.6668470  13.0523627  53.0852590  58.4353702  13.5537014
  53.7699964  58.0589653  12.4265732  53.6626093  58.5427395  13.0339779
  50.8901732  53.5086299  19.8087680  50.8260874  54.3696255  19.6807816
  51.0298920  53.1918292  19.0083231  50.9017202  53.5886466  19.6715893
  49.5720826  56.2018438  13.9503883  49.1483075  56.4022937  13.2142901
  49.3965681  55.3547286  14.0628182  49.4831707  56.1067220  13.8577573
  49.0732520  67.7168951  16.4125340  49.5628450  67.0179740  16.2301005
  48.5016752  67.4192821  17.0001397  49.0617050  67.5695175  16.4726381
  44.8603271  56.6970490   9.3831855  45.0167890  56.6317292  10.2387847
  45.2003864  57.4719042   9.1710535  44.9336506  56.8019688   9.4786449
  51.3982416  56.0728373   8.2525218  51.9397961  55.5698754   8.7163839
  51.7128975  56.0193568   7.4414704  51.5246813  55.9907794   8.2009030
  55.2699523  60.2831021  25.3652131  56.0834388  60.0116169  25.5257263
  55.1094490  59.9838561  24.5612327  55.3669472  60.1985947  25.2697536
  52.5471685  50.9664678  18.3047519  52.7613655  50.3275592  17.7510873
  51.9305584  51.4110502  17.8755381  52.4877014  50.9374821  18.1597950
  41.4337533  53.8805440   9.6992622  41.8136498  54.2989985   9.0352890
  40.8592897  54.4618896  10.0061466  41.4048858  54.0283299   9.6469363
  54.7110773  52.5753743  19.2430826  53.8987455  52.2679633  19.3243999
  55.1700708  52.0952743  19.8073538  54.6591158  52.4590235  19.3385420
  51.9386414  44.0764613  13.2934862  51.0679972  44.0503335  13.2468171
  52.1926755  43.9041806  12.4760707  51.8479974  44.0474757  13.1654998
  48.9635554  46.0870842  14.7508332  48.4474043  45.3951033  14.8759911
  48.4029483  46.7541619  14.6970931  48.8042068  46.0834099  14.7614398
  51.0327788  46.6263802  16.5801185  50.6459541  46.6512833  17.3614715
  50.5460725  46.0605481  16.1275701  50.9040297  46.5459553  16.6289088
  55.2820767  61.3437311  20.6374971  55.9200488  60.8497507  20.3037427
  54.6394859  61.2714711  20.0527198  55.2814994  61.2596319  20.5017326
  57.0077767  53.1926457  15.2040887  56.5805375  53.1052805  14.4488986
  56.3703820  53.3004232  15.7895731  56.8507375  53.1959117  15.1786328
  50.6984929  43.5130787  18.8711445  51.3278047  44.0491087  18.5932515
  50.8670792  43.4208146  19.7225010  50.8162724  43.5792150  18.9559973
  55.3375024  62.0357119  17.2780328  56.1267402  61.6846184  17.3982410
  55.5118622  62.8493508  17.0156962  55.4795305  62.1042976  17.2568196
  45.0768334  55.4465845  14.3308117  44.2356341  55.3469719  14.5387011
  45.2858342  56.2161325  14.6822437  44.9833027  55.5457888  14.4135432
  42.5543901  53.0685382  12.1592867  42.1600599  53.1428394  11.3842977
  41.9984018  53.4543328  12.7101229  42.4146714  53.1367156  12.1260527
  54.1908848  46.0466676  11.8396746  54.3958441  45.9788984  12.6853743
  53.8635272  46.8525497  11.7717924  54.1724096  46.1552616  11.9556401
  48.8884999  53.3747244  13.5805714  48.5848137  52.8203232  14.1816122
  48.1864420  53.5539454  13.0933749  48.7401209  53.3192026  13.5975420
  47.9451096  50.6847764   8.1450416  48.2210831  49.9666676   7.7327984
  48.5449765  51.2832684   7.9371522  48.0744361  50.6668135   8.0531177
  46.9503350  60.5896965  18.2877812  46.8423705  60.5999027  19.1539870
  47.1599132  61.4151745  18.0982766  46.9653461  60.7138040  18.3881904
  57.4442536  46.5998440  11.3199512  56.8316849  47.0868842  11.7053244
  57.5406711  45.9241931  11.8637163  57.3680433  46.5716749  11.4578370
  51.4461617  48.3561281   6.4197011  51.9005363  48.5271842   7.1444856
  51.9201662  47.7429392   6.0194787  51.5829937  48.2912166   6.4670773
  44.9677142  57.8409607  15.7499750  44.3765075  58.4819105  15.7202765
  45.7298166  58.2647224  15.7231049  44.9925403  57.9985446  15.7414897
  45.3637765  49.0011605  16.4167767  45.8239246  49.0750534  17.1542891
  45.4093872  49.7992859  16.0667589  45.4388320  49.1305752  16.4740524
  61.0867564  57.6715377  16.7477028  61.1450687  58.1202026  17.4937004
  60.4534031  58.0814190  16.3107108  61.0018859  57.7989112  16.7929576
  54.7266658  63.2918919  13.1831774  54.5286347  63.7809733  12.4887985
  54.1054369  63.4960160  13.7615908  54.6054223  63.3935457  13.1654997
  48.7874637  55.0603816   7.5242018  49.5316682  55.4478092   7.7624968
  48.9335333  54.2161241   7.6882506  48.9185222  54.9934288   7.5835988
  50.7054212  46.8554075  12.5573880  49.8590257  47.0276882  12.4315230
  50.7025345  46.0503418  12.8939708  50.5801362  46.7615103  12.5885007
  51.7752513  50.6329289  13.4235938  51.3012467  50.1071051  13.9341249
  52.1470648  50.0858762  12.8550799  51.7602401  50.4745286  13.4151085
  58.0389243  55.6931665  14.8342718  57.7987466  54.8538080  14.8385145
  58.5181250  55.7731831  15.5583492  58.0741427  55.5813064  14.9417521
  53.7036012  51.5265843   6.4861692  53.1759031  51.6094587   5.7967400
  54.1631720  52.2683715   6.4826336  53.6937863  51.6486506   6.3836387
  60.0394430  52.4733122  12.7871977  59.8004200  52.4328956  11.9492762
  60.2028331  53.3204274  12.9137698  60.0284734  52.5925207  12.6825459
  56.6440460  56.8583071  18.7177022  57.3674659  56.4055597  18.5388042
  56.3790423  57.1387737  17.9349350  56.7121734  56.8334040  18.5755738
  45.5127329  51.4543245  15.4529902  44.8880399  51.4661637  14.8455854
  45.1772924  51.9303420  16.1021142  45.3712820  51.5261762  15.4586470
  45.6969077  49.7968363   1.5102587  45.3481882  50.4488088   1.9734136
  45.2165523  49.7825476   0.7826458  45.5739321  49.8911417   1.4713678
  42.2253004  59.5143705  16.8933666  41.6952929  58.8236144  16.9428641
  42.4978098  59.5053890  16.0646375  42.1877727  59.4110837  16.7781082
  52.4259250  56.9566949  16.8672038  51.8116243  56.4125000  17.1620673
  52.9426535  56.4431186  16.3877854  52.4114912  56.8003358  16.8396266
  51.6655547  58.0271219  14.6016336  51.2383155  57.4020938  14.1681772
  51.6580491  57.7446141  15.4275343  51.6014688  57.8924000  14.6596164
  44.7818074  53.0636392  17.6704770  44.9411561  52.3079717  18.0756492
  44.6010968  53.6127332  18.3245508  44.7783433  53.0330206  17.8267476
  52.7238377  45.2297628  18.2255560  52.2278938  45.4261302  17.5347126
  53.4807439  45.6290296  18.0544361  52.7625202  45.3175362  18.0975696
  49.9941257  48.9039974  14.8158870  50.0183744  48.3700086  14.1271650
  50.2452730  48.3957283  15.4784461  50.0351175  48.7500878  14.8123515
  37.5048846  56.1871469  14.2502014  37.3992296  56.1418313  13.3854098
  36.7549066  56.5325249  14.5316299  37.3784449  56.2312377  14.1639344
  46.2742579  47.6310792  14.1964615  46.3140950  48.1319999  14.9099322
  45.4492243  47.7221186  13.9270538  46.1582105  47.7192608  14.2615153
  47.6956942  54.1471302  16.4938514  46.8648872  54.3145120  16.2873762
  47.6408459  53.7707253  17.2787399  47.5646357  54.1161033  16.5787042
  46.0692986  52.4226894   7.0228631  46.2095947  52.9199358   7.7257273
  46.5675519  51.7213188   7.1642845  46.1634067  52.3928872   7.1480210
  46.0993208  53.2894005   4.3521208  46.7338288  53.8854430   4.2870670
  46.1818819  52.9897462   5.1667078  46.2049759  53.3334913   4.4624295
  59.0775774  55.8209482  17.2207572  59.6693614  56.4606733  17.2525770
  59.5134769  55.1232519  17.5099639  59.2294205  55.8127832  17.2688405
  47.6772191  49.2207980   4.3266650  47.9988032  48.7411062   3.6725912
  47.9399135  50.0307626   4.1357462  47.7638217  49.2697878   4.2022142
  50.9069164  60.2426854  17.8465466  50.3994255  60.7962701  18.2906097
  50.6095810  60.3035144  17.0284241  50.7874049  60.3333165  17.7913923
  53.0731346  48.6080174  16.6890129  53.4986418  48.1552700  16.0773656
  52.4588339  48.0540245  16.9654917  53.0459992  48.4594150  16.6395154
  42.6046196  55.4861845   7.6210754  43.1138426  56.0826353   8.0022060
  43.0780469  55.2187819   6.9387174  42.7489572  55.5347661   7.5765277
  51.5125569  45.0795274  10.0980706  50.8693887  44.9292920  10.6665845
  51.1724976  44.8337619   9.3329811  51.3670646  45.0207396  10.0683721
  56.1024916  53.0354701   9.5210715  55.4316105  53.5784403   9.3923780
  56.7964666  53.5049556   9.2792410  56.1053783  53.1852972   9.4666242
  50.1511649  65.1751413  14.7522473  49.9277304  64.4170242  15.1206499
  49.6621493  65.2049434  14.0302913  50.0455098  65.0673637  14.6999214
  56.2653043  49.4910584  12.4301088  56.6180653  49.0640307  13.1046887
  55.4067845  49.4061428  12.5602164  56.1902488  49.4155325  12.5496098
  44.9636728  52.1218104  10.4883934  44.2448717  52.5382236  10.7556798
  45.3349090  52.6872343   9.9375573  44.9128660  52.2667385  10.4466741
  54.2636309  52.7545953  16.3785930  54.2434236  52.5729248  17.2320709
  54.3115510  53.6257971  16.3545514  54.2670950  52.8562491  16.5009225
  52.2082639  59.3433145  22.3034407  52.1678494  58.6982822  21.7179563
  53.0205957  59.2869762  22.6159819  52.3225792  59.2392112  22.2631356
  48.7990106  65.3951871  12.2059558  48.3850505  64.7326001  11.8163399
  49.4837481  65.5429729  11.6855252  48.8388478  65.3192529  12.0716055
  52.1655400  64.5541956  12.9583174  51.7671684  64.6644226  12.1903995
  51.5506620  64.7624022  13.5409734  52.0154290  64.6015524  12.9314474
  50.7383302  51.1616104   5.8257314  50.1448142  51.4833100   5.2741881
  50.7758580  50.3157199   5.6178420  50.6557692  51.0840432   5.7140085
  57.6977103  44.6128996  13.3585400  57.1907968  43.9058136  13.2906578
  58.4944537  44.2822185  13.4886477  57.7404342  44.4602147  13.3684395
  53.6141119  51.1195608   9.2559064  53.3854812  51.1428310   8.4137422
  53.8739195  50.2953075   9.3754075  53.6187307  51.0011688   9.1484262
  46.6685881  49.6572155  10.5513260  47.1443248  50.0189234   9.9163441
  46.1674481  50.3128622  10.8313403  46.6651240  49.8066343  10.4990001
  51.7729418  50.8954326  21.2986420  52.3300848  50.6668135  20.6664885
  51.4490483  51.6559992  21.0221632  51.8075828  50.9738163  21.1642917
  48.7112535  51.8013354   3.9186644  49.0911499  51.8192984   3.1337759
  47.9705131  52.2467343   3.7977491  48.6581372  51.8695129   3.7850212
  56.3397825  50.1095546   9.5062223  56.3392052  49.9544202  10.3646499
  56.1354005  50.9558533   9.4503608  56.3097603  50.2116166   9.6250162
  38.4015096  53.5335330  13.9221039  38.2236857  53.0811939  14.6475955
  38.1134118  54.3361491  14.1059517  38.3328049  53.5857888  14.0564542
  54.0638677  54.7893047  13.1598429  54.5592343  54.0716042  13.1202450
  53.2538453  54.4863845  13.0452916  54.0182571  54.6390694  13.1372155
  40.1387566  56.0663054  11.0342798  39.2733085  56.0548744  10.9225569
  40.2386382  55.8793277  11.8813937  40.0261733  56.0369115  11.1431743
  56.1290496  57.5396735  15.8475558  56.5545568  57.0171157  15.2945983
  55.7647416  58.1377572  15.3264181  56.1377099  57.5506962  15.6884568
  45.7644576  65.8360952  14.6072904  46.0791135  66.6497341  14.6150685
  46.1737989  65.4511171  15.2755063  45.8712674  65.8989655  14.7076995
  52.7169096  61.2530999  12.1776716  53.1880274  61.9671262  12.3466701
  53.0529274  60.6529749  12.7136585  52.8364211  61.2702463  12.2809092
  54.8046080  62.8632312  24.3568788  54.9143046  62.0740873  24.7125535
  55.1336977  62.7738249  23.5543126  54.8698486  62.7338165  24.2911178
  53.3543042  61.0448933  18.9404408  52.8063988  60.4206817  18.6724474
  53.8156071  61.2343205  18.2248488  53.3410251  60.9807983  18.7954839
  52.7070946  42.9488796  15.7315904  51.9016909  42.8386525  16.0483742
  52.5777681  43.0501252  14.8745769  52.5691079  42.9472466  15.6523944
  56.1636906  49.1134288  16.3255601  55.5799895  49.6143494  15.9133168
  56.4841200  48.6063844  15.6919924  56.1250082  49.1126123  16.1714108
  48.7031705  48.0274883   6.6014275  49.5247400  48.1973195   6.3595970
  48.2401356  48.1822143   5.8780573  48.7562868  48.0756615   6.4585920
  47.2927037  46.0217645  17.3812704  47.8371450  45.6808772  17.9717046
  47.3463973  46.8803106  17.5233989  47.3816157  46.0972904  17.4894578
  43.1057596  59.7834061  14.2551512  43.7102453  59.7429895  13.6265333
  42.8984909  60.6305213  14.2855568  43.1646493  59.9022063  14.1667629
  52.9201368  62.0500006  15.4713749  53.7399742  61.9062972  15.7330045
  52.6395446  62.6746205  16.0130187  52.9998112  62.1210358  15.5901689
  38.3408878  58.7668678  14.1250435  38.2433156  57.9564950  14.4340492
  39.1237748  58.7460472  13.7396703  38.4425015  58.6435768  14.1137298
  53.7764864  70.0779918  15.9889771  53.6523561  70.6642363  16.6239589
  54.4283149  69.5840113  16.2902046  53.8538513  70.0918722  16.1275700
  57.2146072  69.9959339  21.4018795  57.3866576  69.8865233  22.2504076
  57.7515430  70.6413744  21.1649987  57.3191076  70.0751341  21.4923892
  56.2706395  66.1269648  18.8838723  55.5778192  65.6566628  19.1299454
  56.8866723  65.9007953  19.4580430  56.2590925  66.0236780  19.0047875
  54.9946954  70.0935052  20.0265568  55.7186927  70.0788083  20.5130463
  55.0963091  70.8030407  19.5287536  55.1165163  70.1959755  20.0244355
  62.3691904  73.5734137  24.8914515  61.5764885  73.8877649  25.0767135
  62.4840831  73.7885605  24.0535300  62.2687314  73.6517973  24.7952850
  61.2947416  67.9338717  17.2278282  60.9061849  67.5092935  16.5730473
  60.6302114  68.1820867  17.7355309  61.1394344  67.9077439  17.2066150
  59.0765618  64.1367544  24.6064875  58.7619059  64.9067107  24.3434438
  58.7555550  63.5737800  24.0217102  58.9824537  64.1677813  24.4806225
  65.7530404  62.6735925  18.5522393  66.4983996  62.4845736  18.1385819
  65.3367708  63.1994163  17.9936249  65.8015378  62.7238071  18.4086966
  58.7082123  66.7364795  23.3450090  57.8981899  67.0422575  23.2339932
  59.1856810  67.4570378  23.4602674  58.6585602  66.8879397  23.3457161
  55.0426155  72.2727346  18.2149492  55.5547252  72.5511599  17.5658252
  54.7562498  73.0116640  18.5812305  55.0761018  72.4229700  18.1739370
  58.5609881  64.3653734  18.2750534  58.3693078  64.3808869  19.1249957
  59.4108477  64.5617409  18.2517189  58.6585603  64.3968086  18.3973828
  52.9456794  66.8944716  16.2534350  52.8042285  66.0428657  16.3778858
  53.2297357  66.9373377  15.4296556  52.9664640  66.7744466  16.1501974
  59.0592413  71.4668525  19.8101822  59.2035789  72.0469733  19.1744932
  59.4068062  71.8444821  20.5151676  59.1319875  71.6089229  19.8200816
  61.4714108  64.5609244  18.4822357  61.9286722  65.2933218  18.6095149
  61.5470436  64.1375709  19.2409613  61.5505078  64.6066482  18.6123433
  53.7147099  64.8075063  19.5711801  53.1789288  64.1955422  19.8872568
  53.7764864  65.3823199  20.2245467  53.6442732  64.8021991  19.7147227
  59.3496486  66.5511348  15.3264181  58.5592560  66.3702808  15.6481517
  59.7457108  65.7738300  15.3094475  59.2913362  66.4098809  15.3716729
  61.8634316  69.0271607  19.8087680  61.7993457  69.8881563  19.6807816
  62.0031504  68.7103600  19.0083231  61.8749786  69.1071773  19.6715893
  66.2432107  75.8016329  25.3652131  67.0566972  75.5301477  25.5257263
  66.0827073  75.5023868  24.5612327  66.3402055  75.7171255  25.2697536
  63.5204269  66.4849986  18.3047519  63.7346238  65.8460900  17.7510873
  62.9038168  66.9295810  17.8755381  63.4609598  66.4560129  18.1597950
  65.6843357  68.0939051  19.2430826  64.8720038  67.7864941  19.3243999
  66.1433291  67.6138051  19.8073538  65.6323741  67.9775543  19.3385420
  62.7796864  69.4999122  24.0259528  63.2496495  70.1241239  24.4127402
  62.8258744  68.8316098  24.5852743  62.8564740  69.4933803  24.1659600
  59.9368138  61.6056150  14.7508332  59.4206626  60.9136341  14.8759911
  59.3762067  62.2726927  14.6970931  59.7774651  61.6019407  14.7614398
  62.0060371  62.1449110  16.5801185  61.6192124  62.1698141  17.3614715
  61.5193309  61.5790788  16.1275701  61.8772880  62.0644861  16.6289088
  61.6717513  59.0316095  18.8711445  62.3010631  59.5676395  18.5932515
  61.8403376  58.9393454  19.7225010  61.7895308  59.0977458  18.9559973
  61.4731428  63.8187290  21.1437856  62.3004857  63.5472439  21.1996471
  61.4939274  64.6148132  21.5001674  61.5984278  63.8967044  21.2053039
  56.3370348  64.5196913  16.4167767  56.7971830  64.5935842  17.1542891
  56.3826455  65.3178167  16.0667589  56.4120904  64.6491060  16.4740524
  57.9853698  65.1863608  20.9839794  57.5939263  64.5396955  21.4195572
  58.1539561  65.7775043  21.6034050  57.9524609  65.1777876  21.1402500
  53.1258126  68.1486104  18.7919484  53.9883739  68.0481813  18.7056813
  52.7949909  67.5680813  18.2305056  53.2043323  68.0477730  18.6964889
  56.4859912  66.9728553  15.4529902  55.8612982  66.9846945  14.8455854
  56.1505507  67.4488728  16.1021142  56.3445404  67.0447070  15.4586470
  55.7550658  68.5821700  17.6704770  55.9144144  67.8265024  18.0756492
  55.5743551  69.1312640  18.3245508  55.7516017  68.5515514  17.8267476
  63.6970961  60.7482936  18.2255560  63.2011522  60.9446610  17.5347126
  64.4540023  61.1475604  18.0544361  63.7357785  60.8360670  18.0975696
  57.2475162  63.1496100  14.1964615  57.2873534  63.6505307  14.9099322
  56.4224827  63.2406494  13.9270538  57.1314688  63.2377916  14.2615153
  59.4304775  72.7156840  22.2984909  58.5800406  72.8528554  22.4342554
  59.5932903  71.9820618  22.7432611  59.3288639  72.6270941  22.3840508
  64.0463930  64.1265482  16.6890129  64.4719001  63.6738008  16.0773656
  63.4320923  63.5725553  16.9654917  64.0192575  63.9779458  16.6395154
  63.1815222  74.8618453  22.3034407  63.1411077  74.2168130  21.7179563
  63.9938541  74.8055070  22.6159819  63.2958376  74.7577420  22.2631356
  58.8692931  68.4915389  18.8584164  58.3571834  67.8836572  19.2169196
  58.6972427  69.2071982  19.3258140  58.7682568  68.5078689  18.9800388
  53.7158646  66.9352965  21.5086526  53.5461236  67.5954339  20.9634733
  53.2724596  67.1459526  22.2299015  53.6257979  67.0638947  21.5348156
  62.7462001  66.4139634  21.2986420  63.3033432  66.1853443  20.6664885
  62.4223066  67.1745299  21.0221632  62.7808412  66.4923471  21.1642917
  50.6160710  69.8399830  16.7675016  50.0687430  69.1700476  16.8855884
  51.4053088  69.4729678  16.8318483  50.6512894  69.6864817  16.7943717
  60.4645119  69.5007287  22.2638427  61.2156446  69.8158964  22.5777981
  60.6567695  69.2986458  21.4372349  60.6036533  69.5174669  22.1881823
  49.3747680  69.0520638  13.9221039  49.1969441  68.5997247  14.6475955
  49.0866702  69.8546799  14.1059517  49.3060633  69.1043196  14.0564542
  60.6071174  61.5443778  19.1334810  60.7399080  60.7474771  19.4615786
  60.9916327  62.0710181  19.7133086  60.6827503  61.5043694  19.2678313
  63.6803529  58.4674104  15.7315904  62.8749493  58.3571833  16.0483742
  63.5510265  58.5686559  14.8745769  63.5423662  58.4657774  15.6523944
  58.2659621  61.5402953  17.3812704  58.8104034  61.1994079  17.9717046
  58.3196557  62.3988414  17.5233989  58.3548740  61.6158212  17.4894578
  43.6494077  20.9634550   9.7310059  44.3560844  20.4686580   9.8596994
  43.8382012  21.4043631   9.0012717  43.7821982  20.9552900   9.6419105
  36.1426996  29.1606723  -0.4435537  36.7864451  29.6019887  -0.0539378
  36.4683251  28.3560149  -0.5305278  36.2858824  29.1071918  -0.3990060
  40.7886371  24.3862086   7.6224134  40.8769717  24.1988227   8.4702345
  41.2176084  23.7399516   7.2228981  40.8648473  24.2625094   7.6895886
  38.3556831  23.6693246   6.6041797  37.7927666  23.2565856   7.1281458
  39.1177854  23.5946152   7.0234940  38.3851279  23.5970647   6.7434797
  34.9631729  15.8966854   8.3358842  35.1352233  15.7872749   9.1844123
  35.5001086  16.5421260   8.0990034  35.0676733  15.9758856   8.4263939
  40.9006430  23.8171105  10.2867918  41.6846847  23.9301953  10.6523660
  40.7003025  22.9912242  10.4826604  40.9872456  23.7117825  10.3702304
  41.0576824  25.7281207   3.9334374  40.2592069  25.4880707   4.1908242
  41.5062835  25.7795600   4.6801421  41.0051435  25.7003598   4.0819298
  40.1177561  19.4741652  11.8254562  39.3250541  19.7885164  12.0107181
  40.2326488  19.6893121  10.9875346  40.0172971  19.5525489  11.7292897
  41.0461353  19.3761856   6.7639858  41.6200215  18.7389100   6.9188422
  40.9676157  19.3765938   5.8949516  41.1194588  19.2826967   6.6586269
  46.3681501  20.7470833   6.7724712  46.1320139  19.9158898   6.6536772
  47.0124730  20.6956441   7.3579556  46.4276172  20.6168521   6.8410605
  36.8251275  10.0375060  11.5404922  36.5104716  10.8074622  11.2774484
  36.5041207   9.4745316  10.9557149  36.7310194  10.0685328  11.4146272
  47.3917922  20.5315282   2.8353006  47.0863739  21.2643339   3.1966322
  46.6724137  20.1253212   2.5545792  47.2405264  20.5797015   2.8466143
  53.0919714  17.1708283   2.1621350  53.0244214  17.1904242   1.2923937
  53.0775376  18.0138610   2.3877021  53.0798470  17.2982018   2.0673827
  37.5300722  19.7791266   4.9827838  37.0312416  20.4907034   5.0612727
  38.3400946  20.0991933   4.9446001  37.5756829  19.9318115   4.9884407
  36.4567780  12.6372311  10.2790137  35.6467556  12.9430090  10.1679979
  36.9342467  13.3577893  10.3942721  36.4071259  12.7886912  10.2797208
  44.7429092  21.3402681   1.1205666  44.6043451  22.0383727   1.6254409
  43.9629090  21.1851337   0.7641848  44.6072318  21.4202847   1.1431941
  43.0807177  17.6399056   7.3728048  43.0755215  16.7678873   7.3770475
  43.7868171  17.8387225   6.8997504  43.1852181  17.5402930   7.3035084
  36.8078070  17.3676040   6.7441868  36.9521446  17.9477248   6.1084978
  37.1553719  17.7452337   7.4491723  36.8805531  17.5096744   6.7540863
  35.8805825  25.5578812   3.6102895  36.0295389  24.9981728   2.9576300
  36.6605827  25.6370814   3.9935414  36.0179919  25.4864377   3.5699844
  38.4059126  25.7293455   4.8887386  38.3302797  25.0602265   5.4438174
  38.3348985  26.4311243   5.4028052  38.3839733  25.7338362   5.0464234
  39.6119973  14.9279122   6.7427727  39.5479114  15.7889079   6.6147863
  39.7517160  14.6111115   5.9423278  39.6235443  15.0079289   6.6055939
  37.7950760  29.1361774   3.3465387  38.2846690  28.4372564   3.1641051
  37.2234992  28.8385644   3.9341444  37.7835290  28.9887998   3.4066428
  43.9917764  21.7023844  12.2992177  44.8052629  21.4308993  12.4597310
  43.8312730  21.4031384  11.4952373  44.0887712  21.6178770  12.2037583
  43.4329014  13.9946566   6.1770873  42.6205695  13.6872457   6.2584046
  43.8918948  13.5145566   6.7413585  43.3809398  13.8783059   6.2725467
  40.5282521  15.4006638  10.9599575  40.9982152  16.0248754  11.3467449
  40.5744401  14.7323613  11.5192790  40.6050397  15.3941318  11.0999647
  44.0039008  22.7630134   7.5715018  44.6418728  22.2690330   7.2377474
  43.3613099  22.6907535   6.9867245  44.0033234  22.6789143   7.4357373
  44.0593264  23.4549942   4.2120375  44.8485642  23.1039007   4.3322456
  44.2336862  24.2686331   3.9497009  44.2013546  23.5235800   4.1908243
  35.6721590  22.0089788   5.2217859  35.5641945  22.0191850   6.0879917
  35.8817372  22.8344568   5.0322813  35.6871702  22.1330863   5.3221951
  49.8085804  19.0908200   3.6817075  49.8668928  19.5394849   4.4277051
  49.1752272  19.5007013   3.2447155  49.7237099  19.2181935   3.7269623
  43.4484899  24.7111742   0.1171821  43.2504587  25.2002556  -0.5771968
  42.8272610  24.9152984   0.6955954  43.3272463  24.8128280   0.0995044
  45.3658701  18.2775894   5.6517069  46.0892899  17.8248421   5.4728089
  45.1008663  18.5580560   4.8689397  45.4339974  18.2526863   5.5095785
  41.1477490  18.3759773   3.8012084  40.5334483  17.8317823   4.0960720
  41.6644775  17.8624009   3.3217901  41.1333153  18.2196182   3.7736313
  37.1790432  18.6164355   9.2324956  36.3286063  18.7536070   9.3682601
  37.3418560  17.8828134   9.6772658  37.0774296  18.5278457   9.3180555
  47.7994015  17.2402305   4.1547619  48.3911855  17.8799556   4.1865817
  48.2353009  16.5425342   4.4439686  47.9512446  17.2320655   4.2028452
  39.6287404  21.6619678   4.7805513  39.1212496  22.2155524   5.2246143
  39.3314051  21.7227967   3.9624287  39.5092289  21.7525989   4.7253970
  38.8729890  26.5944236   1.6862520  38.6495544  25.8363065   2.0546546
  38.3839733  26.6242257   0.9642960  38.7673339  26.4866460   1.6339261
  40.9300879  20.7625968   9.2374454  40.8896734  20.1175645   8.6519609
  41.7424197  20.7062585   9.5499866  41.0444033  20.6584935   9.1971403
  40.8873641  25.9734779  -0.1076779  40.4889924  26.0837049  -0.8755959
  40.2724860  26.1816845   0.4749781  40.7372530  26.0208347  -0.1345480
  40.4947658  12.3147149   8.2326467  41.0519088  12.0860959   7.6004932
  40.1708723  13.0752815   7.9561679  40.5294068  12.3930986   8.0982964
  38.2130775  15.4014802   9.1978474  38.9642102  15.7166479   9.5118028
  38.4053352  15.1993973   8.3712396  38.3522190  15.4182184   9.1221870
  44.8508736  18.9589558   2.7815605  45.2763808  18.4363980   2.2286030
  44.4865656  19.5570395   2.2604228  44.8595339  18.9699785   2.6224615
  34.4862816  27.2553776   1.5412950  34.8009375  28.0690164   1.5490732
  34.8956230  26.8703994   2.2095110  34.5930914  27.3182478   1.6417042
  43.5264320  24.2825136  11.2908835  43.6361286  23.4933696  11.6465582
  43.8555217  24.1931072  10.4883173  43.5916726  24.1530989  11.2251225
  42.0761282  22.4641756   5.8744455  41.5282228  21.8399640   5.6064520
  42.5374311  22.6536029   5.1588534  42.0628492  22.4000807   5.7294886
  41.6419609  23.4692829   2.4053796  42.4617982  23.3255795   2.6670091
  41.3613686  24.0939028   2.9470234  41.7216352  23.5403181   2.5241736
  51.3132944  30.2133332   0.1249603  50.4570839  30.3741830   0.1758720
  51.3600597  29.3425396   0.1454664  51.1932055  30.1084134   0.1355669
  45.6974083  39.7496050  -4.1113165  44.9456983  39.3711588  -4.3397120
  46.1460095  39.7814483  -4.8594355  45.6523750  39.6981657  -4.2555663
  54.6226660  36.4819858   9.7310059  55.3293428  35.9871888   9.8596994
  54.8114596  36.9228939   9.0012717  54.7554566  36.4738208   9.6419105
  54.1584765  32.2725376   2.7681255  54.7040725  32.9510462   2.8275224
  54.1001641  32.1312837   1.9082836  54.2300679  32.3517378   2.6493315
  47.2758840  39.7614442  -1.8450393  47.3769203  38.9514796  -1.5353265
  46.6800585  39.6671388  -2.4750714  47.2031378  39.6279470  -1.8924154
  47.1159579  44.6792031  -0.4435537  47.7597035  45.1205195  -0.0539378
  47.4415835  43.8745457  -0.5305278  47.2591408  44.6257226  -0.3990060
  40.4723884  35.7834728  -2.2198059  40.2374068  34.9502381  -2.3265790
  40.6109525  36.0639394  -3.0336858  40.4579546  35.7018232  -2.3555704
  42.7713971  27.9520459   0.6786248  42.1519003  27.3613106   0.5096263
  42.6697835  28.5431894   0.0450572  42.6651647  27.9524542   0.5591238
  47.8180159  37.6904006  -5.0715675  48.1396000  38.2309213  -5.6754367
  48.4652255  37.1200777  -4.9393385  47.9606214  37.6863181  -5.1408640
  49.8681867  29.6920001  -4.9881288  50.5662032  29.8708128  -4.4959825
  50.1834200  29.1690340  -5.6110899  50.0177204  29.6413773  -5.0079278
  42.4983104  31.4972741   2.9229817  42.3741801  32.0835186   3.5579636
  43.1501389  31.0032937   3.2242092  42.5756754  31.5111545   3.0615747
  50.0569802  36.0790446  -5.0001497  50.4963438  35.4707546  -4.5546724
  49.9074465  35.6997819  -5.7716032  50.0991268  35.9328917  -5.0482330
  47.5241445  34.6734458   2.2017329  48.1690448  34.1806901   1.8828277
  47.7643222  34.8159244   3.0283407  47.6552031  34.6211900   2.2766862
  50.0627537  37.5189364   1.8524221  50.3450780  36.7240769   1.6310977
  50.7913697  37.9969951   1.8729282  50.2117100  37.4723961   1.8227236
  48.0408731  25.0612398  -0.9060014  47.7112061  25.5123541  -1.5756315
  47.3653732  24.9828561  -0.3587007  47.8919167  25.1163533  -0.9236791
  60.0445625  36.6248726  -1.1739948  59.2143328  36.8359369  -1.0106532
  59.9954877  35.7985780  -1.4497665  59.9152360  36.5338332  -1.1902583
  42.0341209  40.6620399  -0.9441853  41.5508787  41.3870889  -0.9682269
  42.8464527  40.9596529  -0.8331695  42.0831956  40.8122753  -0.9314574
  48.1055363  39.4552580   1.6607961  47.5882304  39.0959995   1.0569269
  48.8029754  38.9314754   1.6714028  48.1320944  39.3250268   1.5738220
  51.7618955  39.9047394   7.6224134  51.8502300  39.7173534   8.4702345
  52.1908667  39.2584824   7.2228981  51.8381057  39.7810402   7.6895886
  49.3289414  39.1878554   6.6041797  48.7660249  38.7751164   7.1281458
  50.0910438  39.1131460   7.0234940  49.3583863  39.1155955   6.7434797
  44.8885406  41.1776575  -0.7921573  45.5905985  40.6628564  -0.7348817
  44.8082889  41.5050727   0.0125302  44.9809166  41.1490801  -0.6648781
  59.5399583  29.2719126   2.6210473  58.7028004  29.3421314   2.8558068
  59.5087814  29.2743621   1.7484776  59.4117866  29.2829354   2.5270021
  45.9364312  31.4152162   8.3358842  46.1084816  31.3058057   9.1844123
  46.4733670  32.0606568   8.0990034  46.0409316  31.4944164   8.4263939
  44.2136181  37.3682927  -1.2835965  45.0525081  37.6005860  -1.2362204
  44.2447950  36.4987239  -1.3528930  44.3417899  37.2739874  -1.2871321
  44.8388884  37.7883802   3.0177340  45.3787109  37.6454933   3.6880713
  44.1558831  38.1880553   3.3861367  44.8181038  37.8263473   3.1711762
  54.2629769  33.4674803  -1.7877635  55.0187284  33.9006317  -1.7488727
  54.3692094  32.8179573  -1.2142999  54.3899940  33.4352287  -1.6979610
  57.3009940  37.2948080  -1.0375232  56.8645172  37.2984823  -0.2816261
  56.9672856  37.9753579  -1.4695655  57.1872560  37.3960536  -0.9894400
  51.8739014  39.3356413  10.2867918  52.6579431  39.4487261  10.6523660
  51.6735608  38.5097550  10.4826604  51.9605039  39.2303132  10.3702304
  40.2426029  34.0084093   3.1711762  39.9764445  33.1923210   3.3302752
  40.2564594  34.0537249   2.3007277  40.2050752  33.8940998   3.0665244
  57.2207423  24.3361908   1.2054196  57.8633332  24.4060013   1.7916111
  57.4730444  23.6691131   0.7033738  57.3529555  24.2488257   1.2181475
  44.9924636  27.5462471   5.8178770  44.2996433  27.0759451   6.0639501
  45.6084963  27.3200776   6.3920477  44.9809166  27.4429603   5.9387922
  52.0309407  41.2466515   3.9334374  51.2324653  41.0066015   4.1908242
  52.4795419  41.2980908   4.6801421  51.9784018  41.2188906   4.0819298
  60.4354287  34.0129000  -2.1455595  61.0970721  33.4519669  -2.2459687
  59.7945698  33.5181031  -1.8202904  60.4383154  33.8565409  -2.1123255
  40.6519443  34.7942873   0.4523506  40.4695016  34.7689759  -0.4004202
  41.3869112  35.2641810   0.4912415  40.7333507  34.8604235   0.3321425
  56.7219117  35.0294383  -2.4043606  56.9574706  35.1739581  -3.2316756
  56.8708681  35.7936791  -2.0112093  56.7784920  35.1633437  -2.4680002
  43.7165195  31.5127875   6.9605615  44.4405167  31.4980906   7.4470509
  43.8181331  32.2223231   6.4627583  43.8383404  31.6152579   6.9584402
  51.0910144  34.9926960  11.8254562  50.2983125  35.3070472  12.0107181
  51.2059071  35.2078428  10.9875346  50.9905555  35.0710797  11.7292897
  53.7641463  31.7160951  -3.8850422  53.8588317  32.4550245  -3.4310797
  53.1400307  31.2878427  -3.4515858  53.6850493  31.7622272  -3.7542275
  52.0193937  34.8947164   6.7639858  52.5932799  34.2574408   6.9188422
  51.9408741  34.8951246   5.8949516  52.0927172  34.8012275   6.6586269
  40.6190353  31.6736373   0.6022573  41.1963856  31.5372824   1.2414818
  39.9204415  31.2172157   0.8568157  40.6011375  31.5858639   0.7344862
  47.3757656  33.3270429  -1.1838944  47.1176900  32.4942164  -1.2107645
  47.4306138  33.5528042  -2.0246444  47.3457433  33.2368200  -1.3118807
  52.4558706  25.4298880  -1.0834851  51.7515032  24.9408065  -0.9250932
  52.5043680  25.4421354  -1.9546407  52.3588757  25.3588528  -1.1895512
  46.3492368  30.8808191  -0.6974049  45.7741959  31.0400360  -0.0610088
  45.9728044  30.2443600  -1.1605599  46.2095180  30.8106004  -0.6719491
  50.0165656  29.3531541   4.1618329  49.6280089  28.9285758   3.5070520
  49.3520355  29.6013690   4.6695356  49.8612584  29.3270262   4.1406197
  53.8392018  23.0506169   1.6742313  54.2202530  22.3684341   2.0610188
  53.0355302  22.7615772   1.4917978  53.7768480  22.9073218   1.7046369
  57.3414085  36.2656141   6.7724712  57.1052722  35.4344206   6.6536772
  57.9857314  36.2141749   7.3579556  57.4008756  36.1353829   6.8410605
  46.9912503  37.0551663  -2.5132552  47.6286450  36.8163410  -1.9680758
  47.4167574  37.2588822  -3.2479391  47.1488669  37.0502673  -2.5415395
  41.6825145  39.2939999   1.3701752  41.7229291  39.5654850   0.5421532
  42.2419669  39.8181907   1.7859540  41.7708491  39.4115754   1.3093640
  47.7983858  25.5560368  11.5404922  47.4837299  26.3259930  11.2774484
  47.4773791  24.9930624  10.9557149  47.7042777  25.5870636  11.4146272
  58.3650505  36.0500590   2.8353006  58.0596322  36.7828647   3.1966322
  57.6456721  35.6438520   2.5545792  58.2137848  36.0982323   2.8466143
  49.3733975  37.5324085  -0.8338766  49.4472983  37.3699257   0.0203084
  50.1903481  37.7214275  -1.0778284  49.5050333  37.5360828  -0.7440740
  64.0652298  32.6893591   2.1621350  63.9976798  32.7089550   1.2923937
  64.0507960  33.5323918   2.3877021  64.0531054  32.8167325   2.0673827
  43.1339732  37.8781948  -3.8044322  42.3077849  38.1243685  -3.9310043
  43.1951723  37.7994029  -2.9382264  43.0213898  37.9026897  -3.6955378
  54.4748644  24.0928749   5.4862440  55.2202236  23.9038559   5.0725865
  54.0585949  24.6186986   4.9276296  54.5233618  24.1430894   5.3427013
  61.8510915  31.4637977   0.4367945  62.4018836  30.8306046   0.6765037
  61.8355030  31.9953370   1.1283449  61.9296111  31.4486925   0.5746803
  48.5033306  35.2976574   4.9827838  48.0044999  36.0092342   5.0612727
  49.3133530  35.6177241   4.9446001  48.5489412  35.4503423   4.9884407
  45.8544476  42.4726211  -3.0365142  45.6344772  42.1823566  -2.2438475
  45.6338998  41.8141166  -3.5647230  45.7892070  42.3325919  -2.9976234
  44.7661423  34.5599527  -0.7709441  44.4774672  33.9336999  -0.2363714
  45.6344771  34.5019815  -0.7044760  44.8521675  34.4587072  -0.6818486
  55.5539321  29.7034311  -0.4527459  55.2104087  28.9824646  -0.1020209
  55.6532364  29.4948162  -1.2949101  55.5181364  29.5658514  -0.5255779
  44.9693697  36.1994778  -4.8467076  45.7239665  36.5807817  -4.6331613
  44.3764309  36.6505922  -4.3920379  44.9930410  36.3223606  -4.7484197
  47.4300364  28.1557619  10.2790137  46.6200139  28.4615398  10.1679979
  47.9075050  28.8763201  10.3942721  47.3803842  28.3072220  10.2797208
  46.2891923  37.3703340   0.5273040  45.7672677  37.5103631   1.2124904
  46.6765944  36.6114004   0.7175157  46.2695624  37.2788864   0.6574116
  47.7158249  34.4007359  -4.0745469  47.5201032  35.0082093  -4.6685166
  47.9392594  33.7075303  -4.5553795  47.7192890  34.3884884  -4.2329389
  46.1136779  31.2862097  -3.9564601  46.8359431  31.4503255  -4.4160795
  45.6344772  32.0071761  -4.0625261  46.1500510  31.4160326  -4.0398987
  54.0730287  27.6225895   1.4232084  53.2341387  27.6487174   1.1870347
  54.1434654  28.2696631   2.0037431  53.9598680  27.7222021   1.4741201
  43.7644396  33.6920169   5.1489539  44.2765493  33.9704422   4.4998299
  43.4780738  34.4309463   5.5152352  43.7979259  33.8422523   5.1079417
  52.5199565  24.5211272  -3.8440300  53.2225918  24.3219021  -4.3220342
  52.2543754  23.7487215  -3.5371457  52.5846197  24.3774238  -3.8694859
  57.9487810  32.8293882  -1.2906674  57.8621785  32.9849308  -0.4371895
  57.4938290  33.4731958  -1.6647269  57.8691067  32.9469637  -1.2199567
  47.2828121  25.7846558   5.2090581  47.0911318  25.8001692   6.0590004
  48.1326717  25.9810232   5.1857235  47.3803843  25.8160909   5.3313875
  41.6675034  28.3137539   3.1874397  41.5260526  27.4621480   3.3118905
  41.9515597  28.3566200   2.3636603  41.6882880  28.1937289   3.0842021
  51.8213626  30.1504629  -2.6681115  51.5748341  30.0700380  -1.8344326
  52.1498749  29.3658097  -2.8618587  51.8334870  30.0230895  -2.5733592
  55.7161675  36.8587989   1.1205666  55.5776035  37.5569034   1.6254409
  54.9361673  36.7036645   0.7641848  55.5804902  36.9388155   1.1431941
  54.0539760  33.1584364   7.3728048  54.0487799  32.2864181   7.3770475
  54.7600754  33.3572533   6.8997504  54.1584764  33.0588238   7.3035084
  47.7810654  32.8861348   6.7441868  47.9254029  33.4662556   6.1084978
  48.1286302  33.2637645   7.4491723  47.8538115  33.0282052   6.7540863
  49.9530571  32.0851516   4.5267000  49.2053885  32.2782531   4.1215278
  50.1072096  31.2596736   4.2891121  49.8652999  31.9916628   4.4312406
  49.3791709  41.2478763   4.8887386  49.3035380  40.5787573   5.4438174
  49.3081568  41.9496551   5.4028052  49.3572316  41.2523670   5.0464234
  50.1932348  25.9802067   5.4162404  50.6504962  26.7126041   5.5435196
  50.2688677  25.5568532   6.1749659  50.2723318  26.0259305   5.5463480
  42.4365339  26.2267887   6.5051847  41.9007529  25.6148245   6.8212615
  42.4983104  26.8016023   7.1585514  42.3660972  26.2214814   6.6487274
  48.0714726  27.9704171   2.2604228  47.2810801  27.7895631   2.5821563
  48.4675349  27.1931123   2.2434522  48.0131602  27.8291632   2.3056776
  53.4558412  35.6046601  -0.0136326  52.7803414  35.3731833   0.4877061
  53.4650788  34.9967784  -0.6394221  53.3576917  35.4805526  -0.0320174
  50.5852556  30.4464430   6.7427727  50.5211697  31.3074387   6.6147863
  50.7249744  30.1296423   5.9423278  50.5968026  30.5264597   6.6055939
  49.2671650  33.1396569   0.8843929  48.8433899  33.3401068   0.1482948
  49.0916505  32.2925417   0.9968229  49.1782531  33.0445351   0.7917620
  48.7683344  44.6547082   3.3465387  49.2579274  43.9557872   3.1641051
  48.1967576  44.3570952   3.9341444  48.7567874  44.5073306   3.4066428
  44.5554095  33.6348621  -3.6828098  44.7118714  33.5695424  -2.8272106
  44.8954688  34.4097173  -3.8949418  44.6287330  33.7397819  -3.5873504
  51.0933240  33.0106504  -4.8134735  51.6348785  32.5076886  -4.3496114
  51.4079799  32.9571699  -5.6245250  51.2197637  32.9285925  -4.8650923
  54.9650347  37.2209152  12.2992177  55.7785212  36.9494301  12.4597310
  54.8045313  36.9216692  11.4952373  55.0620296  37.1364078  12.2037583
  52.2422509  27.9042809   5.2387566  52.4564479  27.2653723   4.6850920
  51.6256408  28.3488633   4.8095427  52.1827838  27.8752953   5.0937997
  41.1288357  30.8183571  -3.3667331  41.5087321  31.2368116  -4.0307063
  40.5543721  31.3997027  -3.0598487  41.0999681  30.9661430  -3.4190590
  54.4061597  29.5131874   6.1770873  53.5938279  29.2057764   6.2584046
  54.8651532  29.0330874   6.7413585  54.3541982  29.3968366   6.2725467
  51.6337238  21.0142745   0.2274909  50.7630796  20.9881466   0.1808218
  51.8877579  20.8419937  -0.5899246  51.5430798  20.9852888   0.0995045
  51.5015105  30.9191946  10.9599575  51.9714736  31.5434062  11.3467449
  51.5476985  30.2508921  11.5192790  51.5782980  30.9126626  11.0999647
  48.6586378  23.0248973   1.6848379  48.1424867  22.3329164   1.8099958
  48.0980307  23.6919750   1.6310978  48.4992891  23.0212231   1.6954445
  50.7278612  23.5641933   3.5141231  50.3410365  23.5890965   4.2954761
  50.2411549  22.9983612   3.0615748  50.5991121  23.4837684   3.5629135
  54.9771591  38.2815442   7.5715018  55.6151312  37.7875638   7.2377474
  54.3345683  38.2092843   6.9867245  54.9765818  38.1974451   7.4357373
  56.7028591  30.1304588   2.1380934  56.2756199  30.0430937   1.3829033
  56.0654644  30.2382364   2.7235778  56.5458198  30.1337248   2.1126375
  50.3935753  20.4508919   5.8051491  51.0228871  20.9869219   5.5272562
  50.5621616  20.3586277   6.6565057  50.5113548  20.5170281   5.8900019
  50.1949668  25.2380113   8.0777903  51.0223098  24.9665262   8.1336517
  50.2157514  26.0340955   8.4341721  50.3202518  25.3159867   8.1393086
  55.0325848  38.9735250   4.2120375  55.8218226  38.6224315   4.3322456
  55.2069446  39.7871639   3.9497009  55.1746129  39.0421107   4.1908243
  44.7719158  32.3843976   1.2648164  43.9307165  32.2847850   1.4727057
  44.9809166  33.1539456   1.6162484  44.6783851  32.4836019   1.3475479
  42.2494725  30.0063513  -0.9067086  41.8551423  30.0806525  -1.6816976
  41.6934842  30.3921459  -0.3558724  42.1097537  30.0745288  -0.9399426
  53.8859672  22.9844807  -1.2263207  54.0909265  22.9167115  -0.3806210
  53.5586096  23.7903628  -1.2942029  53.8674920  23.0930747  -1.1103552
  48.5835823  30.3125375   0.5145761  48.2798961  29.7581364   1.1156169
  47.8815244  30.4917585   0.0273795  48.4352033  30.2570158   0.5315467
  46.6454174  37.5275096   5.2217859  46.5374529  37.5377158   6.0879917
  46.8549956  38.3529876   5.0322813  46.6604285  37.6516171   5.3221951
  44.6627966  34.7787738   2.6839797  44.0715899  35.4197237   2.6542812
  45.4248990  35.2025356   2.6571096  44.6876227  34.9363577   2.6754944
  46.7071939  26.6056431   7.9179841  46.3157504  25.9589778   8.3535619
  46.8757801  27.1967866   8.5374097  46.6742849  26.5970699   8.0742547
  60.7818388  34.6093508   3.6817075  60.8401511  35.0580157   4.4277051
  60.1484855  35.0192321   3.2447155  60.6969683  34.7367243   3.7269623
  54.4217482  40.2297050   0.1171821  54.2237171  40.7187864  -0.5771968
  53.8005193  40.4338291   0.6955954  54.3005047  40.3313588   0.0995044
  48.4825461  31.9981947  -5.5417935  49.2267506  32.3856223  -5.3034985
  48.6286157  31.1539372  -5.3777447  48.6136046  31.9312420  -5.4823965
  50.4005036  23.7932206  -0.5086073  49.5541081  23.9655013  -0.6344724
  50.3976169  22.9881549  -0.1720245  50.2752186  23.6993235  -0.4774946
  51.4703336  27.5707420   0.3575985  50.9963291  27.0449182   0.8681295
  51.8421472  27.0236893  -0.2109154  51.4553225  27.4123417   0.3491132
  41.8476367  29.5678927   5.7259530  42.7101980  29.4674636   5.6396860
  41.5168150  28.9873636   5.1645102  41.9261563  29.4670554   5.6304936
  57.7340067  32.6309796   1.7682765  57.4938290  31.7916211   1.7725192
  58.2132074  32.7109962   2.4923539  57.7692251  32.5191195   1.8757567
  59.7345254  29.4111253  -0.2787976  59.4955024  29.3707087  -1.1167191
  59.8979155  30.2582405  -0.1522255  59.7235558  29.5303338  -0.3834494
  56.3391284  33.7961202   5.6517069  57.0625483  33.3433729   5.4728089
  56.0741247  34.0765868   4.8689397  56.4072558  33.7712171   5.5095785
  45.2078153  28.3921376   2.3869949  44.5831223  28.4039768   1.7795901
  44.8723747  28.8681551   3.0361189  45.0663644  28.4639893   2.3926517
  41.9203828  36.4521836   3.8273713  41.3903753  35.7614275   3.8768688
  42.1928921  36.4432021   2.9986421  41.8828550  36.3488968   3.7121129
  52.1210074  33.8945080   3.8012084  51.5067067  33.3503131   4.0960720
  52.6377359  33.3809317   3.3217901  52.1065736  33.7381490   3.7736313
  51.3606371  34.9649351   1.5356383  50.9333979  34.3399069   1.1021818
  51.3531315  34.6824272   2.3615390  51.2965512  34.8302131   1.5936211
  44.4768898  30.0014524   4.6044817  44.6362385  29.2457848   5.0096539
  44.2961792  30.5505463   5.2585555  44.4734257  29.9708337   4.7607523
  52.4189201  22.1675759   5.1595607  51.9229762  22.3639433   4.4687173
  53.1758263  22.5668427   4.9884408  52.4576026  22.2553493   5.0315743
  49.6892081  25.8418105   1.7498917  49.7134568  25.3078217   1.0611697
  49.9403554  25.3335414   2.4124508  49.7301999  25.6879009   1.7463562
  37.1999670  33.1249600   1.1842061  37.0943119  33.0796444   0.3194145
  36.4499890  33.4703381   1.4656346  37.0735273  33.1690508   1.0979391
  45.9693403  24.5688923   1.1304661  46.0091774  25.0698130   1.8439369
  45.1443067  24.6599317   0.8610584  45.8532929  24.6570740   1.1955200
  48.1523016  34.1349663   9.2324956  47.3018646  34.2721378   9.3682601
  48.3151143  33.4013442   9.6772658  48.0506879  34.0463764   9.3180555
  47.3907766  31.0849433   3.4278560  46.5599696  31.2523251   3.2213808
  47.3359283  30.7085384   4.2127446  47.2597181  31.0539164   3.5127088
  45.1991549  24.5758326   9.0634971  45.8244253  24.0320459   9.3364403
  44.7442029  24.0953244   8.4942761  45.2239810  24.4247807   9.0196565
  58.7726598  32.7587613   4.1547619  59.3644438  33.3984864   4.1865817
  59.2085593  32.0610650   4.4439686  58.9245029  32.7505963   4.2028452
  50.6019988  37.1804985   4.7805513  50.0945079  37.7340832   5.2246143
  50.3046634  37.2413275   3.9624287  50.4824873  37.2711297   4.7253970
  52.7682170  25.5458305   3.6230176  53.1937242  25.0930831   3.0113702
  52.1539163  24.9918376   3.8994963  52.7410816  25.3972281   3.5735201
  55.7975740  29.9732832  -3.5449238  55.1266929  30.5162534  -3.6736173
  56.4915490  30.4427687  -3.7867544  55.8004607  30.1231103  -3.5993711
  49.8462473  42.1129544   1.6862520  49.6228128  41.3548373   2.0546546
  49.3572317  42.1427565   0.9642960  49.7405922  42.0051768   1.6339261
  55.9603867  26.4288715  -0.6358865  56.3131477  26.0018438   0.0386934
  55.1018668  26.3439559  -0.5057789  55.8853312  26.3533456  -0.5163855
  44.6587552  29.0596235  -2.5776019  43.9399541  29.4760368  -2.3103155
  45.0299914  29.6250474  -3.1284381  44.6079484  29.2045516  -2.6193212
  53.9587133  29.6924084   3.3125977  53.9385060  29.5107379   4.1660756
  54.0066334  30.5636102   3.2885561  53.9621774  29.7940622   3.4349272
  51.9033463  36.2811276   9.2374454  51.8629318  35.6360953   8.6519609
  52.7156781  36.2247893   9.5499866  52.0176616  36.1770243   9.1971403
  48.4940930  42.3330002  -0.8600395  48.0801329  41.6704132  -1.2496554
  49.1788304  42.4807861  -1.3804701  48.5339302  42.2570660  -0.9943898
  51.8606224  41.4920087  -0.1076779  51.4622508  41.6022357  -0.8755959
  51.2457444  41.7002153   0.4749781  51.7105114  41.5393655  -0.1345480
  53.3091943  28.0573739  -3.8100889  53.0805636  28.0806441  -4.6522531
  53.5690019  27.2331206  -3.6905878  53.3138131  27.9389819  -3.9175691
  47.5911171  29.9108212   5.7924211  47.0790074  29.3029395   6.1509243
  47.4190668  30.6264805   6.2598187  47.4900808  29.9271512   5.9140435
  42.4376886  28.3545788   8.4426573  42.2679476  29.0147163   7.8974780
  41.9942836  28.5652349   9.1639062  42.3476220  28.4831770   8.4688202
  46.3636705  26.5950286  -2.5146693  46.8394072  26.9567366  -3.1496512
  45.8625305  27.2506753  -2.2346551  46.3602064  26.7444474  -2.5669952
  51.4680242  27.8332457   8.2326467  52.0251672  27.6046267   7.6004932
  51.1441307  28.5938123   7.9561679  51.5026652  27.9116294   8.0982964
  39.3378951  31.2592653   3.7015063  38.7905670  30.5893299   3.8195931
  40.1271329  30.8922501   3.7658530  39.3731134  31.1057640   3.7283763
  49.1863359  30.9200110   9.1978474  49.9374686  31.2351787   9.5118028
  49.3785935  30.7179281   8.3712396  49.3254773  30.9367492   9.1221870
  56.0348649  27.0473677  -3.5597731  56.0342876  26.8922333  -2.7013454
  55.8304829  27.8936664  -3.6156345  56.0048427  27.1494297  -3.4409791
  38.0965920  30.4713461   0.8561086  37.9187681  30.0190070   1.5816001
  37.8084942  31.2739623   1.0399563  38.0278873  30.5236019   0.9904589
  53.7589501  31.7271178   0.0938476  54.2543166  31.0094174   0.0542496
  52.9489277  31.4241976  -0.0207037  53.7133394  31.5768825   0.0712202
  39.8338390  33.0041185  -2.0317155  38.9683909  32.9926875  -2.1434384
  39.9337206  32.8171408  -1.1846016  39.7212557  32.9747246  -1.9228211
  55.8241320  34.4774866   2.7815605  56.2496392  33.9549288   2.2286030
  55.4598240  35.0755703   2.2604228  55.8327923  34.4885093   2.6224615
  45.4595400  42.7739084   1.5412950  45.7741959  43.5875472   1.5490732
  45.8688813  42.3889302   2.2095110  45.5663498  42.8367786   1.6417042
  52.4119919  38.1909130  -0.8883238  52.8831098  38.9049393  -0.7193252
  52.7480098  37.5907880  -0.3523368  52.5315035  38.2080595  -0.7850862
  54.4996904  39.8010444  11.2908835  54.6093870  39.0119004  11.6465582
  54.8287801  39.7116380  10.4883173  54.5649310  39.6716297  11.2251225
  49.3289414  22.9636601   6.0674857  49.4617320  22.1667594   6.3955833
  49.7134567  23.4903004   6.6473133  49.4045743  22.9236518   6.2018360
  53.0493866  37.9827064   5.8744455  52.5014812  37.3584948   5.6064520
  53.5106895  38.1721336   5.1588534  53.0361075  37.9186115   5.7294886
  52.4021770  19.8866927   2.6655950  51.5967733  19.7764657   2.9823789
  52.2728505  19.9879383   1.8085816  52.2641902  19.8850597   2.5863991
  55.8587730  26.0512419   3.2595647  55.2750719  26.5521625   2.8473215
  56.1792024  25.5441975   2.6259971  55.8200905  26.0504254   3.1054155
  46.9877861  22.9595776   4.3152751  47.5322274  22.6186903   4.9057093
  47.0414797  23.8181237   4.4574036  47.0766981  23.0351035   4.4234624
  42.8008420  36.7212192   1.1891559  43.4053277  36.6808026   0.5605380
  42.5935733  37.5683344   1.2195615  42.8597317  36.8400194   1.1007675
  52.6152192  38.9878137   2.4053796  53.4350566  38.8441103   2.6670091
  52.3346270  39.6124336   2.9470234  52.6948935  39.0588489   2.5241736
  38.0359702  35.7046809   1.0590482  37.9383980  34.8943081   1.3680539
  38.8188572  35.6838603   0.6736750  38.1375839  35.5813900   1.0477345
  53.7446555  43.4705767   0.6786248  53.1251587  42.8798414   0.5096263
  53.6430419  44.0617202   0.0450572  53.6384230  43.4709850   0.5591238
  53.4715688  47.0158049   2.9229817  53.3474385  47.6020494   3.5579636
  54.1233972  46.5218244   3.2242092  53.5489337  47.0296853   3.0615747
  56.9096896  46.9337470   8.3358842  57.0817400  46.8243365   9.1844123
  57.4466254  47.5791875   8.0990034  57.0141900  47.0129472   8.4263939
  62.8471597  54.8541721  10.2867918  63.6312014  54.9672569  10.6523660
  62.6468192  54.0282858  10.4826604  62.9337623  54.7488440  10.3702304
  51.2158613  49.5269401   3.1711762  50.9497028  48.7108518   3.3302752
  51.2297177  49.5722557   2.3007277  51.1783335  49.4126306   3.0665244
  55.9657219  43.0647779   5.8178770  55.2729016  42.5944759   6.0639501
  56.5817547  42.8386084   6.3920477  55.9541749  42.9614911   5.9387922
  54.6897778  47.0313183   6.9605615  55.4137751  47.0166214   7.4470509
  54.7913915  47.7408539   6.4627583  54.8115987  47.1337887   6.9584402
  62.0642728  50.5112268  11.8254562  61.2715708  50.8255780  12.0107181
  62.1791655  50.7263736  10.9875346  61.9638138  50.5896105  11.7292897
  60.9898240  44.8716849   4.1618329  60.6012673  44.4471066   3.5070520
  60.3252938  45.1198998   4.6695356  60.8345168  44.8455570   4.1406197
  64.8124601  38.5691477   1.6742313  65.1935113  37.8869648   2.0610188
  64.0087886  38.2801079   1.4917978  64.7501063  38.4258526   1.7046369
  58.7716442  41.0745676  11.5404922  58.4569883  41.8445238  11.2774484
  58.4506374  40.5115932  10.9557149  58.6775361  41.1055944  11.4146272
  65.4481228  39.6114056   5.4862440  66.1934820  39.4223867   5.0725865
  65.0318532  40.1372294   4.9276296  65.4966202  39.6616202   5.3427013
  58.4032947  43.6742927  10.2790137  57.5932723  43.9800706  10.1679979
  58.8807634  44.3948509  10.3942721  58.3536426  43.8257528  10.2797208
  54.7376979  49.2105477   5.1489539  55.2498076  49.4889730   4.4998299
  54.4513322  49.9494771   5.5152352  54.7711842  49.3607831   5.1079417
  58.2560705  41.3031866   5.2090581  58.0643902  41.3187000   6.0590004
  59.1059301  41.4995540   5.1857235  58.3536427  41.3346217   5.3313875
  52.6407618  43.8322847   3.1874397  52.4993109  42.9806788   3.3118905
  52.9248181  43.8751508   2.3636603  52.6615464  43.7122597   3.0842021
  58.7543237  48.4046656   6.7441868  58.8986613  48.9847864   6.1084978
  59.1018886  48.7822953   7.4491723  58.8270699  48.5467360   6.7540863
  61.1664932  41.4987375   5.4162404  61.6237546  42.2311349   5.5435196
  61.2421260  41.0753840   6.1749659  61.2455901  41.5444613   5.5463480
  53.4097923  41.7453195   6.5051847  52.8740112  41.1333553   6.8212615
  53.4715688  42.3201331   7.1585514  53.3393556  41.7400122   6.6487274
  59.0447310  43.4889479   2.2604228  58.2543384  43.3080939   2.5821563
  59.4407932  42.7116431   2.2434522  58.9864186  43.3476940   2.3056776
  61.5585140  45.9649738   6.7427727  61.4944281  46.8259694   6.6147863
  61.6982328  45.6481731   5.9423278  61.5700610  46.0449905   6.6055939
  65.9382931  52.7394460  12.2992177  66.7517796  52.4679609  12.4597310
  65.7777897  52.4402000  11.4952373  66.0352879  52.6549386  12.2037583
  63.2155093  43.4228117   5.2387566  63.4297062  42.7839031   4.6850920
  62.5988992  43.8673941   4.8095427  63.1560422  43.3938261   5.0937997
  65.3794181  45.0317182   6.1770873  64.5670862  44.7243072   6.2584046
  65.8384115  44.5516182   6.7413585  65.3274565  44.9153674   6.2725467
  62.6069821  36.5328053   0.2274909  61.7363379  36.5066774   0.1808218
  62.8610163  36.3605245  -0.5899246  62.5163381  36.5038196   0.0995045
  62.4747688  46.4377253  10.9599575  62.9447319  47.0619370  11.3467449
  62.5209568  45.7694229  11.5192790  62.5515564  46.4311934  11.0999647
  59.6318962  38.5434281   1.6848379  59.1157450  37.8514472   1.8099958
  59.0712891  39.2105058   1.6310978  59.4725475  38.5397539   1.6954445
  61.7011195  39.0827241   3.5141231  61.3142948  39.1076272   4.2954761
  61.2144133  38.5168920   3.0615748  61.5723704  39.0022992   3.5629135
  61.3668337  35.9694226   5.8051491  61.9961455  36.5054527   5.5272562
  61.5354200  35.8771585   6.6565057  61.4846132  36.0355589   5.8900019
  61.1682252  40.7565421   8.0777903  61.9955681  40.4850570   8.1336517
  61.1890098  41.5526263   8.4341721  61.2935102  40.8345175   8.1393086
  56.0321172  41.4575044   3.3507814  56.4922654  41.5313973   4.0882938
  56.0777279  42.2556298   3.0007635  56.1071728  41.5869191   3.4080571
  57.6804522  42.1241739   7.9179841  57.2890087  41.4775086   8.3535619
  57.8490385  42.7153174   8.5374097  57.6475432  42.1156007   8.0742547
  52.8208950  45.0864235   5.7259530  53.6834563  44.9859944   5.6396860
  52.4900733  44.5058944   5.1645102  52.8994147  44.9855861   5.6304936
  56.1810736  43.9106684   2.3869949  55.5563806  43.9225076   1.7795901
  55.8456331  44.3866859   3.0361189  56.0396228  43.9825201   2.3926517
  55.4501482  45.5199831   4.6044817  55.6094968  44.7643156   5.0096539
  55.2694375  46.0690771   5.2585555  55.4466841  45.4893645   4.7607523
  63.3921785  37.6861067   5.1595607  62.8962346  37.8824741   4.4687173
  64.1490847  38.0853735   4.9884408  63.4308609  37.7738801   5.0315743
  60.6624664  41.3603413   1.7498917  60.6867151  40.8263525   1.0611697
  60.9136138  40.8520722   2.4124508  60.7034583  41.2064317   1.7463562
  48.1732254  48.6434908   1.1842061  48.0675703  48.5981752   0.3194145
  47.4232474  48.9888689   1.4656346  48.0467857  48.6875816   1.0979391
  56.9425986  40.0874231   1.1304661  56.9824358  40.5883438   1.8439369
  56.1175651  40.1784625   0.8610584  56.8265512  40.1756048   1.1955200
  59.1255599  49.6534971   9.2324956  58.2751230  49.7906685   9.3682601
  59.2883727  48.9198749   9.6772658  59.0239463  49.5649072   9.3180555
  58.3640350  46.6034741   3.4278560  57.5332279  46.7708559   3.2213808
  58.3091867  46.2270692   4.2127446  58.2329765  46.5724472   3.5127088
  56.1724133  40.0943634   9.0634971  56.7976836  39.5505767   9.3364403
  55.7174613  39.6138552   8.4942761  56.1972394  39.9433115   9.0196565
  63.7414754  41.0643613   3.6230176  64.1669825  40.6116139   3.0113702
  63.1271747  40.5103684   3.8994963  63.7143399  40.9157589   3.5735201
  62.8766046  51.7996584   9.2374454  62.8361901  51.1546261   8.6519609
  63.6889364  51.7433201   9.5499866  62.9909200  51.6955551   9.1971403
  58.5643755  45.4293520   5.7924211  58.0522658  44.8214703   6.1509243
  58.3923251  46.1450113   6.2598187  58.4633392  45.4456820   5.9140435
  53.4109470  43.8731096   8.4426573  53.2412060  44.5332471   7.8974780
  52.9675420  44.0837657   9.1639062  53.3208803  44.0017078   8.4688202
  62.4412825  43.3517765   8.2326467  62.9984255  43.1231575   7.6004932
  62.1173890  44.1123431   7.9561679  62.4759235  43.4301602   8.0982964
  50.3111534  46.7777961   3.7015063  49.7638254  46.1078607   3.8195931
  51.1003912  46.4107809   3.7658530  50.3463718  46.6242948   3.7283763
  60.1595943  46.4385418   9.1978474  60.9107270  46.7537095   9.5118028
  60.3518519  46.2364589   8.3712396  60.2987357  46.4552800   9.1221870
  49.0698504  45.9898769   0.8561086  48.8920265  45.5375378   1.5816001
  48.7817526  46.7924930   1.0399563  49.0011457  46.0421327   0.9904589
  60.3021998  38.4821909   6.0674857  60.4349904  37.6852902   6.3955833
  60.6867151  39.0088312   6.6473133  60.3778327  38.4421825   6.2018360
  63.3754353  35.4052235   2.6655950  62.5700317  35.2949965   2.9823789
  63.2461089  35.5064691   1.8085816  63.2374486  35.4035905   2.5863991
  57.9610445  38.4781084   4.3152751  58.5054858  38.1372211   4.9057093
  58.0147381  39.3366545   4.4574036  58.0499564  38.5536343   4.4234624
   1.6835282  58.9259566  36.2634817   1.3688723  59.6163045  36.6955239
   1.1662224  58.8704349  35.5620318   1.5599752  59.0194455  36.2231766
   5.9749727  67.1480772  41.5455693   5.1378148  67.2182959  41.7803288
   5.9437958  67.1505267  40.6729996   5.8468009  67.1590999  41.4515241
   6.0939069  66.9868191  35.8611379   5.8375634  66.1748133  35.6709262
   6.9368383  66.9945758  35.6341566   6.1805094  66.8680189  35.7996196
   0.9098788  61.9690394  44.4107660   1.6552380  61.7800205  43.9971085
   0.4936092  62.4948632  43.8521516   0.9583762  62.0192540  44.2672233
   8.2861058  69.3399623  39.3613165   8.8368980  68.7067692  39.6010257
   8.2705174  69.8715016  40.0528669   8.3646255  69.3248571  39.4992023
   1.9889465  67.5795957  38.4717761   1.6454231  66.8586292  38.8225011
   2.0882507  67.3709808  37.6296119   1.9531508  67.4420160  38.3989441
   1.1009818  57.0353588  38.2101467   1.2193386  57.4930051  37.4768769
   0.9271993  56.2298849  37.9237684   1.0928989  56.9847360  38.0602400
   3.1378735  68.0066234  41.0626154   2.7106343  67.9192582  40.3074253
   2.5004788  68.1144009  41.6480998   2.9808342  68.0098894  41.0371595
   3.5743503  61.4138217  37.1784779   2.9617817  61.9008619  37.5638510
   3.6707678  60.7381708  37.7222430   3.4981401  61.3856526  37.3163637
   6.1695398  67.2872899  38.6457244   5.9305168  67.2468733  37.8078029
   6.3329299  68.1344051  38.7722965   6.1585701  67.4064984  38.5410726
   2.3954011  64.3050361  38.2886355   2.7481621  63.8780084  38.9632154
   1.5368812  64.2201205  38.4187431   2.3203455  64.2295102  38.4081365
   3.8278071  59.4268773  39.2170667   3.3208935  58.7197913  39.1491845
   4.6245504  59.0961962  39.3471744   3.8705310  59.2741924  39.2269662
   2.4698793  64.9235323  35.3647489   2.4693019  64.7683979  36.2231766
   2.2654973  65.7698310  35.3088875   2.4398571  65.0255943  35.4835429
   2.2937874  63.9274065  42.1840867   1.7100863  64.4283271  41.7718435
   2.6142168  63.4203621  41.5505191   2.2551049  63.9265900  42.0299375
   4.2434226  45.9397458  21.2281939   4.2128231  46.7942095  21.4000209
   4.8415575  45.6392750  21.7868083   4.3271384  46.0213954  21.3356742
   0.7527628  51.2959635  35.5895326   1.4594395  50.8011665  35.7182260
   0.9415563  51.7368716  34.8597984   0.8855533  51.2877985  35.5004371
   2.0650801  48.5149760  19.5000249   1.9490327  49.2657446  19.9292387
   2.8606688  48.2573713  19.7496336   2.1655390  48.5884607  19.6004341
   1.3786106  35.8637697  23.1974864   1.0639547  36.5541176  23.6295286
   0.8613048  35.8082480  22.4960364   1.2550576  35.9572586  23.1571813
   6.1746593  51.4388503  24.6845319   5.3444296  51.6499146  24.8478735
   6.1255845  50.6125557  24.4087602   6.0453328  51.3478109  24.6682684
   5.6700551  44.0858903  28.4795740   4.8328972  44.1561091  28.7143335
   5.6388782  44.0883398  27.6070042   5.5418833  44.0969130  28.3855288
   0.3930737  48.2814580  24.0707632   1.1488252  48.7146094  24.1096540
   0.4993061  47.6319350  24.6442268   0.5200907  48.2492064  24.1605657
   3.4310908  52.1087857  24.8210034   2.9946140  52.1124600  25.5769006
   3.0973823  52.7893356  24.3889612   3.3173528  52.2100313  24.8690867
   3.3508391  39.1501685  27.0639462   3.9934299  39.2199790  27.6501378
   3.6031411  38.4830908  26.5619004   3.4830523  39.0628034  27.0766742
   6.5655254  48.8268777  23.7129672   7.2271688  48.2659446  23.6125580
   5.9246666  48.3320808  24.0382363   6.5684122  48.6705186  23.7462012
   4.6810541  48.6835825  21.2911264   5.0118759  49.2163466  20.6851359
   5.2543630  48.7374713  21.9473215   4.8144221  48.7705394  21.2989046
   5.7889893  43.9246322  22.7951426   5.5326458  43.1126264  22.6049309
   6.6319207  43.9323889  22.5681613   5.8755918  43.8058320  22.7336243
   3.4715052  51.0795918  32.6309979   3.2353690  50.2483983  32.5122039
   4.1158281  51.0281526  33.2164823   3.5309723  50.9493606  32.6995872
   4.4951473  50.8640367  28.6938273   4.1897290  51.5968424  29.0551589
   3.7757689  50.4578297  28.4131059   4.3438815  50.9122100  28.7051410
  10.1953265  47.5033368  28.0206617  10.1277765  47.5229327  27.1509204
  10.1808927  48.3463695  28.2462288  10.1832022  47.6307102  27.9259094
   7.9811882  46.2777754  26.2953212   8.5319804  45.6445823  26.5350304
   7.9655998  46.8093147  26.9868716   8.0597079  46.2626702  26.4332070
   1.6840289  44.5174088  25.4057808   1.3405054  43.7964423  25.7565058
   1.7833331  44.3087939  24.5636166   1.6482331  44.3798291  25.3329488
   2.1453318  50.9799792  20.9481796   2.7111350  51.6393002  20.8640339
   1.4981221  51.3249490  21.4198198   2.1332074  51.1281733  21.0054553
   4.0788778  47.6433659  24.5678593   3.9922752  47.7989085  25.4213371
   3.6239258  48.2871735  24.1937998   3.9992034  47.7609414  24.6385699
   1.8462643  51.6727766  26.9790933   1.7077002  52.3708811  27.4839676
   1.0662641  51.5176422  26.6227115   1.7105870  51.7527932  27.0017207
   3.3416016  51.0306019  17.7407433   2.9622824  50.2443157  17.7336722
   2.6782261  51.5792876  17.5979077   3.1874490  50.9950843  17.7188229
   0.7960641  33.9731719  25.1441513   0.9144210  34.4308182  24.4108816
   0.6222817  33.1676980  24.8577731   0.7879812  33.9225491  24.9942447
   1.5876114  53.2751510  18.0759118   1.6695952  54.0818497  17.7520569
   2.0725857  53.2947470  18.7999892   1.6713272  53.3972173  18.1346017
   1.0951315  52.0348929  38.1577444   1.9086180  51.7634078  38.3182577
   0.9346281  51.7356469  37.3537640   1.1921263  51.9503855  38.0622850
   1.1072559  53.0955219  33.4300285   1.7452279  52.6015415  33.0962741
   0.4646650  53.0232620  32.8452512   1.1066785  53.0114228  33.2942640
   2.8329559  44.9444365  27.9966200   2.4057167  44.8570714  27.2414300
   2.1955612  45.0522141  28.5821045   2.6759166  44.9477025  27.9711642
   1.1626815  53.7875027  30.0705642   1.9519193  53.4364092  30.1907723
   1.3370413  54.6011416  29.8082275   1.3047097  53.8560884  30.0493510
   3.2694327  38.3516348  24.1124825   2.6568641  38.8386750  24.4978557
   3.3658502  37.6759839  24.6562477   3.1932225  38.3234657  24.2503684
   6.9119355  49.4233285  29.5402342   6.9702479  49.8719934  30.2862318
   6.2785823  49.8332098  29.1032422   6.8270650  49.5507020  29.5854890
   3.8641035  47.4449573  27.6268032   3.6239257  46.6055988  27.6310458
   4.3433042  47.5249739  28.3508805   3.8993218  47.3330972  27.7342834
   5.8646222  44.2251030  25.5797291   5.6255992  44.1846864  24.7418076
   6.0280123  45.0722182  25.7063012   5.8536525  44.3443115  25.4750773
   2.4692252  48.6100979  31.5102336   3.1926451  48.1573506  31.3313356
   2.2042214  48.8905645  30.7274664   2.5373525  48.5851948  31.3681052
   4.9027566  47.5727390  30.0132886   5.4945406  48.2124641  30.0451084
   5.3386560  46.8750427  30.3024953   5.0545997  47.5645740  30.0613718
   1.9276707  44.7872609  22.3136028   1.2567897  45.3302311  22.1849094
   2.6216457  45.2567464  22.0717723   1.9305575  44.9370880  22.2591556
   2.0904835  41.2428492  25.2226402   2.4432445  40.8158215  25.8972200
   1.2319636  41.1579336  25.3527478   2.0154279  41.1673233  25.3421412
   3.5228895  36.3646904  26.1510714   3.0159759  35.6576044  26.0831892
   4.3196328  36.0340093  26.2811791   3.5656134  36.2120056  26.1609709
   5.7249035  50.8811831  19.1351579   6.1082640  51.6303187  19.3649676
   4.9293148  51.1277650  18.8763568   5.6642817  51.0281525  19.1309152
   2.1649617  41.8613454  22.2987536   2.1643843  41.7062110  23.1571812
   1.9605797  42.7076441  22.2428922   2.1349394  41.9634074  22.4175476
   1.9542288  49.2914643  28.6400872   2.3797359  48.7689065  28.0871297
   1.5899207  49.8895480  28.1189495   1.9628890  49.3024870  28.4809882
   0.6297872  54.6150221  37.1494101   0.7394837  53.8258781  37.5050849
   0.9588768  54.5256157  36.3468439   0.6950277  54.4856074  37.0836492
   1.9888698  40.8652196  29.1180914   1.4051686  41.3661402  28.7058482
   2.3092992  40.3581752  28.4845237   1.9501873  40.8644031  28.9639421
  15.2166810  61.4582766  21.2281939  15.1860814  62.3127403  21.4000209
  15.8148159  61.1578058  21.7868083  15.3003968  61.5399262  21.3356742
   8.4166495  60.5458417  25.9834870   7.5604390  60.7066915  26.0343987
   8.4634149  59.6750481  26.0039931   8.2965606  60.4409219  25.9940936
  11.7260211  66.8144942  35.5895326  12.4326979  66.3196973  35.7182260
  11.9148147  67.2554024  34.8597984  11.8588117  66.8063293  35.5004371
  11.2618316  62.6050461  28.6266521  11.8074276  63.2835547  28.6860491
  11.2035192  62.4637922  27.7668103  11.3334230  62.6842462  28.5078582
  13.0383385  64.0335068  19.5000249  12.9222910  64.7842754  19.9292387
  13.8339271  63.7759021  19.7496336  13.1387974  64.1069915  19.6004341
   6.9715418  60.0245086  20.8703978   7.6695583  60.2033213  21.3625442
   7.2867751  59.5015425  20.2474368   7.1210755  59.9738858  20.8505989
   7.1603353  66.4115531  20.8583770   7.5996989  65.8032631  21.3038543
   7.0108016  66.0322904  20.0869235   7.2024819  66.2654002  20.8102937
   4.6274996  65.0059543  28.0602595   5.2723999  64.5131986  27.7413544
   4.8676774  65.1484329  28.8868674   4.7585582  64.9536985  28.1352129
   5.1442282  55.3937482  24.9525253   4.8145612  55.8448626  24.2828952
   4.4687284  55.3153646  25.4998259   4.9952718  55.4488618  24.9348476
  10.7612690  64.7642712  17.8114539  10.6763985  65.6203679  17.9564108
  11.2497073  64.4887036  18.4796698  10.8201587  64.8500034  17.9316621
  12.3518689  51.3823005  23.1974864  12.0372130  52.0726484  23.6295286
  11.8345631  51.3267788  22.4960364  12.2283160  51.4757894  23.1571813
  11.6931123  61.3827506  19.3112274  11.1642595  61.5987140  19.9709580
  12.2156143  62.0763645  19.2313244  11.6919576  61.5170643  19.3967873
  17.1479176  66.9573811  24.6845319  16.3176879  67.1684454  24.8478735
  17.0988428  66.1310865  24.4087602  17.0185912  66.8663417  24.6682684
   8.8652506  70.2372479  33.4809401   8.9535852  70.0498619  34.3287612
   9.2942218  69.5909909  33.0814248   8.9414608  70.1135487  33.5481153
   6.4322965  69.5203639  32.4627063   5.8693800  69.1076249  32.9866725
   7.1943989  69.4456545  32.8820207   6.4617414  69.4481039  32.6020064
   8.0407945  61.5256375  16.5888663   8.2803949  61.7334359  15.7764006
   8.3623786  60.7213884  16.6977607   8.1245103  61.4370476  16.4849216
   3.3498236  53.4549771  20.4348201   4.1044204  53.8228088  20.1965251
   3.1725770  53.8289325  21.2027380   3.4352714  53.5647959  20.5133089
  16.6433134  59.6044211  28.4795740  15.8061556  59.6746398  28.7143335
  16.6121365  59.6068706  27.6070042  16.5151417  59.6154438  28.3855288
   3.0397864  61.7477247  34.1944109   3.2118367  61.6383142  35.0429390
   3.5767221  62.3931652  33.9575301   3.1442867  61.8269249  34.2849205
   1.7055300  55.8620090  17.1326314   1.5230874  56.0791971  16.3067307
   2.5680913  55.9759103  17.1884928   1.8059890  55.9109988  17.0180801
   1.3169732  67.7008012  24.5749302   2.1558632  67.9330945  24.6223063
   1.3481502  66.8312324  24.5056337   1.4451450  67.6064959  24.5713946
   7.3855020  52.8646501  20.1675338   8.1141180  52.6862456  19.7213494
   7.4749913  53.7064580  20.3782516   7.5061682  52.9630379  20.1328855
  11.3663320  63.7999888  24.0707632  12.1220835  64.2331402  24.1096540
  11.4725645  63.1504658  24.6442268  11.4933491  63.7677372  24.1605657
  14.4043491  67.6273165  24.8210034  13.9678723  67.6309908  25.5769006
  14.0706407  68.3078664  24.3889612  14.2906111  67.7285621  24.8690867
   8.9772565  69.6681498  36.1453185   9.7612982  69.7812346  36.5108927
   8.7769160  68.8422635  36.3411871   9.0638590  69.5628217  36.2287571
  14.3240974  54.6686993  27.0639462  14.9666883  54.7385098  27.6501378
  14.5763995  54.0016216  26.5619004  14.4563106  54.5813342  27.0766742
   2.0958187  57.8787556  31.6764036   1.4029984  57.4084536  31.9224768
   2.7118514  57.6525861  32.2505744   2.0842717  57.7754688  31.7973189
  17.5387838  64.3454085  23.7129672  18.2004272  63.7844754  23.6125580
  16.8979250  63.8506116  24.0382363  17.5416705  64.1890494  23.7462012
  13.8252668  65.3619467  23.4541660  14.0608257  65.5064666  22.6268511
  13.9742232  66.1261875  23.8473174  13.8818472  65.4958522  23.3905264
   0.8198746  61.8452960  32.8190882   1.5438718  61.8305991  33.3055776
   0.9214882  62.5548316  32.3212850   0.9416955  61.9477664  32.8169668
  15.6543125  64.2021133  21.2911264  15.9851342  64.7348774  20.6851359
  16.2276213  64.2560021  21.9473215  15.7876804  64.2890702  21.2989046
   8.1943695  65.3252045  37.6839829   7.4016676  65.6395557  37.8692448
   8.3092622  65.5403513  36.8460613   8.0939106  65.4035882  37.5878163
  10.8675014  62.0486036  21.9734844  10.9621869  62.7875330  22.4274470
  10.2433858  61.6203512  22.4069409  10.7884044  62.0947357  22.1042992
   9.1227488  65.2272249  32.6225125   9.6966350  64.5899493  32.7773689
   9.0442292  65.2276331  31.7534783   9.1960723  65.1337360  32.5171536
  11.1198035  63.8934776  15.2071796  11.0378198  63.9636963  16.0726783
  11.7577756  64.4564520  15.0155537  11.2017873  63.9873747  15.3061746
   4.4791207  63.6595514  24.6746323   4.2210451  62.8267249  24.6477622
   4.5339689  63.8853127  23.8338823   4.4490984  63.5693285  24.5466459
   9.5592257  55.7623965  24.7750415   8.8548584  55.2733150  24.9334335
   9.6077231  55.7746439  23.9038860   9.4622308  55.6913612  24.6689755
   3.4525919  61.2133276  25.1611217   2.8775510  61.3725445  25.7975178
   3.0761595  60.5768685  24.6979668   3.3128731  61.1431089  25.1865776
   7.1199207  59.6856626  30.0203596   6.7313640  59.2610843  29.3655787
   6.4553906  59.9338775  30.5280623   6.9646135  59.6595347  29.9991464
  16.7622477  59.4431630  22.7951426  16.5059041  58.6311572  22.6049309
  17.6051791  59.4509197  22.5681613  16.8488502  59.3243628  22.7336243
  10.9425569  53.3831254  27.5327580  11.3236081  52.7009425  27.9195454
  10.1388853  53.0940856  27.3503245  10.8802031  53.2398303  27.5631636
   8.2238146  63.9155230  18.2180403   9.0378785  64.2070123  18.1063174
   8.1597287  63.2615093  17.6438696   8.3340885  63.8620425  18.1169240
  14.4447636  66.5981226  32.6309979  14.2086273  65.7669291  32.5122039
  15.0890865  66.5466834  33.2164823  14.5042307  66.4678914  32.6995872
   4.0946054  67.3876748  23.3452715   4.7320001  67.1488495  23.8904508
   4.5201126  67.5913907  22.6105876   4.2522220  67.3827758  23.3169872
   4.9017409  55.8885453  37.3990189   4.5870850  56.6585015  37.1359751
   4.5807342  55.3255709  36.8142416   4.8076328  55.9195721  37.2731539
  15.4684056  66.3825675  28.6938273  15.1629874  67.1153732  29.0551589
  14.7490272  65.9763605  28.4131059  15.3171399  66.4307408  28.7051410
   6.4767526  67.8649170  25.0246501   6.5506534  67.7024342  25.8788351
   7.2937032  68.0539360  24.7806983   6.6083885  67.8685913  25.1144527
  21.1685849  63.0218676  28.0206617  21.1010349  63.0414635  27.1509204
  21.1541511  63.8649003  28.2462288  21.1564605  63.1492410  27.9259094
   2.4549306  54.2775974  23.0136385   1.5871732  54.3498574  23.0793994
   2.7424511  55.0798053  23.2024360   2.3689054  54.4070121  23.0511151
  11.5782195  54.4253833  31.3447707  12.3235787  54.2363644  30.9311132
  11.1619500  54.9512071  30.7861563  11.6267169  54.4755979  31.2012280
  18.9544466  61.7963062  26.2953212  19.5052388  61.1631131  26.5350304
  18.9388581  62.3278455  26.9868716  19.0329662  61.7812010  26.4332070
   5.6066857  65.6301659  30.8413105   5.1078550  66.3417427  30.9197994
   6.4167081  65.9502326  30.8031268   5.6522964  65.7828508  30.8469674
   1.8694974  64.8924612  25.0875826   1.5808223  64.2662083  25.6221553
   2.7378322  64.8344900  25.1540507   1.9555226  64.7912156  25.1766781
  12.6572872  60.0359396  25.4057808  12.3137638  59.3149731  25.7565058
  12.7565915  59.8273247  24.5636166  12.6214915  59.8983599  25.3329488
  13.1185901  66.4985100  20.9481796  13.6843934  67.1578310  20.8640339
  12.4713805  66.8434798  21.4198198  13.1064658  66.6467041  21.0054553
   4.5333915  58.4882704  36.1375403   3.7233691  58.7940483  36.0265246
   5.0108602  59.2088286  36.2527987   4.4837394  58.6397305  36.1382474
   3.3925474  67.7028425  26.3858307   2.8706228  67.8428716  27.0710171
   3.7799495  66.9439089  26.5760424   3.3729175  67.6113948  26.5159383
   9.5892479  69.4423884  20.3718875   9.3479155  68.7091745  19.9645940
   9.7693812  69.9910741  19.7185209   9.5800103  69.4146275  20.2149098
   4.8191800  64.7332444  21.7839798   4.6234583  65.3407178  21.1900100
   5.0426146  64.0400388  21.3031471   4.8226441  64.7209969  21.6255878
   3.2170330  61.6187182  21.9020666   3.9392982  61.7828340  21.4424472
   2.7378323  62.3396846  21.7960006   3.2534061  61.7485411  21.8186280
  11.1763838  57.9550980  27.2817351  10.3374938  57.9812259  27.0455614
  11.2468205  58.6021716  27.8622697  11.0632231  58.0547106  27.3326468
   0.8677947  64.0245254  31.0074806   1.3799044  64.3029507  30.3583566
   0.5814289  64.7634548  31.3737619   0.9012810  64.1747608  30.9664684
   9.6233116  54.8536357  22.0144967  10.3259469  54.6544106  21.5364925
   9.3577305  54.0812300  22.3213810   9.6879748  54.7099323  21.9890408
  15.0521361  63.1618967  24.5678593  14.9655336  63.3174393  25.4213371
  14.5971841  63.8057043  24.1937998  14.9724618  63.2794722  24.6385699
   4.3861672  56.1171643  31.0675847   4.1944869  56.1326777  31.9175271
   5.2360268  56.3135317  31.0442502   4.4837394  56.1485994  31.1899142
   8.9247177  60.4829714  23.1904152   8.6781892  60.4025465  24.0240941
   9.2532301  59.6983182  22.9966680   8.9368421  60.3555980  23.2851675
  12.8195226  67.1913074  26.9790933  12.6809586  67.8894119  27.4839676
  12.0395224  67.0361730  26.6227115  12.6838453  67.2713240  27.0017207
  11.1573311  63.4909449  33.2313315  11.1521350  62.6189265  33.2355741
  11.8634305  63.6897618  32.7582771  11.2618315  63.3913323  33.1620350
   4.8844205  63.2186433  32.6027135   5.0287580  63.7987641  31.9670245
   5.2319853  63.5962730  33.3076990   4.9571666  63.3607137  32.6126130
   7.0564122  62.4176601  30.3852267   6.3087436  62.6107616  29.9800545
   7.2105647  61.5921821  30.1476388   6.9686550  62.3241713  30.2897673
  14.3148599  66.5491327  17.7407433  13.9355408  65.7628465  17.7336722
  13.6514845  67.0978184  17.5979077  14.1607074  66.5136151  17.7188229
   7.2965899  56.3127152  31.2747670   7.7538513  57.0451126  31.4020463
   7.3722228  55.8893617  32.0334926   7.3756869  56.3584390  31.4048747
  11.7693225  49.4917027  25.1441513  11.8876793  49.9493490  24.4108816
  11.5955401  48.6862288  24.8577731  11.7612396  49.4410799  24.9942447
   5.1748277  58.3029256  28.1189495   4.3844352  58.1220716  28.4406830
   5.5708900  57.5256208  28.1019789   5.1165153  58.1616717  28.1642043
  10.5591963  65.9371686  25.8448940   9.8836965  65.7056918  26.3462327
  10.5684339  65.3292869  25.2191045  10.4610468  65.8130611  25.8265093
   7.6886107  60.7789515  32.6012993   7.6245249  61.6399471  32.4733130
   7.8283295  60.4621508  31.8008545   7.7001577  60.8589682  32.4641206
  12.5608698  68.7936818  18.0759118  12.6428535  69.6003805  17.7520569
  13.0458440  68.8132778  18.7999892  12.6445856  68.9157481  18.1346017
   6.3705201  63.4721654  26.7429196   5.9467450  63.6726153  26.0068215
   6.1950056  62.6250502  26.8553496   6.2816082  63.3770436  26.6502886
   1.6587646  63.9673706  22.1757169   1.8152265  63.9020509  23.0313161
   1.9988239  64.7422258  21.9635848   1.7320881  64.0722904  22.2711763
   8.1966791  63.3431589  21.0450532   8.7382336  62.8401970  21.5089153
   8.5113350  63.2896784  20.2340017   8.3231188  63.2611010  20.9934344
  12.0683898  67.5534237  38.1577444  12.8818764  67.2819386  38.3182577
  11.9078865  67.2541777  37.3537640  12.1653847  67.4689163  38.0622850
   9.3456060  58.2367894  31.0972833   9.5598030  57.5978808  30.5436186
   8.7289959  58.6813718  30.6680694   9.2861389  58.2078038  30.9523264
  11.5095148  59.8456959  32.0356140  10.6971830  59.5382849  32.1169312
  11.9685083  59.3655959  32.5998852  11.4575533  59.7293451  32.1310734
  10.9200403  67.7236631  22.4833084  10.5615058  67.8951274  23.2597116
  10.4339114  68.1849837  21.9261082  10.7959100  67.8175602  22.5158353
   8.7370789  51.3467830  26.0860175   7.8664347  51.3206551  26.0393485
   8.9911130  51.1745022  25.2686021   8.6464349  51.3177973  25.9580312
   8.6048656  61.2517030  36.8184842   9.0748287  61.8759147  37.2052716
   8.6510536  60.5834006  37.3778057   8.6816532  61.2451711  36.9584913
   5.7619929  53.3574058  27.5433646   5.2458418  52.6654249  27.6685225
   5.2013858  54.0244835  27.4896244   5.6026443  53.3537316  27.5539712
   7.8312163  53.8967018  29.3726498   7.4443916  53.9216049  30.1540028
   7.3445100  53.3308697  28.9201015   7.7024672  53.8162769  29.4214402
  12.0805142  68.6140527  33.4300285  12.7184863  68.1200723  33.0962741
  11.4379234  68.5417927  32.8452512  12.0799369  68.5299535  33.2942640
  13.8062142  60.4629673  27.9966200  13.3789750  60.3756022  27.2414300
  13.1688195  60.5707448  28.5821045  13.6491750  60.4662333  27.9711642
   7.4969305  50.7834003  31.6636758   8.1262422  51.3194304  31.3857829
   7.6655167  50.6911362  32.5150324   7.6147099  50.8495366  31.7485286
   7.2983219  55.5705198  33.9363170   8.1256649  55.2990347  33.9921784
   7.3191065  56.3666040  34.2926988   7.4236069  55.6484952  33.9978353
  12.1359399  69.3060335  30.0705642  12.9251777  68.9549400  30.1907723
  12.3102997  70.1196724  29.8082275  12.2779680  69.3746192  30.0493510
   1.8752709  62.7169061  27.1233430   1.0340716  62.6172935  27.3312324
   2.0842717  63.4864541  27.4747751   1.7817402  62.8161104  27.2060745
  10.9893223  53.3169892  24.6322060  11.1942816  53.2492200  25.4779057
  10.6619647  54.1228713  24.5643237  10.9708471  53.4255832  24.7481715
   5.6869374  60.6450460  26.3731028   5.3832512  60.0906448  26.9741436
   4.9848795  60.8242670  25.8859062   5.5385584  60.5895243  26.3900734
   4.7435471  57.9550980  20.9375730   5.0195206  57.2369892  20.5253297
   5.3434141  58.5535900  20.7296836   4.8728736  57.9371351  20.8456491
  14.2426911  53.8701656  24.1124825  13.6301224  54.3572058  24.4978557
  14.3391086  53.1945147  24.6562477  14.1664808  53.8419965  24.2503684
   8.2445992  55.6264497  19.2122325   8.6989738  55.7975058  19.9370169
   8.7186037  55.0132608  18.8120101   8.3814312  55.5615383  19.2596086
   1.7661517  65.1112823  28.5425063   1.1749450  65.7522321  28.5128078
   2.5282541  65.5350441  28.5156363   1.7909778  65.2688662  28.5340211
   2.1622140  56.2714821  29.2093081   2.6223621  56.3453750  29.9468205
   2.2078247  57.0696075  28.8592902   2.2372695  56.4008968  29.2665837
   3.8105490  56.9381516  33.7765108   3.4191055  56.2914863  34.2120886
   3.9791352  57.5292951  34.3959363   3.7776400  56.9295784  33.9327814
  17.8851939  64.9418593  29.5402342  17.9435062  65.3905242  30.2862318
  17.2518406  65.3517406  29.1032422  17.8003234  65.0692328  29.5854890
  11.5251033  70.5622135  25.9757088  11.3270722  71.0512949  25.2813299
  10.9038744  70.7663376  26.5541221  11.4038598  70.6638673  25.9580311
   5.5859012  62.3307032  20.3167332   6.3301057  62.7181308  20.5550282
   5.7319708  61.4864457  20.4807820   5.7169597  62.2637504  20.3761302
   7.5038587  54.1257291  25.3499193   6.6574632  54.2980098  25.2240543
   7.5009720  53.3206634  25.6865022   7.3785737  54.0318320  25.3810320
   8.5736888  57.9032505  26.2161251   8.0996842  57.3774267  26.7266562
   8.9455023  57.3561978  25.6476113   8.5586777  57.7448502  26.2076399
  14.8373618  62.9634881  27.6268032  14.5971841  62.1241296  27.6310458
  15.3165625  63.0435047  28.3508805  14.8725802  62.8516280  27.7342834
  10.5020387  58.7969060  19.2787005   9.9743406  58.8797804  18.5892714
  10.9616095  59.5386931  19.2751650  10.4922238  58.9189722  19.1761700
  16.8378805  59.7436338  25.5797291  16.5988575  59.7032172  24.7418076
  17.0012706  60.5907490  25.7063012  16.8269109  59.8628423  25.4750773
  13.4424835  64.1286287  31.5102336  14.1659034  63.6758814  31.3313356
  13.1774798  64.4090953  30.7274664  13.5106109  64.1037256  31.3681052
   2.3111704  58.7246461  28.2455215   1.6864774  58.7364853  27.6381168
   1.9757299  59.2006636  28.8946456   2.1697196  58.7964978  28.2511784
  10.0557470  67.3672623  18.4096662  10.7791669  67.8330736  18.2661236
   9.6158061  67.4346233  17.6594259  10.0973162  67.4456460  18.2781444
   9.2243625  64.2270165  29.6597351   8.6100618  63.6828216  29.9545987
   9.7410910  63.7134402  29.1803167   9.2099287  64.0706574  29.6321580
   8.4639922  65.2974435  27.3941650   8.0367530  64.6724154  26.9607085
   8.4564866  65.0149357  28.2200657   8.3999063  65.1627216  27.4521477
   1.5802449  60.3339608  30.4630084   1.7395936  59.5782933  30.8681806
   1.3995343  60.8830548  31.1170821   1.5767808  60.3033422  30.6192790
   9.5222752  52.5000844  31.0180873   9.0263313  52.6964518  30.3272440
  10.2791814  52.8993512  30.8469675   9.5609577  52.5878578  30.8901010
   6.7925632  56.1743190  27.6084184   6.8168119  55.6403302  26.9196964
   7.0437105  55.6660499  28.2709774   6.8335550  56.0204094  27.6048829
   3.0726954  54.9014008  26.9889928   3.1125325  55.4023215  27.7024636
   2.2476619  54.9924402  26.7195851   2.9566480  54.9895825  27.0540466
   5.2556567  64.4674748  35.0910223   4.4052197  64.6046462  35.2267868
   5.4184694  63.7338526  35.5357924   5.1540430  64.3788849  35.1765822
   4.4941317  61.4174518  29.2863827   3.6633247  61.5848336  29.0799075
   4.4392834  61.0410469  30.0712712   4.3630732  61.3864249  29.3712355
   2.3025101  54.9083411  34.9220238   2.9277804  54.3645544  35.1949670
   1.8475580  54.4278329  34.3528028   2.3273361  54.7572892  34.8781832
   2.8677361  59.6930110  19.8153945   3.0080322  60.1902574  20.5182586
   3.3659894  58.9916404  19.9568159   2.9618442  59.6632088  19.9405524
  15.8760149  63.0912698  30.0132886  16.4677990  63.7309949  30.0451084
  16.3119144  62.3935735  30.3024953  16.0278580  63.0831048  30.0613718
   4.4756566  56.4911196  17.1191964   4.7972407  56.0114279  16.4651226
   4.7383510  57.3010842  16.9282775   4.5622592  56.5401094  16.9947456
   7.7053539  67.5130070  30.6390780   7.1978630  68.0665917  31.0831410
   7.4080185  67.5738360  29.8209554   7.5858424  67.6036382  30.5839237
   9.8715721  55.8783390  29.4815443  10.2970793  55.4255916  28.8698969
   9.2572714  55.3243461  29.7580230   9.8444367  55.7297366  29.4320468
   8.3109944  52.3498490  22.8906020   7.6678262  52.1996136  23.4591158
   7.9709351  52.1040835  22.1255124   8.1655021  52.2910612  22.8609035
  12.9009291  60.3057917  22.3136028  12.2300481  60.8487619  22.1849094
  13.5949041  60.7752772  22.0717723  12.9038158  60.4556188  22.2591556
  13.0637418  56.7613800  25.2226402  13.4165028  56.3343523  25.8972200
  12.2052220  56.6764644  25.3527478  12.9886863  56.6858541  25.3421412
   1.7621103  59.3921320  23.2809248   1.0433092  59.8085453  23.5482112
   2.1333465  59.9575559  22.7300886   1.7113035  59.5370601  23.2392055
  11.0620684  60.0249169  29.1711244  11.0418611  59.8432464  30.0246023
  11.1099885  60.8961187  29.1470827  11.0655325  60.1265707  29.2934539
   9.0067014  66.6136361  35.0959720   8.9662869  65.9686038  34.5104876
   9.8190332  66.5572978  35.4085132   9.1210167  66.5095328  35.0556670
   7.5367677  58.4319320  18.6182628   6.9432517  58.7536316  18.0667195
   7.5742955  57.5860415  18.4103734   7.4542067  58.3543648  18.5065399
  14.4961478  51.8832212  26.1510714  13.9892343  51.1761352  26.0831892
  15.2928912  51.5525401  26.2811791  14.5388717  51.7305363  26.1609709
  10.4125494  58.3898824  22.0484378  10.1839187  58.4131526  21.2062736
  10.6723570  57.5656291  22.1679388  10.4171682  58.2714904  21.9409576
   4.6944722  60.2433297  31.6509478   4.1823626  59.6354480  32.0094509
   4.5224219  60.9589890  32.1183454   4.5934359  60.2596597  31.7725702
   3.4670257  56.9275371  23.3438574   3.9427623  57.2892450  22.7088755
   2.9658856  57.5831838  23.6238716   3.4635616  57.0769559  23.2915314
  16.6981618  66.3997139  19.1351579  17.0815224  67.1488495  19.3649676
  15.9025731  66.6462958  18.8763568  16.6375400  66.5466833  19.1309152
   8.5713793  58.1657542  34.0911734   9.1285223  57.9371352  33.4590199
   8.2474858  58.9263208  33.8146946   8.6060203  58.2441379  33.9568231
   6.2896910  61.2525195  35.0563741   7.0408237  61.5676872  35.3703295
   6.4819487  61.0504366  34.2297662   6.4288324  61.2692577  34.9807136
   5.5096910  59.0716570  16.7111957   5.8895875  59.0896200  15.9263072
   4.7689506  59.5170559  16.5902805   5.4565747  59.1398345  16.5775526
  13.1382200  57.3798762  22.2987536  13.1376427  57.2247418  23.1571812
  12.9338380  58.2261749  22.2428922  13.1081978  57.4819382  22.4175476
  10.8623052  62.0596263  25.9523743  11.3576718  61.3419258  25.9127763
  10.0522828  61.7567061  25.8378230  10.8166946  61.9093910  25.9297469
  12.9274871  64.8099951  28.6400872  13.3529943  64.2874373  28.0871297
  12.5631791  65.4080788  28.1189495  12.9361474  64.8210178  28.4809882
   9.5153471  68.5234215  24.9702029   9.9864649  69.2374478  25.1392014
   9.8513649  67.9232965  25.5061899   9.6348586  68.5405679  25.0734405
  11.6030455  70.1335529  37.1494101  11.7127421  69.3444089  37.5050849
  11.9321352  70.0441465  36.3468439  11.6682861  70.0041381  37.0836492
   6.4322966  53.2961686  31.9260124   6.5650871  52.4992679  32.2541100
   6.8168118  53.8228089  32.5058400   6.5079294  53.2561602  32.0603627
  10.1527417  68.3152149  31.7329722   9.6048363  67.6910033  31.4649787
  10.6140446  68.5046421  31.0173801  10.1394626  68.2511200  31.5880153
   9.5055321  50.2192012  28.5241217   8.7001284  50.1089742  28.8409056
   9.3762056  50.3204468  27.6671083   9.3675454  50.2175682  28.4449258
  12.9621281  56.3837504  29.1180914  12.3784270  56.8846710  28.7058482
  13.2825575  55.8767060  28.4845237  12.9234457  56.3829339  28.9639421
   5.5016080  55.2978099  19.3939589   6.3231775  55.4676411  19.1521284
   5.0385731  55.4525360  18.6705887   5.5547243  55.3459832  19.2511233
   4.0911412  53.2920861  30.1738018   4.6355825  52.9511988  30.7642359
   4.1448348  54.1506322  30.3159302   4.1800532  53.3676120  30.2819891
   9.7185743  69.3203222  28.2639063  10.5384117  69.1766188  28.5255358
   9.4379821  69.9449421  28.8055501   9.7982487  69.3913574  28.3827002
  16.1174865  70.9122790  24.9525253  15.7878195  71.3633934  24.2828952
  15.4419867  70.8338954  25.4998259  15.9685302  70.9673926  24.9348476
  23.3251273  66.9008313  23.1974864  23.0104714  67.5911792  23.6295286
  22.8078215  66.8453096  22.4960364  23.2015743  66.9943202  23.1571813
  14.3230819  68.9735079  20.4348201  15.0776787  69.3413396  20.1965251
  14.1458354  69.3474633  21.2027380  14.4085298  69.0833267  20.5133089
  27.6165718  75.1229519  28.4795740  26.7794139  75.1931706  28.7143335
  27.5853949  75.1254014  27.6070042  27.4884000  75.1339746  28.3855288
  12.6787884  71.3805398  17.1326314  12.4963457  71.5977279  16.3067307
  13.5413497  71.4944411  17.1884928  12.7792473  71.4295296  17.0180801
  18.3587603  68.3831808  20.1675338  19.0873764  68.2047763  19.7213494
  18.4482496  69.2249888  20.3782516  18.4794265  68.4815687  20.1328855
  25.2973558  70.1872301  27.0639462  25.9399466  70.2570406  27.6501378
  25.5496579  69.5201524  26.5619004  25.4295690  70.0998650  27.0766742
  20.5324840  71.2809272  24.7750415  19.8281167  70.7918458  24.9334335
  20.5809815  71.2931747  23.9038860  20.4354892  71.2098920  24.6689755
  27.7355060  74.9616938  22.7951426  27.4791625  74.1496880  22.6049309
  28.5784374  74.9694505  22.5681613  27.8221086  74.8428936  22.7336243
  21.9158153  68.9016562  27.5327580  22.2968664  68.2194733  27.9195454
  21.1121437  68.6126164  27.3503245  21.8534614  68.7583611  27.5631636
  15.8749993  71.4070761  37.3990189  15.5603434  72.1770323  37.1359751
  15.5539926  70.8441017  36.8142416  15.7808912  71.4381029  37.2731539
  13.4281890  69.7961282  23.0136385  12.5604315  69.8683881  23.0793994
  13.7157094  70.5983361  23.2024360  13.3421638  69.9255429  23.0511151
  22.5514779  69.9439141  31.3447707  23.2968371  69.7548952  30.9311132
  22.1352083  70.4697379  30.7861563  22.5999753  69.9941287  31.2012280
  23.6305456  75.5544704  25.4057808  23.2870222  74.8335039  25.7565058
  23.7298498  75.3458555  24.5636166  23.5947499  75.4168907  25.3329488
  22.1496421  73.4736288  27.2817351  21.3107522  73.4997567  27.0455614
  22.2200788  74.1207024  27.8622697  22.0364815  73.5732414  27.3326468
  20.5965699  70.3721665  22.0144967  21.2992052  70.1729414  21.5364925
  20.3309888  69.5997608  22.3213810  20.6612332  70.2284631  21.9890408
  15.3594256  71.6356951  31.0675847  15.1677453  71.6512085  31.9175271
  16.2092852  71.8320625  31.0442502  15.4569978  71.6671302  31.1899142
  18.2698483  71.8312460  31.2747670  18.7271097  72.5636434  31.4020463
  18.3454811  71.4078925  32.0334926  18.3489453  71.8769698  31.4048747
  22.7425809  65.0102335  25.1441513  22.8609377  65.4678798  24.4108816
  22.5687984  64.2047596  24.8577731  22.7344980  64.9596107  24.9942447
  20.3188644  73.7553202  31.0972833  20.5330613  73.1164116  30.5436186
  19.7022543  74.1999026  30.6680694  20.2593973  73.7263345  30.9523264
  19.7103372  66.8653137  26.0860175  18.8396930  66.8391859  26.0393485
  19.9643714  66.6930330  25.2686021  19.6196933  66.8363281  25.9580312
  16.7352513  68.8759366  27.5433646  16.2191001  68.1839557  27.6685225
  16.1746442  69.5430143  27.4896244  16.5759026  68.8722624  27.5539712
  18.8044746  69.4152326  29.3726498  18.4176500  69.4401357  30.1540028
  18.3177684  68.8494005  28.9201015  18.6757255  69.3348077  29.4214402
  18.4701888  66.3019311  31.6636758  19.0995006  66.8379611  31.3857829
  18.6387751  66.2096670  32.5150324  18.5879683  66.3680674  31.7485286
  18.2715803  71.0890506  33.9363170  19.0989232  70.8175655  33.9921784
  18.2923649  71.8851348  34.2926988  18.3968653  71.1670260  33.9978353
  21.9625807  68.8355200  24.6322060  22.1675400  68.7677508  25.4779057
  21.6352231  69.6414021  24.5643237  21.9441054  68.9441140  24.7481715
  25.2159494  69.3886964  24.1124825  24.6033808  69.8757366  24.4978557
  25.3123669  68.7130455  24.6562477  25.1397392  69.3605273  24.2503684
  19.2178575  71.1449805  19.2122325  19.6722322  71.3160366  19.9370169
  19.6918621  70.5317916  18.8120101  19.3546895  71.0800690  19.2596086
  18.4771171  69.6442599  25.3499193  17.6307216  69.8165406  25.2240543
  18.4742303  68.8391942  25.6865022  18.3518321  69.5503627  25.3810320
  19.5469471  73.4217813  26.2161251  19.0729425  72.8959575  26.7266562
  19.9187607  72.8747286  25.6476113  19.5319360  73.2633810  26.2076399
  27.8111389  75.2621646  25.5797291  27.5721159  75.2217480  24.7418076
  27.9745290  76.1092798  25.7063012  27.8001692  75.3813731  25.4750773
  20.4955336  68.0186152  31.0180873  19.9995897  68.2149826  30.3272440
  21.2524398  68.4178820  30.8469675  20.5342160  68.1063886  30.8901010
  17.7658215  71.6928498  27.6084184  17.7900702  71.1588610  26.9196964
  18.0169689  71.1845807  28.2709774  17.8068134  71.5389402  27.6048829
  14.0459537  70.4199316  26.9889928  14.0857909  70.9208523  27.7024636
  13.2209202  70.5109710  26.7195851  13.9299063  70.5081132  27.0540466
  13.2757684  70.4268719  34.9220238  13.9010387  69.8830852  35.1949670
  12.8208164  69.9463636  34.3528028  13.3005945  70.2758200  34.8781832
  20.8448305  71.3968698  29.4815443  21.2703376  70.9441224  28.8698969
  20.2305298  70.8428769  29.7580230  20.8176950  71.2482674  29.4320468
  19.2842528  67.8683798  22.8906020  18.6410846  67.7181444  23.4591158
  18.9441935  67.6226143  22.1255124  19.1387605  67.8095920  22.8609035
  24.0370002  72.2799108  25.2226402  24.3897612  71.8528831  25.8972200
  23.1784803  72.1949952  25.3527478  23.9619446  72.2043849  25.3421412
  25.4694062  67.4017520  26.1510714  24.9624926  66.6946660  26.0831892
  26.2661495  67.0710709  26.2811791  25.5121301  67.2490671  26.1609709
  21.3858078  73.9084132  22.0484378  21.1571771  73.9316834  21.2062736
  21.6456154  73.0841599  22.1679388  21.3904266  73.7900212  21.9409576
  24.1114784  72.8984070  22.2987536  24.1109010  72.7432726  23.1571812
  23.9070964  73.7447057  22.2428922  24.0814562  73.0004690  22.4175476
  17.4055549  68.8146994  31.9260124  17.5383455  68.0177987  32.2541100
  17.7900702  69.3413397  32.5058400  17.4811878  68.7746910  32.0603627
  20.4787904  65.7377320  28.5241217  19.6733868  65.6275049  28.8409056
  20.3494640  65.8389776  27.6671083  20.3408037  65.7360990  28.4449258
  23.9353865  71.9022812  29.1180914  23.3516854  72.4032018  28.7058482
  24.2558159  71.3952368  28.4845237  23.8967040  71.9014647  28.9639421
  16.4748664  70.8163407  19.3939589  17.2964358  70.9861719  19.1521284
  16.0118315  70.9710668  18.6705887  16.5279826  70.8645140  19.2511233
  15.0643996  68.8106169  30.1738018  15.6088409  68.4697296  30.7642359
  15.1180932  69.6691630  30.3159302  15.1533115  68.8861428  30.2819891
   0.4478452  28.2337766  22.5235373   1.1545219  27.7389796  22.6522307
   0.6366387  28.6746847  21.7938031   0.5806357  28.2256116  22.4344418
   3.1665876  28.0174050  19.5650025   2.9304514  27.1862114  19.4462086
   3.8109105  27.9659657  20.1504870   3.2260547  27.8871738  19.6335919
   4.1902297  27.8018498  15.6278320   3.8848114  28.5346555  15.9891635
   3.4708513  27.3956428  15.3471106   4.0389639  27.8500231  15.6391457
   9.8904089  24.4411499  14.9546664   9.8228589  24.4607458  14.0849251
   9.8759751  25.2841826  15.1802335   9.8782845  24.5685234  14.8599141
   0.7902139  28.9727060  25.0917491   1.6037004  28.7012209  25.2522624
   0.6297105  28.6734600  24.2877687   0.8872087  28.8881986  24.9962897
   0.8577639  30.7253158  17.0045688   1.6470017  30.3742223  17.1247770
   1.0321237  31.5389547  16.7422322   0.9997921  30.7939016  16.9833556
   6.6070179  26.3611416  16.4742388   6.6653303  26.8098065  17.2202365
   5.9736647  26.7710229  16.0372468   6.5221474  26.4885151  16.5194937
   2.1643076  25.5479110  18.4442383   2.8877275  25.0951637  18.2653403
   1.8993038  25.8283776  17.6614711   2.2324349  25.5230079  18.3021098
   4.5978390  24.5105521  16.9472933   5.1896230  25.1502772  16.9791131
   5.0337384  23.8128558  17.2365000   4.7496821  24.5023872  16.9953765
   1.6493112  26.2292774  15.5740919   2.0748183  25.7067196  15.0211344
   1.2850031  26.8273612  15.0529542   1.6579714  26.2403001  15.4149928
   0.3248696  31.5528352  24.0834148   0.4345661  30.7636912  24.4390895
   0.6539592  31.4634288  23.2808486   0.3901101  31.4234205  24.0176539
  14.9117634  38.3960897   8.1621986  14.8811638  39.2505534   8.3340256
  15.5098983  38.0956190   8.7208130  14.9954792  38.4777394   8.2696789
   8.1117319  37.4836548  12.9174917   7.2555214  37.6445046  12.9684033
   8.1584973  36.6128612  12.9379978   7.9916430  37.3787350  12.9280983
  11.4211035  43.7523074  22.5235373  12.1277803  43.2575104  22.6522307
  11.6098971  44.1932155  21.7938031  11.5538941  43.7441424  22.4344418
   7.4887710  49.3938904  10.0508807   7.8727089  49.9625803   9.5113582
   7.4246851  48.6688414   9.5714623   7.5361137  49.3714367   9.9002669
  10.9569140  39.5428592  15.5606568  11.5025100  40.2213679  15.6200538
  10.8986016  39.4016053  14.7008150  11.0285054  39.6220594  15.4418629
   4.0743215  47.0317658  10.9474921   4.1753578  46.2218012  11.2572049
   3.4784960  46.9374604  10.3174599   4.0015753  46.8982686  10.9001159
  12.7334208  40.9713199   6.4340296  12.6173734  41.7220885   6.8632434
  13.5290095  40.7137152   6.6836383  12.8338798  41.0448046   6.5344388
   3.9143954  51.9495247  12.3489777   4.5581410  52.3908411  12.7385935
   4.2400210  51.1448673  12.2620036   4.0575783  51.8960442  12.3935254
   6.6666242  36.9623217   7.8044025   7.3646407  37.1411345   8.2965488
   6.9818575  36.4393556   7.1814415   6.8161579  36.9116989   7.7846035
   6.8554177  43.3493662   7.7923817   7.2947813  42.7410763   8.2378589
   6.7058840  42.9701035   7.0209282   6.8975643  43.2032133   7.7442984
   6.8611912  44.7892580  14.6449535   7.1435155  43.9943985  14.4236291
   7.5898072  45.2673167  14.6654596   7.0101476  44.7427177  14.6152550
   4.8393106  32.3315614  11.8865300   4.5096436  32.7826757  11.2168999
   4.1638107  32.2531777  12.4338306   4.6903542  32.3866749  11.8688523
  10.4563514  41.7020843   4.7454586  10.3714809  42.5581810   4.8904155
  10.9447897  41.4265167   5.4136745  10.5152411  41.7878165   4.8656667
  11.3881947  38.3205637   6.2452321  10.8593419  38.5365271   6.9049627
  11.9106967  39.0141776   6.1653290  11.3870400  38.4548774   6.3307920
  16.8430000  43.8951942  11.6185366  16.0127703  44.1062586  11.7818782
  16.7939252  43.0688996  11.3427649  16.7136736  43.8041548  11.6022731
   4.9039738  46.7255796  14.4533275   4.3866679  46.3663211  13.8494583
   5.6014129  46.2017971  14.4639341   4.9305319  46.5953484  14.3663534
   8.5603330  47.1750610  20.4149448   8.6486676  46.9876751  21.2627658
   8.9893042  46.5288040  20.0154295   8.6365432  47.0513618  20.4821200
   6.1273789  46.4581770  19.3967110   5.5644624  46.0454380  19.9206771
   6.8894813  46.3834676  19.8160254   6.1568238  46.3859171  19.5360111
   1.6869781  48.4479791  12.0003740   2.3890360  47.9331780  12.0576497
   1.6067264  48.7753943  12.8050616   1.7793541  48.4194017  12.1276533
  16.3383958  36.5422343  15.4135787  15.5012379  36.6124530  15.6483381
  16.3072189  36.5446837  14.5410089  16.2102241  36.5532570  15.3195335
   2.7348687  38.6855378  21.1284156   2.9069191  38.5761273  21.9769437
   3.2718045  39.3309784  20.8915348   2.8393691  38.7647380  21.2189252
   1.0120556  44.6386143  11.5089348   1.8509456  44.8709076  11.5563110
   1.0432325  43.7690455  11.4396384   1.1402274  44.5443090  11.5053993
   1.6373259  45.0587018  15.8102654   2.1771484  44.9158149  16.4806026
   0.9543206  45.4583769  16.1786680   1.6165413  45.0966689  15.9637076
  11.0614144  40.7378019  11.0047678  11.8171659  41.1709533  11.0436587
  11.1676469  40.0882789  11.5782314  11.1884315  40.7055503  11.0945704
  14.0994315  44.5651296  11.7550081  13.6629547  44.5688039  12.5109053
  13.7657231  45.2456795  11.3229659  13.9856935  44.6663752  11.8030914
   8.6723389  46.6059629  23.0793232   9.4563806  46.7190477  23.4448974
   8.4719984  45.7800766  23.2751917   8.7589414  46.5006349  23.1627618
  14.0191798  31.6065124  13.9979509  14.6617707  31.6763229  14.5841425
  14.2714819  30.9394347  13.4959051  14.1513930  31.5191473  14.0106788
   1.7909011  34.8165688  18.6104083   1.0980808  34.3462667  18.8564815
   2.4069338  34.5903992  19.1845790   1.7793541  34.7132819  18.7313236
   8.8293782  48.5169731  16.7259687   8.0309028  48.2769231  16.9833556
   9.2779794  48.5684124  17.4726735   8.7768394  48.4892122  16.8744611
  17.2338662  41.2832216  10.6469719  17.8955096  40.7222885  10.5465627
  16.5930074  40.7884247  10.9722410  17.2367529  41.1268625  10.6802059
  13.5203492  42.2997599  10.3881707  13.7559081  42.4442798   9.5608558
  13.6693056  43.0640007  10.7813221  13.5769296  42.4336653  10.3245311
   0.5149570  38.7831092  19.7530928   1.2389542  38.7684122  20.2395823
   0.6165706  39.4926447  19.2552897   0.6367779  38.8855795  19.7509715
  15.3493949  41.1399265   8.2251311  15.6802166  41.6726905   7.6191406
  15.9227037  41.1938152   8.8813262  15.4827628  41.2268833   8.2329093
   7.8894519  42.2630176  24.6179875   7.0967500  42.5773688  24.8032495
   8.0043446  42.4781645  23.7800660   7.7889930  42.3414013  24.5218210
  10.5625838  38.9864167   8.9074891  10.6572693  39.7253461   9.3614517
   9.9384682  38.5581643   9.3409456  10.4834868  39.0325488   9.0383039
   8.8178312  42.1650380  19.5565172   9.3917174  41.5277624  19.7113736
   8.7393116  42.1654462  18.6874830   8.8911547  42.0715491  19.4511583
   9.2543081  32.7002096  11.7090462   8.5499407  32.2111281  11.8674381
   9.3028055  32.7124570  10.8378907   9.1573132  32.6291744  11.6029802
   3.1476743  38.1511407  12.0951264   2.5726334  38.3103576  12.7315225
   2.7712419  37.5146817  11.6319715   3.0079555  38.0809220  12.1205823
   6.8150031  36.6234757  16.9543643   6.4264464  36.1988975  16.2995834
   6.1504730  36.8716906  17.4620669   6.6596959  36.5973478  16.9331511
  16.4573301  36.3809761   9.7291473  16.2009865  35.5689703   9.5389356
  17.3002614  36.3887329   9.5021660  16.5439326  36.2621759   9.6676290
  10.6376393  30.3209386  14.4667627  11.0186905  29.6387557  14.8535501
   9.8339677  30.0318988  14.2843291  10.5752855  30.1776434  14.4971683
   7.9188970  40.8533361   5.1520450   8.7329608  41.1448254   5.0403221
   7.8548111  40.1993224   4.5778743   8.0291709  40.7998556   5.0509287
  14.1398460  43.5359357  19.5650025  13.9037097  42.7047422  19.4462086
  14.7841689  43.4844965  20.1504870  14.1993131  43.4057045  19.6335919
   3.7896878  44.3254879  10.2792762   4.4270825  44.0866626  10.8244555
   4.2151949  44.5292038   9.5445922   3.9473044  44.3205889  10.2509919
   4.5968233  32.8263584  24.3330235   4.2821674  33.5963147  24.0699798
   4.2758166  32.2633840  23.7482462   4.5027152  32.8573852  24.2071585
  15.1634880  43.3203806  15.6278320  14.8580697  44.0531863  15.9891635
  14.4441096  42.9141736  15.3471106  15.0122223  43.3685539  15.6391457
   6.1718350  44.8027301  11.9586548   6.2457358  44.6402473  12.8128398
   6.9887856  44.9917491  11.7147030   6.3034708  44.8064044  12.0484574
  20.8636673  39.9596807  14.9546664  20.7961173  39.9792766  14.0849251
  20.8492335  40.8027134  15.1802335  20.8515429  40.0870542  14.8599141
  11.2733019  31.3631965  18.2787754  12.0186611  31.1741775  17.8651179
  10.8570324  31.8890203  17.7201610  11.3217993  31.4134110  18.1352327
  18.6495290  38.7341193  13.2293259  19.2003211  38.1009262  13.4690351
  18.6339405  39.2656586  13.9208763  18.7280486  38.7190141  13.3672117
   5.3017681  42.5679790  17.7753152   4.8029374  43.2795558  17.8538040
   6.1117905  42.8880457  17.7371314   5.3473787  42.7206639  17.7809720
   1.5645798  41.8302743  12.0215873   1.2759047  41.2040215  12.5561600
   2.4329146  41.7723031  12.0880553   1.6506050  41.7290288  12.1106827
  12.3523696  36.9737527  12.3397855  12.0088462  36.2527862  12.6905104
  12.4516739  36.7651378  11.4976213  12.3165739  36.8361730  12.2669535
  12.8136725  43.4363231   7.8821843  13.3794758  44.0956441   7.7980386
  12.1664629  43.7812929   8.3538245  12.8015482  43.5845172   7.9394599
   4.2284739  35.4260835  23.0715450   3.4184514  35.7318615  22.9605292
   4.7059425  36.1466417  23.1868034   4.1788218  35.5775436  23.0722521
   3.0876298  44.6406556  13.3198353   2.5657052  44.7806847  14.0050218
   3.4750319  43.8817220  13.5100471   3.0679999  44.5492080  13.4499430
   9.2843303  46.3802015   7.3058922   9.0429979  45.6469876   6.8985987
   9.4644636  46.9288872   6.6525255   9.2750927  46.3524406   7.1489145
   4.5142624  41.6710575   8.7179844   4.3185407  42.2785309   8.1240147
   4.7376970  40.9778519   8.2371518   4.5177265  41.6588100   8.5595925
   2.9121154  38.5565313   8.8360713   3.6343806  38.7206471   8.3764519
   2.4329147  39.2774978   8.7300052   2.9484885  38.6863542   8.7526327
  10.8714662  34.8929112  14.2157398  10.0325762  34.9190390  13.9795661
  10.9419029  35.5399847  14.7962744  10.7583055  34.9925237  14.2666514
   0.5628771  40.9623385  17.9414853   1.0749868  41.2407638  17.2923612
   0.2765113  41.7012679  18.3077666   0.5963634  41.1125739  17.9004731
   9.3183940  31.7914489   8.9485014  10.0210293  31.5922237   8.4704972
   9.0528129  31.0190431   9.2553857   9.3830572  31.6477455   8.9230455
  14.7472185  40.0997098  11.5018639  14.6606160  40.2552524  12.3553418
  14.2922665  40.7435174  11.1278044  14.6675442  40.2172853  11.5725746
   4.0812496  33.0549774  18.0015894   3.8895693  33.0704908  18.8515318
   4.9311092  33.2513448  17.9782549   4.1788218  33.0864125  18.1239189
   8.6198001  37.4207845  10.1244199   8.3732716  37.3403596  10.9580988
   8.9483124  36.6361313   9.9306726   8.6319245  37.2934111  10.2191722
  12.5146050  44.1291205  13.9130980  12.3760410  44.8272251  14.4179722
  11.7346048  43.9739861  13.5567162  12.3789277  44.2091371  13.9357254
  10.8524135  40.4287580  20.1653362  10.8472174  39.5567397  20.1695788
  11.5585129  40.6275749  19.6922818  10.9569139  40.3291454  20.0960397
   4.5795029  40.1564564  19.5367182   4.7238404  40.7365772  18.9010292
   4.9270677  40.5340861  20.2417037   4.6522490  40.2985268  19.5466177
   6.7514946  39.3554732  17.3192314   6.0038260  39.5485747  16.9140592
   6.9056471  38.5299952  17.0816435   6.6637374  39.2619844  17.2237719
   3.6522784  48.3467336  16.4028209   3.8012347  47.7870252  15.7501613
   4.4322786  48.4259338  16.7860728   3.7896877  48.2752901  16.3625158
  14.0099423  43.4869459   4.6747479  13.6306232  42.7006596   4.6676769
  13.3465669  44.0356316   4.5319124  13.8557898  43.4514283   4.6528276
   6.1776084  48.5181979  17.6812700   6.1019755  47.8490789  18.2363488
   6.1065943  49.2199767  18.1953366   6.1556691  48.5226886  17.8389548
   6.9916723  33.2505283  18.2087717   7.4489337  33.9829257  18.3360509
   7.0673052  32.8271748  18.9674973   7.0707693  33.2962521  18.3388794
  11.4644049  26.4295158  12.0781560  11.5827617  26.8871622  11.3448863
  11.2906225  25.6240420  11.7917778  11.4563220  26.3788930  11.9282494
   6.8346331  47.0382978   8.5136306   7.5996222  46.7692621   8.1918970
   6.7324421  46.5532988   9.2306368   6.9327827  46.9272542   8.5716133
   4.8699101  35.2407387  15.0529541   4.0795176  35.0598847  15.3746877
   5.2659724  34.4634340  15.0359836   4.8115977  35.0994848  15.0982090
  10.2542787  42.8749817  12.7788987   9.5787789  42.6435049  13.2802374
  10.2635163  42.2671000  12.1531092  10.1561292  42.7508742  12.7605139
   7.3836931  37.7167646  19.5353040   7.3196072  38.5777603  19.4073177
   7.5234119  37.3999639  18.7348592   7.3952401  37.7967813  19.3981253
  12.2559522  45.7314950   5.0099165  12.3379359  46.5381936   4.6860616
  12.7409264  45.7510909   5.7339939  12.3396680  45.8535612   5.0686064
   6.0656025  40.4099785  13.6769243   5.6418274  40.6104285  12.9408261
   5.8900880  39.5628633  13.7893543   5.9766906  40.3148567  13.5842933
   5.5667719  51.9250298  16.1390700   6.0563649  51.2261088  15.9566365
   4.9951951  51.6274168  16.7266758   5.5552249  51.7776522  16.1991741
   1.3538470  40.9051837   9.1097216   1.5103089  40.8398640   9.9653208
   1.6939063  41.6800389   8.8975895   1.4271705  41.0101035   9.2051810
   7.8917615  40.2809721   7.9790579   8.4333160  39.7780102   8.4429199
   8.2064174  40.2274915   7.1680064   8.0182012  40.1989141   7.9274391
  11.7634722  44.4912368  25.0917491  12.5769587  44.2197517  25.2522624
  11.6029689  44.1919908  24.2877687  11.8604671  44.4067294  24.9962897
   9.0406884  35.1746025  18.0312879   9.2548854  34.5356939  17.4776233
   8.4240783  35.6191849  17.6020741   8.9812213  35.1456169  17.8863310
  10.4511552  48.0964773   9.4767100  10.0591344  47.7931488   8.7589966
  10.6064624  48.9333863   9.2872054  10.4165142  48.1748610   9.3423597
  11.2045972  36.7835090  18.9696186  10.3922654  36.4760981  19.0509359
  11.6635907  36.3034090  19.5338899  11.1526357  36.6671583  19.0650781
  10.6151227  44.6614762   9.4173131  10.2565882  44.8329405  10.1937163
  10.1289938  45.1227968   8.8601129  10.4909924  44.7553733   9.4498400
   8.4321613  28.2845961  13.0200222   7.5615171  28.2584682  12.9733532
   8.6861954  28.1123153  12.2026068   8.3415173  28.2556104  12.8920359
   8.2999480  38.1895162  23.7524889   8.7699111  38.8137278  24.1392763
   8.3461360  37.5212137  24.3118103   8.3767355  38.1829842  23.8924960
   5.4570753  30.2952189  14.4773693   4.9409242  29.6032381  14.6025272
   4.8964682  30.9622966  14.4236291   5.2977267  30.2915447  14.4879759
   7.5262987  30.8345149  16.3066545   7.1394740  30.8594181  17.0880075
   7.0395924  30.2686828  15.8541062   7.3975496  30.7540900  16.3554449
  11.7755966  45.5518658  20.3640332  12.4135687  45.0578854  20.0302788
  11.1330058  45.4796059  19.7792558  11.7750193  45.4677667  20.2282687
  13.5012966  37.4007804  14.9306247  13.0740574  37.3134153  14.1754347
  12.8639019  37.5085580  15.5161091  13.3442574  37.4040464  14.9051689
   7.1920128  27.7212135  18.5976805   7.8213246  28.2572435  18.3197875
   7.3605991  27.6289494  19.4490371   7.3097923  27.7873497  18.6825333
   6.9934043  32.5083329  20.8703217   7.8207473  32.2368478  20.9261831
   7.0141889  33.3044171  21.2267035   7.1186893  32.5863084  20.9318399
  11.8310223  46.2438466  17.0045688  12.6202601  45.8927531  17.1247770
  12.0053821  47.0574855  16.7422322  11.9730504  46.3124324  16.9833556
   1.5703533  39.6547192  14.0573477   0.7291540  39.5551066  14.2652371
   1.7793541  40.4242672  14.4087798   1.4768226  39.7539235  14.1400792
  10.6844047  30.2548023  11.5662107  10.8893640  30.1870331  12.4119104
  10.3570471  31.0606844  11.4983284  10.6659295  30.3633964  11.6821762
   5.3820198  37.5828591  13.3071075   5.0783336  37.0284580  13.9081482
   4.6799619  37.7620801  12.8199109   5.2336408  37.5273374  13.3240780
   3.4438549  44.7978312  18.0143173   3.3358904  44.8080374  18.8805231
   3.6534331  45.6233092  17.8248126   3.4588660  44.9219387  18.1147264
  13.9377735  30.8079787  11.0464872  13.3252048  31.2950190  11.4318604
  14.0341910  30.1323278  11.5902523  13.8615632  30.7798096  11.1843730
   1.4612341  42.0490954  15.4765110   0.8700274  42.6900453  15.4468125
   2.2233365  42.4728572  15.4496410   1.4860602  42.2066793  15.4680257
   1.8572964  33.2092952  16.1433128   2.3174445  33.2831882  16.8808252
   1.9029071  34.0074206  15.7932949   1.9323519  33.3387099  16.2005884
   3.5056314  33.8759647  20.7105155   3.1141879  33.2292994  21.1460933
   3.6742176  34.4671082  21.3299410   3.4727224  33.8673915  20.8667861
  17.5802763  41.8796724  16.4742388  17.6385886  42.3283373  17.2202365
  16.9469230  42.2895537  16.0372468  17.4954058  42.0070459  16.5194937
  11.2201857  47.5000266  12.9097135  11.0221546  47.9891081  12.2153346
  10.5989568  47.7041508  13.4881268  11.0989422  47.6016804  12.8920358
   5.2809836  39.2685163   7.2507379   6.0251881  39.6559439   7.4890329
   5.4270532  38.4242588   7.4147867   5.4120421  39.2015636   7.3101349
   7.1989411  31.0635422  12.2839240   6.3525456  31.2358230  12.1580590
   7.1960544  30.2584766  12.6205069   7.0736561  30.9696451  12.3150367
   8.2687712  34.8410636  13.1501298   7.7947666  34.3152398  13.6606609
   8.6405847  34.2940109  12.5816160   8.2537600  34.6826633  13.1416445
  14.5324442  39.9013012  14.5608079  14.2922665  39.0619427  14.5650505
  15.0116449  39.9813179  15.2848852  14.5676626  39.7894412  14.6682881
  16.5329629  36.6814469  12.5137338  16.2939399  36.6410303  11.6758122
  16.6963530  37.5285621  12.6403059  16.5219933  36.8006554  12.4090820
  13.1375659  41.0664418  18.4442383  13.8609858  40.6136945  18.2653403
  12.8725622  41.3469084  17.6614711  13.2056933  41.0415387  18.3021098
   2.0062528  35.6624592  15.1795262   1.3815598  35.6742984  14.5721215
   1.6708122  36.1384767  15.8286502   1.8648019  35.7343109  15.1851831
   9.7508294  44.3050754   5.3436709  10.4742493  44.7708867   5.2001282
   9.3108885  44.3724364   4.5934306   9.7923986  44.3834591   5.2121490
   8.9194449  41.1648297  16.5937398   8.3051442  40.6206347  16.8886033
   9.4361734  40.6512533  16.1143214   8.9050111  41.0084706  16.5661626
   8.1590746  42.2352567  14.3281697   7.7318354  41.6102285  13.8947132
   8.1515690  41.9527488  15.1540704   8.0949887  42.1005347  14.3861524
   1.2753273  37.2717740  17.3970131   1.4346760  36.5161064  17.8021853
   1.0946167  37.8208679  18.0510868   1.2718632  37.2411553  17.5532837
   9.2173576  29.4378975  17.9520920   8.7214137  29.6342649  17.2612487
   9.9742638  29.8371644  17.7809722   9.2560401  29.5256709  17.8241057
   6.4876456  33.1121321  14.5424231   6.5118943  32.5781433  13.8537011
   6.7387929  32.6038630  15.2049821   6.5286374  32.9582225  14.5388875
   2.7677778  31.8392139  13.9229975   2.8076149  32.3401346  14.6364682
   1.9427442  31.9302533  13.6535898   2.6517304  31.9273956  13.9880513
   4.9507391  41.4052879  22.0250270   4.1003021  41.5424594  22.1607914
   5.1135518  40.6716658  22.4697971   4.8491254  41.3166981  22.1105869
   4.1892141  38.3552649  16.2203874   3.3584071  38.5226467  16.0139122
   4.1343658  37.9788600  17.0052759   4.0581556  38.3242381  16.3052402
   1.9975924  31.8461542  21.8560285   2.6228628  31.3023675  22.1289717
   1.5426404  31.3656460  21.2868075   2.0224185  31.6951023  21.8121878
  15.5710973  40.0290829  16.9472933  16.1628813  40.6688080  16.9791131
  16.0069968  39.3313866  17.2365000  15.7229404  40.0209180  16.9953765
   7.4004363  44.4508202  17.5730827   6.8929454  45.0044048  18.0171457
   7.1031009  44.5116491  16.7549601   7.2809248  44.5414513  17.5179283
   9.5666545  32.8161521  16.4155490   9.9921617  32.3634048  15.8039016
   8.9523538  32.2621592  16.6920277   9.5395191  32.6675497  16.3660515
  12.5960115  37.2436048   9.2476075  11.9251304  37.7865750   9.1189141
  13.2899865  37.7130903   9.0057770  12.5988982  37.3934319   9.1931603
   6.6446848  49.3832760  14.4787833   6.4212503  48.6251589  14.8471860
   6.1556692  49.4130781  13.7568273   6.5390297  49.2754984  14.4264574
  12.7588242  33.6991931  12.1566448  13.1115852  33.2721654  12.8312247
  11.9003044  33.6142775  12.2867525  12.6837687  33.6236672  12.2761459
   1.4571927  36.3299451  10.2149295   0.7383916  36.7463584  10.4822158
   1.8284289  36.8953690   9.6640933   1.4063859  36.4748733  10.1732102
  10.7571508  36.9627300  16.1051291  10.7369435  36.7810595  16.9586070
  10.8050709  37.8339319  16.0810874  10.7606149  37.0643838  16.2274585
   8.7017838  43.5514492  22.0299767   8.6613693  42.9064169  21.4444923
   9.5141156  43.4951109  22.3425179   8.8160991  43.4473459  21.9896716
   5.2925305  49.6033218  11.9324918   4.8785704  48.9407348  11.5428760
   5.9772679  49.7511077  11.4120612   5.3323677  49.5273876  11.7981415
   8.6590599  48.7623303  12.6848535   8.2606883  48.8725574  11.9169355
   8.0441819  48.9705369  13.2675094   8.5089489  48.8096871  12.6579834
  14.1912302  28.8210343  13.0850761  13.6843167  28.1139483  13.0171938
  14.9879736  28.4903532  13.2151837  14.2339541  28.6683495  13.0949756
  10.1076318  35.3276955   8.9824425   9.8790011  35.3509657   8.1402783
  10.3674394  34.5034423   9.1019435  10.1122506  35.2093035   8.8749622
   4.3895546  37.1811429  18.5849525   3.8774449  36.5732612  18.9434556
   4.2175043  37.8968021  19.0523501   4.2885183  37.1974728  18.7065749
   3.1621080  33.8653502  10.2778620   3.6378447  34.2270582   9.6428801
   2.6609680  34.5209969  10.5578763   3.1586439  34.0147691  10.2255361
  16.3932442  43.3375270   6.0691625  16.7766048  44.0866626   6.2989722
  15.5976555  43.5841090   5.8103614  16.3326224  43.4844964   6.0649199
   8.2664617  35.1035673  21.0251780   8.8236047  34.8749483  20.3930246
   7.9425682  35.8641339  20.7486993   8.3011027  35.1819510  20.8908278
   5.9847734  38.1903326  21.9903788   6.7359061  38.5055003  22.3043342
   6.1770311  37.9882497  21.1637709   6.1239148  38.2070708  21.9147183
  12.8333024  34.3176893   9.2327583  12.8327251  34.1625549  10.0911859
  12.6289204  35.1639880   9.1768969  12.8032802  34.4197514   9.3515522
  10.5573876  38.9974395  12.8863790  11.0527542  38.2797390  12.8467810
   9.7473652  38.6945192  12.7718277  10.5117769  38.8472041  12.8637516
  12.6225695  41.7478082  15.5740919  13.0480767  41.2252504  15.0211344
  12.2582615  42.3458920  15.0529542  12.6312298  41.7588309  15.4149928
   2.2579775  50.0442300  14.3338264   2.5726334  50.8578688  14.3416046
   2.6673188  49.6592518  15.0020423   2.3647873  50.1071002  14.4342356
   9.2104295  45.4612346  11.9042076   9.6815473  46.1752609  12.0732061
   9.5464473  44.8611097  12.4401946   9.3299410  45.4783811  12.0074452
  11.2981279  47.0713660  24.0834148  11.4078245  46.2822220  24.4390895
  11.6272176  46.9819596  23.2808486  11.3633685  46.9419513  24.0176539
   6.1273789  30.2339817  18.8600171   6.2601695  29.4370810  19.1881146
   6.5118942  30.7606220  19.4398446   6.2030118  30.1939734  18.9943674
   9.8478241  45.2530281  18.6669769   9.2999187  44.6288164  18.3989834
  10.3091270  45.4424553  17.9513848   9.8345450  45.1889331  18.5220200
   9.2006145  27.1570143  15.4581264   8.3952108  27.0467873  15.7749102
   9.0712880  27.2582599  14.6011130   9.0626278  27.1553813  15.3789305
  12.6572105  33.3215635  16.0520961  12.0735094  33.8224841  15.6398528
  12.9776399  32.8145191  15.4185284  12.6185281  33.3207470  15.8979468
   3.7862236  30.2298992  17.1078065   4.3306649  29.8890119  17.6982406
   3.8399172  31.0884454  17.2499349   3.8751356  30.3054251  17.2159938
   9.4136567  46.2581353  15.1979110  10.2334941  46.1144319  15.4595405
   9.1330645  46.8827552  15.7395548   9.4933311  46.3291705  15.3167049
  25.8850218  53.9146205   8.1621986  25.8544222  54.7690842   8.3340256
  26.4831566  53.6141498   8.7208130  25.9687375  53.9962701   8.2696789
  19.0849902  53.0021856  12.9174917  18.2287798  53.1630354  12.9684033
  19.1317556  52.1313920  12.9379978  18.9649014  52.8972658  12.9280983
  22.3943619  59.2708382  22.5235373  23.1010386  58.7760412  22.6522307
  22.5831554  59.7117463  21.7938031  22.5271525  59.2626732  22.4344418
  18.4620293  64.9124212  10.0508807  18.8459673  65.4811111   9.5113582
  18.3979434  64.1873722   9.5714623  18.5093720  64.8899675   9.9002669
  21.9301723  55.0613900  15.5606568  22.4757683  55.7398986  15.6200538
  21.8718600  54.9201361  14.7008150  22.0017638  55.1405902  15.4418629
  15.0475798  62.5502966  10.9474921  15.1486161  61.7403320  11.2572049
  14.4517544  62.4559912  10.3174599  14.9748337  62.4167994  10.9001159
  23.7066792  56.4898507   6.4340296  23.5906318  57.2406193   6.8632434
  24.5022679  56.2322460   6.6836383  23.8071382  56.5633354   6.5344388
  14.8876538  67.4680555  12.3489777  15.5313993  67.9093719  12.7385935
  15.2132793  66.6633981  12.2620036  15.0308367  67.4145750  12.3935254
  10.5430930  50.7408983  13.4711562   9.9235962  50.1501630  13.3021577
  10.4414794  51.3320418  12.8375885  10.4368606  50.7413066  13.3516552
  17.6398826  52.4808525   7.8044025  18.3378990  52.6596652   8.2965488
  17.9551158  51.9578864   7.1814415  17.7894163  52.4302297   7.7846035
  10.2700063  54.2861265  15.7155131  10.1458760  54.8723710  16.3504950
  10.9218348  53.7921461  16.0167406  10.3473712  54.3000069  15.8541060
  17.8286761  58.8678970   7.7923817  18.2680397  58.2596070   8.2378589
  17.6791424  58.4886343   7.0209282  17.8708227  58.7217441   7.7442984
  15.2958404  57.4622982  14.9942642  15.9407407  56.9695425  14.6753591
  15.5360181  57.6047768  15.8208720  15.4268989  57.4100424  15.0692175
  17.8344495  60.3077888  14.6449535  18.1167738  59.5129293  14.4236291
  18.5630656  60.7858475  14.6654596  17.9834059  60.2612485  14.6152550
  15.8125689  47.8500922  11.8865300  15.4829019  48.3012065  11.2168999
  15.1370691  47.7717085  12.4338306  15.6636126  47.9052057  11.8688523
  21.4296098  57.2206151   4.7454586  21.3447393  58.0767118   4.8904155
  21.9180481  56.9450475   5.4136745  21.4884995  57.3063473   4.8656667
  23.0202097  43.8386444  10.1314910  22.7055538  44.5289923  10.5635333
  22.5029039  43.7831227   9.4300411  22.8966567  43.9321333  10.0911860
  22.3614531  53.8390945   6.2452321  21.8326002  54.0550579   6.9049627
  22.8839551  54.5327084   6.1653290  22.3602984  53.9734082   6.3307920
  27.8162584  59.4137250  11.6185366  26.9860287  59.6247894  11.7818782
  27.7671836  58.5874304  11.3427649  27.6869319  59.3226856  11.6022731
  15.8772321  62.2441104  14.4533275  15.3599263  61.8848519  13.8494583
  16.5746713  61.7203278  14.4639341  15.9037902  62.1138792  14.3663534
  19.5335913  62.6935918  20.4149448  19.6219259  62.5062058  21.2627658
  19.9625626  62.0473348  20.0154295  19.6098016  62.5698926  20.4821200
  17.1006373  61.9767078  19.3967110  16.5377208  61.5639688  19.9206771
  17.8627397  61.9019984  19.8160254  17.1300822  61.9044479  19.5360111
  18.7091353  53.9819814   3.5228710  18.9487357  54.1897798   2.7104053
  19.0307194  53.1777323   3.6317654  18.7928511  53.8933915   3.4189263
  14.0181643  45.9113210   7.3688248  14.7727611  46.2791527   7.1305298
  13.8409178  46.2852764   8.1367427  14.1036122  46.0211398   7.4473136
  12.6602365  63.9665099  12.0003740  13.3622944  63.4517088  12.0576497
  12.5799848  64.2939251  12.8050616  12.7526125  63.9379325  12.1276533
  27.3116542  52.0607650  15.4135787  26.4744963  52.1309838  15.6483381
  27.2804773  52.0632145  14.5410089  27.1834824  52.0717878  15.3195335
  13.7081271  54.2040686  21.1284156  13.8801775  54.0946581  21.9769437
  14.2450629  54.8495092  20.8915348  13.8126275  54.2832688  21.2189252
  12.3738708  48.3183529   4.0666361  12.1914281  48.5355410   3.2407353
  13.2364321  48.4322542   4.1224975  12.4743297  48.3673427   3.9520848
  11.9853140  60.1571451  11.5089348  12.8242039  60.3894384  11.5563110
  12.0164909  59.2875763  11.4396384  12.1134858  60.0628398  11.5053993
  12.6105843  60.5772326  15.8102654  13.1504068  60.4343457  16.4806026
  11.9275789  60.9769077  16.1786680  12.5897997  60.6151997  15.9637076
  18.0538427  45.3209940   7.1015384  18.7824588  45.1425895   6.6553541
  18.1433320  46.1628019   7.3122563  18.1745089  45.4193818   7.0668902
  22.0346728  56.2563327  11.0047678  22.7904243  56.6894841  11.0436587
  22.1409052  55.6068097  11.5782314  22.1616898  56.2240811  11.0945704
  25.0726899  60.0836604  11.7550081  24.6362131  60.0873347  12.5109053
  24.7389814  60.7642103  11.3229659  24.9589519  60.1849060  11.8030914
  19.6455973  62.1244937  23.0793232  20.4296389  62.2375785  23.4448974
  19.4452567  61.2986074  23.2751917  19.7321998  62.0191657  23.1627618
   8.0142988  56.7972617  15.9637076   7.7481403  55.9811734  16.1228066
   8.0281552  56.8425773  15.0932591   7.9767710  56.6829522  15.8590557
  24.9924382  47.1250432  13.9979509  25.6350290  47.1948537  14.5841425
  25.2447403  46.4579655  13.4959051  25.1246514  47.0376781  14.0106788
  12.7641594  50.3350995  18.6104083  12.0713391  49.8647975  18.8564815
  13.3801922  50.1089300  19.1845790  12.7526124  50.2318127  18.7313236
  19.8026366  64.0355039  16.7259687  19.0041612  63.7954539  16.9833556
  20.2512377  64.0869432  17.4726735  19.7500977  64.0077430  16.8744611
  28.2071245  56.8017524  10.6469719  28.8687679  56.2408193  10.5465627
  27.5662657  56.3069555  10.9722410  28.2100113  56.6453933  10.6802059
   8.4236402  57.5831397  13.2448820   8.2411975  57.5578283  12.3921112
   9.1586071  58.0530334  13.2837729   8.5050466  57.6492759  13.1246738
  24.4936076  57.8182907  10.3881707  24.7291665  57.9628105   9.5608558
  24.6425639  58.5825315  10.7813221  24.5501879  57.9521961  10.3245311
  11.4882153  54.3016399  19.7530928  12.2122126  54.2869430  20.2395823
  11.5898290  55.0111755  19.2552897  11.6100362  54.4041103  19.7509715
  26.3226533  56.6584572   8.2251311  26.6534750  57.1912213   7.6191406
  26.8959621  56.7123460   8.8813262  26.4560212  56.7454141   8.2329093
  18.8627103  57.7815484  24.6179875  18.0700084  58.0958996  24.8032495
  18.9776030  57.9966952  23.7800660  18.7622513  57.8599321  24.5218210
  21.5358422  54.5049475   8.9074891  21.6305276  55.2438769   9.3614517
  20.9117265  54.0766951   9.3409456  21.4567452  54.5510796   9.0383039
  19.7910896  57.6835688  19.5565172  20.3649757  57.0462932  19.7113736
  19.7125699  57.6839770  18.6874830  19.8644130  57.5900799  19.4511583
   8.3907312  54.4624897  13.3947886   8.9680815  54.3261348  14.0340132
   7.6921374  54.0060681  13.6493471   8.3728333  54.3747163  13.5270176
  21.7881443  56.3498215   2.1411843  21.7061606  56.4200402   3.0066830
  22.4261163  56.9127959   1.9495584  21.8701280  56.4437186   2.2401793
  15.1474614  56.1158953  11.6086370  14.8893858  55.2830688  11.5817669
  15.2023097  56.3416566  10.7678870  15.1174392  56.0256724  11.4806506
  20.2275664  48.2187404  11.7090462  19.5231991  47.7296589  11.8674381
  20.2760639  48.2309878  10.8378907  20.1305716  48.1477052  11.6029802
  14.1209326  53.6696715  12.0951264  13.5458918  53.8288884  12.7315225
  13.7445003  53.0332125  11.6319715  13.9812139  53.5994528  12.1205823
  17.7882615  52.1420065  16.9543643  17.3997048  51.7174282  16.2995834
  17.1237313  52.3902214  17.4620669  17.6329543  52.1158786  16.9331511
  27.4305884  51.8995069   9.7291473  27.1742449  51.0875011   9.5389356
  28.2735198  51.9072637   9.5021660  27.5171910  51.7807067   9.6676290
  21.6108977  45.8394693  14.4667627  21.9919488  45.1572865  14.8535501
  20.8072261  45.5504296  14.2843291  21.5485438  45.6961742  14.4971683
  18.8921553  56.3718669   5.1520450  19.7062192  56.6633562   5.0403221
  18.8280694  55.7178532   4.5778743  19.0024292  56.3183864   5.0509287
  25.1131043  59.0544665  19.5650025  24.8769681  58.2232730  19.4462086
  25.7574272  59.0030273  20.1504870  25.1725714  58.9242353  19.6335919
  14.7629461  59.8440187  10.2792762  15.4003408  59.6051934  10.8244555
  15.1884533  60.0477346   9.5445922  14.9205628  59.8391197  10.2509919
   9.4542104  62.0828523  14.1627066   9.4946249  62.3543374  13.3346845
  10.0136628  62.6070431  14.5784853   9.5425450  62.2004278  14.1018954
  15.5700817  48.3448892  24.3330235  15.2554258  49.1148454  24.0699798
  15.2490749  47.7819148  23.7482462  15.4759736  48.3759160  24.2071585
  26.1367464  58.8389114  15.6278320  25.8313281  59.5717171  15.9891635
  25.4173680  58.4327044  15.3471106  25.9854806  58.8870847  15.6391457
  17.1450933  60.3212609  11.9586548  17.2189942  60.1587781  12.8128398
  17.9620440  60.5102799  11.7147030  17.2767292  60.3249352  12.0484574
  31.8369256  55.4782115  14.9546664  31.7693756  55.4978074  14.0849251
  31.8224919  56.3212442  15.1802335  31.8248013  55.6055850  14.8599141
  13.1232714  46.7339413   9.9476432  12.2555139  46.8062013  10.0134041
  13.4107918  47.5361492  10.1364407  13.0372462  46.8633560   9.9851198
  22.2465603  46.8817273  18.2787754  22.9919195  46.6927083  17.8651179
  21.8302907  47.4075511  17.7201610  22.2950577  46.9319418  18.1352327
  29.6227873  54.2526501  13.2293259  30.1735795  53.6194570  13.4690351
  29.6071989  54.7841894  13.9208763  29.7013070  54.2375449  13.3672117
  16.2750264  58.0865098  17.7753152  15.7761958  58.7980866  17.8538040
  17.0850489  58.4065765  17.7371314  16.3206371  58.2391947  17.7809720
  12.5378382  57.3488051  12.0215873  12.2491631  56.7225523  12.5561600
  13.4061730  57.2908339  12.0880553  12.6238634  57.2475596  12.1106827
  23.3256280  52.4922835  12.3397855  22.9821046  51.7713170  12.6905104
  23.4249322  52.2836686  11.4976213  23.2898323  52.3547038  12.2669535
  23.7869309  58.9548539   7.8821843  24.3527341  59.6141749   7.7980386
  23.1397212  59.2998237   8.3538245  23.7748065  59.1030480   7.9394599
  15.2017322  50.9446143  23.0715450  14.3917098  51.2503922  22.9605292
  15.6792009  51.6651725  23.1868034  15.1520801  51.0960744  23.0722521
  14.0608882  60.1591864  13.3198353  13.5389635  60.2992155  14.0050218
  14.4482902  59.4002528  13.5100471  14.0412583  60.0677388  13.4499430
  11.0500066  50.2097672   7.3893308  10.7624862  49.8398943   6.6525255
  11.7370534  50.6792528   7.1277013  11.1088963  50.2244642   7.2408384
  20.2575887  61.8987323   7.3058922  20.0162563  61.1655184   6.8985987
  20.4377220  62.4474180   6.6525255  20.2483511  61.8709714   7.1489145
  15.4875208  57.1895883   8.7179844  15.2917990  57.7970617   8.1240147
  15.7109553  56.4963827   8.2371518  15.4909849  57.1773408   8.5595925
  13.8853738  54.0750621   8.8360713  14.6076389  54.2391779   8.3764519
  13.4061730  54.7960286   8.7300052  13.9217468  54.2048850   8.7526327
  21.8447245  50.4114419  14.2157398  21.0058346  50.4375698  13.9795661
  21.9151612  51.0585155  14.7962744  21.7315639  50.5110545  14.2666514
  11.5361354  56.4808693  17.9414853  12.0482451  56.7592946  17.2923612
  11.2497697  57.2197987  18.3077666  11.5696217  56.6311047  17.9004731
  20.2916523  47.3099797   8.9485014  20.9942876  47.1107545   8.4704972
  20.0260712  46.5375739   9.2553857  20.3563156  47.1662763   8.9230455
  25.7204769  55.6182406  11.5018639  25.6338743  55.7737832  12.3553418
  25.2655249  56.2620482  11.1278044  25.6408026  55.7358161  11.5725746
   8.6228261  50.9878885   8.2378589   8.7244397  51.7905046   8.5659564
   9.4184147  50.7866221   7.9401670   8.7556166  51.0764784   8.2413944
  15.0545080  48.5735082  18.0015894  14.8628277  48.5890216  18.8515318
  15.9043676  48.7698756  17.9782549  15.1520802  48.6049433  18.1239189
   9.4391993  51.1026063  15.9799711   9.2977484  50.2510004  16.1044219
   9.7232556  51.1454724  15.1561917   9.4599839  50.9825813  15.8767335
  19.5930585  52.9393153  10.1244199  19.3465299  52.8588904  10.9580988
  19.9215708  52.1546621   9.9306726  19.6051829  52.8119419  10.2191722
  23.4878634  59.6476513  13.9130980  23.3492993  60.3457558  14.4179722
  22.7078632  59.4925169  13.5567162  23.3521861  59.7276679  13.9357254
  21.8256719  55.9472888  20.1653362  21.8204757  55.0752705  20.1695788
  22.5317713  56.1461057  19.6922818  21.9301723  55.8476762  20.0960397
  15.5527612  55.6749872  19.5367182  15.6970988  56.2551080  18.9010292
  15.9003261  56.0526169  20.2417037  15.6255074  55.8170576  19.5466177
  17.7247530  54.8740040  17.3192314  16.9770844  55.0671055  16.9140592
  17.8789055  54.0485260  17.0816435  17.6369957  54.7805152  17.2237719
  14.6255367  63.8652644  16.4028209  14.7744931  63.3055560  15.7501613
  15.4055369  63.9444645  16.7860728  14.7629461  63.7938209  16.3625158
  24.9832007  59.0054766   4.6747479  24.6038815  58.2191904   4.6676769
  24.3198252  59.5541623   4.5319124  24.8290481  58.9699590   4.6528276
  17.1508668  64.0367287  17.6812700  17.0752339  63.3676097  18.2363488
  17.0798527  64.7385075  18.1953366  17.1289275  64.0412194  17.8389548
  17.9649307  48.7690591  18.2087717  18.4221921  49.5014565  18.3360509
  18.0405635  48.3457056  18.9674973  18.0440277  48.8147829  18.3388794
  10.2082298  49.0156411  19.2977161   9.6724487  48.4036769  19.6137928
  10.2700063  49.5904547  19.9510828  10.1377931  49.0103339  19.4412588
  22.4376633  41.9480466  12.0781560  22.5560201  42.4056930  11.3448863
  22.2638808  41.1425727  11.7917778  22.4295804  41.8974238  11.9282494
  17.8078915  62.5568286   8.5136306  18.5728806  62.2877929   8.1918970
  17.7057005  62.0718296   9.2306368  17.9060410  62.4457850   8.5716133
  15.8431685  50.7592695  15.0529541  15.0527759  50.5784155  15.3746877
  16.2392307  49.9819648  15.0359836  15.7848561  50.6180156  15.0982090
  21.2275371  58.3935125  12.7788987  20.5520373  58.1620357  13.2802374
  21.2367747  57.7856308  12.1531092  21.1293875  58.2694050  12.7605139
  18.3569515  53.2352954  19.5353040  18.2928656  54.0962911  19.4073177
  18.4966703  52.9184947  18.7348592  18.3684985  53.3153121  19.3981253
  23.2292105  61.2500258   5.0099165  23.3111943  62.0567244   4.6860616
  23.7141848  61.2696217   5.7339939  23.3129263  61.3720920   5.0686064
  17.0388609  55.9285093  13.6769243  16.6150858  56.1289592  12.9408261
  16.8633464  55.0813941  13.7893543  16.9499489  55.8333875  13.5842933
  16.5400302  67.4435606  16.1390700  17.0296233  66.7446396  15.9566365
  15.9684534  67.1459476  16.7266758  16.5284832  67.2961830  16.1991741
  12.3271054  56.4237145   9.1097216  12.4835673  56.3583948   9.9653208
  12.6671647  57.1985697   8.8975895  12.4004289  56.5286343   9.2051810
  18.8650198  55.7995028   7.9790579  19.4065744  55.2965410   8.4429199
  19.1796757  55.7460223   7.1680064  18.9914595  55.7174449   7.9274391
  22.7367306  60.0097676  25.0917491  23.5502171  59.7382825  25.2522624
  22.5762272  59.7105216  24.2877687  22.8337254  59.9252602  24.9962897
  20.0139468  50.6931333  18.0312879  20.2281437  50.0542247  17.4776233
  19.3973367  51.1377157  17.6020741  19.9544797  50.6641477  17.8863310
  21.4244136  63.6150081   9.4767100  21.0323927  63.3116796   8.7589966
  21.5797208  64.4519171   9.2872054  21.3897725  63.6933918   9.3423597
   8.9005315  53.6072095   9.4257983   9.2804280  54.0256640   8.7618250
   8.3260680  54.1885551   9.7326826   8.8716640  53.7549954   9.3734724
  22.1778556  52.3020398  18.9696186  21.3655237  51.9946289  19.0509359
  22.6368490  51.8219398  19.5338899  22.1258940  52.1856891  19.0650781
  21.5883810  60.1800070   9.4173131  21.2298465  60.3514713  10.1937163
  21.1022521  60.6413276   8.8601129  21.4642507  60.2739041   9.4498400
  19.4054196  43.8031269  13.0200222  18.5347754  43.7769990  12.9733532
  19.6594538  43.6308461  12.2026068  19.3147756  43.7741412  12.8920359
  19.2732063  53.7080470  23.7524889  19.7431694  54.3322586  24.1392763
  19.3193943  53.0397445  24.3118103  19.3499939  53.7015150  23.8924960
  16.4303337  45.8137497  14.4773693  15.9141825  45.1217689  14.6025272
  15.8697266  46.4808274  14.4236291  16.2709850  45.8100755  14.4879759
  18.4995570  46.3530457  16.3066545  18.1127323  46.3779489  17.0880075
  18.0128508  45.7872136  15.8541062  18.3708079  46.2726208  16.3554449
  22.7488550  61.0703966  20.3640332  23.3868270  60.5764162  20.0302788
  22.1062641  60.9981367  19.7792558  22.7482776  60.9862975  20.2282687
  24.4745550  52.9193112  14.9306247  24.0473158  52.8319461  14.1754347
  23.8371603  53.0270888  15.5161091  24.3175157  52.9225772  14.9051689
  18.1652712  43.2397443  18.5976805  18.7945830  43.7757743  18.3197875
  18.3338575  43.1474802  19.4490371  18.2830507  43.3058805  18.6825333
  17.9666627  48.0268637  20.8703217  18.7940056  47.7553786  20.9261831
  17.9874473  48.8229479  21.2267035  18.0919477  48.1048392  20.9318399
  22.8042806  61.7623774  17.0045688  23.5935185  61.4112839  17.1247770
  22.9786404  62.5760163  16.7422322  22.9463088  61.8309631  16.9833556
  12.5436117  55.1732500  14.0573477  11.7024123  55.0736374  14.2652371
  12.7526125  55.9427980  14.4087798  12.4500809  55.2724543  14.1400792
  10.0211684  52.7952037  11.8858228   9.6268381  52.8695049  11.1108338
   9.4651801  53.1809983  12.4366590   9.8814496  52.8633812  11.8525888
  21.6576631  45.7733331  11.5662107  21.8626224  45.7055639  12.4119104
  21.3303054  46.5792152  11.4983284  21.6391878  45.8819271  11.6821762
  16.3552782  53.1013899  13.3071075  16.0515919  52.5469888  13.9081482
  15.6532202  53.2806109  12.8199109  16.2068991  53.0458682  13.3240780
  15.4118879  50.4114419   7.8715777  15.6878613  49.6933332   7.4593344
  16.0117548  51.0099339   7.6636883  15.5412143  50.3934790   7.7796538
  14.4171133  60.3163620  18.0143173  14.3091488  60.3265682  18.8805231
  14.6266914  61.1418400  17.8248126  14.4321244  60.4404695  18.1147264
  24.9110318  46.3265095  11.0464872  24.2984632  46.8135497  11.4318604
  25.0074493  45.6508586  11.5902523  24.8348216  46.2983404  11.1843730
  18.9129399  48.0827936   6.1462372  19.3673146  48.2538497   6.8710216
  19.3869445  47.4696047   5.7460147  19.0497719  48.0178822   6.1936133
  12.4344925  57.5676262  15.4765110  11.8432858  58.2085761  15.4468125
  13.1965948  57.9913880  15.4496410  12.4593185  57.7252101  15.4680257
  12.8305547  48.7278260  16.1433128  13.2907029  48.8017190  16.8808252
  12.8761654  49.5259514  15.7932949  12.9056103  48.8572407  16.2005884
  14.4788897  49.3944955  20.7105155  14.0874462  48.7478302  21.1460933
  14.6474760  49.9856390  21.3299410  14.4459807  49.3859223  20.8667861
  28.5535346  57.3982032  16.4742388  28.6118470  57.8468681  17.2202365
  27.9201814  57.8080845  16.0372468  28.4686641  57.5255767  16.5194937
  22.1934441  63.0185574  12.9097135  21.9954130  63.5076388  12.2153346
  21.5722152  63.2226815  13.4881268  22.0722005  63.1202112  12.8920358
  16.2542419  54.7870471   7.2507379  16.9984464  55.1744747   7.4890329
  16.4003115  53.9427896   7.4147867  16.3853004  54.7200944   7.3101349
  18.1721995  46.5820730  12.2839240  17.3258040  46.7543537  12.1580590
  18.1693127  45.7770073  12.6205069  18.0469145  46.4881759  12.3150367
  19.2420295  50.3595944  13.1501298  18.7680249  49.8337706  13.6606609
  19.6138431  49.8125417  12.5816160  19.2270184  50.2011941  13.1416445
   9.6193325  52.3567451  18.5184844  10.4818938  52.2563160  18.4322174
   9.2885108  51.7762160  17.9570416   9.6978522  52.2559078  18.4230250
  25.5057026  55.4198320  14.5608079  25.2655249  54.5804735  14.5650505
  25.9849033  55.4998486  15.2848852  25.5409209  55.3079719  14.6682881
  21.1703795  51.2532499   6.2127052  20.6426813  51.3361243   5.5232761
  21.6299503  51.9950370   6.2091697  21.1605645  51.3753161   6.1101747
  27.5062213  52.1999777  12.5137338  27.2671983  52.1595611  11.6758122
  27.6696114  53.0470929  12.6403059  27.4952516  52.3191862  12.4090820
  24.1108243  56.5849726  18.4442383  24.8342442  56.1322253  18.2653403
  23.8458205  56.8654392  17.6614711  24.1789516  56.5600695  18.3021098
  12.9795111  51.1809900  15.1795262  12.3548181  51.1928292  14.5721215
  12.6440706  51.6570075  15.8286502  12.8380603  51.2528417  15.1851831
   9.6920787  59.2410360  16.6199026   9.1620711  58.5502799  16.6694001
   9.9645880  59.2320545  15.7911735   9.6545509  59.1377492  16.5046442
  20.7240877  59.8236062   5.3436709  21.4475076  60.2894175   5.2001282
  20.2841468  59.8909672   4.5934306  20.7656569  59.9019899   5.2121490
  19.8927032  56.6833605  16.5937398  19.2784025  56.1391655  16.8886033
  20.4094317  56.1697841  16.1143214  19.8782695  56.5270014  16.5661626
  19.1323329  57.7537875  14.3281697  18.7050938  57.1287593  13.8947132
  19.1248274  57.4712796  15.1540704  19.0682471  57.6190655  14.3861524
  12.2485857  52.7903048  17.3970131  12.4079343  52.0346372  17.8021853
  12.0678750  53.3393987  18.0510868  12.2451216  52.7596861  17.5532837
  20.1906160  44.9564283  17.9520920  19.6946721  45.1527957  17.2612487
  20.9475222  45.3556951  17.7809722  20.2292984  45.0442017  17.8241057
  17.4609039  48.6306629  14.5424231  17.4851526  48.0966741  13.8537011
  17.7120513  48.1223938  15.2049821  17.5018958  48.4767533  14.5388875
  13.7410361  47.3577447  13.9229975  13.7808733  47.8586654  14.6364682
  12.9160026  47.4487841  13.6535898  13.6249887  47.4459264  13.9880513
  15.9239974  56.9238187  22.0250270  15.0735605  57.0609902  22.1607914
  16.0868102  56.1901966  22.4697971  15.8223838  56.8352289  22.1105869
  15.1624725  53.8737957  16.2203874  14.3316654  54.0411775  16.0139122
  15.1076242  53.4973908  17.0052759  15.0314140  53.8427688  16.3052402
  12.9708508  47.3646850  21.8560285  13.5961211  46.8208983  22.1289717
  12.5158988  46.8841768  21.2868075  12.9956769  47.2136331  21.8121878
  13.5360769  52.1493549   6.7493992  13.6763730  52.6466013   7.4522633
  14.0343301  51.4479843   6.8908205  13.6301850  52.1195527   6.8745571
  26.5443557  55.5476137  16.9472933  27.1361397  56.1873388  16.9791131
  26.9802551  54.8499174  17.2365000  26.6961988  55.5394487  16.9953765
  15.1439974  48.9474635   4.0532010  15.4655815  48.4677718   3.3991273
  15.4066918  49.7574281   3.8622822  15.2305999  48.9964533   3.9287503
  18.3736947  59.9693509  17.5730827  17.8662038  60.5229356  18.0171457
  18.0763593  60.0301799  16.7549601  18.2541832  60.0599821  17.5179283
  20.5399129  48.3346829  16.4155490  20.9654200  47.8819356  15.8039016
  19.9256122  47.7806900  16.6920277  20.5127774  48.1860805  16.3660515
  18.9793352  44.8061929   9.8246067  18.3361670  44.6559575  10.3931205
  18.6392759  44.5604274   9.0595171  18.8338429  44.7474051   9.7949082
  23.5692698  52.7621356   9.2476075  22.8983888  53.3051058   9.1189141
  24.2632448  53.2316211   9.0057770  23.5721566  52.9119627   9.1931603
  17.6179432  64.9018068  14.4787833  17.3945086  64.1436897  14.8471860
  17.1289275  64.9316089  13.7568273  17.5122881  64.7940292  14.4264574
  23.7320826  49.2177239  12.1566448  24.0848436  48.7906962  12.8312247
  22.8735627  49.1328083  12.2867525  23.6570270  49.1421980  12.2761459
  12.4304511  51.8484759  10.2149295  11.7116500  52.2648892  10.4822158
  12.8016873  52.4138998   9.6640933  12.3796442  51.9934040  10.1732102
  21.7304091  52.4812608  16.1051291  21.7102019  52.2995903  16.9586070
  21.7783292  53.3524626  16.0810874  21.7338732  52.5829146  16.2274585
  19.6750421  59.0699800  22.0299767  19.6346276  58.4249477  21.4444923
  20.4873740  59.0136417  22.3425179  19.7893575  58.9658767  21.9896716
  16.2657889  65.1218526  11.9324918  15.8518287  64.4592656  11.5428760
  16.9505263  65.2696385  11.4120612  16.3056261  65.0459184  11.7981415
  19.6323183  64.2808611  12.6848535  19.2339466  64.3910881  11.9169355
  19.0174403  64.4890677  13.2675094  19.4822072  64.3282179  12.6579834
  18.2051085  50.8882759   5.5522674  17.6115924  51.2099755   5.0007241
  18.2426363  50.0423854   5.3443781  18.1225474  50.8107087   5.4405446
  25.1644886  44.3395651  13.0850761  24.6575750  43.6324791  13.0171938
  25.9612319  44.0088840  13.2151837  25.2072125  44.1868803  13.0949756
  21.0808902  50.8462263   8.9824425  20.8522595  50.8694965   8.1402783
  21.3406978  50.0219730   9.1019435  21.0855090  50.7278343   8.8749622
  15.3628130  52.6996736  18.5849525  14.8507033  52.0917919  18.9434556
  15.1907626  53.4153329  19.0523501  15.2617767  52.7160036  18.7065749
  10.2093845  51.1434312  21.2351887  10.0396435  51.8035687  20.6900093
   9.7659795  51.3540873  21.9564376  10.1193178  51.2720294  21.2613516
  14.1353664  49.3838810  10.2778620  14.6111030  49.7455890   9.6428801
  13.6342264  50.0395277  10.5578763  14.1319023  49.5332998  10.2255361
  27.3665026  58.8560578   6.0691625  27.7498631  59.6051934   6.2989722
  26.5709139  59.1026397   5.8103614  27.3058808  59.0030272   6.0649199
  19.2397200  50.6220981  21.0251780  19.7968630  50.3934791  20.3930246
  18.9158265  51.3826647  20.7486993  19.2743611  50.7004818  20.8908278
   7.1095909  54.0481177  16.4940376   6.5622629  53.3781823  16.6121245
   7.8988287  53.6811025  16.5583844   7.1448093  53.8946164  16.5209077
  16.9580318  53.7088634  21.9903788  17.7091645  54.0240311  22.3043342
  17.1502894  53.5067805  21.1637709  17.0971732  53.7256016  21.9147183
  16.1780317  51.5280010   3.6452004  16.5579282  51.5459639   2.8603119
  15.4372913  51.9733998   3.5242852  16.1249155  51.5961784   3.5115572
  23.8065608  49.8362201   9.2327583  23.8059834  49.6810857  10.0911859
  23.6021788  50.6825188   9.1768969  23.7765386  49.9382821   9.3515522
   5.8682879  53.2601985  13.6486400   5.6904640  52.8078594  14.3741315
   5.5801901  54.0628147  13.8324877   5.7995832  53.3124543  13.7829902
  21.5306460  54.5159703  12.8863790  22.0260125  53.7982698  12.8467810
  20.7206236  54.2130500  12.7718277  21.4850353  54.3657349  12.8637516
  23.5958279  57.2663390  15.5740919  24.0213350  56.7437812  15.0211344
  23.2315199  57.8644227  15.0529542  23.6044881  57.2773617  15.4149928
  13.2312358  65.5627608  14.3338264  13.5458917  66.3763996  14.3416046
  13.6405772  65.1777826  15.0020423  13.3380456  65.6256310  14.4342356
  20.1836878  60.9797654  11.9042076  20.6548056  61.6937917  12.0732061
  20.5197057  60.3796404  12.4401946  20.3031993  60.9969119  12.0074452
  22.2713863  62.5898968  24.0834148  22.3810828  61.8007528  24.4390895
  22.6004759  62.5004904  23.2808486  22.3366268  62.4604821  24.0176539
  17.1006373  45.7525125  18.8600171  17.2334279  44.9556118  19.1881146
  17.4851526  46.2791528  19.4398446  17.1762702  45.7125042  18.9943674
  20.8210824  60.7715588  18.6669769  20.2731770  60.1473472  18.3989834
  21.2823853  60.9609860  17.9513848  20.8078034  60.7074639  18.5220200
  20.1738728  42.6755451  15.4581264  19.3684692  42.5653181  15.7749102
  20.0445464  42.7767907  14.6011130  20.0358861  42.6739121  15.3789305
  23.6304689  48.8400943  16.0520961  23.0467678  49.3410149  15.6398528
  23.9508983  48.3330499  15.4185284  23.5917864  48.8392778  15.8979468
  16.1699488  47.7541538   6.3279636  16.9915182  47.9239851   6.0861331
  15.7069139  47.9088799   5.6045933  16.2230650  47.8023271   6.1851280
  14.7594820  45.7484300  17.1078065  15.3039233  45.4075427  17.6982406
  14.8131756  46.6069761  17.2499349  14.8483939  45.8239559  17.2159938
  10.5725379  59.5100716  13.9816872  11.1770236  59.4696550  13.3530693
  10.3652691  60.3571868  14.0120928  10.6314276  59.6288718  13.8932989
  20.3869151  61.7766661  15.1979110  21.2067525  61.6329627  15.4595405
  20.1063228  62.4012860  15.7395548  20.4665894  61.8477013  15.3167049
  36.8582801  69.4331513   8.1621986  36.8276805  70.2876150   8.3340256
  37.4564150  69.1326805   8.7208130  36.9419959  69.5148009   8.2696789
  30.0582486  68.5207164  12.9174917  29.2020381  68.6815662  12.9684033
  30.1050140  67.6499228  12.9379978  29.9381597  68.4157966  12.9280983
  33.3676202  74.7893689  22.5235373  34.0742970  74.2945720  22.6522307
  33.5564138  75.2302771  21.7938031  33.5004108  74.7812040  22.4344418
  32.9034307  70.5799208  15.5606568  33.4490267  71.2584294  15.6200538
  32.8451183  70.4386669  14.7008150  32.9750221  70.6591209  15.4418629
  21.5163514  66.2594291  13.4711562  20.8968545  65.6686938  13.3021577
  21.4147377  66.8505726  12.8375885  21.4101189  66.2598374  13.3516552
  28.6131409  67.9993833   7.8044025  29.3111574  68.1781960   8.2965488
  28.9283742  67.4764172   7.1814415  28.7626746  67.9487605   7.7846035
  21.2432647  69.8046573  15.7155131  21.1191343  70.3909018  16.3504950
  21.8950931  69.3106768  16.0167406  21.3206296  69.8185377  15.8541060
  28.8019345  74.3864278   7.7923817  29.2412980  73.7781378   8.2378589
  28.6524007  74.0071651   7.0209282  28.8440810  74.2402749   7.7442984
  28.8077079  75.8263196  14.6449535  29.0900322  75.0314601  14.4236291
  29.5363239  76.3043783  14.6654596  28.9566643  75.7797792  14.6152550
  26.7858273  63.3686230  11.8865300  26.4561603  63.8197373  11.2168999
  26.1103275  63.2902393  12.4338306  26.6368709  63.4237365  11.8688523
  33.9934681  59.3571752  10.1314910  33.6788122  60.0475231  10.5635333
  33.4761622  59.3016535   9.4300411  33.8699151  59.4506641  10.0911860
  24.9914227  61.4298518   7.3688248  25.7460195  61.7976835   7.1305298
  24.8141761  61.8038072   8.1367427  25.0768705  61.5396706   7.4473136
  38.2849126  67.5792958  15.4135787  37.4477547  67.6495146  15.6483381
  38.2537357  67.5817453  14.5410089  38.1567408  67.5903185  15.3195335
  24.6813855  69.7225994  21.1284156  24.8534358  69.6131889  21.9769437
  25.2183212  70.3680400  20.8915348  24.7858859  69.8017996  21.2189252
  23.3471292  63.8368837   4.0666361  23.1646865  64.0540718   3.2407353
  24.2096905  63.9507850   4.1224975  23.4475881  63.8858735   3.9520848
  29.0271011  60.8395248   7.1015384  29.7557171  60.6611203   6.6553541
  29.1165904  61.6813327   7.3122563  29.1477673  60.9379126   7.0668902
  33.0079311  71.7748635  11.0047678  33.7636826  72.2080149  11.0436587
  33.1141636  71.1253405  11.5782314  33.1349482  71.7426119  11.0945704
  36.0459482  75.6021912  11.7550081  35.6094714  75.6058655  12.5109053
  35.7122398  76.2827411  11.3229659  35.9322102  75.7034368  11.8030914
  30.6188556  77.6430245  23.0793232  31.4028973  77.7561093  23.4448974
  30.4185151  76.8171382  23.2751917  30.7054582  77.5376964  23.1627618
  18.9875572  72.3157925  15.9637076  18.7213987  71.4997042  16.1228066
  19.0014136  72.3611081  15.0932591  18.9500294  72.2014830  15.8590557
  35.9656965  62.6435740  13.9979509  36.6082874  62.7133845  14.5841425
  36.2179986  61.9764963  13.4959051  36.0979098  62.5562089  14.0106788
  23.7374178  65.8536303  18.6104083  23.0445975  65.3833283  18.8564815
  24.3534505  65.6274608  19.1845790  23.7258708  65.7503435  18.7313236
  39.1803829  72.3202832  10.6469719  39.8420263  71.7593501  10.5465627
  38.5395241  71.8254863  10.9722410  39.1832696  72.1639241  10.6802059
  19.3968985  73.1016705  13.2448820  19.2144558  73.0763591  12.3921112
  20.1318654  73.5715642  13.2837729  19.4783049  73.1678067  13.1246738
  22.4614737  69.8201707  19.7530928  23.1854709  69.8054738  20.2395823
  22.5630873  70.5297063  19.2552897  22.5832946  69.9226411  19.7509715
  29.8359686  73.3000792  24.6179875  29.0432667  73.6144304  24.8032495
  29.9508613  73.5152260  23.7800660  29.7355097  73.3784629  24.5218210
  32.5091005  70.0234783   8.9074891  32.6037860  70.7624077   9.3614517
  31.8849849  69.5952259   9.3409456  32.4300035  70.0696104   9.0383039
  30.7643479  73.2020996  19.5565172  31.3382341  72.5648240  19.7113736
  30.6858283  73.2025078  18.6874830  30.8376714  73.1086107  19.4511583
  19.3639896  69.9810205  13.3947886  19.9413398  69.8446656  14.0340132
  18.6653957  69.5245989  13.6493471  19.3460917  69.8932471  13.5270176
  26.1207198  71.6344261  11.6086370  25.8626442  70.8015996  11.5817669
  26.1755681  71.8601874  10.7678870  26.0906976  71.5442032  11.4806506
  31.2008248  63.7372712  11.7090462  30.4964575  63.2481897  11.8674381
  31.2493222  63.7495186  10.8378907  31.1038299  63.6662360  11.6029802
  25.0941910  69.1882023  12.0951264  24.5191501  69.3474192  12.7315225
  24.7177586  68.5517432  11.6319715  24.9544722  69.1179836  12.1205823
  28.7615199  67.6605373  16.9543643  28.3729631  67.2359590  16.2995834
  28.0969897  67.9087522  17.4620669  28.6062126  67.6344094  16.9331511
  38.4038468  67.4180377   9.7291473  38.1475032  66.6060319   9.5389356
  39.2467782  67.4257944   9.5021660  38.4904493  67.2992375   9.6676290
  32.5841560  61.3580001  14.4667627  32.9652072  60.6758172  14.8535501
  31.7804844  61.0689603  14.2843291  32.5218022  61.2147050  14.4971683
  36.0863627  74.5729973  19.5650025  35.8502264  73.7418038  19.4462086
  36.7306856  74.5215581  20.1504870  36.1458298  74.4427661  19.6335919
  25.7362045  75.3625495  10.2792762  26.3735992  75.1237242  10.8244555
  26.1617117  75.5662654   9.5445922  25.8938211  75.3576505  10.2509919
  26.5433400  63.8634200  24.3330235  26.2286842  64.6333762  24.0699798
  26.2223333  63.3004456  23.7482462  26.4492320  63.8944468  24.2071585
  37.1100048  74.3574422  15.6278320  36.8045865  75.0902479  15.9891635
  36.3906263  73.9512352  15.3471106  36.9587390  74.4056155  15.6391457
  28.1183517  75.8397917  11.9586548  28.1922525  75.6773089  12.8128398
  28.9353023  76.0288107  11.7147030  28.2499876  75.8434660  12.0484574
  42.8101840  70.9967423  14.9546664  42.7426340  71.0163382  14.0849251
  42.7957502  71.8397750  15.1802335  42.7980596  71.1241157  14.8599141
  24.0965297  62.2524721   9.9476432  23.2287723  62.3247321  10.0134041
  24.3840502  63.0546800  10.1364407  24.0105046  62.3818868   9.9851198
  33.2198186  62.4002580  18.2787754  33.9651778  62.2112391  17.8651179
  32.8035491  62.9260818  17.7201610  33.2683160  62.4504726  18.1352327
  40.5960457  69.7711809  13.2293259  41.1468379  69.1379878  13.4690351
  40.5804572  70.3027202  13.9208763  40.6745653  69.7560757  13.3672117
  27.2482848  73.6050406  17.7753152  26.7494542  74.3166174  17.8538040
  28.0583072  73.9251073  17.7371314  27.2938955  73.7577255  17.7809720
  23.5110966  72.8673359  12.0215873  23.2224214  72.2410831  12.5561600
  24.3794314  72.8093647  12.0880553  23.5971217  72.7660904  12.1106827
  34.2988863  68.0108143  12.3397855  33.9553629  67.2898478  12.6905104
  34.3981906  67.8021994  11.4976213  34.2630906  67.8732346  12.2669535
  26.1749906  66.4631451  23.0715450  25.3649682  66.7689230  22.9605292
  26.6524593  67.1837033  23.1868034  26.1253385  66.6146052  23.0722521
  25.0341465  75.6777172  13.3198353  24.5122219  75.8177463  14.0050218
  25.4215486  74.9187836  13.5100471  25.0145166  75.5862696  13.4499430
  22.0232650  65.7282980   7.3893308  21.7357445  65.3584251   6.6525255
  22.7103118  66.1977836   7.1277013  22.0821547  65.7429950   7.2408384
  26.4607791  72.7081191   8.7179844  26.2650574  73.3155925   8.1240147
  26.6842137  72.0149135   8.2371518  26.4642432  72.6958716   8.5595925
  24.8586321  69.5935929   8.8360713  25.5808973  69.7577087   8.3764519
  24.3794314  70.3145593   8.7300052  24.8950052  69.7234158   8.7526327
  32.8179829  65.9299727  14.2157398  31.9790929  65.9561006  13.9795661
  32.8884196  66.5770463  14.7962744  32.7048222  66.0295853  14.2666514
  22.5093938  71.9994001  17.9414853  23.0215035  72.2778254  17.2923612
  22.2230280  72.7383295  18.3077666  22.5428801  72.1496355  17.9004731
  31.2649107  62.8285104   8.9485014  31.9675460  62.6292853   8.4704972
  30.9993296  62.0561047   9.2553857  31.3295739  62.6848070   8.9230455
  36.6937353  71.1367714  11.5018639  36.6071327  71.2923140  12.3553418
  36.2387832  71.7805790  11.1278044  36.6140609  71.2543469  11.5725746
  19.5960844  66.5064193   8.2378589  19.6976981  67.3090354   8.5659564
  20.3916731  66.3051529   7.9401670  19.7288750  66.5950092   8.2413944
  26.0277663  64.0920390  18.0015894  25.8360860  64.1075524  18.8515318
  26.8776259  64.2884064  17.9782549  26.1253385  64.1234741  18.1239189
  20.4124576  66.6211371  15.9799711  20.2710068  65.7695312  16.1044219
  20.6965140  66.6640032  15.1561917  20.4332422  66.5011121  15.8767335
  30.5663169  68.4578461  10.1244199  30.3197883  68.3774212  10.9580988
  30.8948292  67.6731929   9.9306726  30.5784412  68.3304727  10.2191722
  34.4611217  75.1661821  13.9130980  34.3225577  75.8642866  14.4179722
  33.6811215  75.0110477  13.5567162  34.3254444  75.2461987  13.9357254
  32.7989303  71.4658196  20.1653362  32.7937341  70.5938013  20.1695788
  33.5050296  71.6646365  19.6922818  32.9034307  71.3662070  20.0960397
  26.5260196  71.1935180  19.5367182  26.6703572  71.7736388  18.9010292
  26.8735844  71.5711477  20.2417037  26.5987657  71.3355884  19.5466177
  28.6980113  70.3925348  17.3192314  27.9503427  70.5856363  16.9140592
  28.8521638  69.5670568  17.0816435  28.6102541  70.2990460  17.2237719
  28.9381890  64.2875899  18.2087717  29.3954504  65.0199873  18.3360509
  29.0138219  63.8642364  18.9674973  29.0172860  64.3333137  18.3388794
  21.1814881  64.5341719  19.2977161  20.6457071  63.9222077  19.6137928
  21.2432646  65.1089855  19.9510828  21.1110514  64.5288646  19.4412588
  33.4109216  57.4665774  12.0781560  33.5292784  57.9242237  11.3448863
  33.2371392  56.6611035  11.7917778  33.4028387  57.4159546  11.9282494
  26.8164268  66.2778003  15.0529541  26.0260343  66.0969463  15.3746877
  27.2124891  65.5004955  15.0359836  26.7581144  66.1365464  15.0982090
  32.2007954  73.9120433  12.7788987  31.5252956  73.6805665  13.2802374
  32.2100331  73.3041616  12.1531092  32.1026459  73.7879358  12.7605139
  29.3302098  68.7538262  19.5353040  29.2661240  69.6148218  19.4073177
  29.4699286  68.4370255  18.7348592  29.3417569  68.8338429  19.3981253
  28.0121192  71.4470401  13.6769243  27.5883441  71.6474900  12.9408261
  27.8366048  70.5999249  13.7893543  27.9232073  71.3519183  13.5842933
  23.3003637  71.9422453   9.1097216  23.4568256  71.8769256   9.9653208
  23.6404230  72.7171005   8.8975895  23.3736872  72.0471651   9.2051810
  29.8382782  71.3180336   7.9790579  30.3798327  70.8150717   8.4429199
  30.1529341  71.2645531   7.1680064  29.9647179  71.2359757   7.9274391
  33.7099889  75.5282984  25.0917491  34.5234755  75.2568133  25.2522624
  33.5494856  75.2290524  24.2877687  33.8069838  75.4437910  24.9962897
  30.9872051  66.2116641  18.0312879  31.2014021  65.5727555  17.4776233
  30.3705950  66.6562465  17.6020741  30.9277381  66.1826785  17.8863310
  19.8737899  69.1257403   9.4257983  20.2536864  69.5441948   8.7618250
  19.2993264  69.7070859   9.7326826  19.8449224  69.2735262   9.3734724
  33.1511139  67.8205706  18.9696186  32.3387821  67.5131596  19.0509359
  33.6101074  67.3404706  19.5338899  33.0991524  67.7042198  19.0650781
  30.3786780  59.3216577  13.0200222  29.5080338  59.2955298  12.9733532
  30.6327121  59.1493769  12.2026068  30.2880340  59.2926720  12.8920359
  30.2464647  69.2265778  23.7524889  30.7164278  69.8507894  24.1392763
  30.2926527  68.5582753  24.3118103  30.3232523  69.2200458  23.8924960
  27.4035920  61.3322805  14.4773693  26.8874409  60.6402996  14.6025272
  26.8429849  61.9993582  14.4236291  27.2442434  61.3286063  14.4879759
  29.4728154  61.8715765  16.3066545  29.0859907  61.8964797  17.0880075
  28.9861091  61.3057444  15.8541062  29.3440663  61.7911516  16.3554449
  33.7221133  76.5889274  20.3640332  34.3600854  76.0949470  20.0302788
  33.0795225  76.5166674  19.7792558  33.7215360  76.5048282  20.2282687
  35.4478133  68.4378420  14.9306247  35.0205741  68.3504769  14.1754347
  34.8104186  68.5456195  15.5161091  35.2907741  68.4411080  14.9051689
  29.1385296  58.7582751  18.5976805  29.7678414  59.2943051  18.3197875
  29.3071158  58.6660109  19.4490371  29.2563090  58.8244113  18.6825333
  28.9399210  63.5453945  20.8703217  29.7672640  63.2739094  20.9261831
  28.9607057  64.3414787  21.2267035  29.0652061  63.6233699  20.9318399
  33.7775390  77.2809082  17.0045688  34.5667768  76.9298147  17.1247770
  33.9518988  78.0945471  16.7422322  33.9195672  77.3494939  16.9833556
  23.5168700  70.6917808  14.0573477  22.6756707  70.5921682  14.2652371
  23.7258708  71.4613288  14.4087798  23.4233393  70.7909851  14.1400792
  20.9944267  68.3137345  11.8858228  20.6000965  68.3880357  11.1108338
  20.4384384  68.6995291  12.4366590  20.8547080  68.3819120  11.8525888
  32.6309214  61.2918639  11.5662107  32.8358807  61.2240947  12.4119104
  32.3035638  62.0977460  11.4983284  32.6124462  61.4004579  11.6821762
  27.3285365  68.6199207  13.3071075  27.0248503  68.0655195  13.9081482
  26.6264786  68.7991417  12.8199109  27.1801575  68.5643990  13.3240780
  26.3851462  65.9299727   7.8715777  26.6611197  65.2118640   7.4593344
  26.9850132  66.5284647   7.6636883  26.5144727  65.9120098   7.7796538
  35.8842902  61.8450403  11.0464872  35.2717215  62.3320805  11.4318604
  35.9807077  61.1693894  11.5902523  35.8080799  61.8168712  11.1843730
  29.8861983  63.6013244   6.1462372  30.3405729  63.7723805   6.8710216
  30.3602029  62.9881355   5.7460147  30.0230303  63.5364130   6.1936133
  23.4077508  73.0861570  15.4765110  22.8165441  73.7271068  15.4468125
  24.1698532  73.5099188  15.4496410  23.4325769  73.2437409  15.4680257
  23.8038131  64.2463568  16.1433128  24.2639613  64.3202497  16.8808252
  23.8494238  65.0444822  15.7932949  23.8788686  64.3757715  16.2005884
  25.4521481  64.9130263  20.7105155  25.0607046  64.2663610  21.1460933
  25.6207343  65.5041698  21.3299410  25.4192391  64.9044531  20.8667861
  39.5267930  72.9167340  16.4742388  39.5851053  73.3653989  17.2202365
  38.8934397  73.3266153  16.0372468  39.4419225  73.0441075  16.5194937
  27.2275003  70.3055779   7.2507379  27.9717048  70.6930055   7.4890329
  27.3735699  69.4613204   7.4147867  27.3585588  70.2386252   7.3101349
  29.1454578  62.1006038  12.2839240  28.2990623  62.2728845  12.1580590
  29.1425711  61.2955381  12.6205069  29.0201728  62.0067067  12.3150367
  30.2152879  65.8781252  13.1501298  29.7412833  65.3523014  13.6606609
  30.5871014  65.3310725  12.5816160  30.2002768  65.7197249  13.1416445
  20.5925909  67.8752759  18.5184844  21.4551522  67.7748468  18.4322174
  20.2617692  67.2947468  17.9570416  20.6711105  67.7744385  18.4230250
  36.4789609  70.9383628  14.5608079  36.2387832  70.0990043  14.5650505
  36.9581616  71.0183794  15.2848852  36.5141793  70.8265027  14.6682881
  32.1436378  66.7717807   6.2127052  31.6159397  66.8546551   5.5232761
  32.6032086  67.5135678   6.2091697  32.1338229  66.8938469   6.1101747
  38.4794796  67.7185085  12.5137338  38.2404566  67.6780919  11.6758122
  38.6428698  68.5656237  12.6403059  38.4685100  67.8377170  12.4090820
  35.0840826  72.1035034  18.4442383  35.8075025  71.6507561  18.2653403
  34.8190789  72.3839700  17.6614711  35.1522100  72.0786003  18.3021098
  23.9527695  66.6995208  15.1795262  23.3280765  66.7113600  14.5721215
  23.6173290  67.1755383  15.8286502  23.8113187  66.7713725  15.1851831
  30.8659616  72.2018912  16.5937398  30.2516609  71.6576963  16.8886033
  31.3826901  71.6883149  16.1143214  30.8515278  72.0455321  16.5661626
  30.1055913  73.2723182  14.3281697  29.6783521  72.6472901  13.8947132
  30.0980857  72.9898104  15.1540704  30.0415054  73.1375963  14.3861524
  23.2218440  68.3088356  17.3970131  23.3811927  67.5531680  17.8021853
  23.0411334  68.8579295  18.0510868  23.2183799  68.2782169  17.5532837
  31.1638743  60.4749591  17.9520920  30.6679304  60.6713265  17.2612487
  31.9207805  60.8742259  17.7809722  31.2025568  60.5627325  17.8241057
  28.4341623  64.1491937  14.5424231  28.4584110  63.6152049  13.8537011
  28.6853096  63.6409246  15.2049821  28.4751541  63.9952841  14.5388875
  24.7142945  62.8762755  13.9229975  24.7541317  63.3771962  14.6364682
  23.8892610  62.9673149  13.6535898  24.5982471  62.9644572  13.9880513
  26.8972558  72.4423495  22.0250270  26.0468188  72.5795209  22.1607914
  27.0600686  71.7087273  22.4697971  26.7956421  72.3537596  22.1105869
  26.1357308  69.3923265  16.2203874  25.3049238  69.5597083  16.0139122
  26.0808826  69.0159216  17.0052759  26.0046723  69.3612996  16.3052402
  23.9441092  62.8832158  21.8560285  24.5693795  62.3394291  22.1289717
  23.4891572  62.4027076  21.2868075  23.9689352  62.7321639  21.8121878
  24.5093352  67.6678857   6.7493992  24.6496313  68.1651321   7.4522633
  25.0075885  66.9665151   6.8908205  24.6034433  67.6380835   6.8745571
  37.5176140  71.0661445  16.9472933  38.1093981  71.7058696  16.9791131
  37.9535135  70.3684482  17.2365000  37.6694572  71.0579795  16.9953765
  26.1172557  64.4659943   4.0532010  26.4388398  63.9863026   3.3991273
  26.3799501  65.2759589   3.8622822  26.2038583  64.5149841   3.9287503
  29.3469530  75.4878817  17.5730827  28.8394621  76.0414664  18.0171457
  29.0496176  75.5487107  16.7549601  29.2274415  75.5785129  17.5179283
  31.5131712  63.8532137  16.4155490  31.9386784  63.4004663  15.8039016
  30.8988706  63.2992208  16.6920277  31.4860358  63.7046113  16.3660515
  29.9525935  60.3247237   9.8246067  29.3094253  60.1744883  10.3931205
  29.6125342  60.0789582   9.0595171  29.8071013  60.2659359   9.7949082
  34.5425282  68.2806664   9.2476075  33.8716472  68.8236366   9.1189141
  35.2365032  68.7501519   9.0057770  34.5454149  68.4304935   9.1931603
  34.7053409  64.7362547  12.1566448  35.0581019  64.3092270  12.8312247
  33.8468211  64.6513391  12.2867525  34.6302854  64.6607288  12.2761459
  23.4037094  67.3670067  10.2149295  22.6849083  67.7834200  10.4822158
  23.7749456  67.9324306   9.6640933  23.3529026  67.5119348  10.1732102
  32.7036675  67.9997916  16.1051291  32.6834602  67.8181211  16.9586070
  32.7515876  68.8709934  16.0810874  32.7071316  68.1014454  16.2274585
  30.6483005  74.5885108  22.0299767  30.6078860  73.9434785  21.4444923
  31.4606323  74.5321725  22.3425179  30.7626158  74.4844075  21.9896716
  29.1783669  66.4068067   5.5522674  28.5848508  66.7285063   5.0007241
  29.2158946  65.5609162   5.3443781  29.0958058  66.3292395   5.4405446
  36.1377469  59.8580959  13.0850761  35.6308334  59.1510099  13.0171938
  36.9344903  59.5274148  13.2151837  36.1804708  59.7054110  13.0949756
  32.0541485  66.3647571   8.9824425  31.8255178  66.3880273   8.1402783
  32.3139561  65.5405038   9.1019435  32.0587673  66.2463651   8.8749622
  26.3360714  68.2182044  18.5849525  25.8239617  67.6103227  18.9434556
  26.1640210  68.9338637  19.0523501  26.2350351  68.2345344  18.7065749
  21.1826428  66.6619620  21.2351887  21.0129019  67.3220995  20.6900093
  20.7392378  66.8726181  21.9564376  21.0925762  66.7905602  21.2613516
  25.1086248  64.9024118  10.2778620  25.5843614  65.2641197   9.6428801
  24.6074847  65.5580585  10.5578763  25.1051607  65.0518306  10.2255361
  30.2129784  66.1406289  21.0251780  30.7701214  65.9120099  20.3930246
  29.8890849  66.9011955  20.7486993  30.2476194  66.2190126  20.8908278
  18.0828493  69.5666485  16.4940376  17.5355212  68.8967131  16.6121245
  18.8720871  69.1996333  16.5583844  18.1180676  69.4131472  16.5209077
  27.9312901  69.2273942  21.9903788  28.6824228  69.5425619  22.3043342
  28.1235478  69.0253113  21.1637709  28.0704315  69.2441324  21.9147183
  27.1512901  67.0465317   3.6452004  27.5311866  67.0644947   2.8603119
  26.4105497  67.4919306   3.5242852  27.0981739  67.1147092   3.5115572
  34.7798191  65.3547509   9.2327583  34.7792418  65.1996165  10.0911859
  34.5754371  66.2010496   9.1768969  34.7497969  65.4568129   9.3515522
  16.8415462  68.7787293  13.6486400  16.6637223  68.3263902  14.3741315
  16.5534484  69.5813454  13.8324877  16.7728415  68.8309851  13.7829902
  32.5039043  70.0345010  12.8863790  32.9992709  69.3168005  12.8467810
  31.6938819  69.7315808  12.7718277  32.4582937  69.8842657  12.8637516
  34.5690862  72.7848698  15.5740919  34.9945934  72.2623120  15.0211344
  34.2047782  73.3829535  15.0529542  34.5777465  72.7958925  15.4149928
  31.1569462  76.4982962  11.9042076  31.6280640  77.2123225  12.0732061
  31.4929640  75.8981712  12.4401946  31.2764577  76.5154426  12.0074452
  33.2446446  78.1084276  24.0834148  33.3543412  77.3192836  24.4390895
  33.5737343  78.0190212  23.2808486  33.3098852  77.9790129  24.0176539
  28.0738957  61.2710433  18.8600171  28.2066862  60.4741426  19.1881146
  28.4584109  61.7976836  19.4398446  28.1495285  61.2310349  18.9943674
  31.7943408  76.2900896  18.6669769  31.2464354  75.6658780  18.3989834
  32.2556437  76.4795168  17.9513848  31.7810617  76.2259947  18.5220200
  31.1471312  58.1940759  15.4581264  30.3417276  58.0838489  15.7749102
  31.0178047  58.2953215  14.6011130  31.0091445  58.1924429  15.3789305
  34.6037272  64.3586251  16.0520961  34.0200261  64.8595457  15.6398528
  34.9241566  63.8515807  15.4185284  34.5650448  64.3578086  15.8979468
  27.1432071  63.2726846   6.3279636  27.9647766  63.4425159   6.0861331
  26.6801722  63.4274107   5.6045933  27.1963234  63.3208579   6.1851280
  25.7327403  61.2669608  17.1078065  26.2771816  60.9260735  17.6982406
  25.7864339  62.1255069  17.2499349  25.8216523  61.3424867  17.2159938
  31.3601734  77.2951969  15.1979110  32.1800108  77.1514935  15.4595405
  31.0795812  77.9198168  15.7395548  31.4398478  77.3662321  15.3167049
  37.5165984  79.3819508  24.3330235  37.2019425  80.1519070  24.0699798
  37.1955917  78.8189764  23.7482462  37.4224903  79.4129776  24.2071585
  44.1930770  77.9187888  18.2787754  44.9384362  77.7297699  17.8651179
  43.7768074  78.4446126  17.7201610  44.2415744  77.9690034  18.1352327
  37.0010247  79.6105698  18.0015894  36.8093444  79.6260832  18.8515318
  37.8508843  79.8069372  17.9782549  37.0985969  79.6420049  18.1239189
  39.9114474  79.8061207  18.2087717  40.3687088  80.5385181  18.3360509
  39.9870803  79.3827672  18.9674973  39.9905444  79.8518445  18.3388794
  38.3768504  76.8508113  14.4773693  37.8606993  76.1588304  14.6025272
  37.8162433  77.5178890  14.4236291  38.2175017  76.8471371  14.4879759
  40.4460737  77.3901073  16.3066545  40.0592491  77.4150104  17.0880075
  39.9593675  76.8242752  15.8541062  40.3173246  77.3096824  16.3554449
  40.1117879  74.2768058  18.5976805  40.7410997  74.8128358  18.3197875
  40.2803742  74.1845417  19.4490371  40.2295674  74.3429421  18.6825333
  39.9131794  79.0639253  20.8703217  40.7405223  78.7924402  20.9261831
  39.9339640  79.8600095  21.2267035  40.0384644  79.1419007  20.9318399
  42.1371327  75.9934899  17.9520920  41.6411888  76.1898573  17.2612487
  42.8940389  76.3927567  17.7809722  42.1758151  76.0812633  17.8241057
  35.6875529  78.3948063  13.9229975  35.7273900  78.8957270  14.6364682
  34.8625193  78.4858457  13.6535898  35.5715054  78.4829880  13.9880513
  34.9173675  78.4017466  21.8560285  35.5426379  77.8579599  22.1289717
  34.4624155  77.9212384  21.2868075  34.9421936  78.2506947  21.8121878
  42.4864296  79.3717445  16.4155490  42.9119368  78.9189971  15.8039016
  41.8721289  78.8177516  16.6920277  42.4592941  79.2231421  16.3660515
  39.0471540  76.7895741  18.8600171  39.1799446  75.9926734  19.1881146
  39.4316693  77.3162144  19.4398446  39.1227869  76.7495657  18.9943674
  42.1203895  73.7126067  15.4581264  41.3149859  73.6023796  15.7749102
  41.9910631  73.8138523  14.6011130  41.9824028  73.7109737  15.3789305
  36.7059987  76.7854916  17.1078065  37.2504400  76.4446043  17.6982406
  36.7596923  77.6440377  17.2499349  36.7949106  76.8610175  17.2159938
  22.0894443  36.2086513   9.4575420  22.7961210  35.7138543   9.5862354
  22.2782378  36.6495594   8.7278078  22.2222348  36.2004863   9.3684465
  19.2286737  39.6314049   7.3489495  19.3170083  39.4440190   8.1967705
  19.6576450  38.9851479   6.9494342  19.3048840  39.5077057   7.4161246
  16.7957197  38.9145209   6.3307157  16.2328032  38.5017819   6.8546818
  17.5578220  38.8398115   6.7500300  16.8251646  38.8422610   6.4700157
  13.4032095  31.1418817   8.0624202  13.5752599  31.0324712   8.9109484
  13.9401452  31.7873223   7.8255395  13.5077099  31.2210819   8.1529299
  19.3406796  39.0623068  10.0133278  20.1247213  39.1753916  10.3789021
  19.1403391  38.2364205  10.2091964  19.4272822  38.9569788  10.0967664
  19.4977190  40.9733170   3.6599734  18.6992436  40.7332670   3.9173603
  19.9463201  41.0247563   4.4066782  19.4451801  40.9455561   3.8084658
  18.5577927  34.7193615  11.5519922  17.7650907  35.0337127  11.7372542
  18.6726854  34.9345084  10.7140707  18.4573337  34.7977452  11.4558257
  19.4861719  34.6213819   6.4905219  20.0600581  33.9841063   6.6453783
  19.4076523  34.6217901   5.6214877  19.5594954  34.5278930   6.3851630
  24.8081867  35.9922797   6.4990072  24.5720505  35.1610861   6.3802133
  25.4525096  35.9408404   7.0844916  24.8676538  35.8620485   6.5675966
  15.2651641  25.2827023  11.2670282  14.9505082  26.0526586  11.0039845
  14.9441573  24.7197279  10.6822509  15.1710560  25.3137292  11.1411632
  25.8318288  35.7767245   2.5618367  25.5264105  36.5095302   2.9231682
  25.1124504  35.3705175   2.2811153  25.6805630  35.8248978   2.5731504
  31.5320080  32.4160246   1.8886711  31.4644580  32.4356205   1.0189297
  31.5175742  33.2590573   2.1142381  31.5198837  32.5433981   1.7939188
  15.9701088  35.0243230   4.7093199  15.4712782  35.7358997   4.7878087
  16.7801313  35.3443896   4.6711361  16.0157195  35.1770078   4.7149767
  14.8968146  27.8824274  10.0055497  14.0867922  28.1882054   9.8945339
  15.3742833  28.6029856  10.1208081  14.8471625  28.0338875  10.0062568
  23.1829458  36.5854644   0.8471027  23.0443817  37.2835690   1.3519769
  22.4029456  36.4303300   0.4907209  23.0472685  36.6654811   0.8697301
  21.5207543  32.8851019   7.0993409  21.5155581  32.0130836   7.1035835
  22.2268537  33.0839188   6.6262864  21.6252547  32.7854893   7.0300444
  15.2478436  32.6128003   6.4707229  15.3921812  33.1929211   5.8350339
  15.5954085  32.9904300   7.1757083  15.3205898  32.7548707   6.4806224
  14.3206191  40.8030775   3.3368256  14.4695755  40.2433691   2.6841660
  15.1006193  40.8822777   3.7200774  14.4580285  40.7316340   3.2965205
  16.8459492  40.9745418   4.6152746  16.7703163  40.3054228   5.1703535
  16.7749351  41.6763206   5.1293413  16.8240099  40.9790325   4.7729595
  16.2351126  44.3813738   3.0730747  16.7247056  43.6824527   2.8906412
  15.6635358  44.0837608   3.6606805  16.2235656  44.2339961   3.1331788
  22.4318130  36.9475807  12.0257538  23.2452995  36.6760956  12.1862670
  22.2713096  36.6483347  11.2217734  22.5288078  36.8630733  11.9302944
  21.8729380  29.2398529   5.9036233  21.0606061  28.9324420   5.9849406
  22.3319314  28.7597529   6.4678945  21.8209764  29.1235022   5.9990827
  18.9682887  30.6458601  10.6864936  19.4382518  31.2700717  11.0732810
  19.0144767  29.9775576  11.2458150  19.0450763  30.6393281  10.8265007
  22.4993630  38.7001906   3.9385735  23.2886008  38.3490970   4.0587817
  22.6737228  39.5138294   3.6762369  22.6413912  38.7687763   3.9173603
  14.1121957  37.2541751   4.9483219  14.0042311  37.2643813   5.8145277
  14.3217738  38.0796532   4.7588173  14.1272068  37.3782826   5.0487311
  28.2486170  34.3360163   3.4082435  28.3069294  34.7846812   4.1542412
  27.6152638  34.7458976   2.9712515  28.1637465  34.4633898   3.4534984
  21.8885265  39.9563705  -0.1562819  21.6904953  40.4454520  -0.8506607
  21.2672976  40.1604947   0.4221315  21.7672829  40.0580243  -0.1739595
  23.8059067  33.5227857   5.3782430  24.5293266  33.0700384   5.1993450
  23.5409029  33.8032523   4.5954758  23.8740340  33.4978826   5.2361145
  15.6190798  33.8616318   8.9590316  14.7686429  33.9988033   9.0947961
  15.7818926  33.1280097   9.4038018  15.5174662  33.7730420   9.0445916
  26.2394381  32.4854268   3.8812979  26.8312221  33.1251519   3.9131178
  26.6753375  31.7877305   4.1705046  26.3912812  32.4772619   3.9293812
  18.0687771  36.9071641   4.5070873  17.5612862  37.4607487   4.9511504
  17.7714417  36.9679931   3.6889648  17.9492656  36.9977952   4.4519330
  17.3130256  41.8396199   1.4127880  17.0895910  41.0815028   1.7811907
  16.8240099  41.8694220   0.6908320  17.2073705  41.7318423   1.3604621
  19.3701245  36.0077931   8.9639814  19.3297100  35.3627608   8.3784970
  20.1824563  35.9514548   9.2765226  19.4844399  35.9036898   8.9236763
  18.9348024  27.5599112   7.9591827  19.4919454  27.3312922   7.3270293
  18.6109089  28.3204778   7.6827040  18.9694434  27.6382949   7.8248324
  16.6531142  30.6466766   8.9243834  17.4042469  30.9618442   9.2383389
  16.8453718  30.4445937   8.0977756  16.7922556  30.6634147   8.8487230
  23.2909103  34.2041521   2.5080965  23.7164174  33.6815943   1.9551390
  22.9266022  34.8022359   1.9869588  23.2995705  34.2151748   2.3489975
  12.9263182  42.5005739   1.2678311  13.2409741  43.3142127   1.2756093
  13.3356596  42.1155957   1.9360470  13.0331280  42.5634441   1.3682403
  21.9664687  39.5277099  11.0174195  22.0761652  38.7385659  11.3730942
  22.2955583  39.4383035  10.2148533  22.0317092  39.3982952  10.9516586
  20.5161648  37.7093720   5.6009816  19.9682594  37.0851603   5.3329881
  20.9774677  37.8987992   4.8853895  20.5028858  37.6452770   5.4560247
  20.0819975  38.7144792   2.1319157  20.9018348  38.5707758   2.3935452
  19.8014052  39.3390991   2.6735595  20.1616718  38.7855144   2.2507096
  36.5533625  46.3709644  -4.9037967  36.5227629  47.2254281  -4.7319698
  37.1514974  46.0704937  -4.3451823  36.6370783  46.4526141  -4.7963165
  29.7533310  45.4585295  -0.1485037  28.8971205  45.6193793  -0.0975920
  29.8000964  44.5877359  -0.1279975  29.6332421  45.3536097  -0.1378970
  33.0627026  51.7271821   9.4575420  33.7693794  51.2323851   9.5862354
  33.2514962  52.1680902   8.7278078  33.1954932  51.7190171   9.3684465
  32.5985131  47.5177339   2.4946615  33.1441091  48.1962426   2.5540585
  32.5402007  47.3764800   1.6348197  32.6701045  47.5969341   2.3758676
  25.7159206  55.0066405  -2.1185032  25.8169569  54.1966759  -1.8087905
  25.1200951  54.9123351  -2.7485354  25.6431744  54.8731433  -2.1658794
  25.5559945  59.9243994  -0.7170176  26.1997401  60.3657158  -0.3274018
  25.8816201  59.1197420  -0.8039918  25.6991774  59.8709189  -0.6724699
  21.2114338  43.1972422   0.4051609  20.5919369  42.6065069   0.2361624
  21.1098201  43.7883857  -0.2284068  21.1052013  43.1976505   0.2856598
  28.3082233  44.9371964  -5.2615928  29.0062398  45.1160092  -4.7694465
  28.6234566  44.4142303  -5.8845539  28.4577570  44.8865736  -5.2813918
  20.9383471  46.7424704   2.6495178  20.8142167  47.3287149   3.2844997
  21.5901755  46.2484900   2.9507453  21.0157120  46.7563508   2.7881107
  28.4970169  51.3242409  -5.2736137  28.9363804  50.7159510  -4.8281364
  28.3474831  50.9449782  -6.0450671  28.5391634  51.1780880  -5.3216969
  25.9641812  49.9186421   1.9282689  26.6090814  49.4258864   1.6093638
  26.2043589  50.0611207   2.7548767  26.0952397  49.8663863   2.0032222
  28.5027903  52.7641327   1.5789582  28.7851146  51.9692732   1.3576337
  29.2314063  53.2421914   1.5994643  28.6517467  52.7175924   1.5492597
  26.4809097  40.3064361  -1.1794653  26.1512427  40.7575504  -1.8490955
  25.8054099  40.2280524  -0.6321647  26.3319533  40.3615496  -1.1971430
  33.6885505  36.2949884  -2.9345043  33.3738946  36.9853362  -2.5024620
  33.1712446  36.2394666  -3.6359542  33.5649975  36.3884772  -2.9748094
  38.4845991  51.8700689  -1.4474588  37.6543694  52.0811333  -1.2841171
  38.4355244  51.0437744  -1.7232304  38.3552727  51.7790295  -1.4637222
  26.5455729  54.7004543   1.3873322  26.0282670  54.3411958   0.7834630
  27.2430120  54.1766718   1.3979388  26.5721310  54.5702231   1.3003581
  30.2019321  55.1499357   7.3489495  30.2902667  54.9625498   8.1967705
  30.6309033  54.5036787   6.9494342  30.2781423  55.0262365   7.4161246
  27.7689781  54.4330517   6.3307157  27.2060615  54.0203127   6.8546818
  28.5310804  54.3583423   6.7500300  27.7984229  54.3607918   6.4700157
  23.3285772  56.4228538  -1.0656213  24.0306351  55.9080527  -1.0083456
  23.2483255  56.7502690  -0.2609338  23.4209532  56.3942765  -0.9383421
  37.9799950  44.5171090   2.3475834  37.1428371  44.5873277   2.5823428
  37.9488180  44.5195584   1.4750136  37.8518232  44.5281317   2.2535382
  24.3764679  46.6604125   8.0624202  24.5485182  46.5510020   8.9109484
  24.9134036  47.3058531   7.8255395  24.4809683  46.7396127   8.1529299
  22.6536547  52.6134890  -1.5570605  23.4925447  52.8457823  -1.5096843
  22.6848317  51.7439202  -1.6263569  22.7818265  52.5191837  -1.5605960
  23.2789250  53.0335766   2.7442701  23.8187475  52.8906897   3.4146073
  22.5959197  53.4332516   3.1126727  23.2581404  53.0715436   2.8977123
  32.7030135  48.7126766  -2.0612275  33.4587650  49.1458280  -2.0223366
  32.8092460  48.0631536  -1.4877639  32.8300306  48.6804250  -1.9714249
  35.7410306  52.5400043  -1.3109872  35.3045538  52.5436786  -0.5550900
  35.4073222  53.2205542  -1.7430294  35.6272926  52.6412499  -1.2629039
  30.3139380  54.5808376  10.0133278  31.0979797  54.6939224  10.3789021
  30.1135975  53.7549513  10.2091964  30.4005405  54.4755096  10.0967664
  18.6826395  49.2536056   2.8977122  18.4164811  48.4375173   3.0568113
  18.6964960  49.2989212   2.0272638  18.6451118  49.1392961   2.7930604
  35.6607789  39.5813871   0.9319556  36.3033698  39.6511976   1.5181471
  35.9130810  38.9143094   0.4299098  35.7929921  39.4940220   0.9446835
  23.4325002  42.7914435   5.5444130  22.7396799  42.3211414   5.7904862
  24.0485329  42.5652739   6.1185837  23.4209532  42.6881566   5.6653283
  30.4709773  56.4918478   3.6599734  29.6725019  56.2517978   3.9173603
  30.9195785  56.5432871   4.4066782  30.4184385  56.4640869   3.8084658
  38.8754653  49.2580963  -2.4190235  39.5371087  48.6971632  -2.5194326
  38.2346065  48.7632994  -2.0937543  38.8783520  49.1017372  -2.3857894
  19.0919809  50.0394836   0.1788867  18.9095382  50.0141722  -0.6738841
  19.8269478  50.5093774   0.2177775  19.1733873  50.1056198   0.0586785
  35.1619483  50.2746346  -2.6778246  35.3975073  50.4191545  -3.5051395
  35.3109047  51.0388754  -2.2846732  35.2185287  50.4085400  -2.7414642
  22.1565561  46.7579839   6.6870975  22.8805533  46.7432869   7.1735870
  22.2581697  47.4675194   6.1892943  22.2783770  46.8604542   6.6849762
  29.5310510  50.2378923  11.5519922  28.7383491  50.5522435  11.7372542
  29.6459437  50.4530392  10.7140707  29.4305921  50.3162760  11.4558257
  32.2041829  46.9612914  -4.1585062  32.2988684  47.7002208  -3.7045436
  31.5800673  46.5330390  -3.7250497  32.1250859  47.0074235  -4.0276914
  30.4594303  50.1399127   6.4905219  31.0333165  49.5026371   6.6453783
  30.3809107  50.1403209   5.6214877  30.5327538  50.0464238   6.3851630
  19.0590719  46.9188336   0.3287933  19.6364222  46.7824787   0.9680179
  18.3604781  46.4624121   0.5833518  19.0411741  46.8310603   0.4610223
  25.8158022  48.5722392  -1.4573584  25.5577266  47.7394127  -1.4842284
  25.8706504  48.7980005  -2.2981083  25.7857800  48.4820163  -1.5853447
  30.8959072  40.6750843  -1.3569491  30.1915399  40.1860028  -1.1985572
  30.9444046  40.6873317  -2.2281047  30.7989123  40.6040491  -1.4630151
  24.7892734  46.1260155  -0.9708689  24.2142325  46.2852323  -0.3344728
  24.4128410  45.4895564  -1.4340238  24.6495546  46.0557967  -0.9454130
  28.4566022  44.5983504   3.8883690  28.0680455  44.1737722   3.2335881
  27.7920721  44.8465653   4.3960716  28.3012950  44.5722225   3.8671558
  38.0989292  44.3558508  -3.3368480  37.8425856  43.5438450  -3.5270598
  38.9418606  44.3636076  -3.5638293  38.1855317  44.2370506  -3.3983663
  32.2792384  38.2958133   1.4007674  32.6602896  37.6136304   1.7875548
  31.4755668  38.0067735   1.2183338  32.2168846  38.1525181   1.4311730
  35.7814451  51.5108105   6.4990072  35.5453088  50.6796169   6.3802133
  36.4257680  51.4593712   7.0844916  35.8409122  51.3805792   6.5675966
  25.4312869  52.3003626  -2.7867191  26.0686816  52.0615373  -2.2415398
  25.8567941  52.5040785  -3.5214031  25.5889035  52.2954636  -2.8150034
  20.1225511  54.5391962   1.0967112  20.1629657  54.8106813   0.2686892
  20.6820035  55.0633870   1.5124900  20.2108857  54.6567717   1.0359001
  26.2384224  40.8012331  11.2670282  25.9237665  41.5711894  11.0039845
  25.9174157  40.2382587  10.6822509  26.1443143  40.8322599  11.1411632
  36.8050872  51.2952553   2.5618367  36.4996689  52.0280610   2.9231682
  36.0857087  50.8890483   2.2811153  36.6538214  51.3434286   2.5731504
  27.8134341  52.7776048  -1.1073405  27.8873349  52.6151220  -0.2531555
  28.6303847  52.9666238  -1.3512923  27.9450700  52.7812791  -1.0175380
  42.5052664  47.9345554   1.8886711  42.4377164  47.9541513   1.0189297
  42.4908326  48.7775881   2.1142381  42.4931420  48.0619289   1.7939188
  32.9149010  39.3380712   5.2127800  33.6602602  39.1490522   4.7991226
  32.4986315  39.8638950   4.6541657  32.9633984  39.3882857   5.0692374
  40.2911281  46.7089940   0.1633305  40.8419203  46.0758009   0.4030397
  40.2755396  47.2405333   0.8548810  40.3696477  46.6938888   0.3012164
  26.9433672  50.5428537   4.7093199  26.4445366  51.2544305   4.7878087
  27.7533896  50.8629204   4.6711361  26.9889779  50.6955386   4.7149767
  23.2061789  49.8051490  -1.0444080  22.9175038  49.1788962  -0.5098353
  24.0745137  49.7471778  -0.9779400  23.2922041  49.7039035  -0.9553126
  33.9939687  44.9486274  -0.7262098  33.6504453  44.2276609  -0.3754849
  34.0932730  44.7400125  -1.5683740  33.9581730  44.8110477  -0.7990418
  25.8700730  43.4009582  10.0055497  25.0600506  43.7067362   9.8945339
  26.3475417  44.1215164  10.1208081  25.8204209  43.5524183  10.0062568
  24.7292289  52.6155303   0.2538400  24.2073043  52.7555595   0.9390265
  25.1166310  51.8565967   0.4440517  24.7095990  52.5240827   0.3839477
  26.1558615  49.6459322  -4.3480109  25.9601398  50.2534056  -4.9419806
  26.3792961  48.9527266  -4.8288435  26.1593256  49.6336847  -4.5064028
  24.5537145  46.5314060  -4.2299240  25.2759797  46.6955218  -4.6895434
  24.0745138  47.2523725  -4.3359901  24.5900876  46.6612289  -4.3133626
  32.5130653  42.8677859   1.1497444  31.6741753  42.8939137   0.9135708
  32.5835020  43.5148594   1.7302791  32.3999046  42.9673984   1.2006561
  22.2044762  48.9372132   4.8754899  22.7165859  49.2156385   4.2263659
  21.9181104  49.6761426   5.2417712  22.2379625  49.0874486   4.8344777
  30.9599931  39.7663236  -4.1174940  31.6626284  39.5670984  -4.5954981
  30.6944120  38.9939178  -3.8106096  31.0246563  39.6226202  -4.1429498
  36.3888176  48.0745845  -1.5641314  36.3022151  48.2301271  -0.7106535
  35.9338656  48.7183921  -1.9381909  36.3091433  48.1921600  -1.4934207
  25.7228487  41.0298521   4.9355941  25.5311684  41.0453655   5.7855364
  26.5727083  41.2262195   4.9122596  25.8204209  41.0612872   5.0579236
  20.1075400  43.5589502   2.9139757  19.9660892  42.7073443   3.0384265
  20.3915964  43.6018163   2.0901963  20.1283246  43.4389252   2.8107382
  30.2613993  45.3956592  -2.9415754  30.0148707  45.3152343  -2.1078965
  30.5899116  44.6110060  -3.1353227  30.2735236  45.2682858  -2.8468231
  34.1562041  52.1039952   0.8471027  34.0176401  52.8020998   1.3519769
  33.3762039  51.9488608   0.4907209  34.0205268  52.1840118   0.8697301
  32.4940126  48.4036327   7.0993409  32.4888165  47.5316144   7.1035835
  33.2001120  48.6024496   6.6262864  32.5985130  48.3040201   7.0300444
  26.2211020  48.1313311   6.4707229  26.3654396  48.7114519   5.8350339
  26.5686668  48.5089608   7.1757083  26.2938481  48.2734015   6.4806224
  28.3930937  47.3303479   4.2532360  27.6454251  47.5234494   3.8480638
  28.5472462  46.5048699   4.0156482  28.3053365  47.2368591   4.1577766
  25.2938775  56.3216083   3.3368256  25.4428339  55.7618999   2.6841660
  26.0738777  56.4008085   3.7200774  25.4312868  56.2501648   3.2965205
  27.8192075  56.4930726   4.6152746  27.7435747  55.8239536   5.1703535
  27.7481935  57.1948514   5.1293413  27.7972682  56.4975633   4.7729595
  28.6332714  41.2254030   5.1427764  29.0905328  41.9578004   5.2700556
  28.7089043  40.8020495   5.9015020  28.7123684  41.2711268   5.2728841
  20.8765705  41.4719850   6.2317208  20.3407895  40.8600208   6.5477975
  20.9383470  42.0467986   6.8850874  20.8061338  41.4666778   6.3752635
  33.1060040  34.4043905  -0.9878393  33.2243608  34.8620369  -1.7211090
  32.9322216  33.5989167  -1.2742175  33.0979211  34.3537677  -1.1377459
  26.5115092  43.2156134   1.9869588  25.7211167  43.0347594   2.3086924
  26.9075715  42.4383087   1.9699883  26.4531968  43.0743595   2.0322136
  31.8958778  50.8498564  -0.2870966  31.2203780  50.6183796   0.2142421
  31.9051155  50.2419747  -0.9128861  31.7977283  50.7257489  -0.3054814
  29.0252922  45.6916393   6.4693087  28.9612064  46.5526350   6.3413224
  29.1650110  45.3748386   5.6688638  29.0368392  45.7716560   6.3321300
  27.7072016  48.3848533   0.6109290  27.2834265  48.5853032  -0.1251692
  27.5316871  47.5377381   0.7233590  27.6182897  48.2897314   0.5182980
  27.2083710  59.8999045   3.0730747  27.6979640  59.2009835   2.8906412
  26.6367942  59.6022916   3.6606805  27.1968240  59.7525269   3.1331788
  22.9954461  48.8800584  -3.9562738  23.1519080  48.8147387  -3.1006745
  23.3355054  49.6549137  -4.1684058  23.0687696  48.9849782  -3.8608143
  29.5333606  48.2558468  -5.0869374  30.0749151  47.7528849  -4.6230754
  29.8480165  48.2023662  -5.8979889  29.6598003  48.1737888  -5.1385562
  33.4050713  52.4661115  12.0257538  34.2185579  52.1946264  12.1862670
  33.2445680  52.1668655  11.2217734  33.5020662  52.3816041  11.9302944
  30.6822875  43.1494772   4.9652926  30.8964845  42.5105686   4.4116280
  30.0656774  43.5940596   4.5360788  30.6228204  43.1204916   4.8203357
  19.5688723  46.0635534  -3.6401970  19.9487688  46.4820079  -4.3041703
  18.9944088  46.6448990  -3.3333127  19.5400048  46.2113393  -3.6925229
  32.8461963  44.7583837   5.9036233  32.0338645  44.4509728   5.9849406
  33.3051898  44.2782837   6.4678945  32.7942348  44.6420330   5.9990827
  30.0737604  36.2594708  -0.0459731  29.2031162  36.2333429  -0.0926422
  30.3277945  36.0871900  -0.8633885  29.9831164  36.2304851  -0.1739594
  29.9415471  46.1643909  10.6864936  30.4115102  46.7886025  11.0732810
  29.9877351  45.4960884  11.2458150  30.0183347  46.1578589  10.8265007
  27.0986744  38.2700936   1.4113739  26.5825233  37.5781128   1.5365318
  26.5380673  38.9371713   1.3576338  26.9393258  38.2664194   1.4219805
  29.1678978  38.8093896   3.2406592  28.7810731  38.8342928   4.0220122
  28.6811915  38.2435575   2.7881109  29.0391487  38.7289647   3.2894496
  33.4171957  53.5267405   7.2980378  34.0551678  53.0327601   6.9642835
  32.7746049  53.4544806   6.7132605  33.4166184  53.4426414   7.1622733
  35.1428957  45.3756551   1.8646294  34.7156565  45.2882900   1.1094394
  34.5055010  45.4834327   2.4501138  34.9858565  45.3789211   1.8391736
  28.8336120  35.6960882   5.5316852  29.4629238  36.2321182   5.2537922
  29.0021982  35.6038241   6.3830417  28.9513914  35.7622244   5.6165380
  28.6350034  40.4832076   7.8043263  29.4623464  40.2117225   7.8601878
  28.6557880  41.2792918   8.1607082  28.7602885  40.5611831   7.8658446
  33.4726214  54.2187213   3.9385735  34.2618592  53.8676278   4.0587817
  33.6469812  55.0323602   3.6762369  33.6146496  54.2873071   3.9173603
  23.2119524  47.6295939   0.9913524  22.3707531  47.5299813   1.1992418
  23.4209532  48.3991419   1.3427845  23.1184217  47.7287983   1.0740839
  20.6895091  45.2515476  -1.1801725  20.2951789  45.3258488  -1.9551616
  20.1335208  45.6373422  -0.6293364  20.5497904  45.3197251  -1.2134065
  32.3260038  38.2296770  -1.4997846  32.5309631  38.1619078  -0.6540849
  31.9986462  39.0355591  -1.5676669  32.3075286  38.3382711  -1.3838191
  27.0236189  45.5577338   0.2411122  26.7199327  45.0033327   0.8421529
  26.3215610  45.7369548  -0.2460844  26.8752399  45.5022121   0.2580827
  25.0854540  52.7727059   4.9483219  24.9774895  52.7829121   5.8145277
  25.2950322  53.5981839   4.7588173  25.1004651  52.8968134   5.0487311
  35.5793726  38.7828534  -2.0195081  34.9668039  39.2698937  -1.6341349
  35.6757901  38.1072025  -1.4757430  35.5031623  38.7546843  -1.8816223
  23.1028332  50.0239702   2.4105157  22.5116265  50.6649200   2.3808172
  23.8649356  50.4477319   2.3836456  23.1276593  50.1815540   2.4020304
  23.4988955  41.1841699   3.0773175  23.9590437  41.2580629   3.8148298
  23.5445062  41.9822953   2.7272996  23.5739510  41.3135846   3.1345931
  25.1472305  41.8508394   7.6445202  24.7557870  41.2041741   8.0800979
  25.3158167  42.4419829   8.2639457  25.1143215  41.8422662   7.8007908
  39.2218754  49.8545471   3.4082435  39.2801877  50.3032120   4.1542412
  38.5885221  50.2644284   2.9712515  39.1370049  49.9819206   3.4534984
  32.8617848  55.4749013  -0.1562819  32.6637537  55.9639828  -0.8506607
  32.2405559  55.6790255   0.4221315  32.7405413  55.5765551  -0.1739595
  26.9225827  47.2433910  -5.8152574  27.6667872  47.6308186  -5.5769624
  27.0686523  46.3991335  -5.6512087  27.0536412  47.1764383  -5.7558605
  28.8405402  39.0384169  -0.7820713  27.9941447  39.2106977  -0.9079363
  28.8376535  38.2333513  -0.4454885  28.7152552  38.9445198  -0.7509586
  29.9103703  42.8159383   0.0841345  29.4363657  42.2901145   0.5946656
  30.2821838  42.2688856  -0.4843793  29.8953592  42.6575380   0.0756492
  20.2876733  44.8130890   5.4524891  21.1502346  44.7126599   5.3662221
  19.9568516  44.2325599   4.8910463  20.3661929  44.7122517   5.3570297
  36.1740433  47.8761759   1.4948126  35.9338656  47.0368174   1.4990552
  36.6532440  47.9561926   2.2188899  36.2092617  47.7643159   1.6022928
  38.1745620  44.6563216  -0.5522615  37.9355390  44.6159050  -1.3901831
  38.3379521  45.5034368  -0.4256894  38.1635924  44.7755301  -0.6569133
  34.7791650  49.0413165   5.3782430  35.5025849  48.5885692   5.1993450
  34.5141613  49.3217831   4.5954758  34.8472924  49.0164134   5.2361145
  23.6478519  43.6373339   2.1135309  23.0231589  43.6491731   1.5061262
  23.3124114  44.1133514   2.7626549  23.5064011  43.7091856   2.1191877
  20.3604194  51.6973799   3.5539073  19.8304119  51.0066238   3.6034048
  20.6329288  51.6883984   2.7251782  20.3228917  51.5940931   3.4386489
  30.5610440  49.1397044   3.5277445  29.9467433  48.5955094   3.8226080
  31.0777725  48.6261280   3.0483261  30.5466102  48.9833453   3.5001673
  29.8006737  50.2101314   1.2621743  29.3734345  49.5851032   0.8287179
  29.7931681  49.9276236   2.0880751  29.7365878  50.0754094   1.3201571
  22.9169264  45.2466487   4.3310177  23.0762751  44.4909811   4.7361899
  22.7362158  45.7957426   4.9850915  22.9134623  45.2160300   4.4872883
  30.8589567  37.4127722   4.8860967  30.3630128  37.6091396   4.1952534
  31.6158629  37.8120391   4.7149769  30.8976392  37.5005456   4.7581104
  28.1292447  41.0870068   1.4764277  28.1534934  40.5530180   0.7877057
  28.3803920  40.5787377   2.1389868  28.1702365  40.9330972   1.4728922
  24.4093769  39.8140886   0.8570022  24.4492141  40.3150093   1.5704729
  23.5843434  39.9051280   0.5875945  24.2933295  39.9022703   0.9220560
  26.5923382  49.3801626   8.9590316  25.7419012  49.5173341   9.0947961
  26.7551510  48.6465405   9.4038018  26.4907245  49.2915728   9.0445916
  25.8308132  46.3301396   3.1543921  25.0000062  46.4975214   2.9479169
  25.7759649  45.9537347   3.9392806  25.6997547  46.2991128   3.2392449
  23.6391916  39.8210289   8.7900332  24.2644619  39.2772422   9.0629764
  23.1842395  39.3405207   8.2208122  23.6640176  39.6699771   8.7461925
  37.2126964  48.0039576   3.8812979  37.8044805  48.6436827   3.9131178
  37.6485959  47.3062613   4.1705046  37.3645395  47.9957927   3.9293812
  29.0420354  52.4256949   4.5070873  28.5345445  52.9792795   4.9511504
  28.7447000  52.4865238   3.6889648  28.9225239  52.5163260   4.4519330
  31.2082536  40.7910268   3.3495536  31.6337608  40.3382795   2.7379063
  30.5939529  40.2370339   3.6260324  31.1811182  40.6424244   3.3000562
  34.2376106  45.2184795  -3.8183878  33.5667296  45.7614497  -3.9470812
  34.9315856  45.6879650  -4.0602183  34.2404973  45.3683066  -3.8728350
  28.2862839  57.3581507   1.4127880  28.0628494  56.6000336   1.7811907
  27.7972683  57.3879528   0.6908320  28.1806288  57.2503731   1.3604621
  34.4004233  41.6740678  -0.9093505  34.7531843  41.2470401  -0.2347706
  33.5419035  41.5891522  -0.7792428  34.3253678  41.5985419  -0.7898494
  23.0987918  44.3048198  -2.8510658  22.3799907  44.7212331  -2.5837795
  23.4700280  44.8702437  -3.4019020  23.0479850  44.4497480  -2.8927851
  32.3987499  44.9376047   3.0391337  32.3785426  44.7559342   3.8926116
  32.4466700  45.8088066   3.0150921  32.4022140  45.0392585   3.1614632
  30.3433829  51.5263239   8.9639814  30.3029684  50.8812916   8.3784970
  31.1557147  51.4699856   9.2765226  30.4576982  51.4222206   8.9236763
  26.9341296  57.5781965  -1.1335035  26.5201695  56.9156095  -1.5231193
  27.6188671  57.7259824  -1.6539341  26.9739668  57.5022623  -1.2678538
  30.3006590  56.7372050  -0.3811419  29.9022874  56.8474321  -1.1490598
  29.6857810  56.9454117   0.2015141  30.1505480  56.7845618  -0.4080119
  35.8328293  36.7959090   0.0190808  35.3259158  36.0888230  -0.0488015
  36.6295727  36.4652279   0.1491884  35.8755532  36.6432242   0.0289803
  31.7492309  43.3025703  -4.0835529  31.5206002  43.3258404  -4.9257170
  32.0090385  42.4783170  -3.9640518  31.7538497  43.1841782  -4.1910331
  26.0311538  45.1560176   5.5189572  25.5190441  44.5481359   5.8774603
  25.8591034  45.8716768   5.9863547  25.9301175  45.1723475   5.6405795
  20.8777252  43.5997751   8.1691933  20.7079842  44.2599126   7.6240140
  20.4343202  43.8104312   8.8904423  20.7876586  43.7283733   8.1953563
  24.8037072  41.8402249  -2.7881333  25.2794438  42.2019329  -3.4231152
  24.3025671  42.4958716  -2.5081190  24.8002431  41.9896438  -2.8404592
  29.9080608  43.0784420   7.9591827  30.4652038  42.8498230   7.3270293
  29.5841673  43.8390086   7.6827040  29.9427018  43.1568257   7.8248324
  17.7779317  46.5044616   3.4280423  17.2306036  45.8345262   3.5461292
  18.5671695  46.1374464   3.4923891  17.8131500  46.3509603   3.4549124
  27.6263725  46.1652074   8.9243834  28.3775052  46.4803750   9.2383389
  27.8186302  45.9631244   8.0977756  27.7655139  46.1819455   8.8487230
  34.4749015  42.2925640  -3.8332370  34.4743242  42.1374296  -2.9748094
  34.2705195  43.1388627  -3.8890985  34.4448793  42.3946261  -3.7144431
  16.5366286  45.7165424   0.5826446  16.3588047  45.2642033   1.3081362
  16.2485308  46.5191586   0.7664924  16.4679239  45.7687982   0.7169949
  32.1989867  46.9723142  -0.1796163  32.6943533  46.2546137  -0.2192143
  31.3889643  46.6693939  -0.2941676  32.1533761  46.8220788  -0.2022438
  34.2641686  49.7226829   2.5080965  34.6896758  49.2001251   1.9551390
  33.8998606  50.3207667   1.9869588  34.2728289  49.7337056   2.3489975
  23.8995766  58.0191047   1.2678311  24.2142325  58.8327435   1.2756093
  24.3089179  57.6341265   1.9360470  24.0063864  58.0819749   1.3682403
  30.8520286  53.4361093  -1.1617877  31.3231464  54.1501356  -0.9927892
  31.1880464  52.8359844  -0.6258008  30.9715401  53.4532558  -1.0585501
  32.9397270  55.0462407  11.0174195  33.0494236  54.2570967  11.3730942
  33.2688167  54.9568343  10.2148533  33.0049676  54.9168260  10.9516586
  27.7689781  38.2088564   5.7940218  27.9017686  37.4119557   6.1221193
  28.1534933  38.7354967   6.3738493  27.8446109  38.1688481   5.9283721
  31.4894232  53.2279028   5.6009816  30.9415178  52.6036911   5.3329881
  31.9507261  53.4173300   4.8853895  31.4761441  53.1638078   5.4560247
  30.8422136  35.1318890   2.3921311  30.0368099  35.0216620   2.7089149
  30.7128871  35.2331346   1.5351177  30.7042269  35.1302560   2.3129351
  34.2988096  41.2964382   2.9861008  33.7151085  41.7973589   2.5738575
  34.6192390  40.7893938   2.3525331  34.2601272  41.2956217   2.8319515
  25.4278227  38.2047739   4.0418111  25.9722640  37.8638866   4.6322453
  25.4815163  39.0633201   4.1839396  25.5167347  38.2802998   4.1499985
  21.2408786  51.9664155   0.9156919  21.8453643  51.9259989   0.2870740
  21.0336099  52.8135307   0.9460975  21.2997683  52.0852158   0.8273036
  31.0552558  54.2330100   2.1319157  31.8750932  54.0893066   2.3935452
  30.7746636  54.8576299   2.6735595  31.1349302  54.3040452   2.2507096
  31.9116054  62.2610012   2.6495178  31.7874751  62.8472457   3.2844997
  32.5634339  61.7670208   2.9507453  31.9889703  62.2748816   2.7881107
  35.3497262  62.1789433   8.0624202  35.5217766  62.0695328   8.9109484
  35.8866620  62.8243839   7.8255395  35.4542266  62.2581435   8.1529299
  41.2871964  70.0993684  10.0133278  42.0712380  70.2124532  10.3789021
  41.0868558  69.2734821  10.2091964  41.3737989  69.9940404  10.0967664
  34.4057585  58.3099743   5.5444130  33.7129382  57.8396722   5.7904862
  35.0217913  58.0838047   6.1185837  34.3942115  58.2066874   5.6653283
  33.1298144  62.2765146   6.6870975  33.8538117  62.2618177   7.1735870
  33.2314281  62.9860502   6.1892943  33.2516353  62.3789850   6.6849762
  40.5043094  65.7564231  11.5519922  39.7116075  66.0707743  11.7372542
  40.6192021  65.9715700  10.7140707  40.4038504  65.8348068  11.4558257
  39.4298606  60.1168812   3.8883690  39.0413039  59.6923029   3.2335881
  38.7653304  60.3650961   4.3960716  39.2745534  60.0907533   3.8671558
  43.2524968  53.8143440   1.4007674  43.6335479  53.1321612   1.7875548
  42.4488252  53.5253043   1.2183338  43.1901429  53.6710489   1.4311730
  37.2116808  56.3197639  11.2670282  36.8970249  57.0897201  11.0039845
  36.8906741  55.7567895  10.6822509  37.1175727  56.3507907  11.1411632
  43.8881594  54.8566020   5.2127800  44.6335186  54.6675830   4.7991226
  43.4718898  55.3824258   4.6541657  43.9366568  54.9068165   5.0692374
  36.8433313  58.9194890  10.0055497  36.0333089  59.2252669   9.8945339
  37.3208000  59.6400472  10.1208081  36.7936792  59.0709491  10.0062568
  33.1777345  64.4557440   4.8754899  33.6898442  64.7341693   4.2263659
  32.8913688  65.1946734   5.2417712  33.2112208  64.6059794   4.8344777
  36.6961071  56.5483829   4.9355941  36.5044268  56.5638963   5.7855364
  37.5459667  56.7447503   4.9122596  36.7936793  56.5798180   5.0579236
  31.0807984  59.0774810   2.9139757  30.9393476  58.2258751   3.0384265
  31.3648547  59.1203471   2.0901963  31.1015830  58.9574560   2.8107382
  37.1943603  63.6498619   6.4707229  37.3386979  64.2299827   5.8350339
  37.5419252  64.0274916   7.1757083  37.2671065  63.7919323   6.4806224
  39.6065298  56.7439338   5.1427764  40.0637912  57.4763312   5.2700556
  39.6821627  56.3205803   5.9015020  39.6856268  56.7896576   5.2728841
  31.8498289  56.9905158   6.2317208  31.3140478  56.3785516   6.5477975
  31.9116054  57.5653294   6.8850874  31.7793922  56.9852086   6.3752635
  37.4847676  58.7341442   1.9869588  36.6943750  58.5532902   2.3086924
  37.8808299  57.9568395   1.9699883  37.4264552  58.5928903   2.0322136
  39.9985506  61.2101701   6.4693087  39.9344647  62.0711658   6.3413224
  40.1382694  60.8933694   5.6688638  40.0100976  61.2901868   6.3321300
  44.3783297  67.9846423  12.0257538  45.1918162  67.7131572  12.1862670
  44.2178263  67.6853963  11.2217734  44.4753245  67.9001349  11.9302944
  41.6555459  58.6680080   4.9652926  41.8697428  58.0290994   4.4116280
  41.0389358  59.1125904   4.5360788  41.5960788  58.6390224   4.8203357
  43.8194547  60.2769145   5.9036233  43.0071229  59.9695036   5.9849406
  44.2784481  59.7968145   6.4678945  43.7674932  60.1605638   5.9990827
  40.9148054  61.6829217  10.6864936  41.3847685  62.3071333  11.0732810
  40.9609934  61.0146192  11.2458150  40.9915930  61.6763897  10.8265007
  38.0719328  53.7886244   1.4113739  37.5557817  53.0966436   1.5365318
  37.5113257  54.4557021   1.3576338  37.9125841  53.7849502   1.4219805
  40.1411561  54.3279204   3.2406592  39.7543315  54.3528236   4.0220122
  39.6544499  53.7620883   2.7881109  40.0124070  54.2474955   3.2894496
  39.8068703  51.2146190   5.5316852  40.4361821  51.7506490   5.2537922
  39.9754566  51.1223549   6.3830417  39.9246498  51.2807552   5.6165380
  39.6082618  56.0017384   7.8043263  40.4356047  55.7302533   7.8601878
  39.6290464  56.7978226   8.1607082  39.7335468  56.0797139   7.8658446
  34.4721539  56.7027007   3.0773175  34.9323020  56.7765937   3.8148298
  34.5177645  57.5008261   2.7272996  34.5472094  56.8321154   3.1345931
  36.1204888  57.3693702   7.6445202  35.7290453  56.7227049   8.0800979
  36.2890751  57.9605137   8.2639457  36.0875799  57.3607970   7.8007908
  31.2609316  60.3316198   5.4524891  32.1234929  60.2311907   5.3662221
  30.9301099  59.7510907   4.8910463  31.3394513  60.2307825   5.3570297
  34.6211102  59.1558647   2.1135309  33.9964172  59.1677039   1.5061262
  34.2856697  59.6318822   2.7626549  34.4796594  59.2277164   2.1191877
  33.8901848  60.7651795   4.3310177  34.0495334  60.0095119   4.7361899
  33.7094741  61.3142734   4.9850915  33.8867207  60.7345608   4.4872883
  41.8322151  52.9313030   4.8860967  41.3362712  53.1276704   4.1952534
  42.5891213  53.3305698   4.7149769  41.8708975  53.0190764   4.7581104
  35.3826352  55.3326194   0.8570022  35.4224724  55.8335401   1.5704729
  34.5576017  55.4236588   0.5875945  35.2665878  55.4208011   0.9220560
  37.5655965  64.8986934   8.9590316  36.7151596  65.0358649   9.0947961
  37.7284093  64.1650713   9.4038018  37.4639829  64.8101036   9.0445916
  34.6124499  55.3395597   8.7900332  35.2377203  54.7957730   9.0629764
  34.1574979  54.8590515   8.2208122  34.6372760  55.1885078   8.7461925
  42.1815120  56.3095576   3.3495536  42.6070191  55.8568103   2.7379063
  41.5672113  55.7555647   3.6260324  42.1543765  56.1609552   3.3000562
  41.3166412  67.0448547   8.9639814  41.2762267  66.3998224   8.3784970
  42.1289731  66.9885164   9.2765226  41.4309566  66.9407514   8.9236763
  37.0044121  60.6745483   5.5189572  36.4923024  60.0666666   5.8774603
  36.8323617  61.3902076   5.9863547  36.9033758  60.6908783   5.6405795
  31.8509836  59.1183059   8.1691933  31.6812426  59.7784434   7.6240140
  31.4075786  59.3289620   8.8904423  31.7609169  59.2469041   8.1953563
  40.8813191  58.5969728   7.9591827  41.4384622  58.3683538   7.3270293
  40.5574256  59.3575394   7.6827040  40.9159602  58.6753565   7.8248324
  28.7511900  62.0229924   3.4280423  28.2038620  61.3530570   3.5461292
  29.5404278  61.6559772   3.4923891  28.7864084  61.8694911   3.4549124
  38.5996309  61.6837381   8.9243834  39.3507636  61.9989058   9.2383389
  38.7918885  61.4816552   8.0977756  38.7387723  61.7004763   8.8487230
  27.5098870  61.2350732   0.5826446  27.3320631  60.7827341   1.3081362
  27.2217892  62.0376894   0.7664924  27.4411823  61.2873290   0.7169949
  38.7422364  53.7273872   5.7940218  38.8750270  52.9304865   6.1221193
  39.1267517  54.2540275   6.3738493  38.8178693  53.6873789   5.9283721
  41.8154719  50.6504198   2.3921311  41.0100683  50.5401928   2.7089149
  41.6861455  50.7516654   1.5351177  41.6774852  50.6487868   2.3129351
  36.4010811  53.7233047   4.0418111  36.9455224  53.3824174   4.6322453
  36.4547747  54.5818509   4.1839396  36.4899930  53.7988306   4.1499985
  35.0448086  39.1167564  -5.0035751  35.2168590  39.0073459  -4.1550469
  35.5817444  39.7621970  -5.2404559  35.1493090  39.1959566  -4.9130654
  40.9822788  47.0371815  -3.0526675  41.7663204  47.1502663  -2.6870933
  40.7819382  46.2112952  -2.8567989  41.0688813  46.9318535  -2.9692289
  40.1993918  42.6942362  -1.5140031  39.4066899  43.0085874  -1.3287411
  40.3142845  42.9093831  -2.3519246  40.0989328  42.7726199  -1.6101696
  36.9067632  33.2575770  -1.7989671  36.5921073  34.0275333  -2.0620108
  36.5857565  32.6946026  -2.3837444  36.8126551  33.2886039  -1.9248321
  36.5384137  35.8573021  -3.0604456  35.7283913  36.1630801  -3.1714614
  37.0158824  36.5778603  -2.9451872  36.4887616  36.0087622  -3.0597385
  36.8894427  40.5876750  -6.5952724  37.0337803  41.1677958  -7.2309614
  37.2370076  40.9653047  -5.8902870  36.9621889  40.7297454  -6.5853729
  39.6936330  38.1479832  -6.5966866  39.6295471  39.0089789  -6.7246729
  39.8333518  37.8311826  -7.3971315  39.7051800  38.2279999  -6.7338653
  44.0734121  44.9224554  -1.0402415  44.8868986  44.6509703  -0.8797283
  43.9129087  44.6232094  -1.8442219  44.1704069  44.8379480  -1.1357009
  43.5145371  37.2147276  -7.1623720  42.7022052  36.9073167  -7.0810547
  43.9735305  36.7346276  -6.5981008  43.4625756  37.0983769  -7.0669126
  40.6098878  38.6207348  -2.3795018  41.0798509  39.2449464  -1.9927144
  40.6560758  37.9524323  -1.8201803  40.6866754  38.6142028  -2.2394946
  37.2606789  41.8365066  -4.1069637  36.4102420  41.9736780  -3.9711992
  37.4234917  41.1028844  -3.6621935  37.1590653  41.7479167  -4.0214038
  41.0117236  43.9826678  -4.1020139  40.9713091  43.3376355  -4.6874983
  41.8240555  43.9263296  -3.7894727  41.1260390  43.8785645  -4.1423190
  40.5764015  35.5347859  -5.1068126  41.1335446  35.3061669  -5.7389661
  40.2525080  36.2953525  -5.3832914  40.6110426  35.6131696  -5.2411629
  38.2947133  38.6215513  -4.1416119  39.0458460  38.9367189  -3.8276565
  38.4869709  38.4194684  -4.9682197  38.4338547  38.6382894  -4.2172723
  79.2423179  79.2423179  79.2423179 109.4712190 109.4712190 109.4712190
