default_name
 44024
  38.5125451  30.1606595  23.9601861  38.9992860  30.6052319  24.7253917
  38.2289856  30.8703055  23.2998097  39.0544602  29.3676921  23.6477278
  37.2206014  29.5758112  24.4995922  36.3790022  30.0355031  23.9814287
  37.1486394  28.0599389  24.3005099  37.0676199  27.8828980  23.2280400
  38.0879234  27.6455185  24.6667083  35.9677060  27.3772420  25.0253839
  36.2306450  27.3573525  26.0830079  35.1044557  28.0262896  24.8782849
  35.5379441  25.6488056  24.4673955  34.6226774  25.9965539  22.9576293
  35.2642019  26.5331959  22.2586580  34.2972593  25.0596773  22.5054502
  33.7513674  26.6077346  23.1929553  37.0836732  29.8672855  26.0176374
  35.9777450  30.0780323  26.5193669  37.8806791  32.3413260  27.5488312
  38.6644736  31.9500297  28.0514769  37.5585139  33.7611306  27.7556458
  37.7084223  34.0320810  28.8007355  38.4887237  34.6462100  26.8735680
  38.5271033  34.2401095  25.8627720  38.1000078  35.6640253  26.8411318
  39.7569946  34.6561249  27.4127931  40.3312219  35.2013152  26.8699945
  36.1422698  34.1105902  27.3520820  35.7198632  35.2679694  27.4459385
  35.4216920  33.1277594  26.7975982  35.7621060  32.1772162  26.8237765
  34.1218412  33.3824327  26.1746782  33.9562000  34.4564342  26.0899264
  34.0711144  32.7601962  24.7565479  34.8185100  33.3033002  24.1781560
  34.3925725  31.7266499  24.8851820  32.7107472  32.7897265  24.0028669
  32.8132970  32.1589902  23.1198290  31.9616552  32.3620223  24.6692222
  32.2785503  34.1775140  23.5834485  33.0606150  35.1283555  23.7700640
  31.1486306  34.2838480  23.0675933  33.0388325  32.7075196  27.0471841
  32.9511391  31.4450755  27.1121902  32.2649476  33.5058237  27.7627585
  32.4606598  34.4933575  27.8438338  31.0943570  32.9510729  28.5108882
  31.4404877  32.2395206  29.2605455  30.3183830  34.0811042  29.2238579
  30.0184510  34.7765208  28.4399347  29.4300925  33.6548972  29.6901064
  31.1470028  34.8315204  30.2870807  32.0092881  35.2971806  29.8098748
  30.2667154  35.9349583  30.9644203  29.4044185  35.4699816  31.4422691
  30.8568702  36.4617018  31.7143266  29.9251331  36.6424924  30.2088958
  31.6803447  33.8718698  31.3420183  32.3168102  33.1256013  30.8665244
  32.2606159  34.4271604  32.0789301  30.8459632  33.3748696  31.8368892
  30.1241399  32.1854775  27.6060189  29.8359283  32.6226655  26.4888484
  29.6308479  31.0488176  28.1207384  30.0595346  30.6461420  28.9418227
  28.4979093  30.3277704  27.4945196  28.6247019  30.2995430  26.4122877
  28.3621898  28.8683200  28.0175596  27.5764634  28.3651954  27.4539997
  29.7022466  28.0901219  27.8482921  30.4884013  28.5924251  28.4119869
  29.5818755  27.0729256  28.2210139  29.9748129  28.0600987  26.7933481
  27.9790356  28.8643636  29.3981697  27.8995752  27.9583980  29.7055991
  27.1936877  31.0714373  27.7414237  27.1287130  31.9411830  28.6336545
  26.1567148  30.7955903  26.9241909  26.0867044  30.0361922  25.6554321
  25.9240472  28.9787204  25.8637500  27.0155195  30.1574944  25.0980387
  24.8950047  30.6860852  24.9511815  24.4414240  29.9987071  24.2371262
  25.1967969  31.5978134  24.4356482  23.9436569  31.0009537  26.1036871
  23.3762269  30.1257697  26.4201916  23.2553593  31.8059653  25.8461944
  24.8824989  31.4547602  27.2380346  25.0371585  32.5300946  27.1495214
  24.3578751  31.1252356  28.6542639  23.8507276  32.0349378  29.3120575
  24.5720238  29.9047708  29.1631203  24.9852842  29.1787513  28.5954840
  24.1723490  29.5712510  30.5419763  23.1291847  29.8540019  30.6832538
  24.3202955  28.0851285  30.8494443  25.2827107  27.7582077  30.4557706
  24.3125826  27.9672626  31.9330255  23.1992463  27.2330381  30.2338245
  22.2635406  27.4655499  30.7422476  23.1321559  27.5427164  29.1908972
  23.4555496  25.7282205  30.3024804  24.2966866  25.2821946  31.1175328
  22.7705079  24.9756989  29.5470268  24.9815011  30.3558621  31.5791085
  24.4458237  30.8133006  32.6033686  26.2818707  30.4922993  31.3308269
  26.7348428  30.0666808  30.5347336  27.0985954  31.2515638  32.2643145
  26.9229074  30.8926356  33.2784168  28.5934924  31.0964367  31.9403341
  28.7072163  31.2686861  30.8700555  29.1214594  31.8748261  32.4912068
  29.1801897  29.7271835  32.3023756  29.2966896  29.6643802  33.3843110
  28.4784219  28.9630768  31.9680672  30.5416509  29.5022080  31.6271657
  30.9206764  30.2797462  30.7128905  31.2462183  28.5686225  32.0043832
  26.6732703  32.7285952  32.1886188  26.5606641  33.3760409  33.2204307
  26.4123695  33.2742087  30.9949041  26.4204896  32.7380279  30.1390165
  26.0774118  34.6978760  30.9191689  26.8920740  35.2526607  31.3846134
  25.8643652  35.2408993  29.4888865  25.0675782  34.6505305  29.0364548
  25.5392177  36.2769455  29.5836889  27.0640224  35.1793506  28.6378780
  27.8475281  35.7980808  29.0753623  27.4087959  34.1471491  28.5762880
  26.7323265  35.6946644  27.2248166  25.8457413  35.2045293  26.8225318
  26.5827703  36.7743516  27.2220057  27.8723369  35.3776655  26.3672193
  27.8544980  34.4897271  25.8862342  28.9207629  36.1788368  26.1840681
  28.9794772  37.4012746  26.7811086  28.2198532  37.7084893  27.3716089
  29.7823853  37.9952725  26.6307603  29.9164870  35.7503672  25.3961974
  29.8563257  34.8409242  24.9610030  30.7225760  36.3388290  25.2411749
  24.7965881  34.9829722  31.6378424  24.6754100  36.0202988  32.2826488
  23.8264820  34.0656735  31.5322040  23.9297059  33.2642802  30.9262231
  22.5587601  34.2487912  32.2246150  22.1456529  35.2299039  31.9903939
  21.5567612  33.1787512  31.7854036  21.3264362  33.2916962  30.7260203
  21.9663391  32.1844809  31.9636524  20.3753696  33.3445692  32.5445737
  19.7318995  32.6814851  32.2840637  22.7087168  34.2472196  33.7470421
  22.1435520  35.0997384  34.4470382  23.4478149  33.2732482  34.2412665
  23.7688488  32.5503568  33.6132023  23.7788258  33.1614441  35.6334125
  22.8712781  33.0959932  36.2335562  24.5902028  31.9235938  35.8566798
  23.9416407  31.0768863  35.6318405  25.4114900  31.9517250  35.1405820
  25.1411123  31.7762399  37.2425955  26.0059254  31.1155756  37.1815890
  25.4634124  32.7672004  37.5623127  24.1511647  31.2201068  38.2445346
  22.9784487  30.8980208  37.8772148  24.5815508  31.1061465  39.4171244
  24.5470876  34.3722586  36.1862705  24.3451754  34.6959734  37.3510289
  25.4233029  34.9805394  35.3741434  25.5411964  34.6202749  34.4379757
  26.2935193  36.0817467  35.8119468  26.3569125  36.0823530  36.9001013
  27.7261371  35.9336674  35.2315300  27.5095390  35.8682321  34.1652736
  28.3720589  36.7915149  35.4185664  28.4410378  34.6388365  35.6934173
  27.7365900  33.8104451  35.6184386  29.6709084  34.3403031  34.8368952
  30.3760687  35.1680992  34.9117369  30.1467107  33.4253422  35.1898251
  29.3684194  34.2142317  33.7973247  28.7384365  34.6384219  37.1958067
  27.8045827  34.7227622  37.7515973  29.2395637  33.7092907  37.4672622
  29.3831227  35.4829177  37.4393339  25.7947780  37.4988194  35.5133721
  26.4646812  38.4691633  35.9164420  24.6290274  37.6119004  34.8711975
  24.0876101  36.7803759  34.6826936  24.0872800  38.9024191  34.4483910
  24.6801983  39.3259363  33.6377244  22.6583394  38.6822924  33.9459113
  22.6171003  37.7059427  33.4630659  21.9924667  38.6887031  34.8088554
  22.2258508  39.7398670  32.9728852  22.0502885  40.6853244  33.4860995
  22.9804332  39.8816801  32.1991950  20.9281612  39.2603372  32.3344012
  21.1392626  38.8982889  31.3281924  20.5159196  38.4481620  32.9331730
  19.9124650  40.4085625  32.2619518  19.0172487  40.0394165  31.7615324
  19.6623424  40.7058854  33.2803510  20.4488364  41.5872183  31.5169335
  20.6802653  41.3120271  30.5731061  19.7507109  42.3167142  31.4933442
  21.2781251  41.9296941  31.9807113  24.0406429  39.8859702  35.6193654
  24.5121255  41.0234444  35.5276124  23.4776751  39.4103406  36.7496069
  22.9737568  38.5350639  36.7571139  23.3742894  40.2836405  37.9264355
  23.0732306  41.2777557  37.5959846  22.3461024  39.7754036  38.9653704
  22.5756336  38.7421476  39.2257481  22.4215168  40.3993206  39.8559547
  20.9185088  39.8400075  38.4463753  20.6132645  40.5677681  37.4975301
  20.0123301  39.0501383  39.0703087  19.0492945  39.0538664  38.7659268
  20.3036917  38.4609452  39.8371598  24.6969810  40.6624868  38.5458477
  24.8638089  41.8207659  38.9332478  25.6361748  39.7159207  38.6515676
  25.4155683  38.7524158  38.4439853  26.9741007  40.0294821  39.1329226
  26.9044964  40.5026089  40.1124150  27.8326847  38.7640064  39.2595392
  27.9534669  38.3001486  38.2805874  28.8122692  39.0210897  39.6625559
  27.1838918  37.8550929  40.1368813  27.7140646  37.0593660  40.2225284
  27.7047119  41.0362978  38.2620555  28.4577882  41.8466428  38.7493193
  27.4907728  40.9533129  36.9515515  26.9371511  40.2042555  36.5610196
  28.1426033  41.8757168  36.0388007  29.2014529  41.9892292  36.2712910
  27.9851969  41.3695535  34.5824543  26.9705192  40.9925675  34.4543480
  28.2540315  42.5302071  33.5345583  29.2687437  42.9074095  33.6617515
  28.1354713  42.1418071  32.5230299  27.5428277  43.3398859  33.6979858
  28.9516194  40.1854039  34.3592340  29.9625512  40.5929482  34.3541921
  28.8359750  39.5124090  35.2088244  28.7053790  39.4099272  33.0541783
  28.8213117  40.0822049  32.2040593  29.4253167  38.5955067  32.9735050
  27.6947339  39.0016675  33.0586908  27.5988942  43.3061070  36.2395951
  28.3797696  44.2823456  36.2800889  26.2852712  43.4071096  36.4260246
  25.7004908  42.5904274  36.3203774  25.6334960  44.7057483  36.6814201
  25.9549852  45.4246845  35.9278456  24.0885334  44.5448608  36.5880683
  23.7504091  43.8347206  37.3427026  23.6112709  45.5099171  36.7583251
  23.8201956  44.1770886  35.5976958  26.0967590  45.2655939  38.0302304
  26.3724325  46.4714627  38.1770586  26.2736400  44.3767854  39.0121885
  26.2080986  43.3817863  38.8516258  26.5539470  44.8386235  40.3565674
  25.9038582  45.6743828  40.6153920  26.2957972  43.6803193  41.3584057
  25.2490162  43.3908861  41.2657924  26.9307151  42.8437733  41.0665665
  26.5944852  44.0659338  42.8207086  27.6371584  44.3776616  42.8820209
  25.9486745  44.9094275  43.0647292  26.3411363  42.9175029  43.8218629
  26.1734761  41.7340649  43.3929496  26.3250619  43.2083904  45.0496186
  28.0198393  45.3103451  40.4811283  28.2700774  46.3713253  41.0670320
  28.9704514  44.4876206  39.9824321  28.6873339  43.6989321  39.4185932
  30.4182399  44.6667799  40.2671012  30.5610821  45.4340031  41.0280637
  31.0046794  43.3545821  40.7813059  30.6794947  42.5130627  40.1695876
  32.0933079  43.4088166  40.7744775  30.6020347  43.0440879  42.1822072
  31.0909010  43.8160754  43.2510206  31.7728870  44.6422009  43.0497454
  30.7096325  43.5313737  44.5587779  31.0906450  44.1390291  45.3795612
  29.8465985  42.4768553  44.8189555  29.5525373  42.2577072  45.8454067
  29.3555965  41.6982932  43.7718265  28.6879854  40.8596425  43.9694641
  29.7299859  42.0040761  42.4481549  29.3314189  41.4182355  41.6198826
  31.2482075  45.1257651  39.0937775  32.3330071  45.6871230  39.2759119
  30.7303494  44.9400742  37.8955977  29.7794275  44.6219545  37.7745737
  31.5800465  45.1032696  36.6832334  32.5470044  45.5339335  36.9432722
  31.8118012  43.7133034  36.0591184  30.8845527  43.2474602  35.7255023
  32.4894122  43.8201032  35.2120427  32.4633743  42.7429755  37.0134906
  33.7755865  42.8660873  37.4059314  34.0754068  41.8880355  38.2637825
  35.0540779  41.8554804  38.7425747  33.0276343  41.0813758  38.3693808
  32.9806269  40.2247780  38.9024196  31.9894642  41.6084120  37.6199432
  31.0206010  41.1092576  37.6041233  31.0227133  46.0639542  35.6736539
  31.4587966  46.0529144  34.4787738  30.1537492  46.9640746  36.1257830
  29.8478817  46.9584948  37.0883386  29.6013518  48.0215553  35.2074184
  30.0647082  47.8756544  34.2316556  28.0597597  47.8694372  35.0537861
  27.5905245  48.0987552  36.0105158  27.4984053  48.8397237  33.9484483
  27.9668680  48.6106894  32.9912725  26.4193897  48.7101890  33.8645131
  27.7197360  49.8710576  34.2231548  27.7988675  46.5389017  34.6147171
  26.8524360  46.4159458  34.5110371  29.9288230  49.3578923  35.8232657
  29.9072228  49.4827436  37.0263757  30.1909866  50.3740530  35.0010050
  29.9907272  50.3190777  34.0125854  30.7666863  51.6200355  35.5271603
  30.6890354  51.6385519  36.6142328  32.2579613  51.7163185  35.1371966
  32.4128228  51.7063859  34.0582997  32.5838264  52.6745940  35.5416963
  33.0597634  50.6037314  35.7709483  33.5124236  50.7276221  37.0741090
  33.3126248  51.6590136  37.6039107  34.2014835  49.7081860  37.7041094
  34.5912776  49.8320702  38.7144633  34.4422799  48.5132257  36.9977878
  35.1122826  47.5071489  37.6517747  35.3511675  47.7391270  38.5521745
  33.9763529  48.3423240  35.7153142  34.1507572  47.4092664  35.1795091
  33.2675861  49.3882153  35.0949450  32.8767649  49.2582094  34.0857586
  30.0835469  52.8326359  34.9725887  29.7393381  52.8633625  33.7823740
  29.9266629  53.8262199  35.8362230  30.0133633  53.6827433  36.8322134
  29.6248609  55.1745421  35.3530264  28.9397985  55.1184720  34.5070685
  28.9751272  56.0008833  36.4499568  28.1572680  55.4085726  36.8602902
  29.7276664  56.1639172  37.2214519  28.4367209  57.3495527  35.9704023
  28.0376341  57.2530312  34.9606924  27.6393851  57.6547977  36.6480329
  29.5037772  58.4191151  35.9675817  30.3382254  58.4893664  36.8809556
  29.5039243  59.2489681  34.9268929  30.1943549  59.9840177  34.8711336
  28.8136062  59.1398013  34.1977531  30.9637885  55.7499844  34.9593703
  31.8984851  55.7955808  35.7936090  31.0923276  56.1383293  33.6939324
  30.3306161  56.0335280  33.0390190  32.3660410  56.6696175  33.1993479
  33.1021026  56.6341646  34.0025015  32.8993543  55.8667745  32.0118851
  32.0978819  55.9799809  31.2818676  33.8005750  56.3540165  31.6397338
  33.1810331  54.3698267  32.2362720  32.3368593  53.9382874  32.7740873
  33.3738174  53.6363170  30.9313786  34.2181668  54.0670218  30.3931720
  33.5703664  52.5830526  31.1316370  32.4723446  53.7283869  30.3255979
  34.3800411  54.1720740  33.1528071  34.1813258  54.6386021  34.1176715
  34.5574786  53.1060439  33.2949225  35.2611736  54.6297608  32.7031100
  32.2260879  58.1302469  32.8095378  31.3388108  58.5173390  32.0553123
  33.1265197  58.9182096  33.3618044  33.5718728  58.6325535  34.2221303
  33.4005065  60.2329764  32.8582277  32.4797854  60.7295090  32.5519157
  34.0543810  61.0581702  33.9789776  34.9582436  60.5429056  34.3039914
  34.3203180  62.0302679  33.5637624  33.1127322  61.2547821  35.1855414
  31.8643140  61.2257270  35.0122733  33.6202486  61.4321883  36.3216695
  34.2291950  60.2309967  31.5425250  34.8685328  59.2128037  31.1690384
  34.1913866  61.3711208  30.7988635  33.2490235  62.5035420  30.9618233
  33.5632507  63.1119333  31.8098926  32.2482196  62.1131304  31.1464022
  33.3442537  63.2383819  29.6600432  33.1874965  64.3048332  29.8219315
  32.5936212  62.8627808  28.9646468  34.7416923  62.9560762  29.1510316
  35.5039709  63.5888036  29.6056595  34.7914296  63.0505522  28.0662735
  34.9662197  61.4891681  29.5613791  34.5059379  60.8071134  28.8465083
  36.4714389  61.1707356  29.6791620  37.0621492  60.7270809  28.7211318
  37.1184495  61.3726697  30.8107325  36.7280305  61.7433070  31.6653087
  38.5543614  61.0109532  30.7938752  38.9216438  61.3006389  29.8093525
  39.0258960  61.6331557  31.5545450  38.9229704  59.5350175  31.0530705
  40.0959505  59.2327767  31.2304772  37.9506929  58.6259433  31.0713661
  36.9828415  58.8709986  30.9186876  38.2621315  57.2583309  31.5352749
  39.3131035  57.0402919  31.3454962  37.9964131  57.1116559  33.0280154
  38.2157515  56.0868688  33.3276840  38.6470968  57.7960168  33.5724059
  36.6577482  57.4075427  33.3210565  36.5076368  57.3103781  34.2642561
  37.6225102  56.1547579  30.7052963  36.8238915  56.4127100  29.8057726
  38.0334148  54.9062847  30.9599173  38.6708335  54.7117719  31.7188386
  37.5831541  53.7982458  30.1387491  36.5717752  54.0039716  29.7881943
  38.4961885  53.5768987  28.9108457  38.0951144  52.7691670  28.2986297
  38.5415334  54.4917773  28.3200487  40.2413859  53.1200458  29.2792902
  40.6333085  53.0342474  28.0112470  37.5860605  52.5442130  31.0253500
  38.2086793  52.5462409  32.0957521  36.8764955  51.5271652  30.5761749
  36.3506737  51.6091381  29.7177512  36.7564995  50.2763908  31.3547694
  37.6637781  50.1307985  31.9410693  35.5480520  50.3156636  32.3166765
  35.5648863  49.4114449  32.9251206  35.6513379  51.1886227  32.9611720
  34.3016604  50.3907306  31.6050902  33.5756794  50.4133140  32.2328174
  36.6724343  49.0813787  30.4420722  36.3300647  49.1985491  29.2318552
  36.9738396  47.9079297  31.0066581  37.2369842  47.8689340  31.9809957
  36.8375867  46.6323807  30.2639470  36.0918033  46.7457811  29.4771517
  38.1694698  46.2269807  29.6217843  38.9503654  46.4457807  30.3500891
  38.1231567  45.1513464  29.4515903  38.4664455  46.8919878  28.3903189
  39.3119150  46.5837458  28.0560017  36.5131898  45.5648562  31.2924571
  36.9036598  45.7031061  32.4628767  35.8169568  44.5308401  30.8249698
  35.4669696  44.5905581  29.8794318  35.4963629  43.3559332  31.6006310
  35.9205964  43.4395386  32.6011985  33.9629373  43.2127166  31.7248927
  33.7602471  43.9596470  32.4924284  33.4827382  43.5107086  30.7928467
  33.4089961  41.8566751  32.1735335  33.7624501  41.0808359  31.4943835
  33.8979339  41.5351900  33.6387138  33.5444497  42.3104026  34.3185617
  33.5003733  40.5696192  33.9513145  34.9872552  41.5031272  33.6599619
  31.8728124  41.7683593  32.0197641  31.6029650  41.9127210  30.9736085
  31.5297354  40.7882253  32.3510293  31.4013869  42.5417924  32.6261123
  36.1173531  42.1078223  30.9316412  35.9755652  41.9247087  29.7070876
  36.7683154  41.2525122  31.7335026  36.9325700  41.4818138  32.7033173
  37.2931020  39.9652049  31.2167348  36.9739196  39.8183552  30.1849126
  38.8271806  39.9699841  31.2595619  39.1136871  40.1834818  32.2893346
  39.3024070  39.0441978  30.9352477  39.4045949  41.0650203  30.4187091
  39.4620245  40.9738881  29.0488529  39.9164453  42.1206360  28.5589581
  40.0087297  42.2655821  27.4825878  40.1894813  42.9269972  29.5680998
  40.5767893  43.8573835  29.5012139  39.8590398  42.2924788  30.7430721
  39.9910014  42.8058641  31.6955021  36.7861964  38.7581596  32.0058529
  36.6127629  38.8783234  33.1925417  36.5048525  37.6454409  31.2939788
  36.6037617  37.6555190  30.2888844  36.0617005  36.3970737  31.9399747
  35.8795657  36.5242495  33.0070981  34.7739346  35.8874417  31.2801981
  34.9432010  35.7465010  30.2126848  34.4857840  34.9374942  31.7303861
  33.9765236  36.6157068  31.4280656  37.1427635  35.3718220  31.7755767
  37.8855815  35.3508939  30.7707441  37.2285425  34.4629616  32.7423904
  36.6850998  34.5044210  33.5927141  38.1507462  33.3795488  32.5781005
  38.3223985  33.1803926  31.5202860  39.5108373  33.7653475  33.2401969
  39.9424000  34.5729491  32.6488996  39.2918678  34.1279975  34.2445063
  40.5358504  32.5712197  33.3251025  41.3247118  32.8451311  34.0256531
  40.0155717  31.6866016  33.6923394  41.1621131  32.2442013  32.0020066
  41.6884744  33.1351367  31.2908822  41.1205110  30.9469902  31.6226313
  41.5267879  30.6686266  30.7408409  40.6833500  30.2622792  32.2227667
  37.5670278  32.1310502  33.2341005  37.3469160  32.1337978  34.4363003
  37.3796420  31.0597600  32.4449377  37.5648217  31.1430086  31.4555553
  36.8945242  29.7563694  32.9626670  36.1356882  29.9191271  33.7280278
  36.2672081  28.9218666  31.8106282  35.6467477  29.5900434  31.2134113
  37.0806082  28.5360608  31.1961088  35.3829122  27.7101444  32.3409555
  36.0537676  26.9625493  32.7642231  34.7237279  28.0896443  33.1216974
  34.5366643  27.0666771  31.2211714  35.1955225  26.6666219  30.4504830
  33.9338070  26.2597707  31.6377822  33.6471115  28.0476069  30.6119994
  32.7832420  28.2478700  31.0954491  33.8756348  28.6461181  29.4475234
  34.9800063  28.3572842  28.7521655  35.6393639  27.6834042  29.1144268
  35.1500971  28.8142342  27.8676512  33.0265322  29.5647412  29.0240492
  32.2202931  29.7998019  29.5851419  33.1873372  30.0279567  28.1410589
  38.0828716  29.0246987  33.5667619  39.1969577  29.0246584  32.9898051
  37.8705606  28.4146762  34.7402740  36.9615699  28.4703340  35.1770090
  38.9166661  27.6693635  35.4195164  39.7369276  27.4829024  34.7263335
  39.4544725  28.4436664  36.6664182  38.6447456  28.5660082  37.3857758
  40.6007615  27.6723710  37.3170747  41.4111118  27.5500291  36.5984194
  40.9647172  28.2240498  38.1838431  40.2457751  26.6917445  37.6340219
  39.9333048  29.8453881  36.1906115  40.6221708  29.7078720  35.3571526
  39.0633365  30.4087251  35.8531119  40.6624152  30.6443889  37.3531641
  41.5328152  30.0818524  37.6908864  40.9816414  31.6178445  36.9809035
  39.9739810  30.7827035  38.1868471  38.3236531  26.3360593  35.8636400
  37.2682367  26.2902373  36.5222578  39.0290881  25.2563727  35.5050425
  39.8786166  25.3750635  34.9718323  38.5494351  23.8824312  35.7620694
  37.4644283  23.8791048  35.8662254  38.9349597  22.9592310  34.5865078
  39.9913715  23.1753964  34.4272416  38.7977419  21.8838586  34.6998460
  38.2202465  23.3532979  33.3240549  36.8697175  23.1557715  33.1718292
  36.4650580  23.6848015  32.0250124  35.4232300  23.6198389  31.7112078
  37.5134099  24.2369127  31.4407140  37.5144225  24.7111675  30.5489847
  38.6167700  24.0642334  32.2437379  39.5793230  24.4785319  31.9438219
  39.1085432  23.4568023  37.1170854  39.9840862  22.6086668  37.2070893
  38.6089024  24.1255494  38.1476742  37.9286821  24.8462107  37.9526180
  39.0259150  23.9215638  39.5380038  39.1598382  22.8589762  39.7406641
  40.3248824  24.6379556  39.8355058  40.2038617  25.7045113  39.6459984
  40.5946379  24.4834011  40.8802283  41.1133108  24.2428092  39.1949285
  37.9029668  24.4056422  40.4417137  37.0451675  25.1639887  39.9959962
  37.8660192  23.9292134  41.7174579  38.8214842  22.9905045  42.3577745
  39.6512951  23.5390374  42.8034490  39.2069546  22.2824821  41.6241426
  37.9489244  22.3319065  43.3844332  38.5447088  21.9052753  44.1913568
  37.3346985  21.5514932  42.9352305  37.0658003  23.5122383  43.8915809
  37.6913001  24.0794493  44.5808709  36.1225496  23.2639402  44.3781256
  36.8000555  24.3410412  42.6244272  35.8335636  24.1806408  42.1466579
  36.9608699  25.8197716  42.9607309  38.1053946  26.2905893  43.0870317
  35.8316943  26.5200362  43.1460461  34.4386397  26.1132719  42.8636586
  34.2461605  25.1406165  43.3164208  34.2917705  26.0471074  41.7856277
  33.6400420  27.1889520  43.4739438  33.4536413  26.9644344  44.5241560
  32.6894392  27.2898336  42.9502276  34.4868694  28.4506969  43.3149369
  34.2836699  29.1140114  44.1556645  34.2997144  28.9807851  42.3810850
  35.9402295  27.9789650  43.3646690  36.5302166  28.4052230  42.5533012
  36.6056883  28.3021232  44.7015670  37.2584803  29.3415628  44.8123408
  36.4784538  27.4125996  45.7096642  35.8359400  26.6339284  45.6788994
  37.1813807  27.6781251  46.9557184  36.9742573  28.6996295  47.2746661
  36.7312804  26.6986613  48.0908723  37.2913139  26.9549232  48.9902007
  35.6680548  26.8622660  48.2666131  36.9742229  25.2020941  47.7375064
  37.8729820  25.1798343  47.1211969  37.1621437  24.6739343  48.6722963
  35.8113421  24.5125175  46.9796705  35.0053036  25.1914250  46.2973895
  35.7029560  23.2511451  47.0918005  38.6854579  27.6875974  46.7300015
  39.4099489  28.4895352  47.3557832  39.1930959  26.8109218  45.8667230
  38.6312180  26.0815945  45.4514230  40.6227055  26.8428376  45.5621716
  41.1992263  26.8804107  46.4864612  41.0249323  25.5882455  44.7860626
  40.7410905  24.7837219  45.4644984  40.3656369  25.5804675  43.9180942
  42.4574486  25.3855933  44.3338480  42.6217117  26.0141011  43.4585786
  43.4886311  25.7441161  45.4251578  43.3252826  25.1156559  46.3006314
  44.4957651  25.5786165  45.0425460  43.3740212  26.7915974  45.7039909
  42.6119203  23.9193220  43.9400954  41.9207463  23.6852533  43.1304105
  43.6341866  23.7373851  43.6084754  42.3913171  23.2865414  44.7997592
  41.0413602  28.1145848  44.7790909  42.0502052  28.7718046  45.1027575
  40.2827335  28.4526510  43.7465282  39.5278556  27.8679290  43.4173492
  40.5777128  29.7075731  43.0045486  41.5712305  29.6897045  42.5565504
  39.5358839  29.9472419  41.8869595  38.5354893  29.8704073  42.3128777
  39.7233674  31.3489529  41.2622305  40.7234416  31.4263889  40.8356673
  38.9816838  31.4998875  40.4778679  39.5973474  32.1102368  42.0320795
  39.6268803  28.8513090  40.7867210  39.4404688  27.8735023  41.2308459
  38.8821156  29.0473896  40.0153732  40.6219112  28.8640231  40.3419145
  40.6051972  30.9029912  43.9747910  41.5293423  31.7477947  43.9350813
  39.5838123  30.9859641  44.8190934  38.8008236  30.3591102  44.7004248
  39.4646017  32.0807433  45.8157624  39.5270215  33.0428934  45.3073628
  38.1059189  32.0059250  46.5748529  37.2496868  32.1230016  45.9105797
  38.0415294  31.0441270  47.0836736  37.9746211  33.0672368  47.6395501
  37.9117962  32.8643740  48.9895104  37.9269629  31.8251374  49.3179262
  37.8407410  34.0557815  49.6619896  37.7968587  34.1668787  50.6649010
  37.8457751  35.0801802  48.7445002  37.7835620  36.4512603  48.9600225
  37.7230828  36.8150154  49.9857531  37.8028921  37.2845041  47.8324631
  37.7600474  38.3662815  47.9590407  37.8782746  36.7420873  46.5072157
  37.8851800  37.3872789  45.6287058  37.9461023  35.3452943  46.3049719
  37.9783956  34.9633946  45.2845747  37.9367616  34.4997029  47.4486790
  40.6930519  32.1730172  46.7730500  41.2103536  33.2456580  47.0699450
  41.1388649  31.0085322  47.2715673  40.6377499  30.1541485  47.0740535
  42.3169031  30.9385746  48.1458333  42.1360207  31.4694194  49.0804907
  42.6038047  29.4540905  48.4683598  43.1161518  29.3858810  49.4280197
  41.6621116  28.9076212  48.5201819  43.4299856  28.8855102  47.4446392
  43.6050186  27.9641413  47.6496821  43.5531778  31.5948376  47.5140860
  44.4262765  32.0888964  48.2154144  43.6343011  31.6318232  46.1759544
  42.9176024  31.2034684  45.6076635  44.7519042  32.2653435  45.5086992
  45.6676987  32.2508140  46.0996378  45.0183643  31.5969025  44.1163305
  44.0914450  31.6087846  43.5429371  46.1181556  32.3481985  43.3325995
  47.0455687  32.3363388  43.9051945  46.2787225  31.8592420  42.3717455
  45.8069914  33.3796771  43.1672878  45.3432151  30.1054531  44.3137556
  46.3989324  30.0460028  44.5783827  44.7388940  29.7604586  45.1527278
  45.0685410  29.2076088  43.0734816  45.6728980  29.5517290  42.2341762
  45.3271259  28.1748980  43.3074508  44.0128593  29.2661867  42.8085198
  44.4977599  33.7658903  45.2882998  45.3657431  34.6225093  45.5848568
  43.3377424  34.0534518  44.6990844  42.7344881  33.2916430  44.4237103
  42.9047160  35.4514696  44.3834958  43.5867200  35.9996793  43.7335451
  41.5191042  35.4273075  43.7302132  40.9469474  34.6277839  44.2008488
  40.7419777  36.7824186  43.8770781  41.3133376  37.5823951  43.4062420
  39.7689634  36.6981562  43.3930909  40.6029937  37.0094438  44.9340760
  41.6826272  35.0112275  42.2829359  42.1339945  34.0200886  42.2380641
  40.7064218  34.9875941  41.7986177  42.3253063  35.7261661  41.7691974
  42.8760461  36.3364322  45.6492937  43.1494299  37.5485882  45.5828093
  42.5500412  35.7469269  46.7946326  42.2801708  34.7738638  46.8150659
  42.4042487  36.5460764  48.0420614  41.9574868  37.5133478  47.8120851
  41.5006867  35.8142538  49.0426814  41.1774568  36.5165167  49.8110879
  40.6287542  35.4248079  48.5171667  42.2679615  34.6466265  49.7024607
  42.5595507  33.9325829  48.9322540  43.1603601  35.0384039  50.1905563
  41.3716626  33.9355536  50.7553271  40.4693621  33.5519737  50.2790718
  41.9177593  33.1116169  51.2146811  40.9832932  34.8821029  51.8020604
  40.0985374  35.3511388  51.6704850  41.6964680  35.1679715  52.8830021
  42.8808444  34.5708481  53.0856156  43.2278505  33.9027608  52.4123058
  43.4199640  34.7921778  53.9105172  41.2198959  36.0431432  53.7613355
  40.3240081  36.4802603  53.5988123  41.7556187  36.2674304  54.5876495
  43.7113917  37.0036541  48.6990316  43.7071987  37.8881606  49.5657535
  44.8169163  36.3802248  48.2974619  44.7209786  35.6434504  47.6133136
  46.1397502  36.6406473  48.8517449  46.0821577  36.7609970  49.9335482
  47.0571101  35.4589306  48.5400377  47.0190373  35.2694369  47.4673114
  48.0737272  35.7301396  48.8247048  46.6401677  34.2105350  49.2877098
  45.5757871  34.0301908  49.1371418  47.2084112  33.3556115  48.9212305
  46.9152590  34.4035489  50.7647851  46.4546540  35.3263576  51.1174408
  46.5234604  33.5614338  51.3352545  48.3608508  34.4869897  50.9842458
  48.9572317  34.2635769  50.2003352  48.9282138  34.8391527  52.1317079
  48.1634755  35.1604437  53.1750456  47.1576513  35.1342720  53.0871106
  48.5933257  35.4286021  54.0487844  50.2579158  34.8636178  52.2376196
  50.8294059  34.6137437  51.4432254  50.6869770  35.1318990  53.1117079
  46.7126162  37.9752000  48.3251741  47.6102910  38.0096616  47.4772694
  46.2157146  39.0554279  48.9052633  45.4672631  38.9561202  49.5761266
  46.6485370  40.4092858  48.5413366  46.4946850  40.5864463  47.4768917
  45.8238462  41.4243639  49.3290690  44.7634811  41.3131024  49.1024724
  45.9847261  41.2719679  50.3963052  46.1782186  42.8611748  49.0402583
  45.7155394  43.4747897  47.8709000  45.0995854  42.9112749  47.1700779
  46.0457675  44.8249985  47.5967569  45.6792310  45.2933499  46.6833027
  46.8317238  45.5520388  48.4836409  47.0922933  46.5879175  48.2664802
  47.2865388  44.9503471  49.6544101  47.8983191  45.5093798  50.3624407
  46.9461191  43.5926842  49.9233986  47.2933735  43.1149714  50.8395344
  48.1559027  40.6194728  48.7520000  48.7950856  41.3162672  47.9792434
  48.7485712  39.9457541  49.7483515  48.1973226  39.4004849  50.3955809
  50.1889017  40.0481607  49.9795006  50.5099570  41.0788675  49.8289475
  50.5514402  39.6226808  51.4247738  51.6403318  39.6306388  51.4732612
  50.1509862  40.3365357  52.1445986  50.0419690  38.2349956  51.7536478
  48.9066346  37.8534394  51.3268309  50.7523574  37.5326857  52.4910773
  51.0728497  39.2715482  49.0250297  52.2877314  39.4717360  49.0471989
  50.4988402  38.3993823  48.2034691  49.4935761  38.3019578  48.1962656
  51.2829435  37.5753790  47.2807809  52.3056342  37.9464950  47.2138782
  51.3181793  36.1304877  47.8001695  50.2868213  35.8075661  47.9420197
  51.7880270  35.5168799  47.0315157  52.0722109  35.9795049  49.0915906
  51.9308721  36.8683641  49.7064511  51.7085603  35.1043143  49.6300158
  53.5650445  35.8048328  48.7809420  53.8540712  36.5170061  48.0080437
  54.1422581  35.9968622  49.6854024  53.8455958  34.3639246  48.2859192
  54.1412570  33.7785556  49.1565673  52.9085833  33.9743701  47.8879818
  54.9167240  34.2697927  47.2305835  55.7851703  34.6303156  47.5992623
  55.0402602  33.3041692  46.9614925  54.6427577  34.8117941  46.4235667
  50.7122198  37.5206021  45.8687980  50.4445502  36.4428780  45.3662117
  50.5056718  38.6855052  45.2297067  51.0019809  40.0084357  45.6397580
  52.0168957  39.9151268  46.0262055  50.3547243  40.4181157  46.4152063
  50.9401938  40.8067464  44.3552697  51.9266283  40.7987958  43.8916073
  50.6601010  41.8325712  44.5947126  49.9502743  40.1870641  43.5016467
  50.2250513  40.3261353  42.4560579  48.9478746  40.5811853  43.6688679
  49.9927309  38.6825042  43.8610180  49.0087263  38.2142520  43.8849583
  50.8893457  37.9362930  42.8641170  50.3923438  37.4034448  41.8801516
  52.1845667  37.8766181  43.1245716  52.5630772  38.3860715  43.9102473
  53.1204523  37.2532150  42.1847755  52.9199306  37.6084715  41.1739922
  54.5816752  37.6119457  42.5549119  55.2145918  37.3103394  41.7203165
  54.6327216  38.6939448  42.6764535  55.0693261  36.9310042  43.8370555
  54.5490091  35.9766459  43.9181187  56.1410922  36.7535008  43.7481055
  54.8132329  37.7327714  45.1024533  53.7920601  38.4052648  45.2604711
  55.7697611  37.6699553  46.0177112  55.6687041  38.1775652  46.8850180
  56.5953347  37.1147644  45.8436631  52.8583482  35.7332863  42.0062727
  53.3309406  35.1221532  41.0312088  52.0476853  35.1311780  42.8792998
  51.6536478  35.6078897  43.6777857  51.7131022  33.7047415  42.6790249
  52.6377748  33.1278966  42.6608644  50.8013058  33.1187508  43.7224962
  50.5472159  32.1007210  43.4272779  51.4569952  33.0991571  45.0798545
  51.7109717  34.1169536  45.3759722  50.7704326  32.6696640  45.8094205
  52.3643362  32.4966677  45.0369675  49.5975461  33.9024915  43.7661676
  49.0040890  33.5408132  44.4284347  51.0156799  33.5173313  41.3287177
  51.1186990  32.4408537  40.7413174  50.3557982  34.5547827  40.8097538
  50.1065670  35.3501988  41.3801013  49.8212972  34.4849976  39.4295303
  50.3636725  33.7265360  38.8650269  48.3468777  34.1216479  39.4380739
  48.0743683  33.7448801  38.4522322  48.2575933  33.3193661  40.1705166
  47.4344824  35.2391302  39.8120971  46.7880534  35.9711326  38.8294136
  46.9766153  35.7335265  37.7824717  45.9285997  36.9738391  39.1551281
  45.4045917  37.5272849  38.3758880  45.7094939  37.2862149  40.5062754
  44.8766105  38.3192640  40.8292800  44.5023687  38.7541022  40.0595668
  46.3281338  36.5771475  41.5109306  46.1602449  36.8217935  42.5597691
  47.1664399  35.5491880  41.1737242  47.6401727  34.9538524  41.9542707
  50.0399180  35.6864613  38.4705955  49.8092718  35.5876412  37.2426029
  50.4748929  36.8044165  39.0001510  50.5427545  36.9346238  39.9994208
  50.8007895  37.9205113  38.1393898  50.2868271  37.8320671  37.1822484
  50.3446094  39.2178476  38.8233957  51.0247918  39.3949239  39.6565194
  50.4513109  40.0184435  38.0914387  48.9097796  39.1873565  39.3370015
  48.2134439  39.0247151  38.5143441  48.7865440  38.3976695  40.0781557
  48.6229905  40.5529908  39.9896851  49.1387652  40.5491119  40.9499248
  49.0715583  41.3044664  39.3399384  47.1935087  40.8725717  40.1992942
  46.6101876  40.5637822  39.3318346  46.8221680  40.3607094  41.0871017
  47.0573361  42.4312538  40.3960686  47.4009768  42.9057321  39.5733407
  46.0863840  42.6687470  40.5408062  47.5974373  42.7175294  41.2000811
  52.2913985  37.9527159  37.8080989  53.1480968  38.4018756  38.6599402
  52.6131585  37.6353746  36.5473202  51.9033008  37.5604840  35.8327624
  54.0165248  37.3113736  36.1827225  54.5175856  36.8657473  37.0420562
  54.0820528  36.3099788  34.9949631  53.2707404  36.4093378  34.2738534
  55.0301641  36.5384451  34.5081487  54.1367986  34.8588892  35.3834703
  54.9380550  34.3784977  36.4005982  54.8157002  33.0640378  36.4787932
  55.3552983  32.4999278  37.2395250  53.9861816  32.6660925  35.5292209
  53.6949798  31.7153011  35.3523112  53.5743037  33.7670974  34.8072766
  52.9143741  33.6403445  33.9490645  54.9050518  38.5272110  35.8233518
  56.1352347  38.3443150  35.5329020  54.2916568  39.7221000  35.8461770
  53.2964246  39.7618050  36.0136158  55.0143829  40.9785240  35.6676620
  55.8338279  40.8464115  34.9611527  54.0612569  42.0417699  35.1177229
  53.1240096  42.1370085  35.6659895  54.5983218  42.9897305  35.1498469
  53.6902390  41.7995597  33.6577883  54.7012628  41.8299899  32.6627995
  55.7289733  42.0512619  32.9508095  54.3867672  41.5774253  31.3126967
  55.1553776  41.6414451  30.5424758  53.0836426  41.2444039  30.9672174
  52.8466923  41.0359593  29.9239028  52.0611738  41.1734951  31.9583982
  51.0399665  40.9104127  31.6826745  52.3793986  41.4466398  33.3027951
  51.6069298  41.3840364  34.0692627  55.5502582  41.4772449  37.0078580
  56.1397650  42.5306926  37.0564647  55.2667072  40.7581687  38.0998769
  54.6834272  39.9350964  38.0505241  55.7480546  41.1961197  39.4243015
  56.0677371  42.2380948  39.4380932  54.6544690  40.9764194  40.5039270
  54.3093224  39.9444128  40.4411836  55.2196390  41.2631788  41.9813642
  55.5645706  42.2952014  42.0450215  54.4274988  41.0996671  42.7120342
  56.0505889  40.5893741  42.1901910  53.4440410  41.8402947  40.1443876
  53.7788892  42.8772599  40.1704766  53.1606131  41.5760789  39.1255853
  52.2238700  41.6691946  41.0794477  52.5064211  41.9336909  42.0984209
  51.4159608  42.3206352  40.7462705  51.8881464  40.6325086  41.0535313
  57.0291252  40.4815786  39.8270832  57.0794939  39.2320103  39.9227338
  58.0463138  41.2622172  40.1472566  57.9711885  42.2650120  40.0531395
  59.2963932  40.7104266  40.6101201  59.5032568  39.7630706  40.1123016
  60.4155254  41.6812250  40.2884472  60.3823807  41.8966926  39.2204704
  60.2410424  42.5993704  40.8493970  61.8160974  41.1045353  40.6587417
  61.8601781  41.0650038  41.7471327  61.8534556  40.0919199  40.2570995
  63.0097882  41.9094156  40.1277193  63.9107818  41.3889706  40.4524445
  62.9484116  41.8841944  39.0397412  63.0612169  43.3366320  40.5929961
  62.2578838  43.8759407  40.0910970  62.8833562  43.3392021  41.6683835
  64.3860193  44.0144212  40.2982925  64.5508159  44.0125285  39.3018296
  64.3587276  44.9668771  40.6332298  65.1304901  43.5150899  40.7636209
  59.2498326  40.4419054  42.1264698  59.6686903  39.3796675  42.5944430
  58.7423804  41.3998350  42.8817726  58.4754361  42.2876826  42.4810647
  58.6002339  41.2181517  44.3505668  58.3645469  40.1789243  44.5798203
  59.9309072  41.5920863  45.0559741  59.8801087  41.2860933  46.1009081
  60.7540806  41.0726280  44.5654147  60.1482837  43.0090622  44.9827108
  60.9731777  43.2293553  45.4215966  57.4478642  42.0712586  44.8585263
  56.9726096  43.0053467  44.1917014  56.9593973  41.7521743  46.0535302
  57.3261549  40.9901209  46.6056741  55.8641971  42.5247396  46.5940275
  55.8718793  43.5336940  46.1816550  54.5384469  41.8544391  46.2226860
  54.3816289  41.8696400  45.1441332  54.5078778  40.8248748  46.5792853
  53.1012229  42.6808195  46.9507085  52.1918339  41.8598678  46.4330713
  56.0393701  42.5554582  48.1060393  56.3387082  41.5235998  48.7043126
  55.9424655  43.7176354  48.7000113  55.9363793  44.6058140  48.2191776
  56.0188623  43.7203756  50.1587176  55.8975659  42.7064555  50.5399687
  57.3609393  44.2475523  50.6079437  57.5436041  43.9401810  51.6376309
  58.1419859  43.8426152  49.9644439  57.3704844  45.6485626  50.5296618
  58.2250452  45.9792270  50.8159951  54.8411772  44.4400737  50.8074152
  54.2563354  45.3925921  50.2514595  54.4830453  43.9434997  51.9926619
  54.9589273  43.1219649  52.3372142  53.4431148  44.5203697  52.8038798
  53.0994295  45.4512849  52.3529068  52.2566102  43.5472134  52.8861924
  52.6065295  42.5718723  53.2243720  51.2825368  44.0605275  53.8226520
  50.9317861  45.0357113  53.4848778  50.4390788  43.3728284  53.8838795
  51.7411516  44.1606865  54.8063909  51.5715353  43.3935077  51.5155002
  52.2891951  43.0081794  50.7912153  50.7355178  42.6995122  51.6023596
  51.2043298  44.3638908  51.1814081  54.0226080  44.7822838  54.2103555
  55.1126941  44.3336225  54.5315663  53.2700198  45.4870100  55.0331148
  52.4947478  45.9993597  54.6374502  53.5462246  45.6376842  56.4857952
  54.4329453  46.2480949  56.6567464  52.3436069  46.3363868  57.1169555
  51.4436471  45.8603010  56.7277078  52.3994582  46.1806198  58.1943215
  52.2952479  47.8395441  56.8201717  52.9375375  48.0615314  55.9679472
  51.2633794  48.0870562  56.5710046  52.7377065  48.6622835  58.0136629
  52.0350531  49.6541198  58.3576119  53.7797613  48.2919391  58.6194251
  53.8709810  44.3423349  57.2602288  53.1750626  43.3251899  57.0998560
  50.7147874  42.2148725  59.9222896  51.0129400  41.4508620  60.5117744
  49.2895417  42.5700118  59.9103030  48.8927528  42.4757176  60.9211276
  49.0521105  44.0173393  59.4191466  49.5311925  44.1454907  58.4484990
  47.9848441  44.2184150  59.3263505  49.6196326  45.0933733  60.3294577
  49.8826174  44.8378597  61.6858123  49.6755772  43.8491336  62.0952691
  50.4124748  45.8527547  62.5194137  50.6199420  45.6401952  63.5681637
  50.6718084  47.1366514  61.9951653  51.0789954  47.9174299  62.6375698
  50.4046412  47.4078280  60.6440240  50.6014396  48.3947807  60.2253415
  49.8734984  46.3823151  59.8221106  49.6528285  46.5834639  58.7738053
  48.5030863  41.6007435  59.0278174  49.0180642  41.1449851  57.9980160
  47.2669900  41.2822962  59.4289101  46.9494569  41.5125761  60.3596320
  46.3661229  40.5226742  58.5546333  46.9162992  39.7354640  58.0391671
  45.2125665  39.8791482  59.3470214  45.6189056  39.1812082  60.0790512
  44.6467513  40.6558926  59.8614350  44.3015192  39.1384510  58.3975685
  43.8944057  39.8358708  57.6654722  44.8665584  38.3611855  57.8830900
  43.1579637  38.5005071  59.1830849  42.1144673  39.1885185  59.3423238
  43.3388212  37.3312641  59.6163996  45.8573570  41.4885691  57.4655487
  45.5720062  42.6575709  57.7403241  45.7660523  41.0188689  56.2275575
  46.0823099  40.0937173  55.9742297  45.3931762  41.9376188  55.1602974
  45.8710875  42.9021475  55.3317159  45.8345485  41.4059574  53.7741001
  45.4981259  40.3712310  53.7088285  45.3161118  42.0039895  53.0246463
  47.4058995  41.4711191  53.5115738  47.8540826  40.8543207  54.2905426
  47.5560212  40.9966338  52.5418165  48.2152994  43.1241315  53.5081398
  49.0395663  43.2389407  55.1349855  49.7663238  42.4324433  55.2323741
  49.5494782  44.1987673  55.2175888  48.2952616  43.1541911  55.9267742
  43.9038026  42.3049257  55.2904887  43.0206529  41.4333841  55.3430997
  43.6524676  43.6064776  55.4264137  44.4293454  44.2499173  55.3759596
  42.3163590  44.1510559  55.6385909  41.5188071  43.4260154  55.4763367
  42.2092393  44.6860619  57.0770762  42.3196543  43.8613473  57.7811740
  42.9958760  45.4200733  57.2518045  40.8476667  45.3438608  57.2746742
  40.7366993  46.1690212  56.5711848  40.0604769  44.6102958  57.1005572
  40.7414861  45.8741783  58.7005473  40.8519028  45.0494648  59.4046460
  41.5281219  46.6081907  58.8752737  39.4301155  46.5208870  58.9296242
  38.7673935  46.5497325  58.1680030  39.0844800  47.0658020  60.0925964
  39.9026066  47.0670033  61.1411992  40.8168324  46.6445212  61.0650411
  39.6059049  47.4903901  62.0088462  37.8797210  47.6210182  60.1884682
  37.2608742  47.6184059  59.3902691  37.5892120  48.0427111  61.0590303
  42.1132488  45.3008103  54.6207825  43.0884169  45.8756358  54.1489171
  40.8618508  45.6195903  54.2910665  40.1165261  44.9615490  54.4687520
  40.5536354  46.8310679  53.5039465  40.9544452  46.7612541  52.4927211
  39.0084956  47.1135098  53.4139310  38.6076759  47.0986459  54.4274505
  38.6876358  48.4585635  52.7585742  39.0877666  48.4740069  51.7447903
  37.6071430  48.5980748  52.7243329  39.1391230  49.2630694  53.3391181
  38.3006368  45.9892044  52.6580591  38.4574255  45.0450852  53.1797471
  37.2328674  46.2019032  52.6058369  38.7061327  45.9177462  51.6488180
  41.3602429  48.0291893  53.9950752  41.3831149  48.3621221  55.2171405
  42.0414499  48.6654154  53.0392163  42.0384617  48.2616697  52.1134303
  42.7874070  49.9053838  53.2525694  42.6591941  50.5648837  52.3942451
  42.4238018  50.4042350  54.1509224  44.2652800  49.5965596  53.4223605
  45.0732300  50.5178250  53.3681500  44.6522685  48.3275320  53.6422463
  43.9859525  47.5783248  53.7639468  46.0991017  47.9927359  53.6593449
  46.5961569  48.6094245  54.4081644  46.3445159  46.5426305  53.9895462
  45.7209654  45.8908708  53.3775875  47.3928602  46.2806236  53.8466241
  45.9506409  46.1321049  55.7346609  46.2741957  44.8447727  55.6510768
  46.6917868  48.2225972  52.2676082  45.9661873  48.1481146  51.2574662
  47.9919883  48.4613286  52.2213237  48.5416382  48.5665356  53.0621066
  48.6536175  48.6986291  50.9135713  47.9760567  48.4854121  50.0868011
  49.1698706  50.1737232  50.7711985  49.7342875  50.2493830  49.8417850
  47.9999773  51.2010336  50.7526458  47.4353430  51.1262825  51.6820004
  48.4024745  52.2090576  50.6527321  47.3419662  50.9879488  49.9101989
  50.0739649  50.4563497  51.8500844  50.3949850  51.3576038  51.7707905
  49.7899151  47.6985485  50.6522582  50.3710164  47.0923343  51.6076177
  50.1291574  47.4881082  49.3701355  49.5979966  47.8878923  48.6097802
  51.2823358  46.6410902  49.0434473  51.8155005  46.3766557  49.9566335
  50.8282067  45.3583114  48.3555495  51.7183878  44.7439228  48.2206294
  50.1443605  44.8602396  49.0428477  50.1358259  45.5588537  47.0017102
  49.3103655  46.2613019  47.1169592  50.8526097  45.9560914  46.2830133
  49.5851339  44.1871403  46.4853211  50.4120613  43.5366425  46.2004658
  48.9957868  43.7044929  47.2649497  48.7284257  44.4002760  45.3118811
  48.8288277  45.2759061  44.8186361  47.8195266  43.5210224  44.8736464
  47.6441508  42.3496122  45.5070913  48.2018902  42.1301503  46.3200263
  46.9553409  41.6935845  45.1675799  47.0801790  43.8034730  43.7671837
  47.2199260  44.6768894  43.2796238  46.3948374  43.1384897  43.4382419
  52.2350053  47.4039504  48.1293844  51.7627603  48.2644174  47.3537438
  53.5383798  47.1494546  48.2445520  53.8928213  46.5610927  48.9850254
  54.4897104  47.7765529  47.3511747  53.9741614  48.5378040  46.7656790
  55.6520442  48.4413127  48.1065974  56.0751143  47.6361960  48.7073453
  56.4043140  48.8058727  47.4071074  55.2135636  49.5810033  49.0208305
  54.3211542  50.3857043  48.6942700  55.8506480  49.7123432  50.0812748
  55.0118311  46.7629990  46.3652277  55.7710943  45.8835138  46.7099103
  54.6581686  46.9545053  45.0946731  54.1403055  47.7793507  44.8271900
  55.0246096  45.9904063  44.0456702  55.3114398  45.0091019  44.4236508
  53.8255454  45.8152775  43.0635730  53.4440290  46.8063309  42.8178950
  54.2299331  45.0812040  41.7621016  54.6111423  44.0898273  42.0069541
  53.3595103  44.9851178  41.1130777  55.0043032  45.6510361  41.2485415
  52.6159226  45.0856275  43.7382741  52.2721185  45.6663961  44.5941997
  51.8038692  44.9852913  43.0181342  52.9283684  44.0964439  44.0729294
  56.2263809  46.5670939  43.2994228  56.2690593  47.8029055  43.0398881
  57.1989407  45.7139530  42.9908585  57.1879230  44.7838840  43.3844949
  58.3071111  46.0809272  42.1101971  58.2230469  47.1185591  41.7871607
  59.6996092  45.8489475  42.7402220  59.7465654  44.8323443  43.1306238
  60.8340987  46.0514298  41.6655380  60.7880695  47.0680182  41.2749870
  61.8070277  45.8839650  42.1275610  60.6930768  45.3425705  40.8496149
  59.9096996  46.7598132  43.9768382  60.0702204  47.7692657  43.5982360
  58.9821761  46.7299842  44.5485984  61.1083135  46.3524997  44.9036744
  62.0363095  46.3825472  44.3326924  61.1742654  47.0483087  45.7400949
  60.9482661  45.3432642  45.2830532  58.1348242  45.2084041  40.8502841
  57.9681177  44.0002412  40.9439346  58.1091877  45.8359340  39.6774606
  58.1400377  46.8386340  39.5602417  57.8459290  45.0062475  38.4982209
  57.3845008  44.0608598  38.7835719  56.9561429  45.6892182  37.4388421
  56.8542048  45.0439873  36.5662683  55.5309425  45.9482192  38.0715596
  55.6320235  46.5937981  38.9439766  54.8883209  46.4311051  37.3353809
  55.0883107  44.9986055  38.3722466  57.5865952  46.9352740  36.9498629
  58.5522423  46.7025959  36.5009880  56.9423542  47.4005095  36.2038005
  57.7302977  47.6219726  37.7840664  59.1347668  44.4595818  37.8715210
  60.2286708  44.9265343  38.1700414  58.9702390  43.4914542  36.9921584
  58.0503563  43.1148930  36.8129463  60.0955883  42.9295105  36.2708005
  60.9210758  42.7107489  36.9481578  59.7102520  41.6287004  35.4780055
  60.5815926  41.2621831  34.9352983  59.2253490  40.5408218  36.4720851
  58.3536882  40.9064599  37.0148713  58.9580666  39.6385098  35.9220905
  60.0231148  40.3120686  37.1787255  58.6395238  41.9033237  34.3887360
  57.7415225  42.2837301  34.8755474  59.0285531  42.6575096  33.7046604
  58.2728106  40.5471135  33.5527089  57.8832558  39.7925738  34.2360950
  57.5200448  40.7769025  32.7986268  59.1702876  40.1663518  33.0652097
  60.6373928  43.9428964  35.2835812  59.9416564  44.9166085  34.9496057
  61.8511487  43.7036440  34.8143575  62.3905777  42.9135521  35.1381945
  62.4665903  44.6146685  33.8225854  62.4438182  45.6395477  34.1929950
  63.9242723  44.2157241  33.5761499  64.3644857  44.9243883  32.8746468
  64.4617586  44.2613923  34.5233157  64.0169887  42.8955989  33.0398049
  64.9396027  42.6728012  32.8957758  61.7524092  44.6427276  32.4780353
  61.0552212  43.6837245  32.1041703  61.9819694  45.7251862  31.7260211
  62.4673096  46.5319179  32.0917099  61.5268050  45.7608798  30.3374930
  62.2823988  46.2918291  29.7584679  61.4596023  44.7306017  29.9880501
  60.1883001  46.4368708  30.1373864  59.7403168  46.6111356  28.9822237
  59.5392408  46.8308001  31.2400118  59.9527209  46.6998887  32.1521498
  58.2119791  47.4404587  31.1613242  57.7415562  47.2079571  30.2059476
  57.3264957  46.8763577  32.2990158  57.9071671  46.9951708  33.2137854
  56.4737737  47.5549823  32.3198453  56.8264968  45.4312376  32.1957642
  57.6621849  44.7673137  31.9745599  56.1807403  45.0190122  33.5563118
  55.3446267  45.6822426  33.7779837  55.8219147  43.9917580  33.4923290
  56.9242463  45.0948596  34.3497515  55.7951766  45.2886932  31.1567355
  56.2089241  45.5793279  30.1911041  55.4644697  44.2510244  31.1122657
  54.9467922  45.9299456  31.3957715  58.2953221  48.9679011  31.2856696
  59.3238631  49.4884317  31.7657336  57.2153304  49.6791453  30.9060270
  56.0589613  49.1809885  30.1353441  55.5761340  48.3700931  30.6807126
  56.3944871  48.8160310  29.1646086  55.1402735  50.4619129  30.0130719
  54.4304706  50.5058969  30.8391133  54.5972215  50.4559692  29.0680002
  56.1150293  51.6062800  30.0649768  55.5715853  52.4749994  30.4365871
  56.6018659  51.8585710  29.1229370  57.1540713  51.1715360  31.0854686
  58.1394225  51.5976711  30.8968152  56.7162386  51.5093758  32.5218518
  55.8377087  52.3610596  32.7544738  57.4048999  50.8670151  33.4735710
  58.1629677  50.2519499  33.2144814  57.0674888  50.9934298  34.8933720
  56.9984111  52.0419228  35.1831821  55.7511756  50.3204320  35.1998644
  55.8077903  49.2675702  34.9235007  55.5388225  50.4048741  36.2656392
  54.9552605  50.8022939  34.6320375  58.1840475  50.3819092  35.6986542
  58.9046432  49.5115387  35.2149693  58.3305652  50.8764720  36.9286848
  57.8287439  51.7126823  37.1914147  59.2414784  50.2860877  37.8967925
  59.7301409  49.4225226  37.4456124  60.3379205  51.2955027  38.3562540
  59.8812268  52.1467102  38.8612054  60.9771024  50.7582205  39.0568783
  61.2040236  51.8166392  37.2035808  61.5091959  53.0174507  37.1379866
  61.6336679  50.9344504  36.3434008  62.2078030  51.2291555  35.5664724
  61.3900689  49.9610566  36.4585736  58.5389385  49.7506285  39.1281926
  58.9206447  48.7075320  39.6277786  57.5492484  50.4877865  39.6218611
  57.1743203  51.2576473  39.0862842  56.9327035  50.1769405  40.9256821
  57.1232234  49.1322475  41.1714827  57.5068864  51.0615979  42.0530153
  56.9831163  50.8161232  42.9768699  59.0202038  50.8459642  42.2480499
  59.5447246  51.0916984  41.3246907  59.3788783  51.4895065  43.0513587
  59.2089540  49.8039436  42.5062497  57.2886326  52.4425431  41.7250876
  57.6440574  52.9972731  42.4233341  55.4595023  50.4792926  40.8458369
  55.0180952  51.3019222  40.0167981  54.6922980  49.9074636  41.7548293
  55.0735703  49.1848532  42.3486011  53.3061825  50.2504172  41.9044544
  53.1511931  51.2826116  41.5903648  52.4049905  49.3284996  41.0404741
  52.6482769  49.4817129  39.9890766  52.5999301  48.2906177  41.3104733
  50.9942258  49.6320383  41.2624654  50.4532170  49.0529296  40.7206699
  52.9115031  50.1437057  43.3846665  53.3369305  49.2019066  44.0699788
  52.1391024  51.1194731  43.8711326  51.8697320  51.8984593  43.2874209
  51.5972149  51.0524037  45.2426604  52.0846137  50.2364433  45.7762804
  51.8357740  52.3699943  46.0266869  51.2644616  53.1742880  45.5632066
  51.3766275  52.1933685  47.5115872  51.9478621  51.3894992  47.9758983
  51.5462580  53.1213072  48.0577139  50.3153685  51.9460470  47.5373151
  53.2309259  52.6669172  45.9824485  53.4003059  53.4805581  46.4629684
  50.1259907  50.8875341  45.1254803  49.4586650  51.6858830  44.4494031
  49.5996276  49.8605105  45.7874112  50.1712554  49.3368142  46.4347776
  48.2224185  49.4506011  45.6000765  47.6727326  50.1973604  45.0271060
  48.2050889  48.1360726  44.8297281  48.7271929  47.3631831  45.3937746
  47.1776709  47.8208436  44.6476760  48.9281649  48.3624662  43.4668910
  48.3094239  49.0740336  42.9201441  49.8850926  48.8248201  43.7090016
  49.1655732  47.1220282  42.6008125  48.9351632  45.9557992  43.0368127
  49.6032029  47.3805335  41.4493950  47.4937910  49.2624022  46.9401903
  48.0802525  48.7604450  47.9161590  46.2427216  49.6783692  46.9498276
  45.8644183  50.0654175  46.0970793  45.3638148  49.6232020  48.1510255
  45.9524962  49.4061200  49.0423328  44.6737552  50.9796705  48.3379592
  45.4661526  51.6898079  48.5744128  44.2380794  51.2309179  47.3709217
  43.5763398  51.0467423  49.4322146  42.8757742  50.2289936  49.2631118
  44.0548595  50.9195929  50.4032728  42.8044588  52.4087470  49.4054766
  43.5095863  53.2391516  49.3691130  42.1485003  52.4514364  48.5359966
  41.9807361  52.5394731  50.6276126  42.4096764  53.0492286  51.3867298
  40.7466191  52.0664463  50.7966918  40.1260862  51.3737069  49.8452823
  40.5936440  51.1959243  48.9678525  39.1903106  51.0287909  50.0048335
  40.1120347  52.2783668  51.9701642  40.5760202  52.7911881  52.7062565
  39.1764377  51.9230404  52.1061790  44.3081185  48.5291071  47.9949748
  43.6115227  48.4361115  46.9825835  44.2124442  47.6574139  48.9907419
  44.9117948  47.6293755  49.7189053  43.1410360  46.6729553  49.0247939
  43.0416213  46.1673674  48.0642749  43.5003476  45.6155836  50.1084549
  44.4247312  45.1361607  49.7863246  43.6741558  46.1468339  51.0442240
  42.4150226  44.5457935  50.3203885  41.4917930  45.0488585  50.6079187
  42.1724694  43.7190939  49.0576721  43.0951992  43.2153275  48.7697692
  41.3989628  42.9761572  49.2521797  41.8500470  44.3754763  48.2493985
  42.9337618  43.6374176  51.4807901  43.0759598  44.2393700  52.3783047
  42.2047440  42.8524927  51.6821039  43.8830163  43.1857233  51.1927155
  41.7570690  47.3210263  49.2969781  41.5888171  47.9559230  50.3316334
  40.8219064  47.2555947  48.3456782  41.0015714  46.6705777  47.5422014
  39.5340105  47.9783377  48.4124666  39.6478895  48.8680080  49.0318353
  39.0663233  48.4125021  47.0065551  39.1652960  47.5178959  46.3917515
  38.0243769  48.7324206  47.0165460  39.9313884  49.5220584  46.4293844
  40.4960146  50.3326261  47.2301454  40.0023319  49.6567497  45.1699101
  38.4228208  47.1132550  48.9956641  37.5193477  47.6000614  49.7175685
  38.4982170  45.8223356  48.7198302  39.2162510  45.4537601  48.1126412
  37.4611186  44.8647895  49.2691011  37.1973893  45.1082569  50.2983094
  36.1631903  44.8481563  48.3867488  35.6847378  45.8239228  48.4707930
  36.4615810  44.5565785  46.9317972  36.9396571  43.5807012  46.8468999
  35.5319060  44.5558857  46.3627588  37.1283714  45.3228701  46.5364657
  35.1376505  43.8565701  48.9117573  35.5617026  42.8619141  48.7741345
  35.0215704  44.0573115  49.9768056  33.8359898  43.9235997  48.2605426
  33.9512081  43.7224927  47.1954696  33.1705214  43.1806341  48.7001482
  33.4110769  44.9178915  48.3981389  38.0612953  43.4954256  49.3528347
  38.8308379  43.1321870  48.4526170  37.7593923  42.7435621  50.4509521
  37.2534074  43.1434422  51.2282387  38.1969484  41.3614689  50.5516107
  38.3663287  40.9686820  49.5490500  39.5175486  41.2228532  51.3711397
  40.1939289  41.9650592  50.9471831  39.2738413  41.4982361  52.3972348
  40.1962835  39.8464039  51.3586839  39.4779701  39.1087278  51.7163997
  40.6808658  39.4497434  49.9364636  41.3996070  40.1867553  49.5782413
  41.1550231  38.4689951  49.9739920  39.8283470  39.4148582  49.2581605
  41.4184824  39.8427175  52.3138384  41.0884347  40.0681154  53.3279211
  41.8912516  38.8607439  52.2959906  42.1358201  40.5966994  51.9897447
  37.0497488  40.5902148  51.2057340  37.0377169  40.3788676  52.4491059
  36.0641855  40.2174357  50.3998688  36.1643969  40.3233438  49.4004487
  34.8238632  39.6633563  50.9124141  34.6858665  39.9797560  51.9463132
  33.6225963  40.1371391  50.0916147  33.7285463  41.2212576  50.0521070
  33.6699765  39.7309062  49.0812533  32.2754013  39.7794190  50.7220210
  32.1656580  38.6764578  51.3129558  31.2954835  40.5773254  50.5647269
  34.9454840  38.1506823  50.8375434  34.6572265  37.5605044  49.8040900
  35.3290666  37.5290746  51.9503876  35.6660857  38.0410850  52.7531096
  35.4311474  36.0637668  51.9659360  35.9606973  35.7322797  51.0727437
  36.1977355  35.5542732  53.2143650  35.7925234  36.0790205  54.0795486
  36.0165016  34.4847555  53.3210713  37.6773210  35.8049451  53.1243904
  38.2794087  35.5856133  52.0485860  38.2766236  36.2142360  54.1379225
  34.1125849  35.3106666  51.7992565  34.1271095  34.0985751  51.4372438
  32.9770283  35.9639327  52.0201446  32.9543478  36.9337547  52.3012678
  31.7221507  35.2559989  51.8983343  31.8642640  34.2138321  52.1843265
  30.6521656  35.8682757  52.8006131  31.0228014  35.7734440  53.8212675
  30.5937956  36.9231360  52.5323544  29.2619455  35.2405171  52.7033863
  28.5947220  35.7813677  53.3745005  28.9337469  35.3821637  51.6736673
  29.2317773  33.7275151  53.0524920  30.1295942  33.2353618  53.8056924
  28.2945007  33.0766711  52.5819808  31.2352128  35.2605497  50.4746838
  30.7773534  34.2272363  49.9492610  31.3532510  36.3938321  49.8211724
  31.7271614  37.2197417  50.2663283  30.8592562  36.5088806  48.4400598
  30.0983999  35.7533308  48.2442506  30.2466276  37.8715024  48.2432533
  31.0422043  38.6081530  48.3550691  29.8553229  37.9115644  47.2267024
  29.1019018  38.1863442  49.2529759  28.4462238  37.3177539  49.3141169
  29.5454703  38.3756104  50.2304867  28.2996356  39.3938844  48.8213644
  27.6704286  39.7076932  49.6542639  28.9915476  40.1967177  48.5667745
  27.4392698  39.1241335  47.6548598  26.9930119  38.2197052  47.6004287
  27.2076646  40.0107589  46.6783331  27.8112652  41.1913392  46.7092288
  28.4404038  41.4137320  47.4674016  27.6389976  41.8625420  45.9744430
  26.3851966  39.7316992  45.6507641  25.9257295  38.8334126  45.6052522
  26.2309902  40.4217671  44.9295669  31.9617549  36.2398795  47.3745922
  31.6326716  36.0698240  46.1949489  33.2112139  36.1584347  47.8212239
  33.3490217  36.3359173  48.8059108  34.4008680  35.8900900  46.9836828
  35.2861043  35.8872018  47.6196447  34.3122685  34.5297800  46.2539994
  33.3773499  34.5009655  45.6943601  35.1515297  34.4562006  45.5623877
  34.3551197  33.3693387  47.2236848  35.3029760  33.3837746  47.7617005
  33.5334109  33.4622405  47.9338016  34.2240742  32.0668055  46.4701230
  33.2793273  32.0565478  45.9265726  35.0495786  31.9721169  45.7646614
  34.2529395  30.9204064  47.3835215  34.9252637  30.9236346  48.1372251
  33.4615630  29.8570688  47.2416152  32.5374316  29.8097509  46.2710226
  32.4360094  30.5886609  45.6361109  31.9470423  28.9954198  46.1793438
  33.5632503  28.8537069  48.0963513  34.2370614  28.9003553  48.8472858
  32.9666604  28.0451265  47.9944847  34.5328204  37.0297094  46.0061772
  34.4791177  36.8372403  44.7633898  34.6922670  38.2181255  46.5896341
  34.7271489  38.2779937  47.5972543  34.8871758  39.4599034  45.8049449
  35.0475701  39.2809240  44.7417708  33.7078101  40.4189076  45.9663687
  33.5814540  40.6617426  47.0214348  33.9785222  41.7306025  45.1586476
  34.1045345  41.4886083  44.1033464  33.1352914  42.4111452  45.2766478
  34.8846739  42.2074892  45.5322379  32.3925441  39.7419039  45.5733213
  32.2259494  38.8731755  46.2102352  31.5696823  40.4458958  45.6973921
  32.4440180  39.4238307  44.5320333  36.1158880  40.1425109  46.3833326
  36.2494927  40.3271610  47.6208738  37.0443399  40.5431338  45.4944816
  37.0253429  40.1989353  44.5451314  38.1686986  41.3365516  45.9092343
  37.8798777  41.8744453  46.8122028  39.4803895  40.5032216  46.2143146
  39.2148323  39.6571093  46.8480918  40.1327518  39.9859210  44.9110811
  40.3990238  40.8315431  44.2769501  41.0306859  39.4178806  45.1542755
  39.4290009  39.3432140  44.3821549  40.4431552  41.3081793  46.8938551
  41.2295947  40.7864461  47.0696610  38.4109170  42.4607717  44.8869152
  37.7550439  42.5136988  43.8485770  39.2753392  43.3937782  45.2304006
  39.8107255  43.3436619  46.0853562  39.4792852  44.5640633  44.3397486
  39.8066382  44.2391092  43.3521535  38.5568258  45.1370867  44.2458750
  40.5411304  45.4414586  44.9430984  40.7721471  45.4145834  46.1736454
  41.2487275  46.1923722  44.1042538  41.0950383  46.1212964  43.1085495
  42.2751299  47.1042508  44.5794018  42.0297531  47.4375454  45.5877689
  43.6678052  46.4060332  44.6108415  44.4006116  47.0143815  45.1409419
  43.5630603  45.4443900  45.1132069  44.2495598  46.1197825  43.2465629
  45.1841469  47.0022001  42.6842471  45.4728147  47.8877207  43.2504839
  45.7487788  46.7624236  41.4115543  46.4772343  47.4454582  40.9746136
  45.3482596  45.6031645  40.7001643  45.7548818  45.4126069  39.7069644
  44.4188206  44.6890896  41.2773230  44.1159022  43.7866618  40.7463195
  43.8883514  44.9674287  42.5584318  43.1856539  44.2735937  43.0198526
  42.3551366  48.3313990  43.7010242  41.8290906  48.3357598  42.5571245
  43.0190104  49.3545747  44.2512724  43.3957233  49.2797848  45.1853994
  43.2344779  50.5985065  43.5147775  42.8114849  50.5333061  42.5123180
  42.5334437  51.7386086  44.2704627  42.7137848  51.6147153  45.3382767
  42.9527346  52.6887582  43.9395381  41.1262811  51.7264507  44.0207374
  40.7097374  52.4453738  44.5016123  44.7256106  50.8654339  43.4510216
  45.4354541  50.6942185  44.4516626  45.2081771  51.3708210  42.3044059
  44.6214121  51.4870000  41.4905825  46.5879056  51.7250968  42.2005456
  47.1173243  51.0478687  42.8707525  47.0918565  51.5087057  40.7371700
  46.4778391  52.0960292  40.0544298  48.5225845  51.9421393  40.6207361
  49.1373325  51.3549017  41.3028926  48.8672421  51.7884969  39.5981385
  48.6046914  52.9985406  40.8764194  47.0729703  50.0001712  40.4302957
  47.7846138  49.4997986  41.0870236  46.0709423  49.6160066  40.6212329
  47.4832517  49.7119713  38.8489475  48.4854112  50.0954711  38.6573640
  47.4625621  48.6391331  38.6574024  46.7717404  50.2116814  38.1915730
  46.6992262  53.1779065  42.6281536  46.1271786  54.0629866  41.9444076
  47.3533006  53.4157756  43.7519926  47.7904608  52.6588425  44.2579991
  47.3673403  54.7699204  44.3605858  46.6209228  55.4018940  43.8793692
  47.0868592  54.7046180  45.8672749  47.0442095  55.7122096  46.2808453
  45.7171062  53.9937130  46.0892201  45.7591377  52.9858310  45.6762941
  45.5039116  53.9398118  47.1568078  44.9292976  54.5577863  45.5899424
  48.1716606  53.9703861  46.6359592  48.1468748  52.9230602  46.3349694
  49.1323820  54.4047189  46.3594290  47.9729262  54.0759880  48.2462349
  47.0125569  53.6414063  48.5235963  48.7747393  53.5343887  48.7480966
  47.9980617  55.1230660  48.5480556  48.6396970  55.5626535  44.1098635
  48.7023797  56.7394883  44.4580916  49.6614793  54.8887267  43.5860471
  49.5747359  53.8939863  43.4341706  50.8958054  55.5275857  43.2244670
  50.6778163  56.3280809  42.5175105  51.3441062  55.9498798  44.1237965
  51.8794188  54.5616494  42.5890326  51.5314145  53.4307385  42.2036619
  53.1040762  55.0437480  42.4464906  53.3068387  55.9936767  42.7232976
  54.1978623  54.2303285  41.8896856  54.9969681  54.1551522  42.6271662
  53.8200378  53.2337510  41.6612534  54.7516030  54.8485159  40.6252721
  54.1851053  55.8101922  40.0948825  55.8504667  54.2696232  40.1326963
  56.2847891  53.4972604  40.6173808  56.4906719  54.7720629  38.9023468
  56.2666626  55.8308133  38.7720912  57.9971363  54.6018530  38.9885940
  58.2025257  53.5443102  39.1544785  58.4208672  54.9080709  38.0321513
  58.6372123  55.4380708  40.1292204  58.4997706  56.4927894  39.8909362
  58.0705517  55.1921714  41.0272896  60.1212870  55.1596899  40.3711555
  60.8265294  54.5785039  39.5198095  60.6077507  55.5660850  41.4499868
  55.9302667  54.0391385  37.6979080  56.4241267  52.9816189  37.3540626
  54.8746216  54.5922177  37.1023093  54.5345550  55.4698231  37.4687282
  54.1952177  54.0150837  35.9429778  54.9403567  53.7730077  35.1851741
  53.4110043  52.7304160  36.2924447  52.8783310  52.2962474  35.4463620
  54.1344132  52.0099333  36.6741308  52.4107487  52.9335533  37.3631385
  51.1612605  53.4842027  37.1364705  50.5262980  53.5856399  38.3016792
  49.5042708  53.9622804  38.3429250  51.3382842  53.1709837  39.2611205
  51.1390163  53.1773457  40.2512476  52.5054476  52.7262053  38.6970009
  53.2882387  52.3028110  39.3263471  53.2109288  55.0709969  35.4485733
  53.0250681  56.1234611  36.0932591  52.5487390  54.7976599  34.3332879
  52.7305620  53.9465441  33.8208021  51.6811798  55.8056806  33.7198310
  51.9122075  56.7911518  34.1242713  51.9014832  55.8368343  32.1677161
  51.5215341  54.9056430  31.7474534  51.3398427  56.6759616  31.7571976
  53.3306253  55.9854078  31.8230428  53.7418836  56.8341734  32.3694534
  53.8617877  55.0777069  32.1094822  53.4968260  56.2221440  30.3002154
  54.5620008  56.3424519  30.1026614  53.1314220  55.3313109  29.7893380
  52.7875009  57.3889378  29.7734479  52.9966018  58.2698502  30.2210746
  51.9057675  57.3759153  28.7840872  51.5317034  56.2374488  28.2017856
  51.9237634  55.3609629  28.5150927  50.8577944  56.2561199  27.4497233
  51.3770343  58.5381790  28.3425375  51.6562111  59.4104366  28.7683626
  50.7049897  58.5295234  27.5886277  50.1812786  55.7895680  34.0398213
  49.4320169  56.6742528  33.5772450  49.7089922  54.8269024  34.8377771
  50.3511641  54.1547893  35.2327186  48.2774227  54.6583309  35.1019011
  47.7214987  54.9837311  34.2226046  47.8925906  53.2008965  35.4157693
  48.4465364  53.0245807  36.3378084  46.8236533  53.1224616  35.6140650
  48.2997569  52.1455283  34.3600295  49.3605446  52.2590380  34.1365439
  48.0314717  50.6979737  34.8976928  46.9707410  50.5835490  35.1209778
  48.3238142  49.9690833  34.1418122  48.6130136  50.5331443  35.8047434
  47.6278621  52.3965864  33.0195120  47.9149135  53.3799713  32.6471477
  47.9407903  51.6333146  32.3070562  46.5454884  52.3567240  33.1418935
  47.7712072  55.5345851  36.2190610  48.3399018  55.5737821  37.3027542
  46.6888245  56.2278612  35.9609232  46.3039154  56.2879456  35.0290787
  46.0932608  57.0458668  37.0078123  46.5985701  56.8128053  37.9450658
  46.2119492  58.6378960  36.7380089  45.7589991  59.1640218  37.5783233
  47.6550163  59.0731913  36.5888599  48.1085317  58.5477960  35.7483939
  47.6942544  60.1475288  36.4089754  48.2022258  58.8379472  37.5017249
  45.5270619  58.9443994  35.5525238  45.5900347  59.8868732  35.3811245
  44.6595900  56.6328242  37.2487955  43.8826775  56.3403140  36.3102702
  44.3167410  56.5756728  38.5275048  45.0324458  56.7175007  39.2258964
  42.9847149  56.1648287  38.9727146  42.9869160  55.9713223  40.0453980
  41.9650524  57.3030936  38.6745750  42.0381799  57.5214620  37.6091798
  40.9399629  57.0239045  38.9181835  42.3253662  58.5595725  39.4544620
  42.7228094  59.6088173  38.8692116  42.2684041  58.4603253  40.7652123
  42.4959325  59.2594310  41.3394604  41.9974131  57.5854953  41.1910492
  42.5256757  54.8238897  38.4356686  41.3235272  54.6141606  38.1809573
  43.4879594  53.9071004  38.3277365  44.4544237  54.1606557  38.4752353
  43.1741657  52.5021185  38.0202166  42.5028723  52.4403707  37.1636820
  44.4866816  51.7506440  37.6764401  44.9954591  52.3002773  36.8845134
  45.1126357  51.7372793  38.5686861  44.2295510  50.3310716  37.2197847
  44.1188207  50.0189866  35.8442649  44.2331588  50.8163338  35.1099192
  43.8612313  48.6826076  35.4127421  43.7979777  48.4435980  34.3511512
  43.7390518  47.6647739  36.3688298  43.4812706  46.3374954  35.9635205
  43.4079926  46.2437094  35.0109271  43.8233753  47.9676311  37.7474364
  43.6764367  47.1770121  38.4832564  44.0945452  49.2775428  38.1700122
  44.2036367  49.4959254  39.2323249  42.5315625  51.8051616  39.2388064
  43.0463030  51.8710782  40.3587212  41.4132151  51.1275451  38.9910026
  41.0049012  51.1418714  38.0673284  40.7289795  50.3571540  40.0459857
  41.4410020  50.0822186  40.8241461  39.5954138  51.2044705  40.6871326
  40.0507558  52.1268159  41.0477458  38.8832350  51.4368560  39.8953634
  38.8801620  50.5232045  41.8196702  38.5224587  49.5572461  41.4631965
  39.5942414  50.3696008  42.6287428  37.6644186  51.3697206  42.3476129
  37.9788082  52.4049359  42.4802304  36.8544361  51.3269738  41.6194642
  37.1586042  50.7883947  43.7363418  38.0563738  50.6347048  44.3350819
  36.5552192  51.5784507  44.1833734  36.3512520  49.4969728  43.6914321
  36.9103336  48.7646514  43.2776291  36.0891863  49.2309798  44.6298719
  35.5190986  49.6392927  43.1370271  40.1704459  49.1173339  39.4032569
  39.5300346  49.2068176  38.3505475  40.3767186  47.9510757  40.0281677
  40.9831738  47.8703099  40.8317772  39.8036978  46.7286760  39.4664923
  39.0671035  47.0076972  38.7130500  40.8686536  45.7984157  38.8029398
  40.3590236  44.9678682  38.3145062  41.4252228  46.3698850  38.0601386
  41.7596513  45.2970271  39.7740719  42.4069151  44.7280576  39.3510790
  39.0013608  45.9716179  40.5209421  39.2367204  46.1275554  41.7468406
  38.0780557  45.1446818  40.0394137  37.8865493  45.1022568  39.0486439
  37.3135849  44.2829926  40.9268290  37.7520716  44.2116607  41.9221885
  35.8652197  44.8264795  41.0604744  35.5184107  45.0707957  40.0564164
  34.8716219  43.8241757  41.7236814  35.2175436  43.5797277  42.7280141
  33.8818895  44.2772059  41.7810742  34.8199282  42.9139915  41.1261916
  35.8729129  46.1166931  41.8493411  36.4882576  46.8543974  41.3343213
  34.8542361  46.4937218  41.9401517  36.2818017  45.9332201  42.8429448
  37.3303487  42.8864422  40.2819879  37.1151539  42.7436592  39.0877964
  37.5565832  41.8664564  41.1145279  37.6155015  42.0528897  42.1054217
  37.6502065  40.4902720  40.6671579  37.4954532  40.4157408  39.5907770
  39.0374062  39.9428163  41.0000820  39.2229931  40.0700392  42.0666053
  39.1297671  38.3903164  40.6245191  38.9447374  38.2623412  39.5579892
  40.1240223  38.0156473  40.8677861  38.3835517  37.8337810  41.1915567
  39.9902500  40.6905875  40.2626975  40.8721277  40.3641004  40.4558251
  36.6017297  39.6519687  41.4820426  36.6007311  39.6982592  42.7366868
  35.7441245  38.9215832  40.7924889  35.7579784  38.9750963  39.7840030
  34.7101635  38.1171770  41.4266382  34.8761104  38.1267810  42.5038887
  33.3075295  38.6334536  41.1464270  32.5889961  37.9851996  41.6480013
  33.1401772  40.0699021  41.6537827  33.8581150  40.7188744  41.1522850
  32.1284871  40.4153615  41.4410854  33.3147382  40.0985536  42.7293329
  33.0350292  38.6285934  39.7324188  32.1466062  38.9572795  39.5766292
  34.8425188  36.6719671  41.0193846  35.1701246  36.3867447  39.8670550
  34.6067266  35.7615673  41.9758736  34.3576031  36.0537512  42.9100392
  34.7840073  34.2977509  41.7133146  35.1221011  34.1143693  40.6934308
  35.8235831  33.7066078  42.6919732  35.4656114  33.8711182  43.7082861
  36.0399903  32.2225960  42.4666199  36.3984323  32.0573265  41.4505951
  36.7784080  31.8505944  43.1768695  35.0988899  31.6917303  42.6101929
  37.1601612  34.4451993  42.5359362  37.0188543  35.5034801  42.7554271
  37.8906571  34.0255925  43.2276048  37.5214070  34.3317376  41.5138164
  33.4343245  33.5741312  41.8136640  32.7022651  33.7641317  42.8140493
  33.0799071  32.7987141  40.7910861  33.7370383  32.6506926  40.0385121
  31.7625903  32.1803479  40.6905595  31.1765167  32.3671160  41.5904121
  31.0282659  32.7980180  39.4888519  31.5970451  32.5314020  38.5980627
  29.9928854  32.4798653  39.3669256  31.0119249  34.2856982  39.5544770
  30.0428650  34.9743132  40.2700057  29.2655088  34.5501280  40.7556845
  30.3092272  36.2741555  40.2079719  29.6610161  36.9942066  40.7074194
  31.4132883  36.4479009  39.4829439  31.8832856  35.2225910  39.0773896
  32.7973583  35.1575995  38.4871791  31.8017271  30.6824485  40.5321716
  32.5486643  30.1488486  39.6925349  30.9875036  29.9957958  41.3513603
  30.5115156  30.5009433  42.0850910  30.7525164  28.5230143  41.2367231
  31.6817779  28.0044410  41.0008119  30.2239208  27.9964296  42.5773645
  30.9126112  28.3302115  43.3535052  29.2453761  28.4474149  42.7421748
  30.1002943  26.5009898  42.6278164  29.3324301  26.1674341  41.9298007
  31.0528737  26.0399489  42.3667879  29.7158026  26.0996406  44.0244949
  30.3801386  26.5877802  44.7375702  28.6875940  26.4046796  44.2190141
  29.8167463  24.6576026  44.2041964  30.6849185  24.3047107  44.5808178
  28.8552921  23.7931874  43.9153464  27.6980916  24.2127529  43.4092272
  27.5505156  25.1980809  43.2435466  26.9728016  23.5439000  43.1931488
  29.0581068  22.4956554  44.1298948  29.9396872  22.1814703  44.5096366
  28.3295330  21.8309715  43.9120088  29.7492872  28.1272794  40.1670437
  28.6656292  28.7573071  40.0089061  30.1134610  27.0917847  39.3990150
  31.0674731  26.7622957  39.4363951  29.1915685  26.4411902  38.4699482
  28.1782160  26.7974133  38.6552075  29.5587446  26.7481351  37.0232497
  30.6262218  26.6453370  36.8282518  29.0047838  26.0659326  36.3784031
  29.1770514  28.1413918  36.6045146  27.9481423  28.3753793  36.0245058
  27.2704014  27.5390285  35.8533784  27.5681090  29.6695804  35.6568807
  26.6079515  29.8595969  35.1772017  28.4528212  30.7414038  35.9170344
  28.1492824  31.7589014  35.6707363  29.7033747  30.5054579  36.4832705
  30.4107113  31.3208227  36.6347803  30.0422684  29.2203304  36.8539298
  30.9944332  29.0290059  37.3487804  29.2030759  24.9285179  38.7055240
  30.2395356  24.3661718  39.0166372  28.0438287  24.3060444  38.5674857
  27.2058312  24.8344097  38.3707887  27.9307443  22.8498449  38.7101008
  28.8817625  22.3874514  38.4457983  27.5748955  22.4512291  40.1455234
  28.4073783  22.7709692  40.7722913  26.6817945  23.0161552  40.4125985
  27.3097296  20.9128321  40.3689703  26.3475120  20.6617248  39.9226709
  28.1011807  20.3661275  39.8563120  27.3007422  20.5241229  41.8630022
  27.0800935  21.4182762  42.7210150  27.5045208  19.3171742  42.1842453
  26.8619216  22.3708595  37.7692501  25.7873828  22.9811203  37.6851064
  27.1665258  21.2980512  37.0532615  28.0704100  20.8699875  37.1941663
  26.2727247  20.7182636  36.0481272  25.2456151  20.7231234  36.4129853
  26.3376346  21.5432359  34.7512277  26.1031131  22.5673394  35.0415912
  27.3743538  21.4886658  34.4190599  25.4195662  21.1154436  33.6177286
  25.6736143  20.1024743  33.3055531  24.3842770  21.1414190  33.9577339
  25.5917994  22.0707467  32.4363997  25.2546343  23.0573369  32.7542964
  26.6535291  22.1111451  32.1930943  24.8065893  21.6386034  31.2077231
  25.2274686  20.7107899  30.8202657  23.7651385  21.4764039  31.4855194
  24.8822471  22.6995716  30.1530041  25.8471630  22.8497177  29.8951414
  24.3586785  22.4050544  29.3410709  24.4919108  23.5592723  30.5116841
  26.7677393  19.2848782  35.8585073  27.9292488  19.0718638  35.5021724
  25.8861754  18.3086910  36.1295417  24.9167986  18.5792829  36.2143237
  26.2351503  16.8841678  36.3161543  25.3140237  16.3024657  36.2808321
  27.2019793  16.3371274  35.2557710  28.1070058  16.9413152  35.3188845
  27.4302022  15.3107190  35.5429997  26.6746334  16.3590644  33.8228516
  25.6570903  15.9684884  33.8353979  26.6617323  17.3942425  33.4817667
  27.5351350  15.5158197  32.8677279  28.7926485  15.4757203  33.0481329
  26.9421468  14.8991867  31.9362958  26.8805969  16.7589507  37.6705469
  26.4384499  17.3758995  38.6435475  27.9320691  15.9608257  37.7479853
  28.1671787  15.2964525  37.0244999  28.7267093  15.9702524  38.9527708
  28.1780002  16.4882183  39.7393641  29.0306266  14.5353086  39.4270676
  28.0952639  14.0110179  39.6228100  29.5878115  14.0067702  38.6535741
  29.8595506  14.5441538  40.7035052  30.1980381  15.6067001  41.2200928
  30.1864972  13.3539564  41.2121897  30.7357776  13.3034384  42.0582622
  29.8830716  12.5094730  40.7486365  30.0076879  16.7839187  38.7036183
  31.0258664  16.5633880  39.3774008  29.9484847  17.7416794  37.7637022
  29.1521725  17.8021180  37.1453710  31.1551958  18.5270110  37.4307614
  31.9790710  18.2002579  38.0652385  31.5671471  18.3512916  35.9628166
  32.6505893  18.4706664  35.9642035  31.3164121  17.3168598  35.7279067
  30.9573745  19.2708563  34.9155906  29.9715857  18.9080437  34.6245780
  30.8696142  20.2834335  35.3094022  31.8976741  19.2771827  33.6698448
  31.9508350  18.2839436  33.2240321  31.5438320  19.9905057  32.9254890
  33.2478610  19.6742286  34.0987687  33.7264904  19.0422400  34.7245512
  33.8705974  20.7971510  33.7270612  33.2723998  21.6214244  32.8607125
  32.3594080  21.3898674  32.4961204  33.7362669  22.4718420  32.5748510
  35.0907669  21.0854553  34.2205196  35.5319015  20.4510544  34.8709317
  35.5587396  21.9346622  33.9377691  31.1071784  19.9933906  37.9314600
  30.1498515  20.7043859  37.7089042  32.1393713  20.3904883  38.6627310
  32.9406643  19.7850774  38.7699998  32.1672317  21.6987270  39.3138756
  31.2338637  22.2548801  39.2265996  32.5176473  21.5185442  40.7952506
  33.4199174  20.9120139  40.8735459  32.7560048  22.8759626  41.4627151
  31.8539551  23.4829241  41.3852244  33.0033781  22.7262199  42.5136596
  33.5805865  23.3863432  40.9650445  31.4121101  20.6839316  41.4997520
  30.5218236  21.3086391  41.5720802  31.1988203  19.8197646  40.8706078
  31.8302497  20.1939250  42.9433422  32.0432615  21.0576113  43.5732405
  31.0159596  19.6170722  43.3818301  32.7202601  19.5687384  42.8717681
  33.2489630  22.5340949  38.6198483  34.3587166  22.0649633  38.4766432
  32.9408365  23.7532861  38.1727378  31.9950876  24.1013144  38.1053980
  34.0371881  24.5959908  37.6477473  34.9876690  24.2492320  38.0532635
  34.1039686  24.5286304  36.1121158  35.0195471  24.9861669  35.7373150
  34.0904604  23.4720839  35.8444836  32.9580810  25.1790023  35.3664523
  32.9544981  26.4358802  34.7851521  33.8572389  27.0325433  34.9161179
  31.7585844  26.6690300  34.1395643  31.5091850  27.5155965  33.6484179
  30.9566161  25.5750590  34.2910476  29.6494010  25.3514153  33.8319558
  29.1548659  26.1349376  33.2578247  29.0682779  24.1373438  34.1420338
  28.0546203  23.9230616  33.8033874  29.7573820  23.1652690  34.8887299
  29.2834890  22.2136169  35.1293191  31.0593949  23.3826362  35.3435156
  31.5572418  22.5799688  35.8875507  31.6753505  24.6119349  35.0620528
  33.8532702  26.0289957  38.1747937  32.8897428  26.3245889  38.9212130
  34.8043955  26.8881794  37.8244536  35.5510253  26.5857589  37.2152040
  34.7930982  28.2767466  38.2667155  33.9039033  28.4815605  38.8629394
  36.0369569  28.5526120  39.1284484  36.9217430  28.3251383  38.5338817
  36.0952368  29.9670594  39.5817663  35.2109439  30.1951569  40.1768270
  36.9889119  30.1185933  40.1871434  36.1286492  30.6261001  38.7142126
  36.0416165  27.7077862  40.3054482  36.8238936  27.8939339  40.8298448
  34.8413345  29.2212672  37.0374856  35.4864743  28.9220313  36.0256722
  34.1561891  30.3578359  37.1695290  33.4565757  30.4414365  37.8931667
  34.3536399  31.4956093  36.2537611  35.1261669  31.2350988  35.5302727
  33.0717472  31.8673900  35.4911688  32.2645805  32.0094150  36.2097857
  33.2751113  33.1909239  34.6623267  34.0818680  33.0495102  33.9431280
  32.3542975  33.4330344  34.1316810  33.5301273  34.0076030  35.3376812
  32.6957395  30.7206575  34.5157045  32.5281648  29.8032558  35.0799695
  31.7867185  30.9856710  33.9757523  33.5078410  30.5663907  33.8052161
  34.8435917  32.6445758  37.1182716  34.2762991  32.9565040  38.1944955
  35.9466900  33.2377094  36.6901974  36.4834897  32.8606510  35.9222310
  36.3996609  34.4556358  37.3051924  35.9133290  34.6001938  38.2699118
  37.9106355  34.4238427  37.5205034  38.3933480  34.2048217  36.5680761
  38.4395746  35.8088571  38.0732778  37.9576221  36.0283538  39.0259813
  39.5187941  35.7552188  38.2164864  38.2072003  36.5984685  37.3587026
  38.2854885  33.3020377  38.5244096  37.9611736  32.3385661  38.1311611
  39.3657169  33.2896634  38.6695066  37.7933175  33.4885813  39.4789096
  36.0526585  35.6299599  36.3557388  36.2845875  35.5308415  35.1187968
  35.5452624  36.7179041  36.9326145  35.3284228  36.7077047  37.9190099
  35.3251725  37.9812810  36.1740137  35.5473826  37.8138156  35.1201270
  33.8911124  38.4556041  36.2971364  33.7751648  38.5916443  37.3723799
  33.7779580  39.4166974  35.7955431  32.8281692  37.4910521  35.7905674
  32.9733664  36.5216424  36.2672888  31.4041506  38.0242194  36.1230260
  31.2580341  38.9934552  35.6462339  30.6571480  37.3217517  35.7533953
  31.2986129  38.1313599  37.2026015  33.0254095  37.2387144  34.2666245
  34.0122274  36.8093337  34.0936448  32.2614974  36.5476015  33.9103905
  32.9407606  38.1823308  33.7276239  36.2189877  39.0300859  36.7885743
  36.2651460  39.1439647  38.0091885  36.9469527  39.7865762  35.9495067
  36.9799298  39.5714291  34.9632392  37.7523542  40.8949927  36.4414033
  37.4321856  41.1451764  37.4528376  39.2579315  40.5500410  36.4713078
  39.4065777  39.7106474  37.1505882  39.5664594  40.2624448  35.4662212
  40.0847782  41.7235029  36.9342180  40.1130710  42.4770721  36.1471768
  39.5819905  42.1327584  37.8104678  41.5152429  41.3218034  37.3078023
  41.6698940  40.2636040  37.8977201  42.4717179  42.0357803  36.9896395
  37.4766716  42.0855939  35.5520541  37.5260073  41.9597045  34.3181113
  37.1129392  43.2219495  36.1562814  36.8802713  43.2653125  37.1381595
  36.9786149  44.4503078  35.3509157  37.3310728  44.2759528  34.3343170
  35.5000102  44.8681462  35.2934249  35.4117601  45.7393756  34.6443712
  34.9235860  44.0434930  34.8741608  35.0038139  45.1844546  36.5736957
  34.0812068  45.4407204  36.5049669  37.8532964  45.5530255  35.9383413
  38.2527331  45.4747591  37.0960622  38.1316731  46.5958036  35.1594124
  37.8431421  46.6141039  34.1916757  38.8399155  47.7533244  35.6913074
  38.7274824  47.7557290  36.7754902  40.3701442  47.7602289  35.3460100
  40.7746373  48.6789126  35.7708686  40.8480717  46.9013892  35.8172634
  40.6425958  47.7320700  33.8359258  40.6569465  48.9233166  33.0764236
  40.5079915  49.8740924  33.5882218  40.8533378  48.8985217  31.7213669
  40.8223570  49.8279541  31.1527744  41.0428701  47.7037693  31.0734231
  41.2603648  47.7305877  29.7123901  41.2556296  48.6192257  29.3492102
  41.0615814  46.5020600  31.7838495  41.2416199  45.5549025  31.2753427
  40.8471022  46.5238153  33.1552029  40.8358416  45.5915803  33.7199252
  38.2372788  49.0126432  35.0793712  37.5513379  48.9414630  34.0341538
  38.5366424  50.1272774  35.7450866  38.8570658  50.0575631  36.7003709
  38.3527349  51.4618347  35.1699475  38.1886159  51.4195363  34.0932047
  37.1489295  52.2187878  35.8309652  36.2312934  51.6594108  35.6489199
  37.3755989  52.3532713  37.3499034  38.2928767  52.9129756  37.5327517
  36.5334378  52.8804358  37.7981922  37.4609767  51.3616213  37.7942485
  36.9469227  53.6221021  35.1607531  36.7419726  53.4917196  34.0981629
  36.1073707  54.1329998  35.6321720  37.8508208  54.2183629  35.2854210
  39.6622578  52.1857314  35.3501709  40.3801592  51.9606364  36.3357767
  40.0301782  53.0425995  34.3875590  39.4611019  53.2036119  33.5688243
  41.2975573  53.7709739  34.5076671  41.5050566  54.1593337  35.5047728
  42.5036328  52.8572424  34.0615083  42.5356099  51.9823699  34.7108734
  42.3489042  52.4020414  32.5905790  42.3173146  53.2764141  31.9405209
  43.1954822  51.7740281  32.3130807  41.4247734  51.8346013  32.4805989
  43.8340841  53.5148924  34.3037186  43.9463723  53.7281895  35.3667321
  44.6336777  52.8480962  33.9810227  43.8879564  54.4457733  33.7392194
  41.2024255  55.0047025  33.6046279  40.4374779  55.0008849  32.6511886
  41.9677622  56.0291463  33.9336122  42.5006699  56.0021601  34.7911555
  42.1064438  57.1988736  33.0680452  41.1234190  57.5642091  32.7709062
  42.8362786  58.3139638  33.8159088  43.8286943  57.9373303  34.0636133
  42.9288909  59.1606999  33.1357904  42.1310776  58.7608853  35.0890948
  40.9148819  58.5206651  35.2327589  42.8468953  59.3706023  35.9407392
  42.9486371  56.8897196  31.8152119  43.8750025  56.0791420  31.8406288
  42.6831717  57.5671565  30.6940351  41.8826974  58.1767125  30.6058214
  43.5897683  57.4464515  29.5564241  43.9019424  56.4076390  29.4491162
  42.8971025  57.8973298  28.2351547  42.4066893  58.8475729  28.4464180
  43.6893089  58.0528254  27.5028090  41.8695560  56.9054912  27.6738087
  41.7994862  57.1242938  26.6082964  42.3067901  55.9168032  27.8131805
  40.2098836  56.9295552  28.3967121  39.5495289  58.4761131  27.6559839
  39.5549700  58.3903157  26.5693800  38.5287152  58.6382868  28.0020183
  40.1726361  59.3184329  27.9565434  44.7637606  58.3628562  29.8492271
  44.5303259  59.5674322  30.1276347  46.0138255  57.8388574  29.7950687
  46.4482367  56.4348471  29.6523352  46.0198240  56.0113005  28.7439458
  46.1114045  55.8596186  30.5147477  47.9515465  56.5462296  29.5867049
  48.2507098  56.4090383  28.5475807  48.3723391  55.7450006  30.1942138
  48.3652230  57.8643403  30.0957138  49.1372888  58.2338787  29.4208399
  48.7520291  57.8468171  31.1146218  47.1362450  58.7655711  30.0208944
  46.9407757  59.3341684  30.9300628  47.3058569  59.7348203  28.8368029
  46.7524405  59.5007435  27.7593061  48.0749131  60.7888694  29.0709996
  48.5619136  60.8391762  29.9544016  48.2362719  61.9171282  28.1095936
  47.2696494  62.3630885  27.8753724  49.1328036  62.9938805  28.7518951
  48.6978499  63.1984575  29.7301910  50.1106665  62.5295551  28.8795126
  49.2920667  64.3377513  27.9596934  49.1963904  64.1361339  26.8927832
  48.4849710  64.9975573  28.2780512  50.6548051  65.0194130  28.2356524
  51.0443571  65.1987108  29.4205025  51.3526352  65.3589246  27.2567684
  48.8467107  61.3734041  26.8455930  49.8206740  60.6282420  26.9081211
  48.2561988  61.6998921  25.6855613  47.4355653  62.2882270  25.6627144
  48.7878566  61.2107850  24.4259804  48.5754661  61.9655893  23.6688410
  49.8666068  61.1106040  24.5458181  48.2178701  59.8853559  23.9729591
  48.4920379  59.4560509  22.8657581  47.4074377  59.2292291  24.8076333
  47.1903848  59.6057762  25.7193348  46.8661680  57.9262154  24.4528256
  47.2149459  57.6327674  23.4627037  47.3291316  56.8768937  25.4650200
  47.1093850  57.2615804  26.4609251  46.7991235  55.9364366  25.3142488
  48.7788350  56.6218872  25.3674610  49.5234252  57.0383349  26.2380026
  49.2167423  55.9609681  24.2753360  50.2018381  55.7653719  24.1684338
  48.5573890  55.6649296  23.5698466  45.3531410  57.9102720  24.3629858
  44.6401578  58.5666771  25.1507379  44.8623366  57.1276786  23.4169395
  45.5006342  56.6387297  22.8057075  43.4569179  56.9614123  23.2034854
  42.9305612  57.9039586  23.3539989  43.2320560  56.5028695  21.7724580
  42.1603414  56.4766797  21.5753765  43.7080585  57.2129814  21.0962459
  43.7905044  55.1923972  21.5625276  43.6382329  54.9214303  20.6542379
  42.8260054  55.9438595  24.1630028  43.5673444  55.2083916  24.8846651
  41.4849704  55.8892727  24.1655451  40.9330801  56.6056347  23.7157208
  40.7742082  54.7809821  24.8542642  41.0292458  54.8336773  25.9126962
  39.2511683  54.8097328  24.7164850  39.0026320  54.8558265  23.6562000
  38.8498590  53.8906908  25.1435829  38.6534420  55.9909986  25.4215930
  39.0260781  55.9799535  26.4458592  39.0306535  56.8752067  24.9077967
  37.1377532  56.0233713  25.4359284  36.4874139  54.9387274  25.4500848
  36.6081379  57.1692842  25.4465754  41.2404842  53.4413950  24.3227540
  41.5278417  52.5368123  25.1083142  41.3329543  53.3166395  22.9985885
  41.0172921  54.0414017  22.3699579  41.8094483  52.0606677  22.4241239
  41.1818179  51.2344317  22.7580600  41.7525254  52.1318355  20.8838617
  42.1235159  53.1201955  20.6125504  42.4086358  51.3699136  20.4630361
  40.3126038  51.9454224  20.3201952  39.3908873  51.4184413  21.0230429
  40.1148598  52.3077627  19.1143487  43.2172198  51.6748799  22.9031826
  43.4706288  50.4743982  23.2465388  44.1334729  52.6435557  22.9265395
  43.8879831  53.6007612  22.7177533  45.5148141  52.3544068  23.3679636
  45.9682766  51.6440409  22.6766958  46.3675533  53.6007179  23.4077703
  45.7706252  54.3458671  23.9336303  47.2727049  53.3925045  23.9782506
  46.7525087  54.1417674  22.0089459  46.6646943  53.3992400  20.9888402
  47.1832175  55.3294328  22.0177680  45.4685287  51.8664781  24.8171252
  46.1929076  50.9091892  25.2003133  44.6321561  52.5443277  25.6112171
  44.0257513  53.2574057  25.2318856  44.6216458  52.3167532  27.0944646
  45.6541347  52.3380787  27.4431925  43.8470768  53.4612721  27.7778856
  42.7974637  53.4175127  27.4872005  43.9638434  53.3091115  29.3190843
  45.0132119  53.3532408  29.6105939  43.4175338  54.1164175  29.8068363
  43.5428523  52.3507317  29.6230175  44.4943585  54.7108049  27.3972700
  44.0349198  55.4471084  27.8076035  44.0304340  50.9837944  27.4202597
  44.6415732  50.1830641  28.2143641  42.8781900  50.7050266  26.8087793
  42.3191868  51.4165319  26.3600309  42.3155055  49.3564347  26.9366506
  42.2586466  49.0973831  27.9938916  40.9095131  49.2491167  26.3288733
  40.9623137  49.5917644  25.2954789  40.6132473  48.2003391  26.3486755
  39.8646856  50.0956814  27.1010163  39.7829299  49.6736654  28.1026746
  40.2554013  51.1111755  27.1659397  38.4699697  50.1225207  26.4387351
  37.8509272  50.8807949  26.9182197  38.5718865  50.3545469  25.3786048
  37.8159779  48.8379157  26.5715727  38.2498591  48.1705850  27.1932770
  36.7020312  48.4834736  25.9377379  36.1097058  49.3206034  25.0861956
  36.5093064  50.2331052  24.9195828  35.2640055  49.0385717  24.6114864
  36.1755101  47.2841445  26.1596667  36.6236238  46.6511412  26.8066605
  35.3295241  47.0108553  25.6803762  43.2462231  48.2691016  26.4071401
  43.3415775  47.1995863  27.0066946  43.9422629  48.4977392  25.2991872
  43.8634351  49.3526608  24.7672149  44.8403428  47.4502328  24.8026102
  44.2702058  46.5330630  24.6548179  45.4996472  47.8421718  23.4636245
  45.8689018  48.8626941  23.5650368  46.3396145  47.1669481  23.3004434
  44.5458174  47.7626747  22.2762405  43.9704934  46.8369610  22.2887879
  43.8643476  48.6131191  22.2551380  45.5885021  47.7968607  20.7916514
  47.2541425  48.1105533  21.4683885  47.5259896  47.3070917  22.1529669
  47.9762481  48.1523097  20.6529620  47.2564089  49.0598806  22.0039946
  45.9510065  47.1172945  25.7851158  46.3075491  45.9513634  25.9549102
  46.5650533  48.1626746  26.3441524  46.3124035  49.0927694  26.0421738
  47.6239218  48.0213304  27.3558976  48.4564882  47.4549752  26.9385560
  48.1505126  49.4243855  27.8090427  48.5863337  49.9046523  26.9329702
  47.3731864  50.0652903  28.2251016  49.2515346  49.3428576  28.8528983
  50.5711018  49.2114236  28.4663074  50.8042148  49.2071419  27.4015352
  51.6117194  49.0838526  29.4201113  52.6474681  48.9921893  29.0931202
  51.3109689  49.0759633  30.7624048  52.1109467  48.9991078  31.4987666
  49.9751676  49.1667816  31.1841498  49.7367052  49.1201083  32.2467210
  48.9429879  49.3181003  30.2361636  47.9090671  49.4158966  30.5671372
  47.0858891  47.2342818  28.5855096  47.6173645  46.1597001  28.9187018
  46.0213397  47.7381790  29.2290795  45.6046915  48.6139618  28.9471077
  45.4922882  47.0654070  30.4417440  46.3261682  46.9483864  31.1338780
  44.3918678  47.9346195  31.1286724  43.5462350  48.0530961  30.4512004
  44.0583431  47.4435589  32.0428502  44.8017940  48.9148121  31.3721518
  44.9619604  45.6482589  30.1244277  45.1919337  44.6832317  30.9329558
  44.2836144  45.4949469  28.9835301  44.0832656  46.2881870  28.3913057
  43.7657043  44.1530909  28.5711933  43.0985617  43.7663573  29.3415549
  42.9809714  44.2485347  27.2392031  43.5990860  44.7948343  26.5267494
  42.8387387  43.2267287  26.8873758  41.6248521  44.9354376  27.3668031
  41.1521991  45.2970982  28.4786789  41.0409805  45.1159791  26.2665674
  44.8788408  43.1086233  28.4027906  44.7435516  41.9256685  28.8483451
  46.0161119  43.5183428  27.8185259  46.1044141  44.4521752  27.4440139
  47.1376404  42.6086577  27.6706479  46.8573927  41.7510983  27.0589679
  48.3217469  43.3344728  26.9910259  48.5669040  44.2175482  27.5810904
  49.5645862  42.4262853  26.8843723  49.3203163  41.5431613  26.2940132
  50.3743890  42.9730433  26.4012840  49.8782665  42.1201758  27.8823714
  47.8813235  43.7215960  25.6880893  48.5925560  44.1776563  25.2322848
  47.5579253  42.0641808  29.0287140  47.7589700  40.8226927  29.2006367
  47.6735622  42.9627620  30.0127760  47.5344510  43.9495735  29.8486100
  48.1110236  42.5270714  31.3687167  48.9727126  41.8650361  31.2832736
  48.5010303  43.7453531  32.2910233  47.6764835  44.4582488  32.2898061
  48.7904469  43.2788118  33.7706933  49.6152388  42.5662005  33.7727703
  49.0561965  44.1431300  34.3793242  47.9000717  42.8044307  34.1833629
  49.7322053  44.4229351  31.7221448  49.5184481  44.7794914  30.7145350
  50.0081644  45.2666657  32.3546517  50.5564224  43.7104899  31.6876649
  47.0347669  41.6641469  32.0440447  47.3419518  40.5621560  32.5827205
  45.8034648  42.1781943  32.0877183  45.6058499  43.0850642  31.6894285
  44.7171099  41.4779890  32.8158147  45.0641800  41.2880541  33.8314752
  43.4006852  42.3305527  32.8866888  43.0951610  42.6075491  31.8777154
  42.2743508  41.5022723  33.5585499  42.5789776  41.2252818  34.5677971
  41.3629209  42.0982616  33.6053756  42.0885492  40.6004067  32.9752678
  43.6368871  43.5966147  33.7407741  44.4285424  44.1961718  33.2914245
  42.7186990  44.1823576  33.7847685  43.9302617  43.3055806  34.7494026
  44.4478028  40.1046470  32.1968741  44.2972533  39.0879734  32.9091939
  44.4619495  40.0222997  30.8737022  44.6160573  40.8078114  30.2578114
  44.1479208  38.7202194  30.2750531  43.2457944  38.3218184  30.7393201
  43.9107295  38.8305391  28.7422348  44.7615580  39.3709245  28.3272965
  43.8995199  37.8141428  28.3486450  42.6063351  39.5474215  28.3484264
  41.7813643  38.9763491  28.7743375  42.6324426  40.5390831  28.8001207
  42.3997676  39.6857897  26.7804589  42.1091281  38.7109796  26.3888304
  41.5963014  40.4012967  26.6055561  43.6585219  40.1577755  26.0778060
  43.7742042  41.2238326  26.2733579  44.5044591  39.6171457  26.5023161
  43.6079042  39.9217143  24.5827168  42.8243612  40.4229365  24.1890973
  44.4644529  40.2508890  24.1607354  43.5011424  38.9338957  24.4012903
  45.2357060  37.6746698  30.5577925  44.9169633  36.4995137  30.7654101
  46.5096991  38.0851107  30.5239572  46.7539811  39.0340968  30.2793122
  47.5735988  37.1630086  30.8288604  47.5072672  36.2812043  30.1915845
  48.9251537  37.8495643  30.5780026  48.8141381  38.2347233  29.5643817
  49.0691544  38.6807923  31.2682373  50.1541549  36.9077738  30.6406190
  50.1847888  36.4504395  31.6295617  50.0872522  35.8145513  29.5764711
  50.0570561  36.2711370  28.5871701  50.9673221  35.1762341  29.6547579
  49.1895558  35.2148601  29.7268443  51.4436932  37.7246161  30.5441644
  51.4901927  38.4304385  31.3734726  52.3026888  37.0551214  30.5889379
  51.4584814  38.2712316  29.6012477  47.4611921  36.7309923  32.3052024
  47.6872905  35.5472229  32.6527806  47.1637262  37.6851981  33.1780078
  46.9903829  38.6378550  32.8907861  47.0927146  37.3591387  34.6410237
  48.0378832  36.9296675  34.9731530  46.8222824  38.6222151  35.4471196
  46.0222646  39.1624570  34.9409482  46.5017395  38.3602598  36.4554507
  48.0639275  39.5518728  35.5464478  49.1561287  39.1544120  35.2561196
  47.8475412  40.7781061  35.9998106  48.6184518  41.4250366  36.0851194
  46.9127023  41.0601325  36.2579543  45.9675051  36.3421959  34.8680037
  46.1327915  35.3981875  35.6706309  44.8151351  36.5531082  34.2129064
  44.6350251  37.3876420  33.6732648  43.7075482  35.5794017  34.3952874
  43.5906499  35.4045772  35.4648061  42.3530624  36.0378616  33.8202423
  42.5473932  36.2697317  32.7730694  41.6256419  35.2285833  33.8837084
  41.7909069  37.2936762  34.5309348  42.5436602  38.0807951  34.5746073
  40.6004842  37.7751022  33.7123679  39.8470570  36.9886333  33.6686320
  40.1724548  38.6620101  34.1795789  40.9286418  38.0197505  32.7021401
  41.4099393  36.9752438  35.9957118  42.2932322  36.6337033  36.5353812
  41.0177590  37.8732323  36.4731136  40.6499575  36.1940602  36.0124131
  44.0915759  34.2111163  33.8356770  43.7254548  33.1445826  34.4233820
  44.8270389  34.2006606  32.7169443  45.0520204  35.0522049  32.2226217
  45.2719129  32.9139720  32.1365087  44.4122056  32.2535769  32.0230150
  45.9210637  33.1119742  30.7645617  46.4671167  34.0552961  30.7728770
  46.6168895  32.2915043  30.5891888  44.8983803  33.1385221  29.6757812
  44.7290012  32.0946134  29.4118375  43.9594140  33.5880085  29.9989007
  45.3959942  33.8841391  28.4313790  46.5952714  34.2093968  28.3175040
  44.4649261  34.2317820  27.5474341  44.7300124  34.7252789  26.7070226
  43.4971057  34.0006711  27.7206767  46.2332476  32.2259147  33.0968929
  46.1505603  30.9849298  33.2947954  47.1132497  32.9985557  33.7363481
  47.2156257  33.9790263  33.5165847  48.0633156  32.3906168  34.7024822
  48.4508457  31.4626787  34.2819463  49.2584327  33.3292289  35.0182105
  49.8314153  33.4826175  34.1037368  48.8674591  34.2853839  35.3660716
  50.1831494  32.7166642  36.1139055  49.5411499  32.4061179  36.9382224
  50.6613863  31.8402895  35.6764598  51.2689711  33.6871301  36.6427367
  51.9688276  33.8658244  35.8264229  50.7698411  34.6203719  36.9035594
  52.0526733  33.1431256  37.8961764  51.3447134  33.0837543  38.7228374
  52.4074916  32.1423801  37.6497792  53.2502062  34.0266925  38.3071002
  52.9215854  34.9539309  38.5358728  53.7058551  33.6226432  39.1128471
  53.9065432  34.0814888  37.5413860  47.3313957  31.9428806  35.9778310
  47.6209499  30.8692464  36.5301471  46.3296526  32.6945434  36.4149898
  46.1413052  33.6060887  36.0229315  45.4849702  32.2246576  37.5367514
  46.0990353  32.1063746  38.4295180  44.3649799  33.2252052  37.8417778
  44.9166392  34.1081025  38.1646766  43.8027315  33.4592107  36.9377766
  43.3894772  32.7925992  38.9562398  42.8710458  31.8889911  38.6355808
  44.1596256  32.5066787  40.3048106  44.6779625  33.4100217  40.6263648
  43.4481045  32.2037307  41.0729649  44.8851786  31.7086402  40.1473057
  42.2860951  33.8328003  39.1285984  41.7345328  33.9364025  38.1941761
  41.6056040  33.5139846  39.9181488  42.7289823  34.7919913  39.3967448
  44.8889763  30.8459404  37.1963045  44.8793135  29.9461587  38.0540932
  44.3516987  30.7058082  35.9960521  44.2841153  31.4768167  35.3471470
  43.7570919  29.4223982  35.6141732  42.9696845  29.2020980  36.3349760
  43.1393115  29.4993121  34.2289524  43.9169891  29.7103442  33.4949340
  42.6629628  28.5485496  33.9896975  42.3939557  30.2943243  34.2066018
  44.7857248  28.2656695  35.6824593  44.4740650  27.1741070  36.2238987
  45.9892692  28.5139307  35.1494300  46.1447392  29.3890645  34.6697746
  47.0766000  27.5014850  35.1378414  46.7442979  26.5865185  34.6474224
  48.2960743  28.0667610  34.3599021  48.5465513  29.0385738  34.7852741
  49.5464628  27.1225713  34.4415139  49.2968764  26.1506461  34.0158761
  50.3718269  27.5626142  33.8818394  49.8406010  26.9975630  35.4836061
  47.8830997  28.2075036  32.9899939  48.6112077  28.5561981  32.4705025
  47.4352922  27.0566270  36.5454093  47.4717427  25.8363170  36.8414176
  47.6623859  28.0418843  37.4196641  47.5958959  29.0003184  37.1080835
  48.0713564  27.7919964  38.7795586  48.9143832  27.1097336  38.8887486
  48.4070523  29.1172680  39.5156220  47.6091403  29.8302109  39.3079007
  48.5420763  28.9206093  41.0689693  49.3401612  28.2080969  41.2775061
  48.7772279  29.8762054  41.5376272  47.6026215  28.5409306  41.4706786
  49.6321863  29.7722364  38.8922538  49.4344508  29.9888313  37.8424494
  49.8559078  30.7003098  39.4183034  50.4844588  29.0970906  38.9691340
  46.9867796  27.0157715  39.5178465  47.2931194  25.9582848  40.1505896
  45.7315942  27.4811805  39.4418126  45.5361240  28.3485945  38.9627680
  44.6302672  26.8132390  40.1518844  44.9603890  26.7280488  41.1871918
  43.3406036  27.6407027  40.1155445  42.9926462  27.7271467  39.0861986
  42.5758757  27.1491955  40.7169696  43.5348382  28.6350548  40.5175844
  44.3768709  25.3727725  39.6303715  44.1335017  24.4413797  40.4236462
  44.4533524  25.2063191  38.3143089  44.5658095  26.0109900  37.7143443
  44.2396305  23.8899346  37.6854618  43.3261023  23.4432966  38.0779920
  44.1068456  24.0198634  36.1655975  44.8781265  24.6920862  35.7896434
  44.2248029  23.0388456  35.7053907  42.7243824  24.5838768  35.8183763
  41.9852843  23.8164051  36.0482063  42.5826762  25.4350614  36.4843367
  42.5604435  25.0189091  34.4283475  43.5342325  24.8677813  33.6579812
  41.4563731  25.4923617  34.0642085  45.3538248  22.9026919  38.1209260
  45.0789597  21.7471203  38.4806100  46.5884940  23.3676771  38.1554175
  46.8232619  24.2746749  37.7781400  47.6677816  22.5283601  38.6580271
  47.6338425  21.5847896  38.1133970  48.9935219  23.1767651  38.4092004
  49.0461609  24.1185753  38.9553897  49.7911892  22.5157313  38.7481126
  49.1101229  23.3688935  37.3426217  47.4802661  22.1938425  40.1519675
  47.6892810  21.0415447  40.5692931  47.1021809  23.1840645  40.9656345
  47.0813269  24.1404055  40.6414798  46.8002338  22.9221906  42.3716416
  47.6576320  22.4310394  42.8317915  46.4989944  24.1979608  43.1432732
  45.7780752  24.7813262  42.5705084  46.0616672  23.9215783  44.1026780
  47.7290592  25.0143091  43.3736773  48.4085132  24.4576443  44.0190977
  48.2130039  25.2047619  42.4157487  47.3237990  26.5872169  44.1560271
  46.8438184  26.1134024  45.8305844  47.6778322  25.6098484  46.3194129
  46.5751042  27.0044685  46.3979420  45.9882989  25.4393993  45.7869097
  45.6583763  21.9374897  42.5480517  45.7243345  21.0994868  43.4541089
  44.6531030  22.0107905  41.6715235  44.6562191  22.7579778  40.9919643
  43.4962218  21.1207137  41.7165504  43.1009139  21.1889690  42.7300454
  42.4080221  21.5680164  40.7355149  42.7859006  21.4965378  39.7156136
  41.5338344  20.9261069  40.8443645  42.1289340  22.6001306  40.9475277
  43.8773825  19.6427209  41.4698651  43.2991329  18.7513033  42.0978429
  44.8181558  19.3988322  40.5615480  45.1715607  20.1613784  40.0014341
  45.3246730  18.0215512  40.2829901  44.4602995  17.3631520  40.1965713
  46.0951399  17.9971443  38.9542000  45.4479381  18.3512158  38.1517897
  46.9687458  18.6447836  39.0282008  46.5439812  16.5711556  38.6529991
  47.1916380  16.2165382  39.4548020  45.6708313  15.9229700  38.5783881
  47.3088347  16.5469260  37.3338945  46.6616345  16.9009991  36.5314837
  48.1824411  17.1945640  37.4078970  47.7611839  15.1759051  37.0081906
  47.5357755  14.4289349  37.6495377  48.4509532  14.8825375  35.9095304
  48.7853046  15.8113510  35.0182307  48.5131778  16.7723139  35.1685552
  49.3097988  15.5514596  34.1951500  48.8072342  13.6159125  35.7155568
  48.5517287  12.9130306  36.3943603  49.3316630  13.3627414  34.8903432
  46.2150852  17.4751578  41.4249297  46.3104655  16.2524256  41.6346976
  46.8708659  18.3845794  42.1535469  46.7299438  19.3569817  41.9197220
  47.9032552  18.0481181  43.1498261  48.4343953  17.1435690  42.8535486
  48.9226869  19.2105562  43.2498403  49.8205618  18.9322474  42.6980576
  48.4740506  20.0920915  42.7918872  49.3210131  19.5561203  44.6945027
  49.7388283  18.6900622  45.4620729  49.1933851  20.8444805  45.0594617
  49.4407020  21.1274792  45.9969295  48.8508182  21.5230080  44.3943684
  47.3558756  17.6127089  44.5168149  46.2556618  18.0105106  44.9268665
  47.9654976  16.7934628  45.2006543  48.5742123  45.1307140  36.4404816
  49.6207615  45.3886773  37.5550652  49.4814259  46.8303108  38.0649077
  49.9230396  47.8620744  37.0096143  51.3386154  47.5884947  36.4336931
  51.7926178  48.5624990  35.3479959  51.3993715  49.9137344  35.3702253
  51.8465075  50.8178570  34.4030413  52.7051636  50.3817185  33.4064422
  53.1646017  51.2262444  32.4402012  53.1300082  49.0606903  33.3709813
  52.6945774  48.1454648  34.3448521  53.1812625  46.7207951  34.2357285
  52.9078058  45.8751985  35.4758139  51.4753194  46.1102031  35.9595614
  51.0858059  45.1849207  37.1134668  51.1936745  43.6754707  36.9169799
  50.2658456  43.0823558  37.9950807  49.4906941  44.2682732  38.6067882
  50.1113291  44.6431099  39.8326404  52.7857258  52.1068505  32.5973883
  50.0252992  43.8922782  40.4448238  47.5603039  45.2467434  36.8436974
  48.6653176  45.8243278  35.6008837  48.6379591  44.1199408  36.0258373
  48.4465525  47.0326613  38.3667029  50.0975706  46.9825685  38.9601553
  49.1910384  47.9037525  36.1941303  49.8954490  48.8457624  37.4932088
  52.0451278  47.7390056  37.2655084  50.7424706  50.2921137  36.1480558
  51.5147868  51.8505249  34.4502165  53.8070260  48.7439325  32.5814420
  52.6820240  46.2601507  33.3733222  54.2594521  46.7107528  34.0357974
  53.0766951  44.8213596  35.2286820  53.6212887  46.1339358  36.2696496
  50.8069179  45.9333782  35.1075189  51.7492203  45.4311480  37.9586215
  50.8617925  43.3747277  35.9175030  52.2222722  43.3205646  37.0429853
  49.5765807  42.3720560  37.5240977  50.8468316  42.5395090  38.7488377
  48.4492918  44.0084453  38.8258698  38.9524523  61.7132670  35.3196588
  32.5375136  58.7453019  26.8004363  44.1926022  15.4033561  46.2534307
  53.3327487  48.8249730  52.4298487  64.7229688  55.7810748  41.6234058
  78.1754942  51.9150719  15.7162749  16.2874067  43.2859862  74.6792756
  31.0620776  23.8049980  27.7654506  44.5304286  43.8972866  75.5977312
  42.0587156   9.7830019  51.7172449  19.4702192  39.2497198  10.0031487
  17.5036883  64.0662575  44.0765454  17.9311988   2.5163301  44.8775111
  33.9811747  52.3377562  64.8264838  32.3331879  20.3611675  59.2868992
  43.7727784   4.0724886  60.7369887  37.3191706   5.1364871  35.4812897
  35.0372251  75.0378268  66.7138280   7.1678246  36.6530045  43.3496397
  51.8806189  71.6057280  19.4755173  52.1772100  43.7470957  21.8406030
  13.3095242  40.8429646  59.2347596  51.1558915  72.1341093  57.9435064
  10.7732245  35.6063638  59.0134352  30.2805264  77.3443658  52.6905966
  41.7855101  65.6879723  32.8857973  42.0098566  53.7521887  62.4999922
  40.6019280  35.9708858  -2.2299851  23.3133973  17.5841546  30.7353754
  44.0090047  13.8663013  58.9778173  35.2814443  64.6078995  64.9573748
  59.4791881  66.7385478  15.3162389  62.5610500  25.1807549  61.3267158
  52.1604803  41.4340645   3.9232582  43.3880819  59.0997693  45.9474399
  32.1572351  37.4216521  64.9600167  12.6014071  52.8198336  43.7922885
  25.7405919  44.2112098  65.8858061  19.2256323  38.6057640  66.0300559
  22.0828487  36.8315807  75.5575024  55.1004246  42.4087941  12.3414408
  66.2969648  57.7694408  38.7468954  26.0790576  22.1233595  18.8482373
  25.5573623  38.3921869   4.0316320  41.8955405   6.5352347  19.0552331
   7.6548789  14.5262225  59.2700387  71.0996222  30.7135326  67.8250272
   9.2180720  70.2667768  59.8762155  74.0099681  23.9620897  63.3609858
  61.1942665  45.2400597  21.4071466  17.3100466  32.7379672  53.4116590
  36.6322146  36.5096696  79.2252654  57.8774659  61.7327151  34.0375641
  58.4420378  60.2272628  25.9517217  10.2561337  25.9829831  32.6269962
   1.9581638  25.2574370  51.7351087  32.2486993  50.8793853  26.1081788
  65.8342013  23.3782308  33.1874354  64.1469748  60.6344831  32.1212284
  42.8142724  78.2186860  61.7492314  30.6905836  49.3271174   3.5175653
  44.7208017  38.3076588  85.7248807  44.1919488  38.5236222  86.3846113
  45.2433037  39.0012727  85.6449776  44.7196470  38.4419725  85.8104406
  36.6107625  42.2039805  84.5256275  36.0264840  42.7089836  84.9322138
  36.2077720  41.9782192  83.7852867  36.4646929  42.2448053  84.4761300
  41.0684839  38.4505457  83.0025195  41.3080843  38.6583441  82.1900538
  41.3900680  37.6462966  83.1114140  41.1521997  38.3619558  82.8985748
  34.2794221  36.0643344  82.0585319  33.5652398  35.7781524  82.4707752
  34.7638190  36.4039970  82.6991707  34.2453585  36.0724994  82.2140954
  41.4541539  44.5673298  82.4347127  41.8692688  44.2358322  81.7431623
  40.6233469  44.3342201  82.3067264  41.3929548  44.4844554  82.3137975
  44.1474929  40.8183858  81.6208329  44.0655092  40.8886045  82.4863316
  44.7854650  41.3813602  81.4292069  44.2294767  40.9122829  81.7198278
  41.2515039  40.8404312  84.6316935  42.0655678  41.1319205  84.5199707
  41.1874181  40.1864174  84.0575228  41.3617778  40.7869507  84.5305773
  37.7625763  39.5328119  84.0964137  38.1470915  39.3135826  84.8480682
  37.5137383  40.3591065  84.2265213  37.7827835  39.6226266  84.2265213
  42.6891062  44.0566112  79.9732740  43.4564047  44.1166237  79.5638592
  42.2422371  43.4846553  79.4889059  42.7364489  43.9802688  79.8410451
  38.7365662  40.3284878  81.4369851  39.0258187  41.1049761  81.7113425
  38.8237461  39.8173610  82.1384350  38.7919918  40.3676797  81.5812348
  43.5297281  35.7218141  85.6923538  43.0020300  35.8046885  85.0029246
  43.9892989  36.4636013  85.6888182  43.5199131  35.8438804  85.5898233
  35.5230346  33.9920661  80.7164433  35.1743150  34.6440386  81.1795982
  35.0426792  33.9777774  79.9888304  35.4000590  34.0863715  80.6775524
  35.9254477  37.4846303  83.5583054  36.5599557  38.0806728  83.4932516
  36.0080088  37.1849760  84.3728924  36.0311028  37.5287211  83.6686141
  40.5644571  35.3568402  85.0319160  39.9709410  35.6785398  84.4803727
  40.6019849  34.5109497  84.8240266  40.4818960  35.2792730  84.9201931
  38.5373803  35.9965652  83.1248490  38.9172768  36.0145281  82.3399605
  37.7966399  36.4419641  83.0039337  38.4842641  36.0647427  82.9912058
  39.3358558  42.8343159  84.5157280  38.5269880  42.5109832  84.4690589
  39.8433466  42.1276381  84.4485528  39.2908224  42.6824475  84.4987574
  47.9394528  15.3209979  74.5758519  47.9088532  16.1754616  74.7476788
  48.5375876  15.0205271  75.1344662  48.0231686  15.4026475  74.6833321
  35.5235352  23.9448348  75.0948681  34.7718252  23.5663886  74.8664726
  35.9721364  23.9766781  74.3467491  35.4785019  23.8933955  74.9506183
  40.9760312  24.3673717  70.5234228  40.6411681  25.0450639  70.0878450
  41.4887183  23.9779029  69.9351099  41.0025893  24.4098295  70.3721019
  40.5164603  26.3187986  76.4645339  40.9003983  26.8874885  75.9250114
  40.4523745  25.5937496  75.9851155  40.5638031  26.2963449  76.3139202
  45.7611102  17.8962281  72.8476828  45.6450628  18.6469967  73.2768967
  46.5566989  17.6386234  73.0972915  45.8615692  17.9697128  72.9480920
  36.9420848  28.8744329  78.7626309  37.5858303  29.3157493  79.1522468
  37.2677104  28.0697755  78.6756568  37.0852677  28.8209524  78.8071786
  37.6441428  21.8856304  74.1346171  37.9657269  22.4261511  73.5307479
  38.2913524  21.3153075  74.2668461  37.7867483  21.8815479  74.0653206
  39.8831071  20.2742744  74.2060349  40.3224707  19.6659844  74.6515122
  39.7335734  19.8950117  73.4345814  39.9252537  20.1281215  74.1579516
  43.4840408  18.6269925  71.1591118  43.3991703  19.4830892  71.3040687
  43.9724791  18.3514249  71.8273277  43.5429305  18.7127247  71.2793200
  44.4158841  15.2454719  72.6588853  43.8870312  15.4614353  73.3186160
  44.9383861  15.9390858  72.5789823  44.4147294  15.3797856  72.7444453
  49.8706894  20.8201024  78.0321898  49.0404597  21.0311667  78.1955314
  49.8216146  19.9938078  77.7564181  49.7413629  20.7290630  78.0159263
  36.3058449  19.1417936  71.4596321  35.7215664  19.6467968  71.8662185
  35.9028544  18.9160323  70.7192913  36.1597753  19.1826184  71.4101347
  40.7635663  15.3883588  69.9365242  41.0031667  15.5961572  69.1240585
  41.0851504  14.5841097  70.0454186  40.8472821  15.2997689  69.8325795
  47.1271209  21.4900378  78.1686614  46.6906441  21.4937121  78.9245585
  46.7934125  22.1705877  77.7366191  47.0133829  21.5912834  78.2167446
  50.2615555  18.2081298  77.0606251  50.9231989  17.6471967  76.9602159
  49.6206967  17.7133329  77.3858942  50.2644423  18.0517707  77.0938591
  41.1492363  21.5051430  69.3687174  41.5643512  21.1736453  68.6771670
  40.3184293  21.2720332  69.2407311  41.0880372  21.4222685  69.2478022
  46.5480386  19.2246681  76.8018240  46.7835975  19.3691879  75.9745090
  46.6969950  19.9889089  77.1949753  46.6046189  19.3585735  76.7381844
  48.3770843  18.0648346  74.6387843  48.7079060  18.5975987  74.0327938
  48.9503931  18.1187234  75.2949794  48.5104522  18.1517915  74.6465625
  43.8425753  17.7561989  68.5548376  43.7605916  17.8264176  69.4203363
  44.4805474  18.3191733  68.3632116  43.9245591  17.8500960  68.6538325
  40.9465863  17.7782443  71.5656982  41.7606502  18.0697336  71.4539753
  40.8825005  17.1242306  70.9915275  41.0568602  17.7247638  71.4645819
  37.4576587  16.4706250  71.0304183  37.8421739  16.2513957  71.7820729
  37.2088207  17.2969196  71.1605260  37.4778659  16.5604397  71.1605260
  37.7399829  24.6911126  73.1036554  38.0298128  24.3000108  72.3795780
  38.4703310  24.8727831  73.5441829  37.8906713  24.6604940  73.0619361
  35.6805745  26.6678509  76.1696703  35.4606040  26.3775863  76.9623370
  35.4600267  26.0093464  75.6414616  35.6153339  26.5278217  76.2085612
  37.8473701  28.0407899  74.9527396  38.4997759  27.5084341  75.1818422
  37.1499309  27.6876551  75.3395270  37.8404419  27.9097422  75.0439564
  45.8413619  20.3612313  74.2958375  46.4071652  21.0205523  74.2116918
  45.1941522  20.7062011  74.7674777  45.8292375  20.5094254  74.3531132
  42.3120197  23.3051097  73.7195454  42.0706873  22.5718958  73.3122519
  42.4921530  23.8537954  73.0661788  42.3027821  23.2773488  73.5625677
  47.0376317  20.4118540  71.0884012  46.6583126  19.6255678  71.0813301
  46.3742562  20.9605397  70.9455656  46.8834792  20.3763364  71.0664809
  39.8623225  23.9632059  74.9272838  40.6273116  23.6941703  74.6055502
  39.7601315  23.4782070  75.6442901  39.9604720  23.8521624  74.9852665
  42.3841886  20.9944243  66.9072787  43.1514871  21.0544368  66.4978639
  41.9373194  20.4224685  66.4229106  42.4315313  20.9180819  66.7750498
  45.2836416  22.6564031  71.4235697  45.3656253  23.4631018  71.0997148
  45.7686158  22.6759991  72.1476471  45.3673574  22.7784694  71.4822596
  40.9194508  17.2058802  74.3927111  41.4610054  16.7029183  74.8565732
  41.2341068  17.1523997  73.5816596  41.0458906  17.1238223  74.3410923
  39.0880958  22.5976154  71.6767139  39.1573779  21.7390692  71.8160140
  39.8669413  22.8148035  71.3486164  39.2133808  22.5029018  71.6484296
  43.4788446  25.0213855  75.8903633  43.0868238  24.7180570  75.1726499
  43.6341518  25.8582945  75.7008586  43.4442036  25.0997692  75.7560130
  43.6428121  21.5863844  75.8309663  43.2842775  21.7578487  76.6073695
  43.1566831  22.0477050  75.2737662  43.5186817  21.6802815  75.8634932
  38.4316486  17.2663009  68.3709897  38.7209011  18.0427892  68.6453472
  38.5188285  16.7551741  69.0724397  38.4870742  17.3054928  68.5152395
  44.2478751  24.4249348  79.3233667  44.0498440  24.9140162  78.6289878
  43.6266462  24.6290589  79.9017800  44.1266315  24.5265886  79.3056890
  43.2248105  12.6596273  72.6263584  42.6971124  12.7425017  71.9369293
  43.6843813  13.4014144  72.6228229  43.2149955  12.7816935  72.5238279
  35.2181170  10.9298792  67.6504479  34.8693974  11.5818517  68.1136029
  34.7377616  10.9155905  66.9228351  35.0951414  11.0241846  67.6115571
  42.7785187  21.2299836  71.7573241  43.5019386  21.6957949  71.6137815
  42.3385778  21.2973446  71.0070838  42.8200880  21.3083673  71.6258023
  43.0389037  25.2920541  71.9171302  42.3218347  25.1181403  71.4518540
  43.6895775  25.0573113  71.3846788  43.0290888  25.2316334  71.7700520
  38.3202199  26.5282300  78.3461450  37.9062598  25.8656430  77.9565292
  39.0049573  26.6760159  77.8257145  38.3600571  26.4522958  78.2117948
  41.6867493  25.6872385  79.0985067  41.2883776  25.7974655  78.3305887
  41.0718713  25.8954451  79.6811627  41.5366382  25.7345953  79.0716366
  49.4209336  20.2624352  72.4828158  49.8042942  21.0115708  72.7126255
  48.6253449  20.5090171  72.2240147  49.3603118  20.4094046  72.4785731
  38.2324627  12.9343783  70.0588537  38.6123592  12.9523413  69.2739651
  37.4917223  13.3797772  69.9379384  38.1793465  13.0025558  69.9252105
  39.0309381  19.7721290  71.4497327  38.2220704  19.4487963  71.4030636
  39.5384290  19.0654512  71.3825575  38.9859048  19.6202606  71.4327621
  58.9127111  30.8395287  74.5758519  58.8821116  31.6939923  74.7476788
  59.5108460  30.5390579  75.1344662  58.9964269  30.9211783  74.6833321
  52.1126796  29.9270938  79.3311449  51.2564692  30.0879436  79.3820566
  52.1594450  29.0563002  79.3516510  51.9925908  29.8221740  79.3417515
  46.4967936  39.4633656  75.0948681  45.7450835  39.0849194  74.8664726
  46.9453948  39.4952089  74.3467491  46.4517603  39.4119263  74.9506183
  51.9492896  39.8859025  70.5234228  51.6144264  40.5635947  70.0878450
  52.4619766  39.4964336  69.9351099  51.9758477  39.9283603  70.3721019
  51.4897187  41.8373294  76.4645339  51.8736566  42.4060193  75.9250114
  51.4256328  41.1122804  75.9851155  51.5370614  41.8148757  76.3139202
  54.9578617  31.9862982  81.9743101  55.5034577  32.6648068  82.0337070
  54.8995493  31.8450443  81.1144682  55.0294531  32.0654983  81.8555161
  48.0752692  39.4752048  77.3611453  48.1763055  38.6652402  77.6708581
  47.4794437  39.3808994  76.7311132  48.0025231  39.3417076  77.3137692
  56.7343686  33.4147589  72.8476828  56.6183212  34.1655275  73.2768967
  57.5299572  33.1571542  73.0972915  56.8348275  33.4882436  72.9480920
  47.9153432  44.3929637  78.7626309  48.5590887  44.8342801  79.1522468
  48.2409687  43.5883063  78.6756568  48.0585260  44.3394832  78.8071786
  41.2717736  35.4972334  76.9863787  41.0367921  34.6639987  76.8796056
  41.4103377  35.7777000  76.1724988  41.2573399  35.4155838  76.8506142
  43.5707824  27.6658065  79.8848094  42.9512855  27.0750712  79.7158109
  43.4691687  28.2569500  79.2512418  43.4645499  27.6662147  79.7653084
  48.6174011  37.4041612  74.1346171  48.9389852  37.9446819  73.5307479
  49.2646108  36.8338383  74.2668461  48.7600066  37.4000787  74.0653206
  50.6675719  29.4057607  74.2180558  51.3655884  29.5845734  74.7102021
  50.9828052  28.8827946  73.5950947  50.8171057  29.3551379  74.1982568
  43.2976957  31.2110347  82.1291663  43.1735654  31.7972792  82.7641482
  43.9495241  30.7170542  82.4303938  43.3750606  31.2249151  82.2677593
  50.8563655  35.7928052  74.2060349  51.2957290  35.1845152  74.6515122
  50.7068318  35.4135425  73.4345814  50.8985120  35.6466523  74.1579516
  48.3235298  34.3872064  81.4079175  48.9684300  33.8944507  81.0890123
  48.5637075  34.5296850  82.2345253  48.4545883  34.3349506  81.4828708
  50.8621389  37.2326969  81.0586067  51.1444632  36.4378375  80.8372823
  51.5907550  37.7107557  81.0791128  51.0110953  37.1861566  81.0289082
  48.8402583  24.7750003  78.3001832  48.5105913  25.2261147  77.6305531
  48.1647585  24.6966167  78.8474839  48.6913019  24.8301139  78.2825055
  54.4572991  34.1455233  71.1591118  54.3724286  35.0016200  71.3040687
  54.9457375  33.8699557  71.8273277  54.5161889  34.2312555  71.2793200
  56.0478991  20.7635526  76.5451443  55.7332432  21.4539005  76.9771865
  55.5305932  20.7080309  75.8436943  55.9243461  20.8570415  76.5048392
  55.3891425  30.7640027  72.6588853  54.8602896  30.9799661  73.3186160
  55.9116444  31.4576166  72.5789823  55.3879878  30.8983164  72.7444453
  60.8439477  36.3386332  78.0321898  60.0137181  36.5496975  78.1955314
  60.7948730  35.5123386  77.7564181  60.7146213  36.2475938  78.0159263
  47.2791032  34.6603244  71.4596321  46.6948248  35.1653275  71.8662185
  46.8761128  34.4345631  70.7192913  47.1330336  34.7011492  71.4101347
  42.8335061  40.3758005  78.2619993  42.3502639  41.1008495  78.2379576
  43.6458379  40.6734135  78.3730151  42.8825809  40.5260359  78.2747272
  48.9049215  39.1690186  80.8669807  48.3876157  38.8097601  80.2631115
  49.6023606  38.6452360  80.8775873  48.9314796  39.0387874  80.7800066
  51.7368247  30.9068896  69.9365242  51.9764250  31.1146880  69.1240585
  52.0584088  30.1026405  70.0454186  51.8205405  30.8182997  69.8325795
  47.0458537  22.8362292  73.7824780  47.8004505  23.2040609  73.5441830
  46.8686072  23.2101846  74.5503959  47.1313015  22.9460480  73.8609668
  45.6879258  40.8914181  78.4140273  46.3899838  40.3766170  78.4713029
  45.6076741  41.2188332  79.2187148  45.7803019  40.8628407  78.5413065
  45.4015602  25.2432611  70.4802893  45.2191175  25.4604492  69.6543886
  46.2641215  25.3571624  70.5361507  45.5020191  25.2922509  70.3657380
  45.0130034  37.0820533  77.9225881  45.8518933  37.3143466  77.9699642
  45.0441803  36.2124844  77.8532916  45.1411751  36.9877480  77.9190525
  45.6382737  37.5021408  82.2239186  46.1780962  37.3592539  82.8942559
  44.9552683  37.9018159  82.5923213  45.6174891  37.5401079  82.3773608
  51.0815321  22.2459022  73.5151917  51.8101481  22.0674976  73.0690073
  51.1710214  23.0877101  73.7259095  51.2021983  22.3442900  73.4805434
  55.0623622  33.1812409  77.4184211  55.8181137  33.6143923  77.4573119
  55.1685946  32.5317179  77.9918847  55.1893792  33.1489893  77.5082236
  58.1003793  37.0085686  78.1686614  57.6639025  37.0122429  78.9245585
  57.7666708  37.6891185  77.7366191  57.9866413  37.1098142  78.2167446
  41.0419882  33.7221699  82.3773608  40.7758297  32.9060816  82.5364598
  41.0558446  33.7674855  81.5069123  41.0044604  33.6078604  82.2727090
  44.9477629  28.5206783  68.9925366  44.2335806  28.2344963  69.4047798
  45.4321597  28.8603409  69.6331753  44.9136992  28.5288433  69.1481001
  61.2348139  33.7266606  77.0606251  61.8964573  33.1657275  76.9602159
  60.5939551  33.2318637  77.3858942  61.2377006  33.5703015  77.0938591
  52.1224947  37.0236737  69.3687174  52.5376095  36.6921761  68.6771670
  51.2916876  36.7905640  69.2407311  52.0612955  36.9407993  69.2478022
  41.4513295  34.5080478  79.6585352  41.2688869  34.4827364  78.8057644
  42.1862964  34.9779416  79.6974261  41.5327359  34.5741841  79.5383271
  57.5212970  34.7431988  76.8018240  57.7568559  34.8877187  75.9745090
  57.6702533  35.5074396  77.1949753  57.5778773  34.8771043  76.7381844
  59.3503426  33.5833654  74.6387843  59.6811643  34.1161295  74.0327938
  59.9236514  33.6372542  75.2949794  59.4837105  33.6703223  74.6465625
  54.5635315  31.4298557  75.3211424  54.6582170  32.1687851  75.7751049
  53.9394159  31.0016033  75.7545988  54.4844346  31.4759878  75.4519571
  41.4184206  31.3873979  79.8084419  41.9957708  31.2510430  80.4476664
  40.7198267  30.9309763  80.0630003  41.4005227  31.2996245  79.9406708
  54.8158337  33.2747297  68.5548376  54.7338499  33.3449484  69.4203363
  55.4538057  33.8377041  68.3632116  54.8978174  33.3686268  68.6538325
  48.1751508  33.0408035  78.0222902  47.9170752  32.2079770  77.9954201
  48.2299991  33.2665648  77.1815402  48.1451286  32.9505806  77.8943039
  53.2552558  25.1436486  78.1226995  52.5508885  24.6545671  78.2810914
  53.3037532  25.1558960  77.2515439  53.1582610  25.0726133  78.0166334
  47.1486220  30.5945797  78.5087797  46.5735811  30.7537966  79.1451758
  46.7721896  29.9581206  78.0456247  47.0089032  30.5243610  78.5342355
  50.8159509  29.0669147  83.3680175  50.4273941  28.6423364  82.7132366
  50.1514207  29.3151296  83.8757202  50.6606436  29.0407868  83.3468043
  60.4582778  28.8244151  76.1428005  60.2019343  28.0124093  75.9525888
  61.3012092  28.8321718  75.9158192  60.5448803  28.7056149  76.0812822
  36.8943039  30.2385872  76.5232237  36.9803291  29.8617740  77.3045767
  37.5218836  29.8646318  76.0452195  36.9999590  30.1271354  76.5677715
  51.9198447  33.2967751  71.5656982  52.7339086  33.5882644  71.4539753
  51.8557588  32.6427614  70.9915275  52.0301186  33.2432946  71.4645819
  47.7906355  36.7689269  76.6929294  48.4280302  36.5301016  77.2381087
  48.2161427  36.9726428  75.9582455  47.9482521  36.7640279  76.6646451
  42.4818998  39.0077605  80.5763598  42.5223143  39.2792456  79.7483377
  43.0413522  39.5319513  80.9921386  42.5702344  39.1253360  80.5155486
  48.4309170  31.9891558  71.0304183  48.8154323  31.7699265  71.7820729
  48.1820791  32.8154504  71.1605260  48.4511243  32.0789705  71.1605260
  50.1727827  37.2461691  78.3723080  50.2466835  37.0836863  79.2264930
  50.9897333  37.4351881  78.1283562  50.3044186  37.2498434  78.4621106
  43.9333584  37.5919554  75.4017524  43.1071702  37.8381291  75.2751803
  43.9945575  37.5131635  76.2679582  43.8207751  37.6164503  75.5106468
  46.1509608  23.6588495  76.3612964  45.2832033  23.7311095  76.4270573
  46.4384812  24.4610574  76.5500939  46.0649356  23.7882642  76.3987731
  48.7132413  40.2096434  73.1036554  49.0030711  39.8185416  72.3795780
  49.4435894  40.3913139  73.5441829  48.8639297  40.1790248  73.0619361
  49.3027158  35.0114180  84.1889684  48.8038852  35.7229948  84.2674573
  50.1127382  35.3314847  84.1507847  49.3483265  35.1641029  84.1946253
  46.6538328  42.1863817  76.1696703  46.4338624  41.8961171  76.9623370
  46.4332850  41.5278772  75.6414616  46.5885923  42.0463525  76.2085612
  45.5655276  34.2737133  78.4352405  45.2768524  33.6474604  78.9698132
  46.4338624  34.2157421  78.5017086  45.6515528  34.1724677  78.5243360
  56.3533173  29.4171917  78.7534387  56.0097939  28.6962252  79.1041637
  56.4526216  29.2085768  77.9112745  56.3175216  29.2796120  78.6806067
  48.8206284  43.5593207  74.9527396  49.4730342  43.0269649  75.1818422
  48.1231893  43.2061859  75.3395270  48.8137002  43.4282730  75.0439564
  45.7687549  35.9132384  74.3594770  46.5233517  36.2945423  74.5730233
  45.1758162  36.3643528  74.8141467  45.7924263  36.0361212  74.4577649
  56.8146203  35.8797621  74.2958375  57.3804235  36.5390831  74.2116918
  56.1674106  36.2247319  74.7674777  56.8024959  36.0279562  74.3531132
  47.0885776  37.0840946  79.7334886  46.5666529  37.2241237  80.4186750
  47.4759796  36.3251610  79.9237003  47.0689477  36.9926469  79.8635962
  44.0776960  27.1346754  73.8029840  43.7901755  26.7648025  73.0661788
  44.7647428  27.6041610  73.5413545  44.1365857  27.1493724  73.6544916
  53.2852781  38.8236405  73.7195454  53.0439457  38.0904266  73.3122519
  53.4654114  39.3723262  73.0661788  53.2760405  38.7958796  73.5625677
  48.5152101  34.1144965  75.1316377  48.3194884  34.7219699  74.5376680
  48.7386447  33.4212909  74.6508051  48.5186742  34.1022490  74.9732457
  46.9130631  30.9999703  75.2497245  47.6353283  31.1640861  74.7901051
  46.4338624  31.7209367  75.1436585  46.9494362  31.1297932  75.1662859
  54.8724139  27.3363501  80.6293930  54.0335239  27.3624780  80.3932193
  54.9428506  27.9834237  81.2099277  54.7592532  27.4359627  80.6803047
  44.5638248  33.4057775  84.3551385  45.0759345  33.6842028  83.7060145
  44.2774591  34.1447069  84.7214198  44.5973111  33.5560129  84.3141263
  53.3193417  24.2348878  75.3621546  54.0219770  24.0356627  74.8841504
  53.0537606  23.4624821  75.6690389  53.3840049  24.0911844  75.3366987
  58.7481663  32.5431488  77.9155172  58.6615637  32.6986914  78.7689951
  58.2932143  33.1869564  77.5414577  58.6684919  32.6607243  77.9862278
  41.6505154  27.9127967  74.6515121  41.7521291  28.7154128  74.9796097
  42.4461041  27.7115303  74.3538202  41.7833060  28.0013866  74.6550477
  52.6207479  29.8642235  76.5380731  52.3742193  29.7837986  77.3717520
  52.9492602  29.0795703  76.3443259  52.6328722  29.7368501  76.6328254
  56.5155528  36.5725595  80.3267512  56.3769887  37.2706640  80.8316255
  55.7355525  36.4174251  79.9703694  56.3798754  36.6525761  80.3493787
  48.5804506  32.5998954  85.9503714  48.7247882  33.1800162  85.3146824
  48.9280155  32.9775251  86.6553569  48.6531967  32.7419658  85.9602709
  50.7524423  31.7989122  83.7328846  50.0047737  31.9920137  83.3277124
  50.9065949  30.9734342  83.4952967  50.6646851  31.7054234  83.6374252
  47.6532261  40.7901726  82.8164741  47.8021825  40.2304642  82.1638146
  48.4332263  40.8693727  83.1997260  47.7906355  40.7187291  82.7761690
  58.0108900  35.9303848  71.0884012  57.6315709  35.1440986  71.0813301
  57.3475146  36.4790705  70.9455656  57.8567375  35.8948672  71.0664809
  50.8355809  39.4817367  74.9272838  51.6005700  39.2127011  74.6055502
  50.7333899  38.9967378  75.6442901  50.9337304  39.3706932  74.9852665
  48.8708578  27.6841777  81.4666074  48.0804653  27.5033237  81.7883409
  49.2669201  26.9068729  81.4496368  48.8125455  27.5429238  81.5118622
  53.3574469  36.5129551  66.9072787  54.1247454  36.5729676  66.4978639
  52.9105778  35.9409993  66.4229106  53.4047896  36.4366127  66.7750498
  54.2552265  35.3184207  79.1925520  53.5797266  35.0869439  79.6938907
  54.2644641  34.7105390  78.5667625  54.1570769  35.1943132  79.1741672
  51.3846409  30.1602036  85.9489573  51.3205550  31.0211992  85.8209709
  51.5243596  29.8434029  85.1485124  51.3961879  30.2402203  85.8117785
  56.2568999  38.1749339  71.4235697  56.3388837  38.9816326  71.0997148
  56.7418741  38.1945299  72.1476471  56.3406157  38.2970002  71.4822596
  50.0665503  32.8534175  80.0905775  49.6427752  33.0538674  79.3544794
  49.8910358  32.0063023  80.2030075  49.9776383  32.7582957  79.9979466
  45.3547947  33.3486227  75.5233748  45.5112567  33.2833030  76.3789740
  45.6948541  34.1234779  75.3112428  45.4281182  33.4535425  75.6188342
  51.8927092  32.7244110  74.3927111  52.4342638  32.2214491  74.8565732
  52.2073651  32.6709305  73.5816596  52.0191489  32.6423531  74.3410923
  50.0613542  38.1161462  71.6767139  50.1306362  37.2576000  71.8160140
  50.8401997  38.3333343  71.3486164  50.1866392  38.0214326  71.6484296
  53.0416361  27.6180415  84.4449412  53.2558331  26.9791329  83.8912766
  52.4250261  28.0626239  84.0157273  52.9821691  27.5890559  84.2999843
  54.4521029  40.5399163  75.8903633  54.0600821  40.2365878  75.1726499
  54.6074102  41.3768253  75.7008586  54.4174619  40.6183000  75.7560130
  41.9282209  30.5321177  75.8394515  42.3081174  30.9505722  75.1754782
  41.3537574  31.1134633  76.1463358  41.8993534  30.6799036  75.7871256
  54.6160704  37.1049152  75.8309663  54.2575359  37.2763795  76.6073695
  54.1299415  37.5662358  75.2737662  54.4919401  37.1988123  75.8634932
  52.4331090  20.7280351  79.4336754  51.5624648  20.7019072  79.3870064
  52.6871431  20.5557543  78.6162600  52.3424650  20.6990494  79.3056891
  49.4049070  32.7848317  68.3709897  49.6941594  33.5613200  68.6453472
  49.4920868  32.2737049  69.0724397  49.4603326  32.8240236  68.5152395
  49.4580231  22.7386579  80.8910225  48.9418719  22.0466770  81.0161804
  48.8974159  23.4057356  80.8372824  49.2986744  22.7349837  80.9016291
  57.5022444  29.8442194  81.3442780  57.0750052  29.7568543  80.5890879
  56.8648497  29.9519969  81.9297624  57.3452051  29.8474854  81.3188221
  45.5713011  32.0981582  80.4710010  44.7301017  31.9985456  80.6788903
  45.7803018  32.8677062  80.8224330  45.4777703  32.1973625  80.5537324
  43.0488577  29.7201119  78.2994760  42.6545275  29.7944131  77.5244870
  42.4928694  30.1059065  78.8503122  42.9091390  29.7882894  78.2662420
  54.6853524  22.6982413  77.9798639  54.8903118  22.6304721  78.8255636
  54.3579948  23.5041234  77.9119817  54.6668772  22.8068353  78.0958294
  49.3829675  30.0262981  79.7207607  49.0792813  29.4718969  80.3218015
  48.6809096  30.2055191  79.2335641  49.2345885  29.9707763  79.7377313
  48.4395772  27.3363501  74.2852309  48.7155507  26.6182413  73.8729876
  49.0394442  27.9348421  74.0773415  48.5689037  27.3183872  74.1933070
  47.4448026  37.2412702  84.4279705  47.3368381  37.2514764  85.2941763
  47.6543808  38.0667482  84.2384659  47.4598137  37.3653777  84.5283796
  57.9387212  23.2514177  77.4601405  57.3261526  23.7384579  77.8455136
  58.0351387  22.5757668  78.0039056  57.8625110  23.2232486  77.5980263
  51.9406293  25.0077018  72.5598904  52.3950040  25.1787579  73.2846748
  52.4146339  24.3945129  72.1596680  52.0774613  24.9427904  72.6072666
  45.4621818  34.4925344  81.8901642  44.8709752  35.1334842  81.8604658
  46.2242842  34.9162962  81.8632942  45.4870079  34.6501183  81.8816790
  55.2211335  39.9434656  79.3233667  55.0231023  40.4325470  78.6289878
  54.5999046  40.1475897  79.9017800  55.0998899  40.0451194  79.3056890
  49.2819313  31.7119553  73.6643911  50.0261358  32.0993829  73.9026861
  49.4280009  30.8676978  73.8284399  49.4129898  31.6450025  73.7237881
  51.1998888  23.5069812  78.6975773  50.3534933  23.6792619  78.5717122
  51.1970021  22.7019155  79.0341601  51.0746038  23.4130841  78.7286900
  52.2697189  27.2845026  79.5637830  51.7957143  26.7586788  80.0743141
  52.6415325  26.7374499  78.9952692  52.2547078  27.1261023  79.5552978
  58.5333919  32.3447402  80.9744611  58.2932142  31.5053817  80.9787037
  59.0125927  32.4247568  81.6985385  58.5686103  32.2328801  81.0819413
  54.1980688  28.1781581  72.6263584  53.6703707  28.2610325  71.9369293
  54.6576397  28.9199452  72.6228229  54.1882539  28.3002243  72.5238279
  60.5339106  29.1248859  78.9273870  60.2948876  29.0844693  78.0894655
  60.6973008  29.9720011  79.0539591  60.5229410  29.2440944  78.8227352
  46.0072005  28.1058982  81.5931794  45.3825075  28.1177374  80.9857747
  45.6717600  28.5819157  82.2423035  45.8657497  28.1777499  81.5988363
  46.1913754  26.4484100  67.6504479  45.8426558  27.1003825  68.1136029
  45.7110199  26.4341213  66.9228351  46.0683998  26.5427154  67.6115571
  42.7197680  36.1659442  83.0335559  42.1897605  35.4751881  83.0830533
  42.9922774  36.1569627  82.2048267  42.6822403  36.0626574  82.9182975
  53.7517771  36.7485144  71.7573241  54.4751970  37.2143257  71.6137815
  53.3118362  36.8158754  71.0070838  53.7933463  36.8268981  71.6258023
  52.9203926  33.6082686  83.0073930  52.3060919  33.0640737  83.3022566
  53.4371211  33.0946923  82.5279746  52.9059588  33.4519095  82.9798159
  52.1600223  34.6786956  80.7418229  51.7327831  34.0536675  80.3083664
  52.1525168  34.3961878  81.5677236  52.0959364  34.5439737  80.7998057
  50.4885933  25.5555711  80.9560763  50.5128420  25.0215823  80.2673543
  50.7397407  25.0473020  81.6186354  50.5295852  25.4016615  80.9525408
  37.9993523  32.8387206  80.3903907  37.8936972  32.7934050  79.5255991
  37.2493743  33.1840986  80.6718192  37.8729126  32.8828114  80.3041237
  46.7687255  24.2826529  80.3366507  46.8085627  24.7835736  81.0501215
  45.9436920  24.3736923  80.0672430  46.6526781  24.3708346  80.4017046
  48.1901619  30.7987039  82.6340406  47.3593548  30.9660857  82.4275654
  48.1353136  30.4222990  83.4189292  48.0591033  30.7676770  82.7188934
  46.5637662  29.0742631  73.1630524  46.7040623  29.5715095  73.8659165
  47.0620195  28.3728925  73.3044738  46.6578743  29.0444609  73.2882103
  46.5937885  29.9409742  70.4923101  47.2282964  30.5370167  70.4272563
  46.6763496  29.6413199  71.3068971  46.6994436  29.9850650  70.6026187
  48.1716868  25.8723717  70.4668543  48.4932709  25.3926800  69.8127805
  48.4343811  26.6823363  70.2759354  48.2582893  25.9213615  70.3424035
  53.5676023  25.2595911  82.8292022  53.9931094  24.8068437  82.2175548
  52.9533016  24.7055982  83.1056809  53.5404668  25.1109887  82.7797047
  43.0990873  32.1377582  73.7612647  43.6083102  32.7342090  74.1423952
  43.5725145  31.8703556  73.0789066  43.2434248  32.1863398  73.7167170
  54.0121621  40.8105849  71.9171302  53.2950930  40.6366711  71.4518540
  54.6628358  40.5758421  71.3846788  54.0023471  40.7501642  71.7700520
  52.0070245  21.7311011  76.2382599  51.3638563  21.5808657  76.8067737
  51.6669652  21.4853356  75.4731704  51.8615323  21.6723133  76.2085614
  56.5969592  29.6870438  75.6612607  55.9260782  30.2300140  75.5325673
  57.2909342  30.1565293  75.4194302  56.5998459  29.8368709  75.6068135
  50.6456326  41.8267150  80.8924366  50.4221980  41.0685979  81.2608392
  50.1566169  41.8565171  80.1704806  50.5399775  41.7189374  80.8401107
  56.7597719  26.1426321  78.5702981  57.1125329  25.7156044  79.2448779
  55.9012521  26.0577165  78.7004057  56.6847164  26.0671062  78.6897991
  45.4581404  28.7733841  76.6285827  44.7393393  29.1897973  76.8958691
  45.8293767  29.3388080  76.0777465  45.4073336  28.9183122  76.5868634
  54.7580985  29.4061690  82.5187823  54.7378912  29.2244985  83.3722602
  54.8060186  30.2773708  82.4947407  54.7615626  29.5078228  82.6411118
  49.2934783  42.0467608  78.3461450  48.8795181  41.3841738  77.9565292
  49.9782157  42.1945466  77.8257145  49.3333154  41.9708266  78.2117948
  52.6600077  41.2057693  79.0985067  52.2616360  41.3159963  78.3305887
  52.0451296  41.4139759  79.6811627  52.5098966  41.2531261  79.0716366
  51.2327979  27.8131841  71.9659207  50.6392818  28.1348837  71.4143774
  51.2703256  26.9672936  71.7580313  51.1502368  27.7356169  71.8541978
  54.1085795  27.7711345  75.3960957  53.8799488  27.7944047  74.5539315
  54.3683871  26.9468812  75.5155967  54.1131983  27.6527425  75.2886155
  47.1630558  26.3087892  76.6915153  47.6387924  26.6704971  76.0565334
  46.6619157  26.9644359  76.9715295  47.1595917  26.4582080  76.6391894
  60.3941919  35.7809660  72.4828158  60.7775525  36.5301016  72.7126255
  59.5986033  36.0275479  72.2240147  60.3335702  35.9279354  72.4785731
  49.2057211  28.4529091  70.0588537  49.5856176  28.4708721  69.2739651
  48.4649807  28.8983080  69.9379384  49.1526049  28.5210866  69.9252105
  56.8342501  26.7611283  75.6464115  56.8336728  26.6059939  76.5048392
  56.6298682  27.6074270  75.5905501  56.8042279  26.8631903  75.7652055
  38.8959772  30.1851067  80.0622932  38.7181534  29.7327676  80.7877847
  38.6078795  30.9877228  80.2461409  38.8272726  30.2373625  80.1966435
  54.5583354  31.4408784  79.3000322  55.0537019  30.7231779  79.2604342
  53.7483129  31.1379582  79.1854809  54.5127247  31.2906431  79.2774048
  50.0041965  35.2906598  71.4497327  49.1953288  34.9673271  71.4030636
  50.5116874  34.5839820  71.3825575  49.9591632  35.1387914  71.4327621
  40.6332242  32.7178791  77.1744691  39.7677762  32.7064481  77.0627462
  40.7331058  32.5309014  78.0215830  40.5206409  32.6884852  77.2833635
  56.6235172  34.1912472  81.9877451  57.0490244  33.6686894  81.4347876
  56.2592092  34.7893309  81.4666074  56.6321775  34.2022699  81.8286461
  46.2589252  42.4876689  80.7474796  46.5735811  43.3013078  80.7552578
  46.6682666  42.1026908  81.4156956  46.3657350  42.5505392  80.8478888
  53.2113772  37.9046736  78.3178608  53.6824950  38.6186999  78.4868594
  53.5473950  37.3045486  78.8538478  53.3308887  37.9218200  78.4210984
  49.1976382  24.6790620  72.7416168  50.0192076  24.8488932  72.4997863
  48.7346033  24.8337881  72.0182466  49.2507544  24.7272353  72.5987812
  43.6002272  36.4349798  80.3953405  44.2047130  36.3945632  79.7667226
  43.3929585  37.2820950  80.4257461  43.6591170  36.5537800  80.3069521
  53.4146044  38.7015743  81.6115642  54.2344418  38.5578709  81.8731937
  53.1340122  39.3261942  82.1532080  53.4942788  38.7726095  81.7303582
  38.8353555  35.4184415  80.2652328  38.7377833  34.6080687  80.5742385
  39.6182424  35.3976209  79.8798596  38.9369691  35.2951506  80.2539191
  61.6408303  44.9242915  74.2180558  62.3388468  45.1031042  74.7102021
  61.9560635  44.4013254  73.5950947  61.7903640  44.8736687  74.1982568
  59.8135167  40.2935311  78.3001832  59.4838497  40.7446455  77.6305531
  59.1380168  40.2151475  78.8474839  59.6645603  40.3486447  78.2825055
  67.0211574  36.2820834  76.5451443  66.7065015  36.9724313  76.9771865
  66.5038516  36.2265617  75.8436943  66.8976045  36.3755723  76.5048392
  58.2523616  50.1788552  71.4596321  57.6680831  50.6838583  71.8662185
  57.8493711  49.9530939  70.7192913  58.1062920  50.2196800  71.4101347
  62.7100830  46.4254204  69.9365242  62.9496834  46.6332188  69.1240585
  63.0316671  45.6211713  70.0454186  62.7937988  46.3368305  69.8325795
  58.0191121  38.3547600  73.7824780  58.7737089  38.7225917  73.5441830
  57.8418655  38.7287154  74.5503959  58.1045599  38.4645788  73.8609668
  56.3748185  40.7617919  70.4802893  56.1923758  40.9789800  69.6543886
  57.2373798  40.8756931  70.5361507  56.4752775  40.8107817  70.3657380
  62.0547904  37.7644329  73.5151917  62.7834065  37.5860284  73.0690073
  62.1442797  38.6062409  73.7259095  62.1754567  37.8628208  73.4805434
  55.9210212  44.0392091  68.9925366  55.2068389  43.7530271  69.4047798
  56.4054181  44.3788717  69.6331753  55.8869576  44.0473741  69.1481001
  63.0957530  52.5422045  69.3687174  63.5108679  52.2107069  68.6771670
  62.2649460  52.3090948  69.2407311  63.0345539  52.4593301  69.2478022
  65.7890920  48.7932605  68.5548376  65.7071083  48.8634792  69.4203363
  66.4270641  49.3562349  68.3632116  65.8710758  48.8871576  68.6538325
  47.8675623  45.7571180  76.5232237  47.9535874  45.3803048  77.3045767
  48.4951420  45.3831626  76.0452195  47.9732173  45.6456662  76.5677715
  62.8931031  48.8153059  71.5656982  63.7071669  49.1067952  71.4539753
  62.8290172  48.1612921  70.9915275  63.0033770  48.7618254  71.4645819
  59.4041754  47.5076866  71.0304183  59.7886907  47.2884573  71.7820729
  59.1553374  48.3339812  71.1605260  59.4243826  47.5975013  71.1605260
  57.1242191  39.1773803  76.3612964  56.2564617  39.2496402  76.4270573
  57.4117396  39.9795882  76.5500939  57.0381939  39.3067950  76.3987731
  55.0509543  42.6532062  73.8029840  54.7634339  42.2833333  73.0661788
  55.7380011  43.1226918  73.5413545  55.1098441  42.6679032  73.6544916
  57.8863215  46.5185011  75.2497245  58.6085867  46.6826169  74.7901051
  57.4071208  47.2394675  75.1436585  57.9226946  46.6483240  75.1662859
  64.2926001  39.7534186  75.3621546  64.9952354  39.5541935  74.8841504
  64.0270189  38.9810129  75.6690389  64.3572633  39.6097152  75.3366987
  52.6237738  43.4313275  74.6515121  52.7253874  44.2339436  74.9796097
  53.4193625  43.2300611  74.3538202  52.7565643  43.5199174  74.6550477
  64.3307053  52.0314859  66.9072787  65.0980038  52.0914984  66.4978639
  63.8838362  51.4595301  66.4229106  64.3780480  51.9551435  66.7750498
  52.9014793  46.0506485  75.8394515  53.2813757  46.4691030  75.1754782
  52.3270157  46.6319941  76.1463358  52.8726117  46.1984344  75.7871256
  63.4063674  36.2465658  79.4336754  62.5357232  36.2204380  79.3870064
  63.6604015  36.0742851  78.6162600  63.3157234  36.2175802  79.3056891
  60.3781653  48.3033625  68.3709897  60.6674178  49.0798508  68.6453472
  60.4653452  47.7922357  69.0724397  60.4335909  48.3425544  68.5152395
  59.4128356  42.8548809  74.2852309  59.6888090  42.1367721  73.8729876
  60.0127025  43.4533729  74.0773415  59.5421621  42.8369180  74.1933070
  62.9138877  40.5262326  72.5598904  63.3682623  40.6972887  73.2846748
  63.3878922  39.9130437  72.1596680  63.0507197  40.4613211  72.6072666
  60.2551897  47.2304861  73.6643911  60.9993941  47.6179137  73.9026861
  60.4012593  46.3862286  73.8284399  60.3862482  47.1635333  73.7237881
  62.1731472  39.0255120  78.6975773  61.3267517  39.1977927  78.5717122
  62.1702604  38.2204463  79.0341601  62.0478622  38.9316148  78.7286900
  65.1713272  43.6966889  72.6263584  64.6436291  43.7795632  71.9369293
  65.6308980  44.4384760  72.6228229  65.1615123  43.8187551  72.5238279
  57.1646337  41.9669408  67.6504479  56.8159142  42.6189133  68.1136029
  56.6842783  41.9526521  66.9228351  57.0416581  42.0612462  67.6115571
  57.5370246  44.5927939  73.1630524  57.6773207  45.0900403  73.8659165
  58.0352779  43.8914233  73.3044738  57.6311327  44.5629917  73.2882103
  57.5670468  45.4595050  70.4923101  58.2015548  46.0555475  70.4272563
  57.6496079  45.1598507  71.3068971  57.6727019  45.5035958  70.6026187
  59.1449451  41.3909025  70.4668543  59.4665292  40.9112107  69.8127805
  59.4076395  42.2008671  70.2759354  59.2315477  41.4398923  70.3424035
  54.0723456  47.6562890  73.7612647  54.5815686  48.2527398  74.1423952
  54.5457728  47.3888864  73.0789066  54.2166832  47.7048706  73.7167170
  62.9802829  37.2496319  76.2382599  62.3371147  37.0993965  76.8067737
  62.6402236  37.0038664  75.4731704  62.8347906  37.1908441  76.2085614
  56.4313988  44.2919149  76.6285827  55.7125977  44.7083281  76.8958691
  56.8026350  44.8573388  76.0777465  56.3805920  44.4368430  76.5868634
  62.2060562  43.3317149  71.9659207  61.6125402  43.6534145  71.4143774
  62.2435840  42.4858244  71.7580313  62.1234951  43.2541477  71.8541978
  58.1363141  41.8273200  76.6915153  58.6120508  42.1890279  76.0565334
  57.6351741  42.4829667  76.9715295  58.1328500  41.9767388  76.6391894
  60.1789795  43.9714399  70.0588537  60.5588759  43.9894029  69.2739651
  59.4382391  44.4168388  69.9379384  60.1258632  44.0396174  69.9252105
  60.9774549  50.8091906  71.4497327  60.1685871  50.4858579  71.4030636
  61.4849457  50.1025128  71.3825575  60.9324215  50.6573222  71.4327621
  60.1708965  40.1975928  72.7416168  60.9924660  40.3674240  72.4997863
  59.7078616  40.3523189  72.0182466  60.2240127  40.2457661  72.5987812
  35.2186176   0.8826479  62.0288727  34.4669076   0.5042017  61.8004772
  35.6672188   0.9144913  61.2807538  35.1735843   0.8312086  61.8846230
  40.6711136   1.3051848  57.4574274  40.3362505   1.9828770  57.0218497
  41.1838007   0.9157160  56.8691146  40.6976717   1.3476427  57.3061066
  40.2115427   3.2566117  63.3985386  40.5954807   3.8253016  62.8590161
  40.1474569   2.5315627  62.9191202  40.2588855   3.2341581  63.2479249
  36.6371672   5.8122460  65.6966356  37.2809127   6.2535624  66.0862514
  36.9627927   5.0075886  65.6096615  36.7803501   5.7587655  65.7411833
  37.3392252  -1.1765565  61.0686218  37.6608093  -0.6360358  60.4647526
  37.9864348  -1.7468794  61.2008507  37.4818307  -1.1806390  60.9993253
  37.4350653   1.6289258  60.0376601  37.7248952   1.2378239  59.3135827
  38.1654134   1.8105962  60.4781876  37.5857537   1.5983071  59.9959408
  35.3756569   3.6056640  63.1036750  35.1556864   3.3153995  63.8963417
  35.1551091   2.9471595  62.5754663  35.3104163   3.4656348  63.1425659
  37.5424525   4.9786030  61.8867443  38.1948583   4.4462472  62.1158469
  36.8450133   4.6254682  62.2735317  37.5355243   4.8475553  61.9779610
  42.0071021   0.2429228  60.6535501  41.7657697  -0.4902911  60.2462566
  42.1872354   0.7916085  60.0001834  41.9978645   0.2151619  60.4965724
  39.5574049   0.9010191  61.8612885  40.3223940   0.6319834  61.5395549
  39.4552139   0.4160201  62.5782947  39.6555544   0.7899755  61.9192712
  38.7831782  -0.4645715  58.6107186  38.8524602  -1.3231176  58.7500186
  39.5620237  -0.2473834  58.2826211  38.9084632  -0.5592851  58.5824343
  43.1739270   1.9591986  62.8243679  42.7819061   1.6558702  62.1066546
  43.3292342   2.7961076  62.6348633  43.1392860   2.0375823  62.6900176
  43.9429575   1.3627479  66.2573714  43.7449264   1.8518294  65.5629925
  43.3217286   1.5668721  66.8357847  43.8217139   1.4644017  66.2396937
  42.7339861   2.2298672  58.8511349  42.0169171   2.0559535  58.3858587
  43.3846599   1.9951245  58.3186835  42.7241712   2.1694465  58.7040567
  38.0153023   3.4660431  65.2801497  37.6013422   2.8034561  64.8905339
  38.7000397   3.6138290  64.7597191  38.0551395   3.3901089  65.1457994
  41.3818317   2.6250516  66.0325114  40.9834600   2.7352787  65.2645934
  40.7669537   2.8332583  66.6151674  41.2317206   2.6724084  66.0056413
  58.6077935   7.7773418  61.5098565  58.5771940   8.6318055  61.6816835
  59.2059284   7.4768711  62.0684709  58.6915093   7.8589915  61.6173368
  51.8077620   6.8649069  66.2651496  50.9515516   7.0257567  66.3160613
  51.8545274   5.9941133  66.2856557  51.6876732   6.7599871  66.2757562
  46.1918760  16.4011787  62.0288727  45.4401659  16.0227325  61.8004772
  46.6404771  16.4330220  61.2807538  46.1468427  16.3497394  61.8846230
  51.6443720  16.8237156  57.4574274  51.3095088  17.5014078  57.0218497
  52.1570590  16.4342468  56.8691146  51.6709301  16.8661735  57.3061066
  51.1848011  18.7751425  63.3985386  51.5687390  19.3438324  62.8590161
  51.1207152  18.0500935  62.9191202  51.2321438  18.7526888  63.2479249
  54.6529441   8.9241113  68.9083147  55.1985401   9.6026200  68.9677117
  54.5946317   8.7828574  68.0484729  54.7245355   9.0033115  68.7895208
  47.7703516  16.4130179  64.2951500  47.8713879  15.6030533  64.6048628
  47.1745261  16.3187125  63.6651178  47.6976055  16.2795207  64.2477738
  56.4294510  10.3525720  59.7816875  56.3134036  11.1033406  60.2109013
  57.2250396  10.0949673  60.0312962  56.5299099  10.4260567  59.8820967
  47.6104256  21.3307768  65.6966356  48.2541711  21.7720932  66.0862514
  47.9360511  20.5261194  65.6096615  47.7536084  21.2772963  65.7411833
  40.9668560  12.4350466  63.9203834  40.7318745  11.6018118  63.8136102
  41.1054201  12.7155131  63.1065034  40.9524223  12.3533969  63.7846189
  43.2658648   4.6036196  66.8188141  42.6463679   4.0128843  66.6498156
  43.1642511   5.1947631  66.1852464  43.1596323   4.6040279  66.6993131
  48.3124835  14.3419743  61.0686218  48.6340676  14.8824950  60.4647526
  48.9596932  13.7716514  61.2008507  48.4550890  14.3378918  60.9993253
  50.3626543   6.3435738  61.1520604  51.0606708   6.5223865  61.6442068
  50.6778876   5.8206077  60.5290994  50.5121881   6.2929510  61.1322614
  42.9927781   8.1488478  69.0631710  42.8686478   8.7350923  69.6981529
  43.6446065   7.6548674  69.3643985  43.0701430   8.1627282  69.2017640
  50.5514479  12.7306183  61.1400396  50.9908114  12.1223283  61.5855169
  50.4019142  12.3513556  60.3685861  50.5935944  12.5844654  61.0919563
  48.0186122  11.3250195  68.3419221  48.6635124  10.8322638  68.0230170
  48.2587899  11.4674981  69.1685300  48.1496707  11.2727637  68.4168755
  50.5572213  14.1705101  67.9926114  50.8395456  13.3756506  67.7712870
  51.2858373  14.6485688  68.0131175  50.7061777  14.1239698  67.9629129
  48.5353407   1.7128135  65.2341879  48.2056737   2.1639278  64.5645578
  47.8598409   1.6344298  65.7814885  48.3863843   1.7679270  65.2165102
  54.1523815  11.0833364  58.0931165  54.0675110  11.9394331  58.2380734
  54.6408198  10.8077688  58.7613324  54.2112713  11.1690686  58.2133247
  55.0842248   7.7018158  59.5928900  54.5553720   7.9177792  60.2526206
  55.6067268   8.3954297  59.5129870  55.0830701   7.8361295  59.6784499
  60.5390301  13.2764463  64.9661945  59.7088005  13.4875107  65.1295361
  60.4899554  12.4501517  64.6904228  60.4097037  13.1854069  64.9499310
  46.9741856  11.5981375  58.3936368  46.3899072  12.1031407  58.8002232
  46.5711951  11.3723762  57.6532960  46.8281160  11.6389624  58.3441393
  42.5285885  17.3136136  65.1960040  42.0453463  18.0386626  65.1719623
  43.3409203  17.6112266  65.3070197  42.5776633  17.4638490  65.2087319
  48.6000039  16.1068317  67.8009854  48.0826981  15.7475732  67.1971162
  49.2974430  15.5830491  67.8115920  48.6265620  15.9766005  67.7140113
  52.2563631  16.5563131  73.7626027  52.3446977  16.3689272  74.6104238
  52.6853343  15.9100561  73.3630874  52.3325733  16.4326139  73.8297779
  49.8234091  15.8394291  72.7443689  49.2604926  15.4266901  73.2683351
  50.5855114  15.7647197  73.1636833  49.8528539  15.7671692  72.8836690
  51.4319071   7.8447027  56.8705289  51.6715074   8.0525011  56.0580632
  51.7534912   7.0404536  56.9794233  51.5156229   7.7561129  56.7665842
  45.3830082  17.8292312  65.3480320  46.0850661  17.3144301  65.4053076
  45.3027565  18.1566464  66.1527195  45.4753843  17.8006538  65.4753112
  45.0966426   2.1810742  57.4142940  44.9141999   2.3982623  56.5883932
  45.9592039   2.2949755  57.4701554  45.1971015   2.2300640  57.2997427
  44.7080858  14.0198664  64.8565928  45.5469757  14.2521597  64.9039689
  44.7392627  13.1502976  64.7872963  44.8362575  13.9255611  64.8530572
  45.3333561  14.4399539  69.1579233  45.8731786  14.2970670  69.8282605
  44.6503507  14.8396290  69.5263259  45.3125714  14.4779210  69.3113655
  54.7574445  10.1190540  64.3524257  55.5131961  10.5522054  64.3913166
  54.8636770   9.4695310  64.9258893  54.8844616  10.0868024  64.4422283
  57.7954617  13.9463817  65.1026660  57.3589848  13.9500560  65.8585632
  57.4617532  14.6269316  64.6706238  57.6817237  14.0476273  65.1507493
  52.3683690  15.9872150  76.4269811  53.1524107  16.1002998  76.7925553
  52.1680285  15.1613287  76.6228497  52.4549716  15.8818870  76.5104197
  40.7370706  10.6599830  69.3113655  40.4709121   9.8438947  69.4704645
  40.7509270  10.7052986  68.4409170  40.6995428  10.5456735  69.2067137
  44.6428453   5.4584915  55.9265413  43.9286630   5.1723094  56.3387845
  45.1272421   5.7981540  56.5671800  44.6087816   5.4666564  56.0821048
  52.5254084  17.8982252  70.0736266  51.7269329  17.6581752  70.3310135
  52.9740095  17.9496645  70.8203314  52.4728695  17.8704643  70.2221191
  60.9298963  10.6644737  63.9946298  61.5915397  10.1035406  63.8942206
  60.2890375  10.1696768  64.3198989  60.9327830  10.5081146  64.0278638
  51.8175771  13.9614869  56.3027221  52.2326919  13.6299892  55.6111717
  50.9867700  13.7283771  56.1747358  51.7563779  13.8786125  56.1818068
  41.1464119  11.4458610  66.5925399  40.9639693  11.4205496  65.7397691
  41.8813788  11.9157547  66.6314308  41.2278183  11.5119972  66.4723317
  57.2163794  11.6810120  63.7358286  57.4519383  11.8255319  62.9085137
  57.3653357  12.4452528  64.1289800  57.2729597  11.8149174  63.6721890
  59.0454250  10.5211786  61.5727890  59.3762467  11.0539426  60.9667985
  59.6187338  10.5750673  62.2289841  59.1787929  10.6081354  61.5805672
  54.2586139   8.3676688  62.2551470  54.3532994   9.1065982  62.7091096
  53.6344983   7.9394164  62.6886035  54.1795169   8.4138009  62.3859618
  52.5138613  11.5462901  72.9041751  53.0877475  10.9090145  73.0590315
  52.4353417  11.5466983  72.0351409  52.5871848  11.4528012  72.7988162
  41.1135030   8.3252110  66.7424465  41.6908532   8.1888561  67.3816711
  40.4149091   7.8687894  66.9970050  41.0956051   8.2374377  66.8746755
  54.5109161  10.2125428  55.4888422  54.4289323  10.2827615  56.3543409
  55.1488881  10.7755172  55.2972163  54.5928998  10.3064399  55.5878372
  47.8702332   9.9786166  64.9562949  47.6121576   9.1457901  64.9294248
  47.9250815  10.2043779  64.1155449  47.8402110   9.8883937  64.8283085
  46.8437044   7.5323928  65.4427843  46.2686635   7.6916097  66.0791804
  46.4672720   6.8959338  64.9796294  46.7039856   7.4621741  65.4682402
  50.5110333   6.0047278  70.3020222  50.1224765   5.5801495  69.6472413
  49.8465031   6.2529427  70.8097248  50.3557260   5.9785999  70.2808090
  36.5893863   7.1764003  63.4572284  36.6754115   6.7995872  64.2385814
  37.2169660   6.8024449  62.9792242  36.6950414   7.0649485  63.5017761
  51.6149271  10.2345882  58.4997029  52.4289910  10.5260775  58.3879800
  51.5508412   9.5805745  57.9255322  51.7252010  10.1811077  58.3985866
  47.4857179  13.7067400  63.6269341  48.1231126  13.4679147  64.1721134
  47.9112251  13.9104559  62.8922502  47.6433345  13.7018410  63.5986498
  42.1769822  15.9455736  67.5103645  42.2173967  16.2170587  66.6823424
  42.7364346  16.4697644  67.9261433  42.2653167  16.0631491  67.4495533
  48.1259994   8.9269690  57.9644230  48.5105147   8.7077396  58.7160775
  47.8771615   9.7532635  58.0945307  48.1462067   9.0167836  58.0945307
  58.8595182  12.7016327  68.9754899  58.5540999  13.4344384  69.3368215
  58.1401397  12.2954257  68.6947685  58.7082524  12.7498060  68.9868036
  49.8678651  14.1839822  65.3063127  49.9417659  14.0214994  66.1604977
  50.6848157  14.3730012  65.0623609  49.9995010  14.1876565  65.3961153
  43.6284408  14.5297685  62.3357571  42.8022525  14.7759422  62.2091849
  43.6896399  14.4509766  63.2019629  43.5158575  14.5542634  62.4446515
  45.8460432   0.5966626  63.2953011  44.9782857   0.6689226  63.3610620
  46.1335636   1.3988705  63.4840986  45.7600180   0.7260773  63.3327777
  48.4083237  17.1474565  60.0376601  48.6981535  16.7563547  59.3135827
  49.1386718  17.3291270  60.4781876  48.5590121  17.1168379  59.9959408
  48.9977982  11.9492311  71.1229731  48.4989676  12.6608079  71.2014620
  49.8078206  12.2692978  71.0847893  49.0434089  12.1019160  71.1286300
  46.3489152  19.1241948  63.1036750  46.1289448  18.8339303  63.8963417
  46.1283674  18.4656903  62.5754663  46.2836747  18.9841656  63.1425659
  45.2606100  11.2115264  65.3692452  44.9719348  10.5852736  65.9038179
  46.1289448  11.1535552  65.4357132  45.3466352  11.1102809  65.4583407
  56.0483997   6.3550048  65.6874434  55.7048763   5.6340383  66.0381683
  56.1477040   6.1463899  64.8452792  56.0126040   6.2174251  65.6146114
  48.5157108  20.4971338  61.8867443  49.1681166  19.9647780  62.1158469
  47.8182717  20.1439990  62.2735317  48.5087826  20.3660861  61.9779610
  45.4638373  12.8510515  61.2934817  46.2184341  13.2323555  61.5070280
  44.8708986  13.3021659  61.7481514  45.4875087  12.9739343  61.3917695
  56.5097026  12.8175752  61.2298422  57.0755059  13.4768962  61.1456965
  55.8624930  13.1625450  61.7014824  56.4975783  12.9657693  61.2871178
  46.7836600  14.0219077  66.6674932  46.2617353  14.1619368  67.3526797
  47.1710620  13.2629741  66.8577050  46.7640300  13.9304601  66.7976009
  52.9803605  15.7614536  60.6535501  52.7390280  15.0282397  60.2462566
  53.1604937  16.3101393  60.0001834  52.9711229  15.7336927  60.4965724
  48.2102925  11.0523096  62.0656423  48.0145708  11.6597830  61.4716726
  48.4337271  10.3591040  61.5848097  48.2137566  11.0400621  61.9072504
  46.6081455   7.9377834  62.1837292  47.3304107   8.1018992  61.7241098
  46.1289448   8.6587499  62.0776632  46.6445186   8.0676063  62.1002906
  54.5674963   4.2741633  67.5633977  53.7286063   4.3002911  67.3272240
  54.6379330   4.9212368  68.1439323  54.4543356   4.3737758  67.6143094
  44.2589072  10.3435906  71.2891432  44.7710169  10.6220159  70.6400191
  43.9725415  11.0825200  71.6554245  44.2923935  10.4938260  71.2481310
  58.4432487   9.4809619  64.8495219  58.3566461   9.6365045  65.7029997
  57.9882967  10.1247695  64.4754624  58.3635743   9.5985374  64.9202325
  41.3455978   4.8506098  61.5855168  41.4472115   5.6532259  61.9136144
  42.1411865   4.6493434  61.2878249  41.4783884   4.9391997  61.5890524
  52.3158303   6.8020366  63.4720778  52.0693017   6.7216117  64.3057567
  52.6443426   6.0173834  63.2783306  52.3279546   6.6746632  63.5668301
  56.2106351  13.5103726  67.2607559  56.0720711  14.2084772  67.7656302
  55.4306349  13.3552382  66.9043741  56.0749578  13.5903892  67.2833833
  48.2755330   9.5377085  72.8843761  48.4198706  10.1178293  72.2486871
  48.6230979   9.9153382  73.5893616  48.3482791   9.6797789  72.8942756
  50.4475247   8.7367253  70.6668893  49.6998561   8.9298268  70.2617171
  50.6016773   7.9112473  70.4293014  50.3597675   8.6432365  70.5714299
  47.3483085  17.7279857  69.7504788  47.4972649  17.1682773  69.0978192
  48.1283087  17.8071859  70.1337307  47.4857179  17.6565422  69.7101737
  57.7059724  12.8681980  58.0224058  57.3266533  12.0819117  58.0153348
  57.0425970  13.4168837  57.8795703  57.5518199  12.8326804  58.0004855
  49.8736386  17.8994500  71.0289279  49.7980057  17.2303310  71.5840067
  49.8026245  18.6012288  71.5429945  49.8516992  17.9039407  71.1866127
  50.5306633  16.4195499  61.8612885  51.2956524  16.1505142  61.5395549
  50.4284722  15.9345509  62.5782947  50.6288128  16.3085063  61.9192712
  48.5659402   4.6219908  68.4006120  47.7755477   4.4411368  68.7223456
  48.9620025   3.8446861  68.3836415  48.5076278   4.4807369  68.4458669
  53.0525293  13.4507682  53.8412834  53.8198278  13.5107807  53.4318686
  52.6056602  12.8788124  53.3569153  53.0998720  13.3744258  53.7090544
  53.9503089  12.2562338  66.1265566  53.2748090  12.0247570  66.6278953
  53.9595465  11.6483521  65.5007671  53.8521593  12.1321263  66.1081719
  51.0797233   7.0980167  72.8829619  51.0156374   7.9590124  72.7549756
  51.2194420   6.7812160  72.0825171  51.0912703   7.1780334  72.7457832
  55.9519823  15.1127471  58.3575744  56.0339661  15.9194457  58.0337195
  56.4369565  15.1323430  59.0816518  56.0356981  15.2348133  58.4162643
  49.7616326   9.7912306  67.0245822  49.3378576   9.9916806  66.2884841
  49.5861182   8.9441154  67.1370122  49.6727207   9.6961088  66.9319512
  49.2628020  21.3062819  69.4867280  49.7523950  20.6073609  69.3042944
  48.6912252  21.0086689  70.0743337  49.2512550  21.1589043  69.5468320
  45.0498771  10.2864358  62.4573795  45.2063391  10.2211161  63.3129787
  45.3899365  11.0612910  62.2452474  45.1232006  10.3913556  62.5528389
  51.5877916   9.6622241  61.3267158  52.1293461   9.1592623  61.7905779
  51.9024475   9.6087436  60.5156643  51.7142313   9.5801662  61.2750970
  49.7564366  15.0539593  58.6107186  49.8257186  14.1954131  58.7500186
  50.5352821  15.2711474  58.2826211  49.8817216  14.9592457  58.5824343
  52.7367185   4.5558546  71.3789458  52.9509155   3.9169460  70.8252812
  52.1201085   5.0004370  70.9497320  52.6772515   4.5268690  71.2339890
  54.1471853  17.4777294  62.8243679  53.7551645  17.1744009  62.1066546
  54.3024926  18.3146384  62.6348633  54.1125443  17.5561131  62.6900176
  41.6233033   7.4699308  62.7734562  42.0031998   7.8883853  62.1094829
  41.0488398   8.0512764  63.0803405  41.5944358   7.6177167  62.7211303
  54.3111528  14.0427283  62.7649710  53.9526183  14.2141926  63.5413742
  53.8250239  14.5040489  62.2077708  54.1870225  14.1366254  62.7974979
  49.0999893   9.7226449  55.3049944  49.3892418  10.4991331  55.5793519
  49.1871692   9.2115180  56.0064444  49.1554150   9.7618367  55.4492442
  55.4716267  14.9331179  73.7116911  56.1095988  14.4391375  73.3779367
  54.8290359  14.8608580  73.1269138  55.4710494  14.8490188  73.5759266
  57.1973267   6.7820325  68.2782826  56.7700876   6.6946674  67.5230926
  56.5599320   6.8898101  68.8637670  57.0402875   6.7852985  68.2528268
  55.5270524  15.6250987  70.3522268  56.3162902  15.2740052  70.4724349
  55.7014122  16.4387376  70.0898901  55.6690806  15.6936845  70.3310136
  45.2663834   9.0359713  67.4050056  44.4251841   8.9363587  67.6128950
  45.4753842   9.8055193  67.7564377  45.1728527   9.1351756  67.4877371
  42.7439401   6.6579250  65.2334807  42.3496099   6.7322262  64.4584917
  42.1879518   7.0437196  65.7843169  42.6042214   6.7261025  65.2002467
  49.0780499   6.9641112  66.6547654  48.7743637   6.4097101  67.2558062
  48.3759920   7.1433322  66.1675688  48.9296709   6.9085895  66.6717360
  48.1346596   4.2741632  61.2192356  48.4106331   3.5560545  60.8069923
  48.7345266   4.8726552  61.0113462  48.2639861   4.2562003  61.1273117
  47.1398850  14.1790833  71.3619752  47.0319205  14.1892895  72.2281810
  47.3494632  15.0045613  71.1724705  47.1548961  14.3031908  71.4623843
  45.1572642  11.4303475  68.8241689  44.5660576  12.0712974  68.7944704
  45.9193666  11.8541093  68.7972989  45.1820903  11.5879314  68.8156836
  54.9162159  16.8812787  66.2573714  54.7181847  17.3703602  65.5629925
  54.2949870  17.0854029  66.8357847  54.7949723  16.9829325  66.2396937
  48.9770137   8.6497684  60.5983958  49.7212182   9.0371960  60.8366908
  49.1230833   7.8055109  60.7624446  49.1080722   8.5828157  60.6577928
  51.9648013   4.2223157  66.4977877  51.4907967   3.6964919  67.0083188
  52.3366149   3.6752630  65.9292739  51.9497902   4.0639154  66.4893025
  58.2284743   9.2825533  67.9084658  57.9882966   8.4431948  67.9127084
  58.7076751   9.3625700  68.6325431  58.2636927   9.1706933  68.0159460
  53.8931512   5.1159712  59.5603631  53.3654531   5.1988456  58.8709340
  54.3527221   5.8577583  59.5568276  53.8833363   5.2380374  59.4578326
  60.2289930   6.0626990  65.8613917  59.9899700   6.0222824  65.0234702
  60.3923832   6.9098142  65.9879638  60.2180234   6.1819075  65.7567399
  56.8335960  10.4476939  71.7918962  57.5570159   9.9949466  71.6129982
  56.5685923  10.7281605  71.0091290  56.9017234  10.4227908  71.6497677
  45.7022829   5.0437113  68.5271841  45.0775899   5.0555505  67.9197794
  45.3668424   5.5197288  69.1763081  45.5608321   5.1155630  68.5328410
  45.8864578   3.3862231  54.5844526  45.5377382   4.0381957  55.0476076
  45.4061023   3.3719344  53.8568397  45.7634821   3.4805285  54.5455618
  42.4148504  13.1037573  69.9675606  41.8848429  12.4130012  70.0170580
  42.6873598  13.0947758  69.1388314  42.3773227  13.0004705  69.8523022
  53.4468595  13.6863275  58.6913288  54.1702794  14.1521388  58.5477861
  53.0069186  13.7536885  57.9410885  53.4884287  13.7647112  58.5598070
  52.6154750  10.5460818  69.9413977  52.0011743  10.0018868  70.2362612
  53.1322035  10.0325054  69.4619793  52.6010412  10.3897227  69.9138206
  51.8551047  11.6165088  67.6758276  51.4278655  10.9914806  67.2423711
  51.8475992  11.3340009  68.5017283  51.7910188  11.4817868  67.7338103
  37.6944347   9.7765337  67.3243954  37.5887796   9.7312181  66.4596038
  36.9444567  10.1219118  67.6058239  37.5679950   9.8206245  67.2381284
  46.4638079   1.2204660  67.2706554  46.5036451   1.7213867  67.9841262
  45.6387744   1.3115054  67.0012477  46.3477605   1.3086477  67.3357092
  47.8852442   7.7365170  69.5680453  47.0544372   7.9038988  69.3615701
  47.8303960   7.3601121  70.3529338  47.7541857   7.7054901  69.6528981
  46.2588486   6.0120762  60.0970571  46.3991447   6.5093226  60.7999212
  46.7571019   5.3107056  60.2384784  46.3529567   5.9822741  60.2222150
  46.2888709   6.8787873  57.4263148  46.9233788   7.4748298  57.3612609
  46.3714319   6.5791330  58.2409018  46.3945260   6.9228781  57.5366234
  47.8667692   2.8101848  57.4008590  48.1883533   2.3304931  56.7467852
  48.1294635   3.6201494  57.2099401  47.9533717   2.8591746  57.2764082
  51.0964664  13.8320723  70.9207406  50.5889755  14.3856569  71.3648036
  50.7991310  13.8929012  70.1026180  50.9769549  13.9227034  70.8655862
  42.7941697   9.0755714  60.6952694  43.3033926   9.6720221  61.0763999
  43.2675969   8.8081687  60.0129113  42.9385072   9.1241529  60.6507216
  53.7072445  17.7483980  58.8511349  52.9901754  17.5744842  58.3858587
  54.3579182  17.5136553  58.3186835  53.6974295  17.6879773  58.7040567
  56.2920416   6.6248569  62.5952654  55.6211606   7.1678271  62.4665720
  56.9860166   7.0943424  62.3534349  56.2949283   6.7746840  62.5408182
  50.3407150  18.7645281  67.8264413  50.1172804  18.0064110  68.1948439
  49.8516993  18.7943302  67.1044852  50.2350599  18.6567505  67.7741154
  45.1532228   5.7111972  63.5625874  44.4344217   6.1276105  63.8298738
  45.5244591   6.2766211  63.0117512  45.1024160   5.8561254  63.5208681
  54.4531809   6.3439821  69.4527870  54.4329736   6.1623116  70.3062649
  54.5011010   7.2151840  69.4287453  54.4566450   6.4456359  69.5751165
  52.3978139  12.9327013  75.3776346  52.3573994  12.2876690  74.7921502
  53.2101457  12.8763630  75.6901758  52.5121292  12.8285980  75.3373296
  48.9885607  18.9845739  65.2801497  48.5746005  18.3219869  64.8905339
  49.6732981  19.1323598  64.7597191  49.0283978  18.9086397  65.1457994
  52.3550901  18.1435824  66.0325114  51.9567184  18.2538094  65.2645934
  51.7402120  18.3517890  66.6151674  52.2049790  18.1909392  66.0056413
  50.9278803   4.7509972  58.8999254  50.3343642   5.0726968  58.3483821
  50.9654080   3.9051067  58.6920360  50.8453192   4.6734300  58.7882025
  53.8036619   4.7089476  62.3301004  53.5750312   4.7322178  61.4879362
  54.0634695   3.8846944  62.4496014  53.8082807   4.5905556  62.2226201
  46.8581382   3.2466023  63.6255199  47.3338748   3.6083103  62.9905381
  46.3569981   3.9022490  63.9055342  46.8546741   3.3960212  63.5731940
  60.0892743  12.7187791  59.4168204  60.4726349  13.4679147  59.6466301
  59.2936857  12.9653611  59.1580194  60.0286526  12.8657485  59.4125778
  48.9008035   5.3907223  56.9928583  49.2807000   5.4086852  56.2079698
  48.1600631   5.8361211  56.8719431  48.8476873   5.4588997  56.8592152
  38.5910596   7.1229198  66.9962979  38.4132357   6.6705807  67.7217894
  38.3029619   7.9255360  67.1801456  38.5223550   7.1751756  67.1306482
  54.2534177   8.3786916  66.2340369  54.7487843   7.6609911  66.1944389
  53.4433953   8.0757713  66.1194856  54.2078071   8.2284562  66.2114095
  49.6992789  12.2284729  58.3837373  48.8904112  11.9051402  58.3370683
  50.2067698  11.5217951  58.3165622  49.6542456  12.0766045  58.3667668
  40.3283066   9.6556922  64.1084738  39.4628586   9.6442612  63.9967509
  40.4281882   9.4687145  64.9555877  40.2157233   9.6262983  64.2173682
  56.3185996  11.1290603  68.9217498  56.7441068  10.6065025  68.3687923
  55.9542916  11.7271441  68.4006121  56.3272599  11.1400830  68.7626507
  45.9540076  19.4254821  67.6814843  46.2686635  20.2391209  67.6892625
  46.3633489  19.0405039  68.3497002  46.0608174  19.4883523  67.7818935
  52.9064596  14.8424867  65.2518655  53.3775774  15.5565130  65.4208640
  53.2424774  14.2423618  65.7878525  53.0259711  14.8596332  65.3551031
  53.5438542  14.6342802  72.0146348  52.9959488  14.0100685  71.7466413
  54.0051571  14.8237074  71.2990427  53.5305752  14.5701852  71.8696779
  43.2953096  13.3727929  67.3293452  43.8997954  13.3323763  66.7007272
  43.0880409  14.2199081  67.3597507  43.3541994  13.4915932  67.2409568
  53.1096868  15.6393874  68.5455689  53.9295242  15.4956840  68.8071984
  52.8290946  16.2640073  69.0872127  53.1893612  15.7104226  68.6643628
  38.5304379  12.3562547  67.1992375  38.4328657  11.5458818  67.5082431
  39.3133248  12.3354340  66.8138643  38.6320515  12.2329637  67.1879238
  69.5810519  23.2958726  61.5098565  69.5504523  24.1503363  61.6816835
  70.1791868  22.9954018  62.0684709  69.6647677  23.3775222  61.6173368
  62.7810204  22.3834377  66.2651496  61.9248099  22.5442875  66.3160613
  62.8277857  21.5126441  66.2856557  62.6609315  22.2785179  66.2757562
  57.1651343  31.9197095  62.0288727  56.4134243  31.5412633  61.8004772
  57.6137355  31.9515528  61.2807538  57.1201010  31.8682702  61.8846230
  62.6176303  32.3422464  57.4574274  62.2827672  33.0199386  57.0218497
  63.1303174  31.9527776  56.8691146  62.6441884  32.3847042  57.3061066
  62.1580595  34.2936733  63.3985386  62.5419974  34.8623632  62.8590161
  62.0939736  33.5686243  62.9191202  62.2054022  34.2712196  63.2479249
  65.6262025  24.4426421  68.9083147  66.1717985  25.1211507  68.9677117
  65.5678901  24.3013882  68.0484729  65.6977939  24.5218423  68.7895208
  58.7436099  31.9315487  64.2951500  58.8446462  31.1215841  64.6048628
  58.1477845  31.8372433  63.6651178  58.6708638  31.7980515  64.2477738
  67.4027093  25.8711028  59.7816875  67.2866619  26.6218714  60.2109013
  68.1982980  25.6134981  60.0312962  67.5031683  25.9445875  59.8820967
  58.5836839  36.8493076  65.6966356  59.2274295  37.2906240  66.0862514
  58.9093095  36.0446502  65.6096615  58.7268668  36.7958271  65.7411833
  51.9401144  27.9535773  63.9203834  51.7051328  27.1203426  63.8136102
  52.0786785  28.2340439  63.1065034  51.9256806  27.8719277  63.7846189
  54.2391231  20.1221504  66.8188141  53.6196263  19.5314151  66.6498156
  54.1375095  20.7132939  66.1852464  54.1328907  20.1225587  66.6993131
  59.2857419  29.8605051  61.0686218  59.6073260  30.4010258  60.4647526
  59.9329515  29.2901822  61.2008507  59.4283474  29.8564226  60.9993253
  61.3359127  21.8621046  61.1520604  62.0339292  22.0409173  61.6442068
  61.6511459  21.3391385  60.5290994  61.4854464  21.8114818  61.1322614
  53.9660364  23.6673786  69.0631710  53.8419061  24.2536231  69.6981529
  54.6178649  23.1733982  69.3643985  54.0434014  23.6812590  69.2017640
  61.5247062  28.2491491  61.1400396  61.9640698  27.6408591  61.5855169
  61.3751725  27.8698864  60.3685861  61.5668528  28.1029962  61.0919563
  58.9918705  26.8435503  68.3419221  59.6367708  26.3507946  68.0230170
  59.2320482  26.9860289  69.1685300  59.1229290  26.7912945  68.4168755
  61.5304797  29.6890409  67.9926114  61.8128039  28.8941814  67.7712870
  62.2590957  30.1670996  68.0131175  61.6794360  29.6425006  67.9629129
  59.5085990  17.2313443  65.2341879  59.1789321  17.6824586  64.5645578
  58.8330992  17.1529606  65.7814885  59.3596427  17.2864578  65.2165102
  65.1256399  26.6018672  58.0931165  65.0407694  27.4579639  58.2380734
  65.6140782  26.3262996  58.7613324  65.1845296  26.6875994  58.2133247
  66.7162398  13.2198965  63.4791490  66.4015839  13.9102444  63.9111912
  66.1989340  13.1643748  62.7776990  66.5926869  13.3133854  63.4388439
  66.0574832  23.2203466  59.5928900  65.5286304  23.4363100  60.2526206
  66.5799852  23.9139605  59.5129870  66.0563285  23.3546603  59.6784499
  71.5122885  28.7949771  64.9661945  70.6820588  29.0060414  65.1295361
  71.4632137  27.9686825  64.6904228  71.3829620  28.7039377  64.9499310
  57.9474440  27.1166683  58.3936368  57.3631655  27.6216715  58.8002232
  57.5444535  26.8909070  57.6532960  57.8013744  27.1574931  58.3441393
  53.5018468  32.8321444  65.1960040  53.0186047  33.5571934  65.1719623
  54.3141787  33.1297574  65.3070197  53.5509216  32.9823798  65.2087319
  59.5732623  31.6253625  67.8009854  59.0559564  31.2661040  67.1971162
  60.2707014  31.1015799  67.8115920  59.5998204  31.4951313  67.7140113
  63.2296215  32.0748439  73.7626027  63.3179560  31.8874579  74.6104238
  63.6585927  31.4285869  73.3630874  63.3058317  31.9511447  73.8297779
  60.7966674  31.3579599  72.7443689  60.2337509  30.9452209  73.2683351
  61.5587698  31.2832505  73.1636833  60.8261123  31.2857000  72.8836690
  62.4051654  23.3632335  56.8705289  62.6447658  23.5710319  56.0580632
  62.7267495  22.5589844  56.9794233  62.4888812  23.2746436  56.7665842
  57.7141945  15.2925731  60.7164827  58.4687913  15.6604048  60.4781877
  57.5369479  15.6665285  61.4844006  57.7996423  15.4023919  60.7949715
  56.3562666  33.3477620  65.3480320  57.0583245  32.8329609  65.4053076
  56.2760149  33.6751772  66.1527195  56.4486426  33.3191846  65.4753112
  57.4041572  23.5853207  74.4760735  57.5762076  23.4759102  75.3246016
  57.9410930  24.2307613  74.2391927  57.5086576  23.6645209  74.5665831
  56.0699009  17.6996050  57.4142940  55.8874582  17.9167931  56.5883932
  56.9324622  17.8135063  57.4701554  56.1703599  17.7485948  57.2997427
  55.6813441  29.5383972  64.8565928  56.5202341  29.7706905  64.9039689
  55.7125210  28.6688284  64.7872963  55.8095159  29.4440919  64.8530572
  56.3066144  29.9584847  69.1579233  56.8464369  29.8155978  69.8282605
  55.6236090  30.3581598  69.5263259  56.2858298  29.9964518  69.3113655
  61.7498728  14.7022461  60.4491963  62.4784889  14.5238416  60.0030120
  61.8393621  15.5440540  60.6599142  61.8705390  14.8006339  60.4145481
  65.7307029  25.6375848  64.3524257  66.4864544  26.0707362  64.3913166
  65.8369354  24.9880618  64.9258893  65.8577200  25.6053332  64.4422283
  68.7687200  29.4649125  65.1026660  68.3322432  29.4685868  65.8585632
  68.4350116  30.1454624  64.6706238  68.6549820  29.5661581  65.1507493
  63.3416274  31.5057458  76.4269811  64.1256690  31.6188306  76.7925553
  63.1412868  30.6798595  76.6228497  63.4282299  31.4004177  76.5104197
  51.7103289  26.1785138  69.3113655  51.4441704  25.3624255  69.4704645
  51.7241853  26.2238294  68.4409170  51.6728012  26.0642043  69.2067137
  55.6161036  20.9770223  55.9265413  54.9019213  20.6908402  56.3387845
  56.1005005  21.3166848  56.5671800  55.5820400  20.9851872  56.0821048
  56.4601896  19.7163516  71.9580662  55.7673692  19.2460496  72.2041394
  57.0762223  19.4901821  72.5322369  56.4486426  19.6130648  72.0789815
  63.4986667  33.4167560  70.0736266  62.7001913  33.1767060  70.3310135
  63.9472679  33.4681953  70.8203314  63.4461278  33.3889951  70.2221191
  71.9031546  26.1830045  63.9946298  72.5647980  25.6220714  63.8942206
  71.2622958  25.6882076  64.3198989  71.9060414  26.0266454  64.0278638
  62.7908354  29.4800177  56.3027221  63.2059503  29.1485200  55.6111717
  61.9600284  29.2469079  56.1747358  62.7296363  29.3971433  56.1818068
  52.1196703  26.9643918  66.5925399  51.9372276  26.9390804  65.7397691
  52.8546372  27.4342855  66.6314308  52.2010767  27.0305280  66.4723317
  68.1896377  27.1995428  63.7358286  68.4251966  27.3440626  62.9085137
  68.3385941  27.9637836  64.1289800  68.2462180  27.3334482  63.6721890
  55.1842455  23.6828920  73.1007508  55.9082427  23.6681951  73.5872402
  55.2858591  24.3924276  72.6029476  55.3060664  23.7853624  73.0986294
  70.0186834  26.0397093  61.5727890  70.3495051  26.5724734  60.9667985
  70.5919922  26.0935981  62.2289841  70.1520513  26.1266662  61.5805672
  65.2318723  23.8861996  62.2551470  65.3265577  24.6251290  62.7091096
  64.6077566  23.4579472  62.6886035  65.1527753  23.9323317  62.3859618
  63.4871197  27.0648209  72.9041751  64.0610058  26.4275453  73.0590315
  63.4086001  27.0652291  72.0351409  63.5604432  26.9713320  72.7988162
  52.0867613  23.8437418  66.7424465  52.6641116  23.7073869  67.3816711
  51.3881675  23.3873202  66.9970050  52.0688635  23.7559684  66.8746755
  65.4841744  25.7310736  55.4888422  65.4021907  25.8012923  56.3543409
  66.1221465  26.2940480  55.2972163  65.5661582  25.8249707  55.5878372
  58.8434915  25.4971474  64.9562949  58.5854160  24.6643209  64.9294248
  58.8983398  25.7229087  64.1155449  58.8134693  25.4069245  64.8283085
  63.9235966  17.5999925  65.0567041  63.2192292  17.1109110  65.2150961
  63.9720940  17.6122399  64.1855486  63.8266017  17.5289573  64.9506381
  57.8169628  23.0509236  65.4427843  57.2419219  23.2101405  66.0791804
  57.4405304  22.4144646  64.9796294  57.6772440  22.9807049  65.4682402
  61.4842916  21.5232586  70.3020222  61.0957349  21.0986803  69.6472413
  60.8197615  21.7714735  70.8097248  61.3289844  21.4971307  70.2808090
  71.1266185  21.2807590  63.0768052  70.8702750  20.4687532  62.8865935
  71.9695499  21.2885158  62.8498239  71.2132211  21.1619588  63.0152869
  47.5626446  22.6949311  63.4572284  47.6486698  22.3181179  64.2385814
  48.1902244  22.3209757  62.9792242  47.6682997  22.5834793  63.5017761
  62.5881854  25.7531190  58.4997029  63.4022493  26.0446083  58.3879800
  62.5240996  25.0991053  57.9255322  62.6984593  25.6996385  58.3985866
  58.4589763  29.2252708  63.6269341  59.0963710  28.9864455  64.1721134
  58.8844834  29.4289867  62.8922502  58.6165929  29.2203718  63.5986498
  53.1502405  31.4641044  67.5103645  53.1906550  31.7355895  66.6823424
  53.7096929  31.9882952  67.9261433  53.2385751  31.5816799  67.4495533
  59.0992578  24.4454997  57.9644230  59.4837730  24.2262704  58.7160775
  58.8504198  25.2717943  58.0945307  59.1194650  24.5353144  58.0945307
  69.8327765  28.2201635  68.9754899  69.5273582  28.9529692  69.3368215
  69.1133981  27.8139565  68.6947685  69.6815108  28.2683368  68.9868036
  60.8411235  29.7025130  65.3063127  60.9150243  29.5400302  66.1604977
  61.6580741  29.8915320  65.0623609  60.9727593  29.7061873  65.3961153
  54.6016991  30.0482993  62.3357571  53.7755109  30.2944730  62.2091849
  54.6628983  29.9695074  63.2019629  54.4891158  30.0727942  62.4446515
  56.8193015  16.1151934  63.2953011  55.9515441  16.1874534  63.3610620
  57.1068219  16.9174013  63.4840986  56.7332763  16.2446081  63.3327777
  59.3815820  32.6659873  60.0376601  59.6714119  32.2748855  59.3135827
  60.1119301  32.8476578  60.4781876  59.5322705  32.6353687  59.9959408
  59.9710566  27.4677619  71.1229731  59.4722259  28.1793387  71.2014620
  60.7810790  27.7878286  71.0847893  60.0166672  27.6204468  71.1286300
  57.3221736  34.6427256  63.1036750  57.1022031  34.3524611  63.8963417
  57.1016258  33.9842211  62.5754663  57.2569330  34.5026964  63.1425659
  56.2338683  26.7300572  65.3692452  55.9451932  26.1038044  65.9038179
  57.1022031  26.6720860  65.4357132  56.3198935  26.6288117  65.4583407
  67.0216581  21.8735356  65.6874434  66.6781347  21.1525691  66.0381683
  67.1209624  21.6649207  64.8452792  66.9858624  21.7359559  65.6146114
  59.4889692  36.0156646  61.8867443  60.1413750  35.4833088  62.1158469
  58.7915300  35.6625298  62.2735317  59.4820410  35.8846169  61.9779610
  56.4370957  28.3695823  61.2934817  57.1916925  28.7508862  61.5070280
  55.8441569  28.8206967  61.7481514  56.4607670  28.4924651  61.3917695
  67.4829610  28.3361060  61.2298422  68.0487643  28.9954270  61.1456965
  66.8357513  28.6810758  61.7014824  67.4708366  28.4843001  61.2871178
  58.8977624  20.3258664  76.4192029  58.0877399  20.6316443  76.3081872
  59.3752310  21.0464246  76.5344613  58.8481102  20.4773265  76.4199100
  57.7569183  29.5404385  66.6674932  57.2349937  29.6804676  67.3526797
  58.1443203  28.7815049  66.8577050  57.7372884  29.4489909  66.7976009
  54.7460367  19.5910193  60.7369887  54.4585163  19.2211464  60.0001834
  55.4330835  20.0605049  60.4753592  54.8049264  19.6057163  60.5884963
  63.9536188  31.2799844  60.6535501  63.7122864  30.5467705  60.2462566
  64.1337521  31.8286701  60.0001834  63.9443812  31.2522235  60.4965724
  59.1835509  26.5708404  62.0656423  58.9878291  27.1783138  61.4716726
  59.4069854  25.8776348  61.5848097  59.1870150  26.5585929  61.9072504
  57.5814039  23.4563142  62.1837292  58.3036691  23.6204300  61.7241098
  57.1022032  24.1772806  62.0776632  57.6177769  23.5861371  62.1002906
  65.5407546  19.7926940  67.5633977  64.7018647  19.8188219  67.3272240
  65.6111914  20.4397676  68.1439323  65.4275940  19.8923066  67.6143094
  55.2321655  25.8621214  71.2891432  55.7442752  26.1405467  70.6400191
  54.9457998  26.6010508  71.6554245  55.2656519  26.0123568  71.2481310
  63.9876825  16.6912317  62.2961593  64.6903177  16.4920066  61.8181551
  63.7221013  15.9188260  62.6030436  64.0523457  16.5475284  62.2707034
  69.4165070  24.9994927  64.8495219  69.3299045  25.1550353  65.7029997
  68.9615550  25.6433003  64.4754624  69.3368327  25.1170682  64.9202325
  52.3188562  20.3691406  61.5855168  52.4204698  21.1717567  61.9136144
  53.1144449  20.1678742  61.2878249  52.4516467  20.4577305  61.5890524
  58.7505381  17.9547603  71.3492473  58.5588578  17.9702737  72.1991897
  59.6003977  18.1511277  71.3259128  58.8481103  17.9861954  71.4715768
  53.1352294  20.4838584  69.3276290  52.9937786  19.6322525  69.4520798
  53.4192857  20.5267245  68.5038496  53.1560140  20.3638334  69.2243914
  63.2890886  22.3205674  63.4720778  63.0425601  22.2401425  64.3057567
  63.6176009  21.5359142  63.2783306  63.3012130  22.1931940  63.5668301
  67.1838935  29.0289034  67.2607559  67.0453294  29.7270079  67.7656302
  66.4038933  28.8737690  66.9043741  67.0482162  29.1089200  67.2833833
  59.2487914  25.0562393  72.8843761  59.3931289  25.6363601  72.2486871
  59.5963562  25.4338690  73.5893616  59.3215375  25.1983097  72.8942756
  61.4207831  24.2552561  70.6668893  60.6731145  24.4483576  70.2617171
  61.5749356  23.4297781  70.4293014  61.3330258  24.1617673  70.5714299
  58.3215669  33.2465165  69.7504788  58.4705232  32.6868081  69.0978192
  59.1015671  33.3257166  70.1337307  58.4589762  33.1750730  69.7101737
  68.6792308  28.3867287  58.0224058  68.2999117  27.6004425  58.0153348
  68.0158553  28.9354144  57.8795703  68.5250783  28.3512111  58.0004855
  60.8468969  33.4179808  71.0289279  60.7712640  32.7488618  71.5840067
  60.7758828  34.1197596  71.5429945  60.8249576  33.4224715  71.1866127
  61.6609608  18.1503112  71.5564296  62.1182222  18.8827086  71.6837089
  61.7365937  17.7269577  72.3151552  61.7400578  18.1960350  71.6865373
  53.9042599  18.3968932  72.6453740  53.3684789  17.7849290  72.9614507
  53.9660364  18.9717068  73.2987407  53.8338232  18.3915859  72.7889167
  61.5039216  31.9380806  61.8612885  62.2689107  31.6690450  61.5395549
  61.4017306  31.4530817  62.5782947  61.6020712  31.8270371  61.9192712
  59.5391986  20.1405216  68.4006120  58.7488061  19.9596676  68.7223456
  59.9352609  19.3632169  68.3836415  59.4808862  19.9992677  68.4458669
  64.0257877  28.9692990  53.8412834  64.7930862  29.0293115  53.4318686
  63.5789186  28.3973432  53.3569153  64.0731304  28.8929566  53.7090544
  64.9235672  27.7747646  66.1265566  64.2480674  27.5432878  66.6278953
  64.9328048  27.1668829  65.5007671  64.8254177  27.6506571  66.1081719
  62.0529816  22.6165475  72.8829619  61.9888957  23.4775432  72.7549756
  62.1927004  22.2997468  72.0825171  62.0645286  22.6965642  72.7457832
  66.9252407  30.6312778  58.3575744  67.0072244  31.4379765  58.0337195
  67.4102149  30.6508738  59.0816518  67.0089565  30.7533441  58.4162643
  60.7348910  25.3097614  67.0245822  60.3111159  25.5102113  66.2884841
  60.5593765  24.4626462  67.1370122  60.6459791  25.2146396  66.9319512
  60.2360603  36.8248127  69.4867280  60.7256534  36.1258917  69.3042944
  59.6644836  36.5271997  70.0743337  60.2245133  36.6774351  69.5468320
  56.0231355  25.8049666  62.4573795  56.1795974  25.7396469  63.3129787
  56.3631948  26.5798218  62.2452474  56.0964590  25.9098864  62.5528389
  60.7296949  30.5724901  58.6107186  60.7989770  29.7139439  58.7500186
  61.5085404  30.7896782  58.2826211  60.8549799  30.4777765  58.5824343
  63.7099769  20.0743854  71.3789458  63.9241739  19.4354768  70.8252812
  63.0933668  20.5189678  70.9497320  63.6505098  20.0453998  71.2339890
  65.1204437  32.9962602  62.8243679  64.7284229  32.6929317  62.1066546
  65.2757509  33.8331692  62.6348633  65.0858027  33.0746439  62.6900176
  52.5965616  22.9884616  62.7734562  52.9764581  23.4069161  62.1094829
  52.0220981  23.5698072  63.0803405  52.5676941  23.1362475  62.7211303
  65.2844112  29.5612591  62.7649710  64.9258766  29.7327234  63.5413742
  64.7982822  30.0225797  62.2077708  65.1602809  29.6551562  62.7974979
  63.1014498  13.1843790  66.3676801  62.2308056  13.1582511  66.3210111
  63.3554839  13.0120982  65.5502647  63.0108058  13.1553933  66.2396938
  60.0732477  25.2411756  55.3049944  60.3625002  26.0176639  55.5793519
  60.1604276  24.7300488  56.0064444  60.1286733  25.2803675  55.4492442
  60.1263638  15.1950018  67.8250272  59.6102127  14.5030209  67.9501851
  59.5657567  15.8620795  67.7712870  59.9670151  15.1913276  67.8356338
  62.1955872  15.7342978  69.6543124  61.8087625  15.7592010  70.4356654
  61.7088809  15.1684657  69.2017641  62.0668380  15.6538729  69.7031028
  66.4448851  30.4516487  73.7116911  67.0828572  29.9576683  73.3779367
  65.8022943  30.3793888  73.1269138  66.4443078  30.3675496  73.5759266
  68.1705851  22.3005633  68.2782826  67.7433459  22.2131982  67.5230926
  67.5331904  22.4083409  68.8637670  68.0135458  22.3038293  68.2528268
  66.5003108  31.1436295  70.3522268  67.2895486  30.7925360  70.4724349
  66.6746705  31.9572684  70.0898901  66.6423389  31.2122152  70.3310136
  56.2396418  24.5545021  67.4050056  55.3984425  24.4548895  67.6128950
  56.4486426  25.3240501  67.7564377  56.1461111  24.6537064  67.4877371
  53.7171985  22.1764558  65.2334807  53.3228683  22.2507570  64.4584917
  53.1612102  22.5622504  65.7843169  53.5774797  22.2446333  65.2002467
  65.3536932  15.1545852  64.9138686  65.5586525  15.0868160  65.7595683
  65.0263356  15.9604673  64.8459863  65.3352180  15.2631792  65.0298341
  60.0513083  22.4826420  66.6547654  59.7476220  21.9282409  67.2558062
  59.3492504  22.6618630  66.1675688  59.9029293  22.4271203  66.6717360
  59.1079180  19.7926940  61.2192356  59.3838914  19.0745853  60.8069923
  59.7077849  20.3911860  61.0113462  59.2372445  19.7747311  61.1273117
  58.1131434  29.6976141  71.3619752  58.0051789  29.7078203  72.2281810
  58.3227215  30.5230921  71.1724705  58.1281545  29.8217216  71.4623843
  68.6070619  15.7077616  64.3941451  67.9944933  16.1948018  64.7795183
  68.7034794  15.0321107  64.9379103  68.5308517  15.6795925  64.5320310
  62.6089700  17.4640457  59.4938951  63.0633447  17.6351018  60.2186795
  63.0829746  16.8508568  59.0936726  62.7458021  17.3991343  59.5412712
  56.1305226  26.9488783  68.8241689  55.5393159  27.5898282  68.7944704
  56.8926249  27.3726401  68.7972989  56.1553487  27.1064622  68.8156836
  56.5265849  18.1090781  69.4909707  56.9867330  18.1829711  70.2284831
  56.5721955  18.9072035  69.1409528  56.6016404  18.2384928  69.5482463
  58.1749198  18.7757476  74.0581734  57.7834764  18.1290823  74.4937512
  58.3435061  19.3668911  74.6775989  58.1420109  18.7671744  74.2144440
  65.8894742  32.3998095  66.2573714  65.6914431  32.8888909  65.5629925
  65.2682453  32.6039336  66.8357847  65.7682307  32.5014633  66.2396937
  59.9502720  24.1682992  60.5983958  60.6944765  24.5557268  60.8366908
  60.0963417  23.3240417  60.7624446  60.0813306  24.1013465  60.6577928
  61.8682296  15.9633251  65.6315819  61.0218341  16.1356058  65.5057169
  61.8653428  15.1582594  65.9681648  61.7429446  15.8694280  65.6626946
  62.9380596  19.7408465  66.4977877  62.4640551  19.2150227  67.0083188
  63.3098732  19.1937938  65.9292739  62.9230485  19.5824462  66.4893025
  53.3153626  21.7379972  71.8661423  54.1779240  21.6375681  71.7798753
  52.9845409  21.1574681  71.3046995  53.3938823  21.6371599  71.7706829
  69.2017327  24.8010841  67.9084658  68.9615550  23.9617256  67.9127084
  69.6809334  24.8811007  68.6325431  69.2369511  24.6892240  68.0159460
  64.8664096  20.6345020  59.5603631  64.3387115  20.7173764  58.8709340
  65.3259804  21.3762891  59.5568276  64.8565946  20.7565682  59.4578326
  71.2022514  21.5812298  65.8613917  70.9632284  21.5408132  65.0234702
  71.3656415  22.4283450  65.9879638  71.1912817  21.7004383  65.7567399
  67.8068544  25.9662247  71.7918962  68.5302743  25.5134774  71.6129982
  67.5418506  26.2466913  71.0091290  67.8749817  25.9413216  71.6497677
  56.6755412  20.5622421  68.5271841  56.0508483  20.5740813  67.9197794
  56.3401007  21.0382596  69.1763081  56.5340904  20.6340938  68.5328410
  56.8597161  18.9047539  54.5844526  56.5109965  19.5567265  55.0476076
  56.3793607  18.8904652  53.8568397  56.7367405  18.9990593  54.5455618
  53.3881088  28.6222881  69.9675606  52.8581013  27.9315320  70.0170580
  53.6606181  28.6133066  69.1388314  53.3505810  28.5190013  69.8523022
  64.4201178  29.2048583  58.6913288  65.1435377  29.6706696  58.5477861
  63.9801770  29.2722193  57.9410885  64.4616871  29.2832420  58.5598070
  63.5887334  26.0646125  69.9413977  62.9744327  25.5204176  70.2362612
  64.1054619  25.5510362  69.4619793  63.5742996  25.9082535  69.9138206
  62.8283631  27.1350396  67.6758276  62.4011239  26.5100114  67.2423711
  62.8208575  26.8525317  68.5017283  62.7642772  27.0003176  67.7338103
  55.9446158  22.1715569  70.7446710  56.1039645  21.4158893  71.1498432
  55.7639051  22.7206508  71.3987447  55.9411517  22.1409382  70.9009416
  61.1569340  18.0119150  67.8900810  61.1811828  17.4779262  67.2013590
  61.4080814  17.5036459  68.5526400  61.1979259  17.8580054  67.8865454
  48.6676930  25.2950645  67.3243954  48.5620379  25.2497489  66.4596038
  47.9177150  25.6404426  67.6058239  48.5412533  25.3391553  67.2381284
  57.4370663  16.7389968  67.2706554  57.4769034  17.2399175  67.9841262
  56.6120327  16.8300362  67.0012477  57.3210189  16.8271785  67.3357092
  59.6200276  26.3050708  75.3726849  58.7695906  26.4422423  75.5084494
  59.7828403  25.5714487  75.8174550  59.5184139  26.2164809  75.4582448
  58.8585026  23.2550478  69.5680453  58.0276956  23.4224296  69.3615701
  58.8036543  22.8786429  70.3529338  58.7274441  23.2240209  69.6528981
  57.2321070  21.5306070  60.0970571  57.3724031  22.0278534  60.7999212
  57.7303603  20.8292364  60.2384784  57.3262151  21.5008048  60.2222150
  57.2621292  22.3973181  57.4263148  57.8966372  22.9933606  57.3612609
  57.3446903  22.0976638  58.2409018  57.3677843  22.4414089  57.5366234
  58.8400275  18.3287156  57.4008590  59.1616116  17.8490239  56.7467852
  59.1027219  19.1386802  57.2099401  58.9266301  18.3777054  57.2764082
  62.0697248  29.3506030  70.9207406  61.5622339  29.9041877  71.3648036
  61.7723894  29.4114320  70.1026180  61.9502133  29.4412342  70.8655862
  64.2359430  17.7159350  69.7632069  64.6614502  17.2631876  69.1515595
  63.6216423  17.1619421  70.0396856  64.2088075  17.5673326  69.7137094
  53.7674280  24.5941021  60.6952694  54.2766509  25.1905529  61.0763999
  54.2408552  24.3266995  60.0129113  53.9117656  24.6426837  60.6507216
  64.6805028  33.2669288  58.8511349  63.9634338  33.0930150  58.3858587
  65.3311766  33.0321860  58.3186835  64.6706879  33.2065081  58.7040567
  62.6753653  14.1874450  63.1722646  62.0321971  14.0372096  63.7407784
  62.3353060  13.9416795  62.4071750  62.5298730  14.1286572  63.1425661
  67.2652999  22.1433877  62.5952654  66.5944189  22.6863579  62.4665720
  67.9592750  22.6128732  62.3534349  67.2681867  22.2932148  62.5408182
  61.3139733  34.2830589  67.8264413  61.0905388  33.5249418  68.1948439
  60.8249576  34.3128610  67.1044852  61.2083182  34.1752813  67.7741154
  67.4281127  18.5989760  65.5043028  67.7808737  18.1719483  66.1788826
  66.5695928  18.5140604  65.6344104  67.3530572  18.5234501  65.6238038
  56.1264812  21.2297280  63.5625874  55.4076801  21.6461413  63.8298738
  56.4977174  21.7951519  63.0117512  56.0756744  21.3746561  63.5208681
  65.4264393  21.8625129  69.4527870  65.4062320  21.6808424  70.3062649
  65.4743593  22.7337147  69.4287453  65.4299034  21.9641667  69.5751165
  63.3710723  28.4512321  75.3776346  63.3306577  27.8061998  74.7921502
  64.1834041  28.3948938  75.6901758  63.4853876  28.3471288  75.3373296
  59.9618190  34.5031047  65.2801497  59.5478589  33.8405177  64.8905339
  60.6465564  34.6508906  64.7597191  60.0016562  34.4271705  65.1457994
  63.3283484  33.6621132  66.0325114  62.9299767  33.7723402  65.2645934
  62.7134704  33.8703198  66.6151674  63.1782374  33.7094700  66.0056413
  61.9011386  20.2695280  58.8999254  61.3076226  20.5912276  58.3483821
  61.9386664  19.4236375  58.6920360  61.8185775  20.1919608  58.7882025
  64.7769203  20.2274784  62.3301004  64.5482896  20.2507486  61.4879362
  65.0367279  19.4032251  62.4496014  64.7815391  20.1090864  62.2226201
  59.0588431  22.0809257  71.9326104  58.5467334  21.4730440  72.2911135
  58.8867927  22.7965850  72.4000080  58.9578068  22.0972557  72.0542328
  53.9054146  20.5246833  74.5828466  53.7356736  21.1848208  74.0376672
  53.4620096  20.7353394  75.3040955  53.8153480  20.6532815  74.6090095
  57.8313965  18.7651331  63.6255199  58.3071332  19.1268411  62.9905381
  57.3302565  19.4207798  63.9055342  57.8279324  18.9145519  63.5731940
  71.0625327  28.2373099  59.4168204  71.4458933  28.9864455  59.6466301
  70.2669440  28.4838918  59.1580194  71.0019109  28.3842793  59.4125778
  50.8056210  23.4293698  69.8416956  50.2582930  22.7594344  69.9597824
  51.5948589  23.0623546  69.9060423  50.8408394  23.2758685  69.8685656
  60.6540619  23.0901155  75.3380367  61.4051946  23.4052832  75.6519921
  60.8463195  22.8880326  74.5114288  60.7932033  23.1068537  75.2623762
  59.8740618  20.9092531  56.9928583  60.2539583  20.9272160  56.2079698
  59.1333215  21.3546519  56.8719431  59.8209456  20.9774305  56.8592152
  67.5025909  19.2174722  62.5804162  67.5020135  19.0623378  63.4388438
  67.2982089  20.0637709  62.5245548  67.4725687  19.3195342  62.6992101
  49.5643180  22.6414506  66.9962979  49.3864941  22.1891115  67.7217894
  49.2762202  23.4440668  67.1801456  49.4956133  22.6937064  67.1306482
  65.2266761  23.8972224  66.2340369  65.7220426  23.1795219  66.1944389
  64.4166537  23.5943021  66.1194856  65.1810654  23.7469870  66.2114095
  60.6725373  27.7470037  58.3837373  59.8636695  27.4236710  58.3370683
  61.1800281  27.0403259  58.3165622  60.6275039  27.5951353  58.3667668
  51.3015650  25.1742230  64.1084738  50.4361169  25.1627920  63.9967509
  51.4014466  24.9872453  64.9555877  51.1889817  25.1448291  64.2173682
  67.2918580  26.6475911  68.9217498  67.7173651  26.1250333  68.3687923
  66.9275500  27.2456748  68.4006121  67.3005182  26.6586138  68.7626507
  56.9272660  34.9440129  67.6814843  57.2419219  35.7576517  67.6892625
  57.3366073  34.5590347  68.3497002  57.0340758  35.0068831  67.7818935
  63.8797179  30.3610175  65.2518655  64.3508358  31.0750438  65.4208640
  64.2157358  29.7608925  65.7878525  63.9992294  30.3781640  65.3551031
  64.5171126  30.1528109  72.0146348  63.9692072  29.5285993  71.7466413
  64.9784154  30.3422381  71.2990427  64.5038335  30.0887160  71.8696779
  59.8659789  17.1354059  59.6756215  60.6875484  17.3052372  59.4337910
  59.4029440  17.2901320  58.9522513  59.9190951  17.1835792  59.5327859
  58.4555121  15.1296821  70.4554644  58.9999534  14.7887948  71.0458985
  58.5092057  15.9882282  70.5975928  58.5444240  15.2052080  70.5636517
  54.2685680  28.8913237  67.3293452  54.8730537  28.8509071  66.7007272
  54.0612992  29.7384389  67.3597507  54.3274577  29.0101239  67.2409568
  64.0829452  31.1579182  68.5455689  64.9027826  31.0142148  68.8071984
  63.8023530  31.7825381  69.0872127  64.1626195  31.2289534  68.6643628
  49.5036962  27.8747855  67.1992375  49.4061240  27.0644126  67.5082431
  50.2865832  27.8539648  66.8138643  49.6053099  27.7514945  67.1879238
  73.7542787  37.9019685  66.2651496  72.8980683  38.0628183  66.3160613
  73.8010441  37.0311749  66.2856557  73.6341899  37.7970487  66.2757562
  68.1383927  47.4382403  62.0288727  67.3866826  47.0597941  61.8004772
  68.5869939  47.4700836  61.2807538  68.0933594  47.3868010  61.8846230
  73.5908887  47.8607772  57.4574274  73.2560255  48.5384694  57.0218497
  74.1035757  47.4713083  56.8691146  73.6174468  47.9032350  57.3061066
  73.1313178  49.8122041  63.3985386  73.5152557  50.3808940  62.8590161
  73.0672319  49.0871551  62.9191202  73.1786605  49.7897504  63.2479249
  76.5994608  39.9611729  68.9083147  77.1450568  40.6396815  68.9677117
  76.5411485  39.8199190  68.0484729  76.6710523  40.0403730  68.7895208
  69.7168683  47.4500795  64.2951500  69.8179046  46.6401149  64.6048628
  69.1210428  47.3557741  63.6651178  69.6441222  47.3165823  64.2477738
  69.5569423  52.3678384  65.6966356  70.2006878  52.8091548  66.0862514
  69.8825678  51.5631810  65.6096615  69.7001251  52.3143579  65.7411833
  62.9133727  43.4721081  63.9203834  62.6783912  42.6388734  63.8136102
  63.0519368  43.7525747  63.1065034  62.8989390  43.3904585  63.7846189
  65.2123815  35.6406812  66.8188141  64.5928846  35.0499459  66.6498156
  65.1107678  36.2318247  66.1852464  65.1061490  35.6410895  66.6993131
  70.2590002  45.3790359  61.0686218  70.5805843  45.9195566  60.4647526
  70.9062099  44.8087130  61.2008507  70.4016058  45.3749534  60.9993253
  72.3091710  37.3806354  61.1520604  73.0071875  37.5594481  61.6442068
  72.6244043  36.8576693  60.5290994  72.4587048  37.3300126  61.1322614
  64.9392948  39.1859094  69.0631710  64.8151645  39.7721539  69.6981529
  65.5911232  38.6919289  69.3643985  65.0166597  39.1997898  69.2017640
  72.4979646  43.7676799  61.1400396  72.9373281  43.1593899  61.5855169
  72.3484309  43.3884172  60.3685861  72.5401112  43.6215270  61.0919563
  69.9651289  42.3620811  68.3419221  70.6100291  41.8693254  68.0230170
  70.2053066  42.5045597  69.1685300  70.0961874  42.3098253  68.4168755
  72.5037380  45.2075717  67.9926114  72.7860623  44.4127122  67.7712870
  73.2323541  45.6856304  68.0131175  72.6526944  45.1610313  67.9629129
  70.4818574  32.7498750  65.2341879  70.1521904  33.2009894  64.5645578
  69.8063576  32.6714914  65.7814885  70.3329010  32.8049886  65.2165102
  76.0988982  42.1203980  58.0931165  76.0140278  42.9764947  58.2380734
  76.5873366  41.8448304  58.7613324  76.1577880  42.2061302  58.2133247
  77.6894982  28.7384273  63.4791490  77.3748423  29.4287752  63.9111912
  77.1721923  28.6829056  62.7776990  77.5659452  28.8319162  63.4388439
  77.0307416  38.7388774  59.5928900  76.5018887  38.9548408  60.2526206
  77.5532436  39.4324913  59.5129870  77.0295869  38.8731911  59.6784499
  68.9207023  42.6351991  58.3936368  68.3364239  43.1402022  58.8002232
  68.5177119  42.4094378  57.6532960  68.7746327  42.6760239  58.3441393
  64.4751052  48.3506752  65.1960040  63.9918630  49.0757242  65.1719623
  65.2874370  48.6482882  65.3070197  64.5241800  48.5009106  65.2087319
  70.5465206  47.1438933  67.8009854  70.0292148  46.7846348  67.1971162
  71.2439597  46.6201107  67.8115920  70.5730787  47.0136621  67.7140113
  73.3784238  38.8817643  56.8705289  73.6180242  39.0895627  56.0580632
  73.7000079  38.0775152  56.9794233  73.4621396  38.7931744  56.7665842
  68.6874528  30.8111039  60.7164827  69.4420496  31.1789356  60.4781877
  68.5102063  31.1850593  61.4844006  68.7729007  30.9209227  60.7949715
  67.3295249  48.8662928  65.3480320  68.0315829  48.3514917  65.4053076
  67.2492732  49.1937079  66.1527195  67.4219010  48.8377154  65.4753112
  68.3774156  39.1038515  74.4760735  68.5494660  38.9944410  75.3246016
  68.9143513  39.7492920  74.2391927  68.4819160  39.1830517  74.5665831
  67.0431593  33.2181358  57.4142940  66.8607166  33.4353239  56.5883932
  67.9057206  33.3320371  57.4701554  67.1436182  33.2671256  57.2997427
  66.6546025  45.0569280  64.8565928  67.4934924  45.2892213  64.9039689
  66.6857794  44.1873592  64.7872963  66.7827742  44.9626227  64.8530572
  67.2798728  45.4770155  69.1579233  67.8196953  45.3341286  69.8282605
  66.5968674  45.8766906  69.5263259  67.2590882  45.5149826  69.3113655
  72.7231312  30.2207769  60.4491963  73.4517472  30.0423724  60.0030120
  72.8126205  31.0625848  60.6599142  72.8437974  30.3191647  60.4145481
  76.7039613  41.1561156  64.3524257  77.4597128  41.5892670  64.3913166
  76.8101937  40.5065926  64.9258893  76.8309783  41.1238640  64.4422283
  62.6835873  41.6970446  69.3113655  62.4174288  40.8809563  69.4704645
  62.6974437  41.7423602  68.4409170  62.6460595  41.5827351  69.2067137
  66.5893620  36.4955531  55.9265413  65.8751797  36.2093710  56.3387845
  67.0737588  36.8352156  56.5671800  66.5552983  36.5037180  56.0821048
  67.4334479  35.2348824  71.9580662  66.7406276  34.7645804  72.2041394
  68.0494807  35.0087129  72.5322369  67.4219009  35.1315956  72.0789815
  73.7640938  44.9985484  56.3027221  74.1792086  44.6670508  55.6111717
  72.9332867  44.7654387  56.1747358  73.7028946  44.9156740  56.1818068
  63.0929286  42.4829226  66.5925399  62.9104860  42.4576112  65.7397691
  63.8278955  42.9528163  66.6314308  63.1743350  42.5490588  66.4723317
  66.1575038  39.2014228  73.1007508  66.8815010  39.1867259  73.5872402
  66.2591175  39.9109584  72.6029476  66.2793247  39.3038932  73.0986294
  76.2051307  39.4047304  62.2551470  76.2998161  40.1436598  62.7091096
  75.5810150  38.9764780  62.6886035  76.1260337  39.4508625  62.3859618
  63.0600197  39.3622726  66.7424465  63.6373699  39.2259177  67.3816711
  62.3614259  38.9058510  66.9970050  63.0421218  39.2744992  66.8746755
  76.4574328  41.2496044  55.4888422  76.3754490  41.3198231  56.3543409
  77.0954048  41.8125788  55.2972163  76.5394165  41.3435015  55.5878372
  69.8167499  41.0156782  64.9562949  69.5586743  40.1828517  64.9294248
  69.8715982  41.2414395  64.1155449  69.7867277  40.9254553  64.8283085
  74.8968549  33.1185233  65.0567041  74.1924876  32.6294418  65.2150961
  74.9453523  33.1307707  64.1855486  74.7998601  33.0474881  64.9506381
  68.7902211  38.5694544  65.4427843  68.2151802  38.7286713  66.0791804
  68.4137887  37.9329953  64.9796294  68.6505023  38.4992357  65.4682402
  72.4575500  37.0417894  70.3020222  72.0689933  36.6172111  69.6472413
  71.7930198  37.2900043  70.8097248  72.3022428  37.0156615  70.2808090
  58.5359030  38.2134619  63.4572284  58.6219282  37.8366487  64.2385814
  59.1634827  37.8395065  62.9792242  58.6415581  38.1020101  63.5017761
  73.5614438  41.2716498  58.4997029  74.3755077  41.5631391  58.3879800
  73.4973579  40.6176361  57.9255322  73.6717177  41.2181693  58.3985866
  69.4322346  44.7438016  63.6269341  70.0696293  44.5049763  64.1721134
  69.8577418  44.9475175  62.8922502  69.5898513  44.7389026  63.5986498
  64.1234989  46.9826352  67.5103645  64.1639134  47.2541203  66.6823424
  64.6829513  47.5068260  67.9261433  64.2118335  47.1002107  67.4495533
  70.0725161  39.9640305  57.9644230  70.4570314  39.7448012  58.7160775
  69.8236782  40.7903251  58.0945307  70.0927234  40.0538452  58.0945307
  71.8143818  45.2210438  65.3063127  71.8882827  45.0585610  66.1604977
  72.6313325  45.4100628  65.0623609  71.9460177  45.2247181  65.3961153
  65.5749575  45.5668301  62.3357571  64.7487693  45.8130038  62.2091849
  65.6361566  45.4880382  63.2019629  65.4623742  45.5913250  62.4446515
  67.7925599  31.6337242  63.2953011  66.9248024  31.7059842  63.3610620
  68.0800803  32.4359321  63.4840986  67.7065347  31.7631389  63.3327777
  70.3548404  48.1845181  60.0376601  70.6446702  47.7934163  59.3135827
  71.0851885  48.3661886  60.4781876  70.5055288  48.1538995  59.9959408
  70.9443149  42.9862927  71.1229731  70.4454843  43.6978695  71.2014620
  71.7543373  43.3063594  71.0847893  70.9899256  43.1389776  71.1286300
  68.2954320  50.1612564  63.1036750  68.0754615  49.8709918  63.8963417
  68.0748842  49.5027519  62.5754663  68.2301914  50.0212272  63.1425659
  67.2071267  42.2485880  65.3692452  66.9184515  41.6223352  65.9038179
  68.0754615  42.1906168  65.4357132  67.2931519  42.1473424  65.4583407
  77.9949165  37.3920664  65.6874434  77.6513930  36.6710999  66.0381683
  78.0942207  37.1834515  64.8452792  77.9591207  37.2544867  65.6146114
  70.4622275  51.5341954  61.8867443  71.1146333  51.0018396  62.1158469
  69.7647884  51.1810606  62.2735317  70.4552993  51.4031477  61.9779610
  67.4103540  43.8881131  61.2934817  68.1649508  44.2694170  61.5070280
  66.8174153  44.3392275  61.7481514  67.4340254  44.0109959  61.3917695
  69.8710207  35.8443972  76.4192029  69.0609983  36.1501751  76.3081872
  70.3484894  36.5649554  76.5344613  69.8213686  35.9958573  76.4199100
  68.7301767  45.0589693  66.6674932  68.2082520  45.1989984  67.3526797
  69.1175787  44.3000357  66.8577050  68.7105468  44.9675216  66.7976009
  65.7192951  35.1095501  60.7369887  65.4317747  34.7396772  60.0001834
  66.4063419  35.5790357  60.4753592  65.7781848  35.1242471  60.5884963
  74.9268772  46.7985152  60.6535501  74.6855448  46.0653013  60.2462566
  75.1070105  47.3472009  60.0001834  74.9176396  46.7707543  60.4965724
  70.1568092  42.0893712  62.0656423  69.9610875  42.6968446  61.4716726
  70.3802438  41.3961656  61.5848097  70.1602733  42.0771237  61.9072504
  68.5546622  38.9748450  62.1837292  69.2769274  39.1389608  61.7241098
  68.0754615  39.6958114  62.0776632  68.5910353  39.1046679  62.1002906
  76.5140130  35.3112248  67.5633977  75.6751231  35.3373527  67.3272240
  76.5844497  35.9582984  68.1439323  76.4008523  35.4108374  67.6143094
  66.2054239  41.3806522  71.2891432  66.7175336  41.6590775  70.6400191
  65.9190582  42.1195816  71.6554245  66.2389102  41.5308876  71.2481310
  74.9609408  32.2097625  62.2961593  75.6635761  32.0105374  61.8181551
  74.6953597  31.4373568  62.6030436  75.0256041  32.0660591  62.2707034
  63.2921145  35.8876714  61.5855168  63.3937282  36.6902875  61.9136144
  64.0877032  35.6864050  61.2878249  63.4249051  35.9762613  61.5890524
  69.7237964  33.4732911  71.3492473  69.5321161  33.4888045  72.1991897
  70.5736560  33.6696585  71.3259128  69.8213686  33.5047262  71.4715768
  64.1084877  36.0023892  69.3276290  63.9670369  35.1507833  69.4520798
  64.3925441  36.0452553  68.5038496  64.1292724  35.8823642  69.2243914
  74.2623470  37.8390982  63.4720778  74.0158184  37.7586733  64.3057567
  74.5908593  37.0544450  63.2783306  74.2744713  37.7117248  63.5668301
  78.1571519  44.5474342  67.2607559  78.0185878  45.2455387  67.7656302
  77.3771517  44.3922998  66.9043741  78.0214746  44.6274508  67.2833833
  70.2220497  40.5747701  72.8843761  70.3663873  41.1548909  72.2486871
  70.5696146  40.9523998  73.5893616  70.2947958  40.7168405  72.8942756
  72.3940414  39.7737869  70.6668893  71.6463729  39.9668884  70.2617171
  72.5481940  38.9483089  70.4293014  72.3062842  39.6802981  70.5714299
  72.6342191  33.6688420  71.5564296  73.0914806  34.4012394  71.6837089
  72.7098520  33.2454885  72.3151552  72.7133161  33.7145658  71.6865373
  64.8775183  33.9154240  72.6453740  64.3417372  33.3034598  72.9614507
  64.9392947  34.4902376  73.2987407  64.8070815  33.9101167  72.7889167
  72.4771800  47.4566114  61.8612885  73.2421691  47.1875758  61.5395549
  72.3749890  46.9716125  62.5782947  72.5753295  47.3455679  61.9192712
  70.5124569  35.6590524  68.4006120  69.7220644  35.4781984  68.7223456
  70.9085192  34.8817476  68.3836415  70.4541446  35.5177985  68.4458669
  74.9990460  44.4878298  53.8412834  75.7663445  44.5478423  53.4318686
  74.5521769  43.9158740  53.3569153  75.0463887  44.4114874  53.7090544
  75.8968256  43.2932954  66.1265566  75.2213258  43.0618186  66.6278953
  75.9060632  42.6854137  65.5007671  75.7986760  43.1691879  66.1081719
  73.0262400  38.1350783  72.8829619  72.9621541  38.9960739  72.7549756
  73.1659587  37.8182776  72.0825171  73.0377870  38.2150950  72.7457832
  77.8984990  46.1498086  58.3575744  77.9804828  46.9565073  58.0337195
  78.3834732  46.1694046  59.0816518  77.9822148  46.2718749  58.4162643
  71.7081494  40.8282922  67.0245822  71.2843743  41.0287421  66.2884841
  71.5326349  39.9811770  67.1370122  71.6192374  40.7331704  66.9319512
  66.9963939  41.3234974  62.4573795  67.1528558  41.2581777  63.3129787
  67.3364532  42.0983526  62.2452474  67.0697173  41.4284172  62.5528389
  73.5343083  40.6992857  61.3267158  74.0758629  40.1963238  61.7905779
  73.8489642  40.6458052  60.5156643  73.6607480  40.6172278  61.2750970
  71.7029533  46.0910209  58.6107186  71.7722353  45.2324747  58.7500186
  72.4817988  46.3082090  58.2826211  71.8282383  45.9963073  58.5824343
  74.6832353  35.5929162  71.3789458  74.8974322  34.9540076  70.8252812
  74.0666252  36.0374986  70.9497320  74.6237682  35.5639306  71.2339890
  76.0937020  48.5147910  62.8243679  75.7016812  48.2114625  62.1066546
  76.2490093  49.3517000  62.6348633  76.0590610  48.5931747  62.6900176
  63.5698200  38.5069924  62.7734562  63.9497165  38.9254469  62.1094829
  62.9953565  39.0883380  63.0803405  63.5409525  38.6547783  62.7211303
  76.2576695  45.0797899  62.7649710  75.8991350  45.2512542  63.5413742
  75.7715406  45.5411105  62.2077708  76.1335392  45.1736870  62.7974979
  74.0747081  28.7029098  66.3676801  73.2040639  28.6767819  66.3210111
  74.3287422  28.5306290  65.5502647  73.9840641  28.6739241  66.2396938
  71.0465061  40.7597064  55.3049944  71.3357585  41.5361947  55.5793519
  71.1336859  40.2485796  56.0064444  71.1019317  40.7988983  55.4492442
  73.1688455  31.2528286  69.6543124  72.7820208  31.2777317  70.4356654
  72.6821392  30.6869965  69.2017641  73.0400964  31.1724037  69.7031028
  67.2129002  40.0730329  67.4050056  66.3717008  39.9734203  67.6128950
  67.4219010  40.8425809  67.7564377  67.1193694  40.1722372  67.4877371
  64.6904569  37.6949866  65.2334807  64.2961266  37.7692878  64.4584917
  64.1344685  38.0807812  65.7843169  64.5507381  37.7631641  65.2002467
  76.3269515  30.6731160  64.9138686  76.5319109  30.6053468  65.7595683
  75.9995939  31.4789981  64.8459863  76.3084763  30.7817100  65.0298341
  71.0245666  38.0011728  66.6547654  70.7208804  37.4467716  67.2558062
  70.3225087  38.1803938  66.1675688  70.8761876  37.9456511  66.6717360
  70.0811764  35.3112248  61.2192356  70.3571498  34.5931161  60.8069923
  70.6810433  35.9097168  61.0113462  70.2105028  35.2932619  61.1273117
  69.0864017  45.2161449  71.3619752  68.9784372  45.2263511  72.2281810
  69.2959799  46.0416229  71.1724705  69.1014129  45.3402524  71.4623843
  73.5822284  32.9825765  59.4938951  74.0366031  33.1536326  60.2186795
  74.0562330  32.3693876  59.0936726  73.7190604  32.9176651  59.5412712
  67.1037809  42.4674091  68.8241689  66.5125743  43.1083589  68.7944704
  67.8658833  42.8911709  68.7972989  67.1286070  42.6249930  68.8156836
  67.4998432  33.6276089  69.4909707  67.9599914  33.7015018  70.2284831
  67.5454539  34.4257343  69.1409528  67.5748988  33.7570236  69.5482463
  69.1481782  34.2942784  74.0581734  68.7567347  33.6476131  74.4937512
  69.3167645  34.8854219  74.6775989  69.1152692  34.2857052  74.2144440
  76.8627326  47.9183403  66.2573714  76.6647014  48.4074217  65.5629925
  76.2415037  48.1224644  66.8357847  76.7414890  48.0199941  66.2396937
  70.9235304  39.6868300  60.5983958  71.6677349  40.0742576  60.8366908
  71.0696000  38.8425725  60.7624446  71.0545889  39.6198773  60.6577928
  72.8414880  31.4818559  65.6315819  71.9950925  31.6541366  65.5057169
  72.8386012  30.6767902  65.9681648  72.7162029  31.3879588  65.6626946
  73.9113180  35.2593773  66.4977877  73.4373134  34.7335535  67.0083188
  74.2831316  34.7123246  65.9292739  73.8963069  35.1009770  66.4893025
  64.2886210  37.2565280  71.8661423  65.1511823  37.1560989  71.7798753
  63.9577993  36.6759989  71.3046995  64.3671406  37.1556906  71.7706829
  75.8396680  36.1530328  59.5603631  75.3119698  36.2359072  58.8709340
  76.2992388  36.8948199  59.5568276  75.8298530  36.2750990  59.4578326
  67.6487996  36.0807729  68.5271841  67.0241066  36.0926121  67.9197794
  67.3133591  36.5567904  69.1763081  67.5073488  36.1526246  68.5328410
  67.8329745  34.4232847  54.5844526  67.4842549  35.0752572  55.0476076
  67.3526191  34.4089960  53.8568397  67.7099989  34.5175901  54.5455618
  64.3613672  44.1408189  69.9675606  63.8313596  43.4500628  70.0170580
  64.6338765  44.1318374  69.1388314  64.3238394  44.0375321  69.8523022
  75.3933762  44.7233891  58.6913288  76.1167961  45.1892004  58.5477861
  74.9534353  44.7907501  57.9410885  75.4349454  44.8017728  58.5598070
  74.5619917  41.5831433  69.9413977  73.9476910  41.0389484  70.2362612
  75.0787202  41.0695670  69.4619793  74.5475580  41.4267842  69.9138206
  73.8016214  42.6535703  67.6758276  73.3743822  42.0285422  67.2423711
  73.7941159  42.3710625  68.5017283  73.7375355  42.5188484  67.7338103
  66.9178741  37.6900876  70.7446710  67.0772228  36.9344201  71.1498432
  66.7371635  38.2391816  71.3987447  66.9144100  37.6594690  70.9009416
  72.1301924  33.5304458  67.8900810  72.1544411  32.9964570  67.2013590
  72.3813398  33.0221767  68.5526400  72.1711843  33.3765362  67.8865454
  59.6409514  40.8135953  67.3243954  59.5352963  40.7682797  66.4596038
  58.8909734  41.1589734  67.6058239  59.5145117  40.8576861  67.2381284
  68.4103246  32.2575276  67.2706554  68.4501618  32.7584483  67.9841262
  67.5852911  32.3485670  67.0012477  68.2942772  32.3457093  67.3357092
  69.8317610  38.7735786  69.5680453  69.0009539  38.9409604  69.3615701
  69.7769127  38.3971737  70.3529338  69.7007024  38.7425517  69.6528981
  68.2053653  37.0491378  60.0970571  68.3456615  37.5463842  60.7999212
  68.7036186  36.3477672  60.2384784  68.2994734  37.0193356  60.2222150
  68.2353876  37.9158489  57.4263148  68.8698955  38.5118914  57.3612609
  68.3179487  37.6161946  58.2409018  68.3410427  37.9599397  57.5366234
  69.8132859  33.8472464  57.4008590  70.1348700  33.3675547  56.7467852
  70.0759802  34.6572110  57.2099401  69.8998884  33.8962362  57.2764082
  75.2092014  33.2344658  69.7632069  75.6347085  32.7817184  69.1515595
  74.5949007  32.6804729  70.0396856  75.1820659  33.0858634  69.7137094
  64.7406864  40.1126329  60.6952694  65.2499093  40.7090837  61.0763999
  65.2141136  39.8452303  60.0129113  64.8850239  40.1612145  60.6507216
  75.6537612  48.7854596  58.8511349  74.9366921  48.6115458  58.3858587
  76.3044349  48.5507168  58.3186835  75.6439462  48.7250389  58.7040567
  73.6486237  29.7059758  63.1722646  73.0054554  29.5557404  63.7407784
  73.3085644  29.4602103  62.4071750  73.5031314  29.6471880  63.1425661
  72.2872317  49.8015897  67.8264413  72.0637971  49.0434726  68.1948439
  71.7982160  49.8313918  67.1044852  72.1815766  49.6938121  67.7741154
  78.4013710  34.1175068  65.5043028  78.7541321  33.6904791  66.1788826
  77.5428512  34.0325912  65.6344104  78.3263155  34.0419809  65.6238038
  67.0997395  36.7482588  63.5625874  66.3809385  37.1646721  63.8298738
  67.4709758  37.3136827  63.0117512  67.0489327  36.8931869  63.5208681
  76.3996976  37.3810437  69.4527870  76.3794904  37.1993732  70.3062649
  76.4476177  38.2522455  69.4287453  76.4031617  37.4826975  69.5751165
  70.9350774  50.0216355  65.2801497  70.5211172  49.3590485  64.8905339
  71.6198148  50.1694214  64.7597191  70.9749145  49.9457013  65.1457994
  74.3016068  49.1806440  66.0325114  73.9032351  49.2908710  65.2645934
  73.6867287  49.3888506  66.6151674  74.1514957  49.2280008  66.0056413
  72.8743970  35.7880588  58.8999254  72.2808809  36.1097584  58.3483821
  72.9119248  34.9421683  58.6920360  72.7918359  35.7104916  58.7882025
  75.7501786  35.7460092  62.3301004  75.5215479  35.7692794  61.4879362
  76.0099863  34.9217559  62.4496014  75.7547974  35.6276172  62.2226201
  70.0321015  37.5994565  71.9326104  69.5199918  36.9915748  72.2911135
  69.8600511  38.3151158  72.4000080  69.9310652  37.6157865  72.0542328
  64.8786730  36.0432141  74.5828466  64.7089320  36.7033516  74.0376672
  64.4352679  36.2538702  75.3040955  64.7886063  36.1718123  74.6090095
  68.8046549  34.2836639  63.6255199  69.2803915  34.6453718  62.9905381
  68.3035149  34.9393106  63.9055342  68.8011908  34.4330827  63.5731940
  61.7788794  38.9479006  69.8416956  61.2315513  38.2779652  69.9597824
  62.5681172  38.5808854  69.9060423  61.8140978  38.7943993  69.8685656
  70.8473202  36.4277838  56.9928583  71.2272167  36.4457468  56.2079698
  70.1065798  36.8731827  56.8719431  70.7942040  36.4959613  56.8592152
  78.4758493  34.7360030  62.5804162  78.4752719  34.5808686  63.4388438
  78.2714673  35.5823017  62.5245548  78.4458270  34.8380650  62.6992101
  60.5375764  38.1599814  66.9962979  60.3597525  37.7076423  67.7217894
  60.2494786  38.9625975  67.1801456  60.4688717  38.2122372  67.1306482
  76.1999345  39.4157531  66.2340369  76.6953010  38.6980526  66.1944389
  75.3899120  39.1128329  66.1194856  76.1543238  39.2655178  66.2114095
  71.6457956  43.2655345  58.3837373  70.8369279  42.9422018  58.3370683
  72.1532865  42.5588567  58.3165622  71.6007623  43.1136661  58.3667668
  62.2748233  40.6927538  64.1084738  61.4093753  40.6813228  63.9967509
  62.3747049  40.5057761  64.9555877  62.1622400  40.6633599  64.2173682
  78.2651163  42.1661219  68.9217498  78.6906235  41.6435641  68.3687923
  77.9008083  42.7642056  68.4006121  78.2737766  42.1771446  68.7626507
  67.9005243  50.4625436  67.6814843  68.2151802  51.2761825  67.6892625
  68.3098657  50.0775655  68.3497002  68.0073341  50.5254139  67.7818935
  74.8529763  45.8795483  65.2518655  75.3240941  46.5935746  65.4208640
  75.1889941  45.2794233  65.7878525  74.9724878  45.8966947  65.3551031
  70.8392373  32.6539367  59.6756215  71.6608067  32.8237680  59.4337910
  70.3762024  32.8086628  58.9522513  70.8923535  32.7021100  59.5327859
  69.4287705  30.6482129  70.4554644  69.9732118  30.3073256  71.0458985
  69.4824640  31.5067590  70.5975928  69.5176824  30.7237388  70.5636517
  65.2418263  44.4098545  67.3293452  65.8463121  44.3694379  66.7007272
  65.0345576  45.2569697  67.3597507  65.3007161  44.5286547  67.2409568
  60.4769546  43.3933162  67.1992375  60.3793824  42.5829434  67.5082431
  61.2598415  43.3724956  66.8138643  60.5785682  43.2700253  67.1879238
  77.5626203  52.0140838  55.9265413  76.8484380  51.7279018  56.3387845
  78.0470172  52.3537464  56.5671800  77.5285567  52.0222488  56.0821048
  69.5091614  53.7319927  63.4572284  69.5951865  53.3551795  64.2385814
  70.1367411  53.3580373  62.9792242  69.6148165  53.6205409  63.5017761
  76.6925534  50.6280809  60.7369887  76.4050330  50.2582080  60.0001834
  77.3796003  51.0975665  60.4753592  76.7514432  50.6427779  60.5884963
  74.2653729  51.4062022  61.5855168  74.3669865  52.2088183  61.9136144
  75.0609616  51.2049358  61.2878249  74.3981635  51.4947921  61.5890524
  74.5430784  54.0255232  62.7734562  74.9229748  54.4439777  62.1094829
  73.9686148  54.6068688  63.0803405  74.5142109  54.1733091  62.7211303
  75.7139447  55.6311637  60.6952694  76.2231677  56.2276145  61.0763999
  76.1873720  55.3637611  60.0129113  75.8582823  55.6797453  60.6507216
  78.0729979  52.2667896  63.5625874  77.3541968  52.6832028  63.8298738
  78.4442341  52.8322135  63.0117512  78.0221911  52.4117177  63.5208681
  56.8602167   8.8575226  48.9628774  56.1085067   8.4790764  48.7344819
  57.3088179   8.8893660  48.2147584  56.8151834   8.8060833  48.8186276
  62.3127127   9.2800595  44.3914321  61.9778496   9.9577517  43.9558543
  62.8253998   8.8905907  43.8031193  62.3392708   9.3225174  44.2401113
  61.8531418  11.2314864  50.3325433  62.2370798  11.8001763  49.7930208
  61.7890560  10.5064374  49.8531249  61.9004846  11.2090328  50.1819295
  58.4386923   8.8693618  51.2291547  58.5397286   8.0593972  51.5388674
  57.8428669   8.7750565  50.5991225  58.3659462   8.7358646  51.1817785
  58.2787663  13.7871207  52.6306403  58.9225119  14.2284371  53.0202561
  58.6043919  12.9824633  52.5436661  58.4219492  13.7336402  52.6751880
  51.6351968   4.8913905  50.8543880  51.4002152   4.0581557  50.7476149
  51.7737608   5.1718570  50.0405081  51.6207630   4.8097408  50.7186235
  58.9808243   6.7983182  48.0026264  59.3024084   7.3388389  47.3987573
  59.6280339   6.2279954  48.1348554  59.1234298   6.7942357  47.9333300
  53.1969292   9.7699575  52.1300087  52.7136871  10.4950065  52.1059670
  54.0092611  10.0675706  52.2410244  53.2460040   9.9201929  52.1427366
  59.2683446   8.5631756  54.7349901  58.7510388   8.2039171  54.1311209
  59.9657838   8.0393931  54.7455967  59.2949028   8.4329444  54.6480160
  62.9247038   9.0126570  60.6966074  63.0130384   8.8252711  61.5444284
  63.3536751   8.3664000  60.2970921  63.0009141   8.8889578  60.7637825
  60.4917498   8.2957730  59.6783736  59.9288333   7.8830340  60.2023397
  61.2538522   8.2210636  60.0976879  60.5211947   8.2235131  59.8176737
  56.0513490  10.2855751  52.2820366  56.7534069   9.7707740  52.3393123
  55.9710973  10.6129903  53.0867241  56.1437250  10.2569978  52.4093159
  55.3764265   6.4762103  51.7905974  56.2153165   6.7085036  51.8379736
  55.4076034   5.6066415  51.7213010  55.5045983   6.3819050  51.7870619
  56.0016968   6.8962979  56.0919280  56.5415193   6.7534110  56.7622652
  55.3186914   7.2959729  56.4603306  55.9809122   6.9342649  56.2453702
  63.0367098   8.4435589  63.3609858  63.8207514   8.5566437  63.7265600
  62.8363692   7.6176726  63.5568543  63.1233123   8.3382309  63.4444244
  63.1937491  10.3545691  57.0076313  62.3952737  10.1145191  57.2650182
  63.6423503  10.4060084  57.7543361  63.1412102  10.3268082  57.1561237
  51.8147527   3.9022049  53.5265446  51.6323100   3.8768935  52.6737738
  52.5497196   4.3720987  53.5654354  51.8961591   3.9683411  53.4063364
  58.1540587   6.1630839  50.5609388  58.7914534   5.9242586  51.1061181
  58.5795658   6.3667998  49.8262548  58.3116753   6.1581849  50.5326545
  52.8453229   8.4019175  54.4443692  52.8857374   8.6734026  53.6163471
  53.4047753   8.9261083  54.8601479  52.9336575   8.5194930  54.3835580
  60.5362059   6.6403262  52.2403174  60.6101067   6.4778433  53.0945024
  61.3531565   6.8293451  51.9963656  60.6678417   6.6440004  52.3301200
  54.2967815   6.9861124  49.2697618  53.4705933   7.2322862  49.1431896
  54.3579807   6.9073205  50.1359676  54.1841982   7.0106073  49.3786562
  59.0766644   9.6038005  46.9716647  59.3664943   9.2126986  46.2475874
  59.8070125   9.7854709  47.4121923  59.2273529   9.5731818  46.9299454
  57.0172560  11.5805387  50.0376797  56.7972855  11.2902742  50.8303464
  56.7967082  10.9220342  49.5094709  56.9520154  11.4405095  50.0765706
  59.1840516  12.9534777  48.8207490  59.8364574  12.4211219  49.0498516
  58.4866124  12.6003429  49.2075364  59.1771234  12.8224300  48.9119657
  56.1321780   5.3073955  48.2274864  56.8867748   5.6886994  48.4410326
  55.5392393   5.7585098  48.6821560  56.1558494   5.4302782  48.3257742
  57.4520007   6.4782516  53.6014979  56.9300761   6.6182808  54.2866844
  57.8394027   5.7193180  53.7917097  57.4323708   6.3868040  53.7316056
  63.6487012   8.2177975  47.5875548  63.4073688   7.4845836  47.1802613
  63.8288345   8.7664832  46.9341881  63.6394636   8.1900366  47.4305771
  58.0166492  10.1843296  56.6844835  58.1656056   9.6246212  56.0318239
  58.7966495  10.2635298  57.0677354  58.1540586  10.1128861  56.6441784
  60.5419793  10.3557939  57.9629326  60.4663464   9.6866749  58.5180114
  60.4709652  11.0575727  58.4769992  60.5200400  10.3602846  58.1206174
  61.1990040   8.8758938  48.7952932  61.9639931   8.6068581  48.4735596
  61.0968130   8.3908948  49.5122994  61.2971535   8.7648502  48.8532759
  59.9311427  13.7626259  56.4207326  60.4207358  13.0637048  56.2382991
  59.3595660  13.4650129  57.0083384  59.9195957  13.6152482  56.4808367
  60.4247773   7.5103032  45.5447233  60.4940594   6.6517571  45.6840233
  61.2036228   7.7274913  45.2166257  60.5500623   7.4155896  45.5164390
  64.8155261   9.9340733  49.7583726  64.4235053   9.6307449  49.0406592
  64.9708333  10.7709823  49.5688680  64.7808851  10.0124570  49.6240223
  57.8082258   6.6354272  58.2959798  57.7002613   6.6456334  59.1621857
  58.0178039   7.4609053  58.1064752  57.8232369   6.7595347  58.3963890
  65.5845566   9.3376226  53.1913760  65.3865255   9.8267041  52.4969972
  64.9633277   9.5417468  53.7697894  65.4633131   9.4392764  53.1736984
  53.0831912   5.5601012  56.9015652  52.5531836   4.8693451  56.9510627
  53.3557005   5.5511197  56.0728361  53.0456634   5.4568144  56.7863068
  48.3627754   2.2328776  54.2584001  48.2571203   2.1875621  53.3936085
  47.6127974   2.5782557  54.5398286  48.2363357   2.2769684  54.1721330
  61.7648072   6.2884162  57.8547453  61.2573163   6.8420008  58.2988083
  61.4674718   6.3492452  57.0366227  61.6452957   6.3790473  57.7995909
  64.3755852  10.2047419  45.7851396  63.6585162  10.0308282  45.3198633
  65.0262590   9.9699992  45.2526882  64.3657703  10.1443212  45.6380614
  61.0090557  11.2208720  54.7604459  60.7856212  10.4627549  55.1288486
  60.5200400  11.2506741  54.0384899  60.9034006  11.1130944  54.7081200
  59.6569014  11.4409178  52.2141544  59.2429413  10.7783308  51.8245386
  60.3416388  11.5887037  51.6937238  59.6967386  11.3649836  52.0798041
  63.0234308  10.5999263  52.9665161  62.6250591  10.7101534  52.1985981
  62.4085528  10.8081330  53.5491720  62.8733197  10.6472831  52.9396460
  56.6223484  11.8818260  54.6154890  56.9370043  12.6954648  54.6232672
  57.0316897  11.4968478  55.2837049  56.7291582  11.9446962  54.7158982
  53.9636504   5.8291368  54.2633498  54.5681361   5.7887202  53.6347319
  53.7563816   6.6762520  54.2937554  54.0225401   5.9479371  54.1749615
  63.7780276   8.0957313  55.4795736  64.5978650   7.9520279  55.7412031
  63.4974354   8.7203512  56.0212174  63.8577019   8.1667665  55.5983675
  49.1987786   4.8125986  54.1332422  49.1012064   4.0022257  54.4422478
  49.9816656   4.7917779  53.7478690  49.3003923   4.6893076  54.1219285
  73.4493611  14.8397816  53.1991543  72.5931507  15.0006314  53.2500659
  73.4961265  13.9689880  53.2196604  73.3292723  14.7348618  53.2097609
  67.8334751  24.3760534  48.9628774  67.0817650  23.9976072  48.7344819
  68.2820763  24.4078967  48.2147584  67.7884418  24.3246141  48.8186276
  73.2859711  24.7985903  44.3914321  72.9511079  25.4762825  43.9558543
  73.7986581  24.4091215  43.8031193  73.3125292  24.8410482  44.2401113
  72.8264002  26.7500172  50.3325433  73.2103381  27.3187071  49.7930208
  72.7623143  26.0249682  49.8531249  72.8737429  26.7275635  50.1819295
  76.2945432  16.8989860  55.8423194  76.8401392  17.5774947  55.9017164
  76.2362308  16.7577321  54.9824776  76.3661347  16.9781862  55.7235255
  69.4119507  24.3878926  51.2291547  69.5129870  23.5779280  51.5388674
  68.8161252  24.2935872  50.5991225  69.3392046  24.2543954  51.1817785
  69.2520247  29.3056515  52.6306403  69.8957702  29.7469679  53.0202561
  69.5776502  28.5009941  52.5436661  69.3952075  29.2521710  52.6751880
  62.6084551  20.4099213  50.8543880  62.3734736  19.5766865  50.7476149
  62.7470192  20.6903878  50.0405081  62.5940214  20.3282716  50.7186235
  64.9074639  12.5784943  53.7528188  64.2879670  11.9877590  53.5838203
  64.8058502  13.1696378  53.1192511  64.8012314  12.5789026  53.6333178
  69.9540826  22.3168490  48.0026264  70.2756667  22.8573697  47.3987573
  70.6012923  21.7465261  48.1348554  70.0966882  22.3127665  47.9333300
  72.0042534  14.3184485  48.0860651  72.7022699  14.4972613  48.5782114
  72.3194867  13.7954824  47.4631040  72.1537872  14.2678257  48.0662661
  64.6343772  16.1237225  55.9971757  64.5102469  16.7099670  56.6321576
  65.2862056  15.6297421  56.2984032  64.7117421  16.1376029  56.1357686
  72.1930470  20.7054930  48.0740443  72.6324105  20.0972031  48.5195215
  72.0435133  20.3262303  47.3025908  72.2351935  20.5593401  48.0259610
  69.6602113  19.2998942  55.2759268  70.3051115  18.8071385  54.9570217
  69.9003890  19.4423728  56.1025346  69.7912698  19.2476384  55.3508801
  72.1988204  22.1453848  54.9266161  72.4811447  21.3505253  54.7052917
  72.9274365  22.6234435  54.9471222  72.3477768  22.0988445  54.8969176
  70.1769398   9.6876882  52.1681926  69.8472728  10.1388025  51.4985625
  69.5014400   9.6093045  52.7154932  70.0279834   9.7428017  52.1505149
  75.7939806  19.0582111  45.0271212  75.7091101  19.9143078  45.1720781
  76.2824190  18.7826435  45.6953371  75.8528704  19.1439433  45.1473293
  76.7258240  15.6766906  46.5268947  76.1969711  15.8926539  47.1866253
  77.2483260  16.3703044  46.4469916  76.7246693  15.8110042  46.6124546
  68.6157847  19.5730122  45.3276415  68.0315063  20.0780154  45.7342279
  68.2127943  19.3472509  44.5873007  68.4697151  19.6138371  45.2781440
  64.1701876  25.2884883  52.1300087  63.6869454  26.0135373  52.1059670
  64.9825194  25.5861013  52.2410244  64.2192624  25.4387237  52.1427366
  70.2416030  24.0817064  54.7349901  69.7242972  23.7224479  54.1311209
  70.9390421  23.5579239  54.7455967  70.2681611  23.9514752  54.6480160
  73.8979622  24.5311878  60.6966074  73.9862968  24.3438019  61.5444284
  74.3269335  23.8849308  60.2970921  73.9741724  24.4074886  60.7637825
  71.4650082  23.8143038  59.6783736  70.9020917  23.4015648  60.2023397
  72.2271105  23.7395944  60.0976879  71.4944530  23.7420439  59.8176737
  73.0735062  15.8195774  43.8045336  73.3131065  16.0273758  42.9920679
  73.3950903  15.0153283  43.9134280  73.1572220  15.7309876  43.7005889
  67.0246073  25.8041059  52.2820366  67.7266653  25.2893048  52.3393123
  66.9443556  26.1315211  53.0867241  67.1169834  25.7755286  52.4093159
  68.0724980  16.0416646  61.4100781  68.2445484  15.9322541  62.2586063
  68.6094337  16.6871052  61.1731974  68.1769984  16.1208648  61.5005878
  66.7382417  10.1559489  44.3482986  66.5557990  10.3731370  43.5223979
  67.6008030  10.2698502  44.4041601  66.8387006  10.2049387  44.2337474
  66.3496849  21.9947411  51.7905974  67.1885748  22.2270344  51.8379736
  66.3808618  21.1251723  51.7213010  66.4778566  21.9004358  51.7870619
  66.9749552  22.4148286  56.0919280  67.5147777  22.2719418  56.7622652
  66.2919498  22.8145037  56.4603306  66.9541706  22.4527957  56.2453702
  76.3990437  18.0939287  51.2864304  77.1547952  18.5270801  51.3253213
  76.5052761  17.4444057  51.8598940  76.5260607  18.0616771  51.3762330
  62.3786697  18.6348577  56.2453701  62.1125112  17.8187694  56.4044692
  62.3925261  18.6801733  55.3749217  62.3411419  18.5205482  56.1407183
  66.2844444  13.4333662  42.8605460  65.5702621  13.1471841  43.2727892
  66.7688412  13.7730288  43.5011847  66.2503807  13.4415311  43.0161094
  67.1285303  12.1726956  58.8920709  66.4357100  11.7023935  59.1381441
  67.7445630  11.9465260  59.4662416  67.1169833  12.0694087  59.0129862
  74.1670075  25.8730999  57.0076313  73.3685320  25.6330499  57.2650182
  74.6156086  25.9245392  57.7543361  74.1144686  25.8453390  57.1561237
  73.4591762  21.9363616  43.2367268  73.8742910  21.6048639  42.5451763
  72.6283691  21.7032518  43.1087404  73.3979770  21.8534872  43.1158115
  62.7880110  19.4207357  53.5265446  62.6055684  19.3954243  52.6737738
  63.5229779  19.8906295  53.5654354  62.8694174  19.4868719  53.4063364
  65.8525862  16.1392360  60.0347554  66.5765834  16.1245390  60.5212449
  65.9541999  16.8487715  59.5369523  65.9744071  16.2417063  60.0326341
  75.9002130  16.3425435  49.1891517  75.9948985  17.0814729  49.6431143
  75.2760974  15.9142911  49.6226082  75.8211161  16.3886756  49.3199665
  74.1554604  19.5211648  59.8381798  74.7293466  18.8838892  59.9930362
  74.0769408  19.5215730  58.9691456  74.2287839  19.4276759  59.7328209
  62.7551021  16.3000857  53.6764512  63.3324523  16.1637308  54.3156758
  62.0565082  15.8436642  53.9310097  62.7372042  16.2123124  53.8086802
  76.1525152  18.1874175  42.4228469  76.0705314  18.2576362  43.2883456
  76.7904872  18.7503919  42.2312210  76.2344989  18.2813146  42.5218419
  69.5118323  17.9534913  51.8902996  69.2537567  17.1206648  51.8634295
  69.5666806  18.1792526  51.0495496  69.4818101  17.8632684  51.7623132
  68.4853035  15.5072675  52.3767890  67.9102626  15.6664844  53.0131851
  68.1088711  14.8708085  51.9136341  68.3455847  15.4370488  52.4022449
  72.1526324  13.9796025  57.2360269  71.7640756  13.5550243  56.5812460
  71.4881022  14.2278174  57.7437295  71.9973252  13.9534746  57.2148137
  58.2309854  15.1512750  50.3912331  58.3170106  14.7744619  51.1725861
  58.8585651  14.7773196  49.9132289  58.3366405  15.0398232  50.4357808
  73.2565262  18.2094629  45.4337076  74.0705901  18.5009522  45.3219847
  73.1924403  17.5554492  44.8595369  73.3668001  18.1559824  45.3325913
  69.1273170  21.6816147  50.5609388  69.7647117  21.4427894  51.1061181
  69.5528242  21.8853306  49.8262548  69.2849336  21.6767157  50.5326545
  63.8185813  23.9204483  54.4443692  63.8589958  24.1919334  53.6163471
  64.3780337  24.4446391  54.8601479  63.9069159  24.0380238  54.3835580
  69.7675985  16.9018437  44.8984277  70.1521138  16.6826143  45.6500822
  69.5187606  17.7281382  45.0285353  69.7878058  16.9916583  45.0285354
  71.5094642  22.1588569  52.2403174  71.5833650  21.9963741  53.0945024
  72.3264149  22.3478759  51.9963656  71.6411001  22.1625312  52.3301200
  65.2700399  22.5046432  49.2697618  64.4438517  22.7508169  49.1431896
  65.3312390  22.4258513  50.1359676  65.1574566  22.5291381  49.3786562
  67.4876423   8.5715373  50.2293058  66.6198848   8.6437973  50.2950667
  67.7751627   9.3737452  50.4181033  67.4016171   8.7009520  50.2667824
  70.0499228  25.1223312  46.9716647  70.3397526  24.7312294  46.2475874
  70.7802709  25.3040017  47.4121923  70.2006112  25.0917126  46.9299454
  70.6393973  19.9241058  58.0569778  70.1405667  20.6356826  58.1354666
  71.4494197  20.2441725  58.0187940  70.6850080  20.0767907  58.0626346
  67.9905144  27.0990695  50.0376797  67.7705439  26.8088050  50.8303464
  67.7699666  26.4405650  49.5094709  67.9252738  26.9590403  50.0765706
  66.9022091  19.1864011  52.3032499  66.6135339  18.5601483  52.8378226
  67.7705439  19.1284299  52.3697179  66.9882343  19.0851556  52.3923453
  77.6899988  14.3298795  52.6214481  77.3464754  13.6089130  52.9721730
  77.7893031  14.1212646  51.7792839  77.6542031  14.1922998  52.5486161
  70.1573099  28.4720085  48.8207490  70.8097157  27.9396527  49.0498516
  69.4598708  28.1188737  49.2075364  70.1503817  28.3409608  48.9119657
  67.1054364  20.8259262  48.2274864  67.8600332  21.2072302  48.4410326
  66.5124977  21.2770406  48.6821560  67.1291078  20.9488090  48.3257742
  78.1513018  20.7924499  48.1638469  78.7171050  21.4517709  48.0797012
  77.5040921  21.1374197  48.6354871  78.1391774  20.9406440  48.2211225
  69.5661031  12.7822103  63.3532076  68.7560807  13.0879883  63.2421918
  70.0435718  13.5027685  63.4684660  69.5164510  12.9336704  63.3539147
  68.4252591  21.9967824  53.6014979  67.9033344  22.1368116  54.2866844
  68.8126611  21.2378488  53.7917097  68.4056292  21.9053348  53.7316056
  65.4143775  12.0473633  47.6709934  65.1268570  11.6774903  46.9341881
  66.1014243  12.5168488  47.4093639  65.4732672  12.0620602  47.5225010
  74.6219596  23.7363283  47.5875548  74.3806272  23.0031144  47.1802613
  74.8020929  24.2850140  46.9341881  74.6127220  23.7085674  47.4305771
  69.8518916  19.0271843  48.9996470  69.6561699  19.6346577  48.4056773
  70.0753262  18.3339787  48.5188144  69.8553557  19.0149368  48.8412551
  68.2497446  15.9126581  49.1177339  68.9720098  16.0767739  48.6581145
  67.7705439  16.6336246  49.0116678  68.2861177  16.0424810  49.0342953
  76.2090954  12.2490380  54.4974024  75.3702055  12.2751658  54.2612287
  76.2795321  12.8961115  55.0779370  76.0959347  12.3486505  54.5483140
  65.9005063  18.3184653  58.2231478  66.4126160  18.5968906  57.5740238
  65.6141406  19.0573947  58.5894292  65.9339926  18.4687007  58.1821357
  62.9871969  12.8254845  48.5195215  63.0888106  13.6281006  48.8476190
  63.7827856  12.6242181  48.2218296  63.1199875  12.9140744  48.5230570
  69.4188788  10.4111042  58.2832520  69.2271985  10.4266176  59.1331944
  70.2687384  10.6074716  58.2599175  69.5164510  10.4425393  58.4055815
  63.8035701  12.9402023  56.2616337  63.6621193  12.0885964  56.3860845
  64.0876265  12.9830684  55.4378543  63.8243547  12.8201773  56.1583961
  73.9574294  14.7769113  50.4060825  73.7109008  14.6964864  51.2397614
  74.2859417  13.9922581  50.2123352  73.9695537  14.6495379  50.5008348
  77.8522343  21.4852473  54.1947606  77.7136702  22.1833519  54.6996348
  77.0722340  21.3301129  53.8383788  77.7165569  21.5652639  54.2173880
  69.9171321  17.5125832  59.8183808  70.0614697  18.0927040  59.1826918
  70.2646970  17.8902129  60.5233663  69.9898782  17.6546536  59.8282803
  72.0891238  16.7116000  57.6008939  71.3414552  16.9047015  57.1957218
  72.2432764  15.8861220  57.3633061  72.0013666  16.6181112  57.5054345
  68.9899076  25.7028604  56.6844835  69.1388640  25.1431520  56.0318239
  69.7699078  25.7820606  57.0677354  69.1273170  25.6314169  56.6441784
  71.5152377  25.8743247  57.9629326  71.4396048  25.2052057  58.5180114
  71.4442236  26.5761035  58.4769992  71.4932984  25.8788154  58.1206174
  72.3293015  10.6066551  58.4904343  72.7865630  11.3390525  58.6177135
  72.4049344  10.1833016  59.2491599  72.4083985  10.6523789  58.6205420
  64.5726007  10.8532371  59.5793787  64.0368196  10.2412729  59.8954554
  64.6343771  11.4280507  60.2327454  64.5021639  10.8479299  59.7229214
  72.1722624  24.3944246  48.7952932  72.9372515  24.1253889  48.4735596
  72.0700714  23.9094256  49.5122994  72.2704119  24.2833810  48.8532759
  70.2075393  12.5968655  55.3346167  69.4171468  12.4160115  55.6563503
  70.6036016  11.8195608  55.3176462  70.1492270  12.4556116  55.3798716
  74.6941284  21.4256429  40.7752881  75.4614269  21.4856554  40.3658733
  74.2472593  20.8536871  40.2909199  74.7414711  21.3493005  40.6430591
  75.5919080  20.2311085  53.0605613  74.9164081  19.9996317  53.5619000
  75.6011456  19.6232268  52.4347718  75.4937584  20.1070010  53.0421765
  72.7213224  15.0728914  59.8169666  72.6572365  15.9338871  59.6889803
  72.8610411  14.7560907  59.0165217  72.7328694  15.1529081  59.6797879
  77.5935814  23.0876218  45.2915791  77.6755652  23.8943204  44.9677242
  78.0785556  23.1072177  46.0156565  77.6772972  23.2096880  45.3502690
  71.4032318  17.7661054  53.9585869  70.9794567  17.9665553  53.2224887
  71.2277173  16.9189901  54.0710169  71.3143198  17.6709835  53.8659559
  70.9044011  29.2811566  56.4207326  71.3939941  28.5822356  56.2382991
  70.3328243  28.9835436  57.0083384  70.8928541  29.1337790  56.4808367
  66.6914763  18.2613105  49.3913842  66.8479382  18.1959908  50.2469834
  67.0315356  19.0361658  49.1792521  66.7647997  18.3662303  49.4868436
  73.2293907  17.6370989  48.2607205  73.7709453  17.1341370  48.7245825
  73.5440466  17.5836183  47.4496690  73.3558304  17.5550409  48.2091017
  71.3980357  23.0288340  45.5447233  71.4673177  22.1702879  45.6840233
  72.1768812  23.2460221  45.2166257  71.5233207  22.9341204  45.5164390
  74.3783177  12.5307293  58.3129505  74.5925146  11.8918207  57.7592859
  73.7617076  12.9753117  57.8837367  74.3188506  12.5017437  58.1679936
  75.7887844  25.4526041  49.7583726  75.3967636  25.1492757  49.0406592
  75.9440917  26.2895131  49.5688680  75.7541434  25.5309878  49.6240223
  63.2649024  15.4448055  49.7074609  63.6447989  15.8632600  49.0434876
  62.6904389  16.0261511  50.0143452  63.2360349  15.5925914  49.6551350
  75.9527519  22.0176030  49.6989757  75.5942174  22.1890673  50.4753789
  75.4666230  22.4789236  49.1417755  75.8286216  22.1115001  49.7315026
  70.7415885  17.6975196  42.2389991  71.0308409  18.4740078  42.5133565
  70.8287683  17.1863927  42.9404490  70.7970141  17.7367114  42.3832489
  77.1132259  22.9079926  60.6456958  77.7511979  22.4140122  60.3119414
  76.4706350  22.8357327  60.0609184  77.1126485  22.8238935  60.5099313
  77.1686515  23.5999734  57.2862314  77.9578893  23.2488799  57.4064396
  77.3430113  24.4136123  57.0238948  77.3106797  23.6685592  57.2650182
  66.9079826  17.0108460  54.3390103  66.0667832  16.9112334  54.5468997
  67.1169833  17.7803940  54.6904424  66.8144518  17.1100504  54.4217418
  64.3855392  14.6327997  52.1674854  63.9912090  14.7071009  51.3924963
  63.8295509  15.0185943  52.7183216  64.2458205  14.7009772  52.1342514
  70.7196490  14.9389859  53.5887701  70.4159628  14.3845848  54.1898108
  70.0175911  15.1182069  53.1015735  70.5712700  14.8834642  53.6057406
  69.7762588  12.2490379  48.1532403  70.0522322  11.5309292  47.7409970
  70.3761257  12.8475299  47.9453509  69.9055852  12.2310750  48.0613164
  68.7814841  22.1539580  58.2959798  68.6735196  22.1641642  59.1621857
  68.9910623  22.9794360  58.1064752  68.7964952  22.2780655  58.3963890
  66.7988633  19.4052222  55.7581736  66.2076567  20.0461721  55.7284751
  67.5609657  19.8289840  55.7313036  66.8236894  19.5628061  55.7496883
  67.1949256  10.5654220  56.4249754  67.6550738  10.6393150  57.1624877
  67.2405363  11.3635474  56.0749575  67.2699812  10.6948367  56.4822510
  68.8432606  11.2320915  60.9921781  68.4518171  10.5854262  61.4277559
  69.0118469  11.8232350  61.6116036  68.8103516  11.2235183  61.1484487
  76.5578150  24.8561534  53.1913760  76.3597838  25.3452349  52.4969972
  75.9365861  25.0602776  53.7697894  76.4365714  24.9578072  53.1736984
  70.6186128  16.6246431  47.5324005  71.3628173  17.0120707  47.7706955
  70.7646824  15.7803856  47.6964493  70.7496713  16.5576904  47.5917975
  73.6064004  12.1971904  53.4317924  73.1323958  11.6713666  53.9423235
  73.9782140  11.6501377  52.8632786  73.5913893  12.0387901  53.4233071
  63.9837034  14.1943411  58.8001470  64.8462647  14.0939120  58.7138800
  63.6528817  13.6138120  58.2387042  64.0622230  14.0935038  58.7046876
  75.5347504  13.0908459  46.4943678  75.0070522  13.1737203  45.8049387
  75.9943212  13.8326330  46.4908323  75.5249354  13.2129121  46.3918373
  67.3438820  13.0185860  55.4611888  66.7191890  13.0304252  54.8537841
  67.0084415  13.4946035  56.1103128  67.2024312  13.0904377  55.4668457
  67.5280569  11.3610978  41.5184573  67.1793373  12.0130704  41.9816122
  67.0477014  11.3468091  40.7908444  67.4050813  11.4554032  41.4795664
  64.0564496  21.0786320  56.9015652  63.5264420  20.3878759  56.9510627
  64.3289589  21.0696505  56.0728361  64.0189218  20.9753452  56.7863068
  75.0884586  21.6612022  45.6253335  75.8118785  22.1270135  45.4817908
  74.6485177  21.7285632  44.8750932  75.1300278  21.7395859  45.4938116
  74.2570741  18.5209565  56.8754024  73.6427734  17.9767615  57.1702659
  74.7738026  18.0073801  56.3959840  74.2426404  18.3645974  56.8478252
  73.4967038  19.5913835  54.6098323  73.0694646  18.9663553  54.1763758
  73.4891983  19.3088757  55.4357330  73.4326179  19.4566615  54.6678150
  66.6129565  14.6279008  57.6786757  66.7723052  13.8722332  58.0838478
  66.4322459  15.1769947  58.3327494  66.6094924  14.5972821  57.8349463
  71.8252748  10.4682589  54.8240857  71.8495235   9.9342701  54.1353637
  72.0764222   9.9599898  55.4866447  71.8662667  10.3143493  54.8205501
  59.3360338  17.7514084  54.2584001  59.2303787  17.7060928  53.3936085
  58.5860558  18.0967865  54.5398286  59.2095941  17.7954992  54.1721330
  68.1054070   9.1953407  54.2046601  68.1452442   9.6962614  54.9181308
  67.2803735   9.2863801  53.9352524  67.9893596   9.2835224  54.2697139
  70.2883683  18.7614147  62.3066895  69.4379314  18.8985862  62.4424540
  70.4511811  18.0277926  62.7514597  70.1867547  18.6728249  62.3922495
  69.5268434  15.7113917  56.5020500  68.6960363  15.8787735  56.2955748
  69.4719951  15.3349868  57.2869385  69.3957848  15.6803649  56.5869028
  67.9004477  13.9869509  47.0310618  68.0407438  14.4841973  47.7339259
  68.3987010  13.2855803  47.1724831  67.9945558  13.9571488  47.1562197
  67.9304700  14.8536620  44.3603194  68.5649779  15.4497045  44.2952656
  68.0130311  14.5540077  45.1749065  68.0361251  14.8977528  44.4706281
  69.5083683  10.7850595  44.3348636  69.8299524  10.3053678  43.6807899
  69.7710626  11.5950241  44.1439448  69.5949708  10.8340493  44.2104129
  72.7380655  21.8069470  57.8547453  72.2305746  22.3605316  58.2988083
  72.4407302  21.8677759  57.0366227  72.6185540  21.8975781  57.7995909
  64.4357688  17.0504461  47.6292740  64.9449917  17.6468968  48.0104046
  64.9091960  16.7830434  46.9469160  64.5801063  17.0990276  47.5847263
  75.3488436  25.7232727  45.7851396  74.6317745  25.5493590  45.3198633
  75.9995173  25.4885300  45.2526882  75.3390286  25.6628520  45.6380614
  77.9336407  14.5997316  49.5292701  77.2627597  15.1427018  49.4005767
  78.6276157  15.0692171  49.2874396  77.9365274  14.7495587  49.4748229
  71.9823141  26.7394028  54.7604459  71.7588795  25.9812857  55.1288486
  71.4932984  26.7692049  54.0384899  71.8766590  26.6316252  54.7081200
  66.7948219  13.6860719  50.4965921  66.0760209  14.1024852  50.7638784
  67.1660582  14.2514958  49.9457559  66.7440151  13.8310001  50.4548728
  76.0947800  14.3188568  56.3867917  76.0745728  14.1371863  57.2402695
  76.1427001  15.1900587  56.3627500  76.0982441  14.4205106  56.5091211
  74.0394130  20.9075760  62.3116393  73.9989985  20.2625437  61.7261549
  74.8517448  20.8512377  62.6241805  74.1537284  20.8034727  62.2713342
  70.6301598  26.9594486  52.2141544  70.2161996  26.2968616  51.8245386
  71.3148972  27.1072345  51.6937238  70.6699969  26.8835144  52.0798041
  73.9966892  26.1184571  52.9665161  73.5983175  26.2286842  52.1985981
  73.3818111  26.3266638  53.5491720  73.8465781  26.1658139  52.9396460
  72.5694794  12.7258719  45.8339300  71.9759633  13.0475716  45.2823867
  72.6070071  11.8799814  45.6260406  72.4869183  12.6483047  45.7222072
  75.4452610  12.6838224  49.2641051  75.2166303  12.7070925  48.4219409
  75.7050687  11.8595691  49.3836061  75.4498798  12.5654303  49.1566248
  69.7271839  14.5372697  58.8666151  69.2150742  13.9293880  59.2251182
  69.5551335  15.2529289  59.3340127  69.6261476  14.5535996  58.9882374
  64.5737553  12.9810272  61.5168513  64.4040144  13.6411647  60.9716719
  64.1303503  13.1916833  62.2381002  64.4836887  13.1096254  61.5430142
  68.4997373  11.2214770  50.5595246  68.9754739  11.5831850  49.9245427
  67.9985972  11.8771237  50.8395389  68.4962732  11.3708959  50.5071987
  61.4739618  15.8857137  56.7757002  60.9266337  15.2157783  56.8937871
  62.2631996  15.5186985  56.8400470  61.5091802  15.7322124  56.8025703
  71.3224026  15.5464595  62.2720413  72.0735353  15.8616271  62.5859968
  71.5146603  15.3443765  61.4454335  71.4615441  15.5631976  62.1963809
  70.5424026  13.3655970  43.9268630  70.9222991  13.3835599  43.1419745
  69.8016622  13.8109958  43.8059478  70.4892864  13.4337744  43.7932198
  60.2326587  15.0977945  53.9303025  60.0548349  14.6454554  54.6557941
  59.9445610  15.9004107  54.1141503  60.1639541  15.1500503  54.0646528
  75.8950169  16.3535663  53.1680416  76.3903834  15.6358658  53.1284436
  75.0849944  16.0506460  53.0534903  75.8494062  16.2033309  53.1454142
  71.3408780  20.2033476  45.3177420  70.5320103  19.8800149  45.2710730
  71.8483689  19.4966698  45.2505669  71.2958447  20.0514792  45.3007715
  61.9699057  17.6305669  51.0424785  61.1044577  17.6191359  50.9307556
  62.0697873  17.4435892  51.8895924  61.8573224  17.6011730  51.1513729
  77.9601987  19.1039350  55.8557545  78.3857059  18.5813772  55.3027970
  77.5958907  19.7020188  55.3346167  77.9688590  19.1149577  55.6966554
  67.5956067  27.4003568  54.6154890  67.9102626  28.2139956  54.6232672
  68.0049481  27.0153786  55.2837049  67.7024165  27.4632270  54.7158982
  74.5480587  22.8173614  52.1858702  75.0191765  23.5313877  52.3548687
  74.8840765  22.2172365  52.7218571  74.6675702  22.8345079  52.2891078
  75.1854533  22.6091549  58.9486395  74.6375479  21.9849432  58.6806460
  75.6467562  22.7985821  58.2330474  75.1721743  22.5450599  58.8036826
  70.5343197   9.5917498  46.6096262  71.3558891   9.7615811  46.3677957
  70.0712848   9.7464759  45.8862559  70.5874359   9.6399231  46.4667906
  64.9369087  21.3476676  54.2633498  65.5413945  21.3072510  53.6347319
  64.7296400  22.1947828  54.2937554  64.9957985  21.4664679  54.1749615
  74.7512860  23.6142621  55.4795736  75.5711233  23.4705587  55.7412031
  74.4706937  24.2388820  56.0212174  74.8309603  23.6852973  55.5983675
  60.1720370  20.3311294  54.1332422  60.0744648  19.5207565  54.4422478
  60.9549239  20.3103087  53.7478690  60.2736506  20.2078384  54.1219285
  73.5817135  35.9284521  50.8543880  73.3467319  35.0952173  50.7476149
  73.7202776  36.2089186  50.0405081  73.5672797  35.8468024  50.7186235
  75.8807222  28.0970251  53.7528188  75.2612254  27.5062898  53.5838203
  75.7791086  28.6881686  53.1192511  75.7744898  28.0974334  53.6333178
  75.6076355  31.6422533  55.9971757  75.4835052  32.2284978  56.6321576
  76.2594640  31.1482729  56.2984032  75.6850005  31.6561337  56.1357686
  75.1434460  40.8070191  52.1300087  74.6602038  41.5320681  52.1059670
  75.9557778  41.1046321  52.2410244  75.1925207  40.9572545  52.1427366
  77.9978657  41.3226367  52.2820366  78.6999236  40.8078356  52.3393123
  77.9176140  41.6500519  53.0867241  78.0902417  41.2940593  52.4093159
  77.7115000  25.6744797  44.3482986  77.5290574  25.8916678  43.5223979
  78.5740613  25.7883810  44.4041601  77.8119590  25.7234695  44.2337474
  77.3229432  37.5132719  51.7905974  78.1618332  37.7455652  51.8379736
  77.3541201  36.6437031  51.7213010  77.4511150  37.4189666  51.7870619
  77.9482135  37.9333594  56.0919280  78.4880360  37.7904725  56.7622652
  77.2652082  38.3330345  56.4603306  77.9274289  37.9713265  56.2453702
  73.3519280  34.1533885  56.2453701  73.0857696  33.3373002  56.4044692
  73.3657844  34.1987041  55.3749217  73.3144003  34.0390790  56.1407183
  77.2577027  28.9518970  42.8605460  76.5435204  28.6657149  43.2727892
  77.7420996  29.2915595  43.5011847  77.2236391  28.9600619  43.0161094
  78.1017887  27.6912263  58.8920709  77.4089683  27.2209243  59.1381441
  78.7178214  27.4650568  59.4662416  78.0902417  27.5879395  59.0129862
  73.7612694  34.9392665  53.5265446  73.5788267  34.9139551  52.6737738
  74.4962363  35.4091602  53.5654354  73.8426758  35.0054027  53.4063364
  76.8258446  31.6577667  60.0347554  77.5498418  31.6430698  60.5212449
  76.9274582  32.3673023  59.5369523  76.9476655  31.7602371  60.0326341
  73.7283604  31.8186165  53.6764512  74.3057107  31.6822616  54.3156758
  73.0297666  31.3621949  53.9310097  73.7104626  31.7308431  53.8086802
  69.2042438  30.6698058  50.3912331  69.2902689  30.2929927  51.1725861
  69.8318235  30.2958504  49.9132289  69.3098989  30.5583540  50.4357808
  74.7918396  39.4389791  54.4443692  74.8322541  39.7104642  53.6163471
  75.3512920  39.9631699  54.8601479  74.8801742  39.5565546  54.3835580
  76.2432982  38.0231740  49.2697618  75.4171100  38.2693477  49.1431896
  76.3044974  37.9443821  50.1359676  76.1307149  38.0476689  49.3786562
  78.4609006  24.0900681  50.2293058  77.5931432  24.1623281  50.2950667
  78.7484211  24.8922760  50.4181033  78.3748754  24.2194828  50.2667824
  77.8754674  34.7049319  52.3032499  77.5867923  34.0786791  52.8378226
  78.7438022  34.6469607  52.3697179  77.9614926  34.6036864  52.3923453
  76.3876358  27.5658940  47.6709934  76.1001154  27.1960211  46.9341881
  77.0746827  28.0353796  47.4093639  76.4465256  27.5805910  47.5225010
  76.8737647  33.8369961  58.2231478  77.3858744  34.1154214  57.5740238
  76.5873989  34.5759255  58.5894292  76.9072510  33.9872315  58.1821357
  73.9604553  28.3440153  48.5195215  74.0620689  29.1466314  48.8476190
  74.7560440  28.1427489  48.2218296  74.0932459  28.4326052  48.5230570
  74.7768285  28.4587331  56.2616337  74.6353777  27.6071272  56.3860845
  75.0608848  28.5015992  55.4378543  74.7976131  28.3387081  56.1583961
  75.5458590  26.3717679  59.5793787  75.0100780  25.7598037  59.8954554
  75.6076355  26.9465815  60.2327454  75.4754223  26.3664607  59.7229214
  77.6647346  33.7798413  49.3913842  77.8211965  33.7145216  50.2469834
  78.0047939  34.5546965  49.1792521  77.7380581  33.8847611  49.4868436
  74.2381608  30.9633363  49.7074609  74.6180572  31.3817908  49.0434876
  73.6636972  31.5446819  50.0143452  74.2092932  31.1111222  49.6551350
  77.8812409  32.5293768  54.3390103  77.0400416  32.4297642  54.5468997
  78.0902417  33.2989248  54.6904424  77.7877102  32.6285811  54.4217418
  75.3587976  30.1513305  52.1674854  74.9644674  30.2256317  51.3924963
  74.8028093  30.5371251  52.7183216  75.2190788  30.2195080  52.1342514
  77.7721217  34.9237530  55.7581736  77.1809150  35.5647029  55.7284751
  78.5342241  35.3475148  55.7313036  77.7969478  35.0813369  55.7496883
  78.1681840  26.0839528  56.4249754  78.6283321  26.1578458  57.1624877
  78.2137947  26.8820782  56.0749575  78.2432395  26.2133675  56.4822510
  74.9569618  29.7128719  58.8001470  75.8195231  29.6124428  58.7138800
  74.6261401  29.1323428  58.2387042  75.0354814  29.6120346  58.7046876
  78.3171404  28.5371168  55.4611888  77.6924474  28.5489560  54.8537841
  77.9816998  29.0131343  56.1103128  78.1756895  28.6089685  55.4668457
  78.5013152  26.8796286  41.5184573  78.1525957  27.5316012  41.9816122
  78.0209598  26.8653399  40.7908444  78.3783396  26.9739340  41.4795664
  75.0297079  36.5971628  56.9015652  74.4997004  35.9064067  56.9510627
  75.3022172  36.5881813  56.0728361  74.9921801  36.4938760  56.7863068
  77.5862149  30.1464316  57.6786757  77.7455636  29.3907640  58.0838478
  77.4055043  30.6955255  58.3327494  77.5827508  30.1158129  57.8349463
  70.3092921  33.2699392  54.2584001  70.2036370  33.2246236  53.3936085
  69.5593141  33.6153173  54.5398286  70.1828524  33.3140300  54.1721330
  75.4090271  32.5689768  47.6292740  75.9182501  33.1654276  48.0104046
  75.8824544  32.3015742  46.9469160  75.5533647  32.6175584  47.5847263
  77.7680803  29.2046027  50.4965921  77.0492792  29.6210160  50.7638784
  78.1393165  29.7700266  49.9457559  77.7172735  29.3495308  50.4548728
  75.5470137  28.4995580  61.5168513  75.3772727  29.1596955  60.9716719
  75.1036087  28.7102141  62.2381002  75.4569471  28.6281562  61.5430142
  72.4472202  31.4042445  56.7757002  71.8998921  30.7343091  56.8937871
  73.2364580  31.0372293  56.8400470  72.4824385  31.2507432  56.8025703
  71.2059171  30.6163253  53.9303025  71.0280932  30.1639862  54.6557941
  70.9178193  31.4189415  54.1141503  71.1372124  30.6685811  54.0646528
  72.9431641  33.1490977  51.0424785  72.0777160  33.1376667  50.9307556
  73.0430457  32.9621200  51.8895924  72.8305808  33.1197038  51.1513729
  75.9101671  36.8661984  54.2633498  76.5146528  36.8257818  53.6347319
  75.7028983  37.7133136  54.2937554  75.9690568  36.9849986  54.1749615
  71.1452953  35.8496602  54.1332422  71.0477231  35.0392873  54.4422478
  71.9281823  35.8288395  53.7478690  71.2469090  35.7263692  54.1219285
  73.2767959  12.8662652  37.7883927  73.0418143  12.0330304  37.6816196
  73.4153600  13.1467317  36.9745128  73.2623621  12.7846155  37.6526282
  74.8385284  17.7448322  39.0640133  74.3552862  18.4698812  39.0399717
  75.6508602  18.0424453  39.1750291  74.8876031  17.8950676  39.0767413
  77.6929481  18.2604498  39.2160413  78.3950060  17.7456487  39.2733170
  77.6126964  18.5878650  40.0207288  77.7853241  18.2318725  39.3433205
  77.0180256  14.4510850  38.7246021  77.8569156  14.6833783  38.7719783
  77.0492025  13.5815162  38.6553057  77.1461974  14.3567797  38.7210666
  77.6432959  14.8711726  43.0259327  78.1831184  14.7282857  43.6962699
  76.9602905  15.2708476  43.3943353  77.6225113  14.9091397  43.1793748
  73.0470104  11.0912016  43.1793748  72.7808520  10.2751133  43.3384739
  73.0608668  11.1365172  42.3089264  73.0094827  10.9768921  43.0747230
  73.4563518  11.8770796  40.4605493  73.2739091  11.8517682  39.6077785
  74.1913187  12.3469734  40.4994401  73.5377582  11.9432158  40.3403411
  74.4869220  16.3767922  41.3783738  74.5273365  16.6482774  40.5503518
  75.0463744  16.9009831  41.7941526  74.5752566  16.4943678  41.3175626
  75.9383806  14.9609871  36.2037664  75.1121924  15.2071609  36.0771943
  75.9995798  14.8821952  37.0699722  75.8257973  14.9854820  36.3126609
  78.6588551  19.5554134  36.9716844  78.4388846  19.2651489  37.7643511
  78.4383073  18.8969089  36.4434756  78.5936145  19.4153842  37.0105753
  77.7737772  13.2822702  35.1614911  78.5283740  13.6635741  35.3750373
  77.1808384  13.7333845  35.6161607  77.7974485  13.4051529  35.2597789
  77.4672041  11.8615662  42.6921783  76.8759974  12.5025160  42.6624798
  78.2293064  12.2853279  42.6653082  77.4920302  12.0191500  42.6836930
  74.7247903  13.5349759  43.8355699  74.1947828  12.8442198  43.8850674
  74.9972996  13.5259944  43.0068408  74.6872625  13.4316891  43.7203115
  70.0043745  10.2077523  41.1924047  69.8987194  10.1624368  40.3276132
  69.2543965  10.5531304  41.4738332  69.8779348  10.2518431  41.1061377
  78.2639475  19.8567007  41.5494937  78.5786034  20.6703395  41.5572719
  78.6732888  19.4717225  42.2177096  78.3707573  19.9195709  41.6499029
  75.6052495  13.8040115  41.1973545  76.2097352  13.7635949  40.5687366
  75.3979807  14.6511267  41.2277601  75.6641392  13.9228118  41.1089662
  70.8403777  12.7874733  41.0672468  70.7428055  11.9771004  41.3762525
  71.6232647  12.7666526  40.6818737  70.9419914  12.6641823  41.0559331
  26.3794894  30.5661942  74.3023879  26.3488898  31.4206579  74.4742148
  26.9776243  30.2657235  74.8610023  26.4632052  30.6478439  74.4098681
  13.9635718  39.1900311  74.8214041  13.2118618  38.8115849  74.5930086
  14.4121730  39.2218744  74.0732851  13.9185385  39.1385918  74.6771543
  19.4160678  39.6125680  70.2499588  19.0812047  40.2902602  69.8143810
  19.9287549  39.2230992  69.6616460  19.4426259  39.6550259  70.0986380
  18.9564970  41.5639949  76.1910700  19.3404349  42.1326848  75.6515475
  18.8924111  40.8389459  75.7116516  19.0038397  41.5415412  76.0404562
  24.2011468  33.1414244  72.5742189  24.0850994  33.8921930  73.0034327
  24.9967355  32.8838197  72.8238276  24.3016058  33.2149091  72.6746281
  15.3821214  44.1196292  78.4891670  16.0258670  44.5609456  78.8787828
  15.7077470  43.3149718  78.4021928  15.5253043  44.0661487  78.5337147
  16.0841794  37.1308267  73.8611531  16.4057635  37.6713474  73.2572839
  16.7313890  36.5605038  73.9933821  16.2267849  37.1267442  73.7918567
  18.3231437  35.5194707  73.9325709  18.7625073  34.9111808  74.3780482
  18.1736100  35.1402080  73.1611174  18.3652903  35.3733178  73.8844877
  21.9240774  33.8721888  70.8856479  21.8392069  34.7282855  71.0306048
  22.4125157  33.5966212  71.5538638  21.9829671  33.9579210  71.0058560
  22.8559207  30.4906682  72.3854214  22.3270679  30.7066316  73.0451520
  23.3784227  31.1842821  72.3055183  22.8547660  30.6249819  72.4709813
  28.3107260  36.0652987  77.7587258  27.4804963  36.2763631  77.9220675
  28.2616512  35.2390042  77.4829542  28.1813995  35.9742593  77.7424624
  14.7458815  34.3869899  71.1861682  14.1616030  34.8919931  71.5927546
  14.3428910  34.1612286  70.4458274  14.5998119  34.4278148  71.1366707
  19.2036029  30.6335551  69.6630602  19.4432033  30.8413535  68.8505945
  19.5251870  29.8293060  69.7719547  19.2873187  30.5449653  69.5591155
  25.5671575  36.7352341  77.8951974  25.1306807  36.7389084  78.6510946
  25.2334491  37.4157840  77.4631552  25.4534195  36.8364797  77.9432807
  12.4145411  28.2473439  68.7190726  11.7003588  27.9611618  69.1313159
  12.8989380  28.5870065  69.3597114  12.3804775  28.2555088  68.8746361
  28.7015921  33.4533261  76.7871611  29.3632356  32.8923930  76.6867520
  28.0607333  32.9585292  77.1124302  28.7044789  33.2969670  76.8203952
  19.5892729  36.7503393  69.0952535  20.0043878  36.4188416  68.4037030
  18.7584659  36.5172295  68.9672671  19.5280738  36.6674649  68.9743382
  24.9880752  34.4698644  76.5283600  25.2236341  34.6143843  75.7010451
  25.1370316  35.2341052  76.9215114  25.0446555  34.6037698  76.4647204
  26.8171209  33.3100310  74.3653204  27.1479426  33.8427950  73.7593299
  27.3904297  33.3639197  75.0215155  26.9504888  33.3969878  74.3730986
  22.2826119  33.0013952  68.2813736  22.2006282  33.0716139  69.1468723
  22.9205840  33.5643696  68.0897477  22.3645957  33.0952923  68.3803686
  27.9250560  28.5510806  75.8693366  27.6687125  27.7390748  75.6791248
  28.7679874  28.5588374  75.6423553  28.0116586  28.4322804  75.8078183
  19.3866230  33.0234406  71.2922342  20.2006868  33.3149299  71.1805114
  19.3225371  32.3694269  70.7180635  19.4968969  32.9699601  71.1911180
  15.8976953  31.7158214  70.7569544  16.2822106  31.4965920  71.5086089
  15.6488573  32.5421159  70.8870620  15.9179025  31.8056360  70.8870620
  16.1800195  39.9363089  72.8301914  16.4698494  39.5452071  72.1061141
  16.9103676  40.1179794  73.2707190  16.3307080  39.9056903  72.7884721
  14.1206111  41.9130472  75.8962064  13.9006406  41.6227827  76.6888731
  13.9000633  41.2545427  75.3679976  14.0553705  41.7730180  75.9350973
  24.2813985  35.6064276  74.0223736  24.8472018  36.2657486  73.9382279
  23.6341889  35.9513974  74.4940138  24.2692742  35.7546217  74.0796492
  20.7520563  38.5503060  73.4460815  20.5107239  37.8170921  73.0387880
  20.9321896  39.0989917  72.7927148  20.7428187  38.5225451  73.2891038
  25.4776683  35.6570504  70.8149372  25.0983492  34.8707641  70.8078661
  24.8142928  36.2057361  70.6721016  25.3235158  35.6215328  70.7930169
  18.3023591  39.2084023  74.6538198  19.0673482  38.9393666  74.3320863
  18.2001681  38.7234033  75.3708261  18.4005087  39.0973587  74.7118026
  20.8242252  36.2396206  66.6338148  21.5915237  36.2996331  66.2243999
  20.3773561  35.6676648  66.1494466  20.8715679  36.1632782  66.5015858
  23.7236782  37.9015995  71.1501058  23.8056619  38.7082981  70.8262509
  24.2086524  37.9211954  71.8741831  23.8073940  38.0236657  71.2087957
  19.3594875  32.4510766  74.1192472  19.9010420  31.9481147  74.5831092
  19.6741434  32.3975960  73.3081957  19.4859272  32.3690186  74.0676284
  17.5281324  37.8428117  71.4032500  17.5974145  36.9842656  71.5425500
  18.3069779  38.0599998  71.0751524  17.6534174  37.7480981  71.3749657
  21.9188812  40.2665818  75.6168993  21.5268604  39.9632534  74.8991859
  22.0741884  41.1034908  75.4273947  21.8842402  40.3449655  75.4825490
  16.8716852  32.5114973  68.0975258  17.1609377  33.2879855  68.3718832
  16.9588651  32.0003704  68.7989757  16.9271108  32.5506891  68.2417756
  22.6879117  39.6701311  79.0499027  22.4898806  40.1592126  78.3555239
  22.0666828  39.8742553  79.6283161  22.5666682  39.7717849  79.0322251
  21.6648471  27.9048236  72.3528945  21.1371490  27.9876980  71.6634654
  22.1244179  28.6466107  72.3493589  21.6550321  28.0268898  72.2503640
  13.6581536  26.1750755  67.3769840  13.3094341  26.8270481  67.8401389
  13.1777982  26.1607868  66.6493711  13.5351780  26.2693809  67.3380931
  21.2185554  36.4751799  71.4838602  21.9419752  36.9409912  71.3403175
  20.7786145  36.5425409  70.7336199  21.2601246  36.5535636  71.3523383
  14.0605667  29.6676397  70.2188461  14.6950747  30.2636822  70.1537923
  14.1431278  29.3679854  71.0334331  14.1662218  29.7117305  70.3291548
  21.4789403  40.5372504  71.6436663  20.7618713  40.3633366  71.1783900
  22.1296141  40.3025077  71.1112149  21.4691254  40.4768297  71.4965881
  16.7602565  41.7734263  78.0726811  16.3462964  41.1108393  77.6830653
  17.4449939  41.9212122  77.5522505  16.8000937  41.6974921  77.9383308
  20.1267859  40.9324348  78.8250427  19.7284142  41.0426619  78.0571248
  19.5119079  41.1406415  79.4076987  19.9766749  40.9797916  78.7981727
  27.8609702  35.5076315  72.2093518  28.2443308  36.2567671  72.4391615
  27.0653815  35.7542135  71.9505507  27.8003484  35.6546009  72.2051092
  16.6724993  28.1795747  69.7853897  17.0523958  28.1975376  69.0005012
  15.9317590  28.6249735  69.6644744  16.6193831  28.2477521  69.6517465
  17.4709748  35.0173253  71.1762687  16.6621070  34.6939926  71.1295997
  17.9784656  34.3106475  71.1090936  17.4259414  34.8654569  71.1592981
  37.3527477  46.0847250  74.3023879  37.3221482  46.9391887  74.4742148
  37.9508826  45.7842543  74.8610023  37.4364635  46.1663746  74.4098681
  30.5527162  45.1722901  79.0576809  29.6965058  45.3331399  79.1085926
  30.5994816  44.3014965  79.0781870  30.4326274  45.0673703  79.0682875
  24.9368302  54.7085619  74.8214041  24.1851201  54.3301157  74.5930086
  25.3854314  54.7404052  74.0732851  24.8917969  54.6571226  74.6771543
  30.3893262  55.1310988  70.2499588  30.0544630  55.8087910  69.8143810
  30.9020132  54.7416300  69.6616460  30.4158843  55.1735567  70.0986380
  29.9297553  57.0825257  76.1910700  30.3136932  57.6512156  75.6515475
  29.8656694  56.3574767  75.7116516  29.9770980  57.0600720  76.0404562
  33.3978983  47.2314945  81.7008461  33.9434943  47.9100031  81.7602431
  33.3395860  47.0902406  80.8410043  33.4694898  47.3106947  81.5820522
  26.5153058  54.7204011  77.0876814  26.6163421  53.9104365  77.3973941
  25.9194803  54.6260957  76.4576492  26.4425597  54.5869039  77.0403052
  35.1744052  48.6599552  72.5742189  35.0583578  49.4107238  73.0034327
  35.9699939  48.4023505  72.8238276  35.2748641  48.7334399  72.6746281
  26.3553798  59.6381600  78.4891670  26.9991253  60.0794764  78.8787828
  26.6810053  58.8335026  78.4021928  26.4985626  59.5846795  78.5337147
  19.7118102  50.7424298  76.7129147  19.4768287  49.9091950  76.6061416
  19.8503743  51.0228963  75.8990348  19.6973765  50.6607801  76.5771502
  22.0108190  42.9110028  79.6113455  21.3913221  42.3202675  79.4423470
  21.9092053  43.5021463  78.9777778  21.9045865  42.9114111  79.4918444
  27.0574377  52.6493575  73.8611531  27.3790219  53.1898782  73.2572839
  27.7046474  52.0790346  73.9933821  27.2000433  52.6452750  73.7918567
  29.1076085  44.6509570  73.9445918  29.8056250  44.8297697  74.4367381
  29.4228418  44.1279909  73.3216307  29.2571423  44.6003342  73.9247928
  21.7377323  46.4562310  81.8557024  21.6136020  47.0424755  82.4906843
  22.3895607  45.9622506  82.1569299  21.8150972  46.4701114  81.9942953
  29.2964021  51.0380015  73.9325709  29.7357656  50.4297115  74.3780482
  29.1468684  50.6587388  73.1611174  29.3385487  50.8918486  73.8844877
  26.7635664  49.6324027  81.1344535  27.4084666  49.1396470  80.8155483
  27.0037441  49.7748813  81.9610613  26.8946249  49.5801469  81.2094068
  29.3021755  52.4778933  80.7851428  29.5844998  51.6830338  80.5638183
  30.0307916  52.9559520  80.8056489  29.4511319  52.4313530  80.7554443
  27.2802949  40.0201967  78.0267193  26.9506279  40.4713110  77.3570891
  26.6047951  39.9418130  78.5740199  27.1313385  40.0753102  78.0090416
  32.8973357  49.3907196  70.8856479  32.8124653  50.2468163  71.0306048
  33.3857741  49.1151520  71.5538638  32.9562255  49.4764518  71.0058560
  34.4879357  36.0087489  76.2716803  34.1732798  36.6990968  76.7037226
  33.9706299  35.9532272  75.5702304  34.3643827  36.1022378  76.2313752
  33.8291791  46.0091990  72.3854214  33.3003262  46.2251624  73.0451520
  34.3516811  46.7028129  72.3055183  33.8280244  46.1435127  72.4709813
  39.2839844  51.5838295  77.7587258  38.4537547  51.7948939  77.9220675
  39.2349096  50.7575349  77.4829542  39.1546579  51.4927901  77.7424624
  25.7191398  49.9055207  71.1861682  25.1348614  50.4105239  71.5927546
  25.3161494  49.6797594  70.4458274  25.5730702  49.9463455  71.1366707
  21.2735427  55.6209968  77.9885353  20.7903005  56.3460458  77.9644937
  22.0858745  55.9186098  78.0995511  21.3226175  55.7712322  78.0012633
  27.3449581  54.4142149  80.5935168  26.8276523  54.0549564  79.9896476
  28.0423972  53.8904323  80.6041234  27.3715162  54.2839837  80.5065426
  30.1768613  46.1520859  69.6630602  30.4164617  46.3598843  68.8505945
  30.4984454  45.3478368  69.7719547  30.2605771  46.0634960  69.5591155
  25.4858903  38.0814255  73.5090140  26.2404871  38.4492572  73.2707191
  25.3086438  38.4553809  74.2769320  25.5713382  38.1912443  73.5875029
  24.1279624  56.1366144  78.1405633  24.8300204  55.6218133  78.1978390
  24.0477107  56.4640296  78.9452508  24.2203385  56.1080370  78.2678425
  38.7793802  44.2308696  81.5537680  37.9422223  44.3010883  81.7885274
  38.7482033  44.2333190  80.6811982  38.6512084  44.2418923  81.4597228
  23.8415968  40.4884574  70.2068253  23.6591541  40.7056455  69.3809246
  24.7041581  40.6023587  70.2626868  23.9420557  40.5374472  70.0922740
  23.4530400  52.3272496  77.6491241  24.2919299  52.5595429  77.6965003
  23.4842169  51.4576808  77.5798277  23.5812117  52.2329443  77.6455886
  24.0783103  52.7473371  81.9504547  24.6181328  52.6044502  82.6207919
  23.3953049  53.1470122  82.3188573  24.0575257  52.7853042  82.1038968
  29.5215687  37.4910985  73.2417277  30.2501847  37.3126940  72.7955433
  29.6110580  38.3329064  73.4524455  29.6422349  37.5894863  73.2070795
  33.5023988  48.4264372  77.1449571  34.2581503  48.8595886  77.1838480
  33.6086312  47.7769142  77.7184207  33.6294158  48.3941856  77.2347597
  36.5404159  52.2537649  77.8951974  36.1039391  52.2574392  78.6510946
  36.2067074  52.9343148  77.4631552  36.4266779  52.3550105  77.9432807
  36.4601642  39.2951477  80.1381402  37.1027550  39.3649582  80.7243317
  36.7124662  38.6280700  79.6360944  36.5923774  39.2077826  80.1508681
  23.3877995  43.7658747  68.7190726  22.6736172  43.4796926  69.1313159
  23.8721964  44.1055372  69.3597114  23.3537358  43.7740396  68.8746361
  39.6748505  48.9718569  76.7871611  40.3364939  48.4109238  76.6867520
  39.0339917  48.4770600  77.1124302  39.6777373  48.8154978  76.8203952
  30.5625313  52.2688701  69.0952535  30.9776461  51.9373724  68.4037030
  29.7317242  52.0357603  68.9672671  30.5013321  52.1859957  68.9743382
  19.8913662  49.7532442  79.3850713  19.7089235  49.7279328  78.5323005
  20.6263330  50.2231379  79.4239621  19.9727725  49.8193804  79.2648631
  35.9613336  49.9883952  76.5283600  36.1968925  50.1329150  75.7010451
  36.1102899  50.7526360  76.9215114  36.0179139  50.1223006  76.4647204
  37.7903792  48.8285617  74.3653204  38.1212010  49.3613258  73.7593299
  38.3636881  48.8824505  75.0215155  37.9237472  48.9155186  74.3730986
  33.0035682  46.6750520  75.0476784  33.0982536  47.4139814  75.5016410
  32.3794525  46.2467996  75.4811349  32.9244712  46.7211841  75.1784932
  19.8584572  46.6325942  79.5349779  20.4358074  46.4962393  80.1742024
  19.1598634  46.1761726  79.7895363  19.8405593  46.5448208  79.6672069
  33.2558703  48.5199260  68.2813736  33.1738865  48.5901447  69.1468723
  33.8938423  49.0829004  68.0897477  33.3378540  48.6138231  68.3803686
  26.6151874  48.2859998  77.7488262  26.3571118  47.4531733  77.7219562
  26.6700357  48.5117611  76.9080763  26.5851652  48.1957769  77.6208399
  31.6952924  40.3888449  77.8492355  30.9909251  39.8997634  78.0076274
  31.7437899  40.4010923  76.9780799  31.5982976  40.3178097  77.7431695
  25.5886586  45.8397760  78.2353157  25.0136177  45.9989929  78.8717118
  25.2122262  45.2033170  77.7721608  25.4489399  45.7695573  78.2607716
  29.2559875  44.3121110  83.0945536  28.8674308  43.8875327  82.4397727
  28.5914573  44.5603259  83.6022562  29.1006803  44.2859831  83.0733403
  38.8983144  44.0696114  75.8693366  38.6419709  43.2576056  75.6791248
  39.7412458  44.0773682  75.6423553  38.9849169  43.9508112  75.8078183
  15.3343405  45.4837835  76.2497598  15.4203657  45.1069704  77.0311128
  15.9619203  45.1098281  75.7717556  15.4399956  45.3723317  76.2943075
  33.0786236  38.0095738  80.6069520  33.4596748  37.3273910  80.9937394
  32.2749521  37.7205341  80.4245184  33.0162698  37.8662787  80.6373576
  30.3598813  48.5419714  71.2922342  31.1739452  48.8334607  71.1805114
  30.2957954  47.8879577  70.7180635  30.4701552  48.4884909  71.1911180
  26.2306721  52.0141232  76.4194655  26.8680668  51.7752979  76.9646448
  26.6561793  52.2178391  75.6847815  26.3882888  52.0092242  76.3911812
  26.8709536  47.2343522  70.7569544  27.2554689  47.0151228  71.5086089
  26.6221157  48.0606467  70.8870620  26.8911609  47.3241668  70.8870620
  28.6128193  52.4913654  78.0988441  28.6867202  52.3288826  78.9530291
  29.4297700  52.6803844  77.8548922  28.7444552  52.4950397  78.1886466
  22.3733950  52.8371517  75.1282884  21.5472068  53.0833254  75.0017163
  22.4345941  52.7583598  75.9944942  22.2608117  52.8616466  75.2371829
  24.5909974  38.9040458  76.0878324  23.7232399  38.9763058  76.1535934
  24.8785178  39.7062537  76.2766300  24.5049722  39.0334605  76.1253091
  33.7142862  39.0518318  84.4189646  34.4596454  38.8628128  84.0053072
  33.2980167  39.5776556  83.8603503  33.7627837  39.1020463  84.2754220
  27.1532779  55.4548397  72.8301914  27.4431077  55.0637379  72.1061141
  27.8836260  55.6365102  73.2707190  27.3039663  55.4242211  72.7884721
  41.0905133  46.4227546  79.3695151  41.6413055  45.7895615  79.6092243
  41.0749249  46.9542939  80.0610656  41.1690330  46.4076494  79.5074010
  27.7427524  50.2566143  83.9155045  27.2439218  50.9681911  83.9939933
  28.5527748  50.5766810  83.8773207  27.7883631  50.4092992  83.9211613
  25.0938695  57.4315780  75.8962064  24.8738990  57.1413135  76.6888731
  24.8733217  56.7730735  75.3679976  25.0286289  57.2915488  75.9350973
  24.0055642  49.5189096  78.1617766  23.7168890  48.8926568  78.6963493
  24.8738990  49.4609384  78.2282446  24.0915894  49.4176641  78.2508720
  34.7933540  44.6623880  78.4799747  34.4498305  43.9414215  78.8306997
  34.8926582  44.4537731  77.6378106  34.7575582  44.5248083  78.4071428
  27.2606650  58.8045170  74.6792756  27.9130708  58.2721612  74.9083782
  26.5632259  58.4513822  75.0660630  27.2537368  58.6734693  74.7704924
  24.2087915  51.1584347  74.0860131  24.9633883  51.5397386  74.2995593
  23.6158528  51.6095491  74.5406827  24.2324629  51.2813175  74.1843009
  35.2546569  51.1249584  74.0223736  35.8204601  51.7842794  73.9382279
  34.6074472  51.4699282  74.4940138  35.2425325  51.2731525  74.0796492
  25.5286142  52.3292909  79.4600246  25.0066895  52.4693200  80.1452111
  25.9160162  51.5703573  79.6502363  25.5089843  52.2378433  79.5901323
  22.5177326  42.3798717  73.5295201  22.2302122  42.0099988  72.7927148
  23.2047794  42.8493573  73.2678906  22.5766223  42.3945687  73.3810276
  31.7253147  54.0688368  73.4460815  31.4839823  53.3356229  73.0387880
  31.9054480  54.6175225  72.7927148  31.7160771  54.0410759  73.2891038
  26.9552467  49.3596928  74.8581737  26.7595250  49.9671662  74.2642040
  27.1786813  48.6664872  74.3773411  26.9587108  49.3474453  74.6997818
  25.3530997  46.2451666  74.9762605  26.0753649  46.4092824  74.5166411
  24.8738990  46.9661331  74.8701945  25.3894728  46.3749895  74.8928219
  33.3124505  42.5815464  80.3559290  32.4735606  42.6076743  80.1197554
  33.3828872  43.2286200  80.9364637  33.1992898  42.6811590  80.4068407
  31.7593783  39.4800842  75.0886906  32.4620136  39.2808590  74.6106865
  31.4937972  38.7076784  75.3955750  31.8240416  39.3363808  75.0632348
  37.1882029  47.7883451  77.6420532  37.1016003  47.9438877  78.4955311
  36.7332509  48.4321527  77.2679937  37.1085285  47.9059206  77.7127639
  20.0905520  43.1579930  74.3780482  20.1921657  43.9606091  74.7061457
  20.8861407  42.9567266  74.0803562  20.2233426  43.2465829  74.3815837
  31.0607845  45.1094198  76.2646092  30.8142559  45.0289949  77.0982881
  31.3892968  44.3247666  76.0708619  31.0729088  44.9820464  76.3593615
  34.9555894  51.8177558  80.0532873  34.8170253  52.5158604  80.5581615
  34.1755892  51.6626214  79.6969055  34.8199121  51.8977724  80.0759147
  27.0204872  47.8450917  85.6769075  27.1648248  48.4252125  85.0412185
  27.3680521  48.2227214  86.3818929  27.0932333  47.9871621  85.6868070
  29.1924789  47.0441085  83.4594206  28.4448104  47.2372100  83.0542484
  29.3466315  46.2186305  83.2218328  29.1047217  46.9506197  83.3639612
  26.0932627  56.0353689  82.5430102  26.2422191  55.4756605  81.8903506
  26.8732629  56.1145690  82.9262620  26.2306721  55.9639254  82.5027051
  36.4509267  51.1755811  70.8149372  36.0716075  50.3892949  70.8078661
  35.7875512  51.7242668  70.6721016  36.2967741  51.1400635  70.7930169
  33.9053892  34.1181511  78.2183453  34.0237461  34.5757975  77.4850756
  33.7316068  33.3126772  77.9319671  33.8973063  34.0675283  78.0684387
  29.2756175  54.7269331  74.6538198  30.0406066  54.4578974  74.3320863
  29.1734265  54.2419341  75.3708261  29.3737670  54.6158895  74.7118026
  27.3108944  42.9293740  81.1931434  26.5205019  42.7485200  81.5148770
  27.7069567  42.1520693  81.1761729  27.2525821  42.7881201  81.2383982
  31.7974835  51.7581514  66.6338148  32.5647820  51.8181639  66.2243999
  31.3506144  51.1861956  66.1494466  31.8448262  51.6818090  66.5015858
  32.6952631  50.5636170  78.9190880  32.0197633  50.3321402  79.4204267
  32.7045007  49.9557353  78.2932985  32.5971135  50.4395095  78.9007032
  29.8246775  45.4053999  85.6754933  29.7605916  46.2663956  85.5475070
  29.9643962  45.0885992  84.8750484  29.8362245  45.4854166  85.5383146
  34.6969365  53.4201303  71.1501058  34.7789203  54.2268289  70.8262509
  35.1819108  53.4397262  71.8741831  34.7806523  53.5421965  71.2087957
  28.5065869  48.0986138  79.8171136  28.0828118  48.2990637  79.0810154
  28.3310724  47.2514986  79.9295436  28.4176749  48.0034920  79.7244826
  23.7948314  48.5938190  75.2499108  23.9512933  48.5284993  76.1055100
  24.1348907  49.3686742  75.0377788  23.8681548  48.6987388  75.3453703
  30.3327458  47.9696073  74.1192472  30.8743004  47.4666455  74.5831092
  30.6474017  47.9161268  73.3081957  30.4591855  47.8875494  74.0676284
  28.5013908  53.3613425  71.4032500  28.5706728  52.5027963  71.5425500
  29.2802363  53.5785306  71.0751524  28.6266758  53.2666289  71.3749657
  31.4816728  42.8632378  84.1714772  31.6958697  42.2243292  83.6178126
  30.8650627  43.3078202  83.7422634  31.4222057  42.8342522  84.0265203
  32.8921395  55.7851126  75.6168993  32.5001187  55.4817841  74.8991859
  33.0474468  56.6220216  75.4273947  32.8574985  55.8634963  75.4825490
  20.3682575  45.7773140  75.5659876  20.7481540  46.1957685  74.9020143
  19.7937940  46.3586596  75.8728719  20.3393900  45.9250999  75.5136617
  33.6455816  44.4721443  85.1098079  32.8332497  44.1647334  85.1911252
  34.1045750  43.9920443  85.6740791  33.5936200  44.3557936  85.2052673
  33.0561070  52.3501115  75.5575024  32.6975725  52.5215758  76.3339056
  32.5699781  52.8114321  75.0003022  32.9319767  52.4440086  75.5900293
  30.8731456  35.9732314  79.1602115  30.0025014  35.9471035  79.1135424
  31.1271797  35.8009506  78.3427961  30.7825016  35.9442457  79.0322252
  27.8449436  48.0300281  68.0975258  28.1341960  48.8065163  68.3718832
  27.9321235  47.5189012  68.7989757  27.9003692  48.0692199  68.2417756
  27.8980597  37.9838542  80.6175585  27.3819085  37.2918734  80.7427164
  27.3374526  38.6509319  80.5638184  27.7387110  37.9801800  80.6281651
  35.9422810  45.0894157  81.0708140  35.5150418  45.0020506  80.3156240
  35.3048863  45.1971933  81.6562984  35.7852417  45.0926817  81.0453582
  24.0113377  47.3433545  80.1975370  23.1701383  47.2437419  80.4054264
  24.2203385  48.1129025  80.5489691  23.9178069  47.4425588  80.2802685
  21.4888944  44.9653082  78.0260121  21.0945641  45.0396094  77.2510230
  20.9329060  45.3511028  78.5768482  21.3491756  45.0334857  77.9927780
  33.1253890  37.9434376  77.7064000  33.3303484  37.8756684  78.5520997
  32.7980314  38.7493197  77.6385177  33.1069138  38.0520316  77.8223655
  27.8230041  45.2714944  79.4472968  27.5193179  44.7170933  80.0483375
  27.1209462  45.4507154  78.9601002  27.6746251  45.2159727  79.4642673
  26.8796139  42.5815464  74.0117669  27.1555873  41.8634377  73.5995237
  27.4794808  43.1800384  73.8038775  27.0089403  42.5635835  73.9198431
  36.3787578  38.4966140  77.1866765  35.7661892  38.9836542  77.5720497
  36.4751753  37.8209631  77.7304416  36.3025476  38.4684449  77.3245623
  30.3806659  40.2528981  72.2864264  30.8350406  40.4239542  73.0112109
  30.8546705  39.6397092  71.8862040  30.5174979  40.1879867  72.3338026
  23.9022185  49.7377307  81.6167003  23.3110118  50.3786806  81.5870018
  24.6643208  50.1614925  81.5898302  23.9270445  49.8953146  81.6082150
  33.6611701  55.1886619  79.0499027  33.4631389  55.6777433  78.3555239
  33.0399412  55.3927860  79.6283161  33.5399265  55.2903157  79.0322251
  27.7219679  46.9571516  73.3909272  28.4661724  47.3445792  73.6292222
  27.8680375  46.1128941  73.5549759  27.8530264  46.8901989  73.4503241
  29.6399255  38.7521775  78.4241133  28.7935300  38.9244582  78.2982483
  29.6370387  37.9471118  78.7606961  29.5146404  38.6582804  78.4552260
  30.7097555  42.5296989  79.2903191  30.2357509  42.0038751  79.8008502
  31.0815691  41.9826462  78.7218053  30.6947444  42.3712986  79.2818338
  36.9734286  47.5899365  80.7009971  36.7332508  46.7505780  80.7052398
  37.4526293  47.6699531  81.4250745  37.0086469  47.4780764  80.8084774
  32.6381055  43.4233544  72.3528945  32.1104073  43.5062288  71.6634654
  33.0976763  44.1651415  72.3493589  32.6282905  43.5454206  72.2503640
  38.9739473  44.3700822  78.6539231  38.7349243  44.3296656  77.8160015
  39.1373374  45.2171974  78.7804952  38.9629776  44.4892907  78.5492713
  24.4472371  43.3510945  81.3197155  23.8225441  43.3629337  80.7123108
  24.1117966  43.8271120  81.9688395  24.3057863  43.4229462  81.3253723
  24.6314120  41.6936063  67.3769840  24.2826924  42.3455789  67.8401389
  24.1510566  41.6793176  66.6493711  24.5084364  41.7879117  67.3380931
  32.1918137  51.9937107  71.4838602  32.9152336  52.4595220  71.3403175
  31.7518728  52.0610717  70.7336199  32.2333829  52.0720944  71.3523383
  31.3604292  48.8534650  82.7339291  30.7461285  48.3092700  83.0287926
  31.8771577  48.3398886  82.2545107  31.3459955  48.6971059  82.7063519
  30.6000589  49.9238920  80.4683589  30.1728197  49.2988638  80.0349025
  30.5925534  49.6413841  81.2942597  30.5359731  49.7891700  80.5263417
  28.9286299  40.8007674  80.6826123  28.9528786  40.2667786  79.9938903
  29.1797773  40.2924983  81.3451714  28.9696218  40.6468578  80.6790768
  25.2087621  39.5278492  80.0631868  25.2485993  40.0287699  80.7766575
  24.3837286  39.6188886  79.7937791  25.0927147  39.6160309  80.1282406
  26.6301985  46.0439002  82.3605767  25.7993914  46.2112820  82.1541015
  26.5753502  45.6674953  83.1454652  26.4991400  46.0128733  82.4454295
  25.0038028  44.3194594  72.8895884  25.1440990  44.8167058  73.5924526
  25.5020561  43.6180888  73.0310098  25.0979109  44.2896572  73.0147463
  25.0338251  45.1861705  70.2188461  25.6683330  45.7822130  70.1537923
  25.1163862  44.8865162  71.0334331  25.1394802  45.2302613  70.3291548
  26.6117234  41.1175680  70.1933903  26.9333075  40.6378763  69.5393166
  26.8744177  41.9275326  70.0024715  26.6983259  41.1665578  70.0689395
  29.8414206  52.1394554  83.7132719  29.3339298  52.6930401  84.1573350
  29.5440853  52.2002844  82.8951494  29.7219091  52.2300866  83.6581176
  32.0076389  40.5047874  82.5557382  32.4331460  40.0520401  81.9440909
  31.3933382  39.9507945  82.8322170  31.9805034  40.3561850  82.5062408
  21.5391239  47.3829545  73.4878007  22.0483468  47.9794053  73.8689313
  22.0125511  47.1155519  72.8054427  21.6834614  47.4315361  73.4432530
  32.4521987  56.0557812  71.6436663  31.7351297  55.8818674  71.1783900
  33.1028724  55.8210384  71.1112149  32.4423837  55.9953605  71.4965881
  30.4470612  36.9762974  75.9647959  29.8038929  36.8260620  76.5333098
  30.1070019  36.7305319  75.1997064  30.3015689  36.9175096  75.9350975
  35.0369958  44.9322401  75.3877968  34.3661148  45.4752103  75.2591034
  35.7309708  45.4017256  75.1459663  35.0398826  45.0820672  75.3333496
  29.0856692  57.0719113  80.6189726  28.8622346  56.3137942  80.9873753
  28.5966535  57.1017134  79.8970166  28.9800141  56.9641337  80.5666467
  35.1998085  41.3878284  78.2968341  35.5525696  40.9608007  78.9714140
  34.3412887  41.3029128  78.4269418  35.1247530  41.3123025  78.4163352
  23.8981770  44.0185804  76.3551188  23.1793760  44.4349937  76.6224051
  24.2694133  44.5840043  75.8042826  23.8473702  44.1635085  76.3133995
  33.1981351  44.6513653  82.2453183  33.1779279  44.4696948  83.0987962
  33.2460552  45.5225671  82.2212767  33.2015992  44.7530191  82.3676478
  27.7335149  57.2919571  78.0726811  27.3195547  56.6293701  77.6830653
  28.4182523  57.4397430  77.5522505  27.7733520  57.2160229  77.9383308
  31.1000443  56.4509656  78.8250427  30.7016726  56.5611926  78.0571248
  30.4851662  56.6591722  79.4076987  30.9499332  56.4983224  78.7981727
  29.6728345  43.0583804  71.6924567  29.0793184  43.3800800  71.1409134
  29.7103623  42.2124899  71.4845673  29.5902734  42.9808132  71.5807338
  32.5486161  43.0163308  75.1226317  32.3199854  43.0396010  74.2804676
  32.8084238  42.1920775  75.2421328  32.5532349  42.8979388  75.0151515
  25.6030924  41.5539855  76.4180513  26.0788290  41.9156935  75.7830694
  25.1019524  42.2096322  76.6980656  25.5996283  41.7034043  76.3657254
  38.8342286  51.0261623  72.2093518  39.2175891  51.7752979  72.4391615
  38.0386399  51.2727442  71.9505507  38.7736068  51.1731317  72.2051092
  27.6457577  43.6981055  69.7853897  28.0256542  43.7160684  69.0005012
  26.9050173  44.1435043  69.6644744  27.5926415  43.7662829  69.6517465
  35.2742868  42.0063246  75.3729476  35.2737094  41.8511902  76.2313752
  35.0699048  42.8526233  75.3170861  35.2442645  42.1083866  75.4917415
  17.3360139  45.4303030  79.7888292  17.1581900  44.9779639  80.5143208
  17.0479161  46.2329192  79.9726770  17.2673092  45.4825588  79.9231795
  32.9983720  46.6860748  79.0265683  33.4937385  45.9683743  78.9869703
  32.1883495  46.3831545  78.9120170  32.9527613  46.5358394  79.0039408
  28.4442331  50.5358561  71.1762687  27.6353654  50.2125234  71.1295997
  28.9517240  49.8291783  71.1090936  28.3991998  50.3839877  71.1592981
  19.0732608  47.9630754  76.9010051  18.2078128  47.9516444  76.7892823
  19.1731424  47.7760977  77.7481191  18.9606775  47.9336815  77.0098996
  35.0635539  49.4364435  81.7142811  35.4890610  48.9138857  81.1613236
  34.6992458  50.0345272  81.1931434  35.0722141  49.4474662  81.5551821
  24.6989618  57.7328653  80.4740157  25.0136177  58.5465041  80.4817939
  25.1083032  57.3478871  81.1422316  24.8057716  57.7957355  80.5744249
  31.6514138  53.1498699  78.0443969  32.1225316  53.8638962  78.2133954
  31.9874316  52.5497449  78.5803838  31.7709253  53.1670164  78.1476345
  35.0981949  41.0101988  82.1922854  34.5144937  41.5111194  81.7800421
  35.4186243  40.5031544  81.5587177  35.0595124  41.0093823  82.0381361
  27.6376748  39.9242583  72.4681529  28.4592442  40.0940896  72.2263223
  27.1746399  40.0789844  71.7447826  27.6907910  39.9724316  72.3253173
  22.0402638  51.6801761  80.1218765  22.6447496  51.6397595  79.4932586
  21.8329951  52.5272913  80.1522821  22.0991536  51.7989763  80.0334882
  31.8546411  53.9467706  81.3381003  32.6744784  53.8030672  81.5997298
  31.5740488  54.5713905  81.8797441  31.9343154  54.0178058  81.4568942
  40.0808669  60.1694878  73.9445918  40.7788834  60.3483005  74.4367381
  40.3961002  59.6465217  73.3216307  40.2304006  60.1188650  73.9247928
  38.2535533  55.5387275  78.0267193  37.9238863  55.9898418  77.3570891
  37.5780534  55.4603438  78.5740199  38.1045969  55.5938410  78.0090416
  45.4611940  51.5272797  76.2716803  45.1465381  52.2176276  76.7037226
  44.9438882  51.4717580  75.5702304  45.3376411  51.6207686  76.2313752
  36.6923982  65.4240515  71.1861682  36.1081197  65.9290546  71.5927546
  36.2894077  65.1982902  70.4458274  36.5463286  65.4648763  71.1366707
  41.1501196  61.6706167  69.6630602  41.3897200  61.8784151  68.8505945
  41.4717037  60.8663676  69.7719547  41.2338354  61.5820268  69.5591155
  36.4591487  53.5999563  73.5090140  37.2137455  53.9677880  73.2707191
  36.2819021  53.9739117  74.2769320  36.5445965  53.7097751  73.5875029
  34.8148551  56.0069882  70.2068253  34.6324125  56.2241763  69.3809246
  35.6774164  56.1208895  70.2626868  34.9153141  56.0559780  70.0922740
  40.4948271  53.0096293  73.2417277  41.2234431  52.8312248  72.7955433
  40.5843163  53.8514372  73.4524455  40.6154933  53.1080171  73.2070795
  34.3610578  59.2844055  68.7190726  33.6468756  58.9982234  69.1313159
  34.8454547  59.6240680  69.3597114  34.3269942  59.2925704  68.8746361
  41.5357896  67.7874009  69.0952535  41.9509045  67.4559032  68.4037030
  40.7049826  67.5542911  68.9672671  41.4745905  67.7045264  68.9743382
  44.2291286  64.0384568  68.2813736  44.1471449  64.1086755  69.1468723
  44.8671007  64.6014312  68.0897477  44.3111124  64.1323539  68.3803686
  26.3075989  61.0023143  76.2497598  26.3936240  60.6255011  77.0311128
  26.9351786  60.6283589  75.7717556  26.4132540  60.8908625  76.2943075
  41.3331397  64.0605022  71.2922342  42.1472035  64.3519915  71.1805114
  41.2690538  63.4064885  70.7180635  41.4434136  64.0070217  71.1911180
  37.8442120  62.7528829  70.7569544  38.2287273  62.5336536  71.5086089
  37.5953740  63.5791775  70.8870620  37.8644193  62.8426976  70.8870620
  35.5642557  54.4225766  76.0878324  34.6964983  54.4948366  76.1535934
  35.8517762  55.2247845  76.2766300  35.4782305  54.5519913  76.1253091
  33.4909909  57.8984025  73.5295201  33.2034705  57.5285296  72.7927148
  34.1780378  58.3678881  73.2678906  33.5498807  57.9130995  73.3810276
  36.3263581  61.7636974  74.9762605  37.0486233  61.9278132  74.5166411
  35.8471574  62.4846638  74.8701945  36.3627312  61.8935203  74.8928219
  42.7326367  54.9986149  75.0886906  43.4352720  54.7993898  74.6106865
  42.4670556  54.2262092  75.3955750  42.7972999  54.8549115  75.0632348
  31.0638104  58.6765238  74.3780482  31.1654240  59.4791399  74.7061457
  31.8593991  58.4752574  74.0803562  31.1966010  58.7651137  74.3815837
  44.8786476  49.6366819  78.2183453  44.9970044  50.0943282  77.4850756
  44.7048652  48.8312080  77.9319671  44.8705647  49.5860591  78.0684387
  42.7707419  67.2766822  66.6338148  43.5380404  67.3366947  66.2243999
  42.3238728  66.7047264  66.1494466  42.8180846  67.2003398  66.5015858
  31.3415159  61.2958448  75.5659876  31.7214124  61.7142993  74.9020143
  30.7670523  61.8771904  75.8728719  31.3126484  61.4436307  75.5136617
  41.8464040  51.4917622  79.1602115  40.9757598  51.4656343  79.1135424
  42.1004381  51.3194814  78.3427961  41.7557600  51.4627765  79.0322252
  38.8182019  63.5485588  68.0975258  39.1074544  64.3250471  68.3718832
  38.9053818  63.0374320  68.7989757  38.8736275  63.5877507  68.2417756
  37.8528722  58.1000772  74.0117669  38.1288457  57.3819685  73.5995237
  38.4527391  58.6985692  73.8038775  37.9821987  58.0821143  73.9198431
  41.3539243  55.7714289  72.2864264  41.8082989  55.9424850  73.0112109
  41.8279288  55.1582400  71.8862040  41.4907563  55.7065175  72.3338026
  38.6952263  62.4756824  73.3909272  39.4394308  62.8631100  73.6292222
  38.8412959  61.6314249  73.5549759  38.8262848  62.4087297  73.4503241
  40.6131838  54.2707083  78.4241133  39.7667883  54.4429890  78.2982483
  40.6102971  53.4656426  78.7606961  40.4878988  54.1768112  78.4552260
  43.6113638  58.9418852  72.3528945  43.0836657  59.0247596  71.6634654
  44.0709346  59.6836723  72.3493589  43.6015489  59.0639514  72.2503640
  35.6046703  57.2121371  67.3769840  35.2559508  57.8641096  67.8401389
  35.1243149  57.1978484  66.6493711  35.4816947  57.3064425  67.3380931
  35.9770612  59.8379902  72.8895884  36.1173573  60.3352366  73.5924526
  36.4753145  59.1366196  73.0310098  36.0711693  59.8081880  73.0147463
  36.0070834  60.7047013  70.2188461  36.6415914  61.3007438  70.1537923
  36.0896445  60.4050470  71.0334331  36.1127385  60.7487921  70.3291548
  37.5849817  56.6360988  70.1933903  37.9065658  56.1564071  69.5393166
  37.8476761  57.4460634  70.0024715  37.6715843  56.6850886  70.0689395
  32.5123822  62.9014853  73.4878007  33.0216052  63.4979361  73.8689313
  32.9858095  62.6340827  72.8054427  32.6567198  62.9500669  73.4432530
  41.4203195  52.4948282  75.9647959  40.7771513  52.3445928  76.5333098
  41.0802602  52.2490627  75.1997064  41.2748272  52.4360404  75.9350975
  34.8714354  59.5371112  76.3551188  34.1526343  59.9535245  76.6224051
  35.2426716  60.1025351  75.8042826  34.8206286  59.6820393  76.3133995
  40.6460928  58.5769112  71.6924567  40.0525768  58.8986108  71.1409134
  40.6836206  57.7310207  71.4845673  40.5635318  58.4993440  71.5807338
  43.5218745  58.5348616  75.1226317  43.2932438  58.5581318  74.2804676
  43.7816821  57.7106083  75.2421328  43.5264933  58.4164696  75.0151515
  36.5763508  57.0725163  76.4180513  37.0520874  57.4342242  75.7830694
  36.0752107  57.7281630  76.6980656  36.5728866  57.2219351  76.3657254
  38.6190161  59.2166362  69.7853897  38.9989125  59.2345992  69.0005012
  37.8782757  59.6620351  69.6644744  38.5658998  59.2848137  69.6517465
  39.4174915  66.0543869  71.1762687  38.6086237  65.7310542  71.1295997
  39.9249824  65.3477091  71.1090936  39.3724582  65.9025185  71.1592981
  30.0465192  63.4816062  76.9010051  29.1810711  63.4701752  76.7892823
  30.1464008  63.2946285  77.7481191  29.9339359  63.4522123  77.0098996
  38.6109331  55.4427891  72.4681529  39.4325026  55.6126204  72.2263223
  38.1478982  55.5975152  71.7447826  38.6640494  55.4909624  72.3253173
  26.0745718   7.5040073  61.2363926  26.0439722   8.3584710  61.4082195
  26.6727067   7.2035366  61.7950069  26.1582876   7.5856570  61.3438728
  13.6586542  16.1278442  61.7554088  12.9069442  15.7493980  61.5270133
  14.1072554  16.1596876  61.0072898  13.6136209  16.0764049  61.6111590
  19.1111502  16.5503812  57.1839635  18.7762871  17.2280733  56.7483857
  19.6238373  16.1609123  56.5956507  19.1377083  16.5928390  57.0326426
  18.6515793  18.5018080  63.1250746  19.0355173  19.0704979  62.5855522
  18.5874935  17.7767591  62.6456563  18.6989221  18.4793544  62.9744609
  23.8962292  10.0792375  59.5082236  23.7801818  10.8300061  59.9374374
  24.6918179   9.8216328  59.7578323  23.9966882  10.1527222  59.6086327
  15.0772038  21.0574423  65.4231716  15.7209494  21.4987587  65.8127875
  15.4028294  20.2527850  65.3361975  15.2203867  21.0039618  65.4677194
  15.7792618  14.0686398  60.7951578  16.1008459  14.6091606  60.1912886
  16.4264714  13.4983170  60.9273868  15.9218673  14.0645573  60.7258613
  18.0182261  12.4572838  60.8665756  18.4575897  11.8489939  61.3120529
  17.8686924  12.0780212  60.0951221  18.0603727  12.3111309  60.8184924
  21.6191598  10.8100019  57.8196526  21.5342893  11.6660986  57.9646094
  22.1075981  10.5344344  58.4878685  21.6780495  10.8957341  57.9398607
  22.5510031   7.4284814  59.3194261  22.0221502   7.6444447  59.9791567
  23.0735051   8.1220952  59.2395230  22.5498484   7.5627951  59.4049860
  28.0058084  13.0031118  64.6927305  27.1755787  13.2141762  64.8560722
  27.9567336  12.1768173  64.4169589  27.8764819  12.9120724  64.6764671
  14.4409639  11.3248030  58.1201729  13.8566854  11.8298062  58.5267593
  14.0379734  11.0990417  57.3798321  14.2948943  11.3656279  58.0706754
  18.8986853   7.5713683  56.5970649  19.1382857   7.7791666  55.7845992
  19.2202694   6.7671191  56.7059594  18.9824011   7.4827784  56.4931202
  25.2622399  13.6730473  64.8292021  24.8257631  13.6767215  65.5850992
  24.9285315  14.3535972  64.3971598  25.1485019  13.7742928  64.8772853
  28.3966745  10.3911392  63.7211658  29.0583179   9.8302061  63.6207567
  27.7558157   9.8963423  64.0464349  28.3995613  10.2347801  63.7543998
  19.2843553  13.6881524  56.0292581  19.6994702  13.3566548  55.3377077
  18.4535483  13.4550426  55.9012718  19.2231562  13.6052780  55.9083429
  24.6831576  11.4076775  63.4623647  24.9187165  11.5521974  62.6350498
  24.8321140  12.1719183  63.8555161  24.7397379  11.5415829  63.3987251
  26.5122033  10.2478441  61.2993251  26.8430250  10.7806081  60.6933346
  27.0855121  10.3017329  61.9555202  26.6455712  10.3348010  61.3071032
  21.9776943   9.9392083  55.2153783  21.8957106  10.0094270  56.0808770
  22.6156664  10.5021827  55.0237523  22.0596781  10.0331054  55.3143732
  19.0817053   9.9612538  58.2262389  19.8957692  10.2527430  58.1145161
  19.0176195   9.3072400  57.6520682  19.1919792   9.9077732  58.1251227
  15.5927777   8.6536345  57.6909591  15.9772929   8.4344051  58.4426136
  15.3439397   9.4799290  57.8210667  15.6129849   8.7434491  57.8210667
  15.8751019  16.8741221  59.7641961  16.1649318  16.4830202  59.0401188
  16.6054500  17.0557926  60.2047236  16.0257904  16.8435034  59.7224768
  13.8156935  18.8508603  62.8302111  13.5957230  18.5605958  63.6228778
  13.5951457  18.1923558  62.3020023  13.7504529  18.7108311  62.8691019
  15.9824891  20.2237993  61.6132803  16.6348949  19.6914435  61.8423829
  15.2850499  19.8706645  62.0000677  15.9755609  20.0927516  61.7044971
  23.9764809  12.5442407  60.9563782  24.5422842  13.2035617  60.8722325
  23.3292712  12.8892105  61.4280185  23.9643565  12.6924348  61.0136539
  20.4471387  15.4881191  60.3800862  20.2058063  14.7549052  59.9727927
  20.6272720  16.0368048  59.7267195  20.4379011  15.4603582  60.2231085
  25.1727507  12.5948635  57.7489419  24.7934316  11.8085773  57.7418708
  24.5093752  13.1435492  57.6061063  25.0185982  12.5593459  57.7270216
  17.9974415  16.1462154  61.5878245  18.7624306  15.8771798  61.2660909
  17.8952505  15.6612164  62.3048308  18.0955911  16.0351718  61.6458073
  20.5193076  13.1774338  53.5678194  21.2866061  13.2374463  53.1584046
  20.0724385  12.6054779  53.0834513  20.5666503  13.1010913  53.4355905
  23.4187606  14.8394126  58.0841105  23.5007443  15.6461112  57.7602556
  23.9037348  14.8590085  58.8081878  23.5024764  14.9614788  58.1428003
  19.0545699   9.3888897  61.0532518  19.5961244   8.8859278  61.5171139
  19.3692258   9.3354091  60.2422004  19.1810096   9.3068318  61.0016331
  17.2232148  14.7806248  58.3372546  17.2924969  13.9220787  58.4765547
  18.0020603  14.9978129  58.0091571  17.3484998  14.6859112  58.3089704
  21.6139636  17.2043950  62.5509040  21.2219428  16.9010665  61.8331906
  21.7692708  18.0413039  62.3613994  21.5793226  17.2827786  62.4165537
  21.7779311  13.7693938  62.4915070  21.4193965  13.9408581  63.2679103
  21.2918021  14.2307144  61.9343069  21.6538008  13.8632909  62.5240339
  16.5667676   9.4493104  55.0315305  16.8560201  10.2257986  55.3058879
  16.6539475   8.9381835  55.7329804  16.6221932   9.4885022  55.1757803
  22.3829941  16.6079442  65.9839074  22.1849630  17.0970257  65.2895285
  21.7617652  16.8120684  66.5623208  22.2617506  16.7095980  65.9662297
  21.3599295   4.8426367  59.2868992  20.8322314   4.9255111  58.5974700
  21.8195003   5.5844238  59.2833636  21.3501145   4.9647029  59.1843687
  20.9136377  13.4129931  58.4178649  21.6370576  13.8788043  58.2743222
  20.4736968  13.4803540  57.6676246  20.9552070  13.4913767  58.2863430
  21.1740227  17.4750635  58.5776710  20.4569537  17.3011498  58.1123947
  21.8246965  17.2403208  58.0452196  21.1642078  17.4146428  58.4305928
  16.4553389  18.7112394  65.0066858  16.0413788  18.0486524  64.6170699
  17.1400763  18.8590253  64.4862552  16.4951761  18.6353052  64.8723355
  19.8218683  17.8702479  65.7590474  19.4234966  17.9804750  64.9911295
  19.2069903  18.0784546  66.3417034  19.6717572  17.9176047  65.7321774
  27.5560526  12.4454446  59.1433565  27.9394132  13.1945802  59.3731662
  26.7604639  12.6920266  58.8845554  27.4954308  12.5924140  59.1391138
  16.3675817   5.1173878  56.7193944  16.7474782   5.1353507  55.9345059
  15.6268413   5.5627867  56.5984791  16.3144655   5.1855652  56.5857512
  17.1660572  11.9551384  58.1102734  16.3571894  11.6318058  58.0636043
  17.6735480  11.2484606  58.0430983  17.1210238  11.8032700  58.0933028
  37.0478301  23.0225381  61.2363926  37.0172306  23.8770018  61.4082195
  37.6459650  22.7220674  61.7950069  37.1315459  23.1041878  61.3438728
  30.2477986  22.1101032  65.9916856  29.3915882  22.2709530  66.0425973
  30.2945640  21.2393096  66.0121917  30.1277098  22.0051834  66.0022922
  24.6319126  31.6463750  61.7554088  23.8802025  31.2679288  61.5270133
  25.0805138  31.6782184  61.0072898  24.5868793  31.5949357  61.6111590
  33.5571703  28.3787558  75.5977312  34.2638470  27.8839588  75.7264247
  33.7459638  28.8196639  74.8679970  33.6899608  28.3705908  75.5086358
  30.0844086  32.0689119  57.1839635  29.7495454  32.7466041  56.7483857
  30.5970956  31.6794431  56.5956507  30.1109667  32.1113698  57.0326426
  29.6248377  34.0203388  63.1250746  30.0087756  34.5890287  62.5855522
  29.5607518  33.2952898  62.6456563  29.6721804  33.9978852  62.9744609
  33.0929807  24.1693076  68.6348508  33.6385767  24.8478163  68.6942478
  33.0346684  24.0280537  67.7750089  33.1645722  24.2485078  68.5160568
  26.2103882  31.6582142  64.0216860  26.3114245  30.8482496  64.3313988
  25.6145627  31.5639089  63.3916539  26.1376421  31.5247170  63.9743099
  34.8694876  25.5977683  59.5082236  34.7534402  26.3485369  59.9374374
  35.6650763  25.3401636  59.7578323  34.9699465  25.6712530  59.6086327
  26.0504622  36.5759731  65.4231716  26.6942077  37.0172895  65.8127875
  26.3760877  35.7713157  65.3361975  26.1936450  36.5224926  65.4677194
  19.4068926  27.6802429  63.6469194  19.1719111  26.8470081  63.5401463
  19.5454567  27.9607094  62.8330395  19.3924589  27.5985932  63.5111549
  21.7059014  19.8488159  66.5453502  21.0864045  19.2580807  66.3763516
  21.6042877  20.4399595  65.9117825  21.5996689  19.8492242  66.4258491
  26.7525201  29.5871706  60.7951578  27.0741042  30.1276913  60.1912886
  27.3997298  29.0168478  60.9273868  26.8951257  29.5830881  60.7258613
  28.8026909  21.5887701  60.8785965  29.5007074  21.7675829  61.3707428
  29.1179242  21.0658040  60.2556354  28.9522247  21.5381473  60.8587975
  21.4328147  23.3940441  68.7897071  21.3086844  23.9802887  69.4246890
  22.0846431  22.9000637  69.0909346  21.5101796  23.4079245  68.9283000
  28.9914845  27.9758146  60.8665756  29.4308480  27.3675247  61.3120529
  28.8419508  27.5965519  60.0951221  29.0336311  27.8296617  60.8184924
  26.4586488  26.5702158  68.0684582  27.1035490  26.0774601  67.7495530
  26.6988265  26.7126945  68.8950660  26.5897073  26.5179600  68.1434115
  28.9972579  29.4157064  67.7191474  29.2795822  28.6208470  67.4978230
  29.7258740  29.8937651  67.7396535  29.1462143  29.3691661  67.6894489
  26.9753773  16.9580098  64.9607239  26.6457103  17.4091241  64.2910938
  26.2998775  16.8796261  65.5080246  26.8264209  17.0131233  64.9430463
  32.5924181  26.3285327  57.8196526  32.5075476  27.1846294  57.9646094
  33.0808565  26.0529651  58.4878685  32.6513079  26.4142649  57.9398607
  34.1830181  12.9465621  63.2056850  33.8683622  13.6369099  63.6377272
  33.6657122  12.8910403  62.5042351  34.0594651  13.0400509  63.1653799
  33.5242615  22.9470122  59.3194261  32.9954086  23.1629755  59.9791567
  34.0467635  23.6406260  59.2395230  33.5231068  23.0813258  59.4049860
  38.9790668  28.5216426  64.6927305  38.1488371  28.7327070  64.8560722
  38.9299920  27.6953481  64.4169589  38.8497403  28.4306032  64.6764671
  25.4142222  26.8433338  58.1201729  24.8299438  27.3483370  58.5267593
  25.0112318  26.6175725  57.3798321  25.2681526  26.8841587  58.0706754
  20.9686251  32.5588099  64.9225400  20.4853829  33.2838589  64.8984984
  21.7809569  32.8564230  65.0335558  21.0176999  32.7090453  64.9352679
  27.0400405  31.3520280  67.5275215  26.5227347  30.9927695  66.9236523
  27.7374796  30.8282455  67.5381281  27.0665986  31.2217968  67.4405473
  30.6963997  31.8015094  73.4891388  30.7847343  31.6141235  74.3369598
  31.1253710  31.1552524  73.0896234  30.7726099  31.6778102  73.5563139
  28.2634457  31.0846254  72.4709050  27.7005292  30.6718864  72.9948711
  29.0255480  31.0099160  72.8902193  28.2928905  31.0123655  72.6102050
  29.8719437  23.0898990  56.5970649  30.1115441  23.2976974  55.7845992
  30.1935278  22.2856499  56.7059594  29.9556595  23.0013092  56.4931202
  25.1809727  15.0192386  60.4430187  25.9355695  15.3870703  60.2047237
  25.0037262  15.3931941  61.2109367  25.2664205  15.1290574  60.5215076
  23.8230448  33.0744275  65.0745680  24.5251028  32.5596264  65.1318437
  23.7427931  33.4018427  65.8792555  23.9154209  33.0458502  65.2018472
  38.4744626  21.1686827  68.4877726  37.6373047  21.2389014  68.7225321
  38.4432857  21.1711322  67.6152029  38.3462908  21.1797054  68.3937274
  23.5366792  17.4262705  57.1408300  23.3542365  17.6434586  56.3149293
  24.3992405  17.5401718  57.1966915  23.6371381  17.4752603  57.0262787
  23.1481224  29.2650627  64.5831288  23.9870123  29.4973560  64.6305050
  23.1792993  28.3954939  64.5138323  23.2762941  29.1707574  64.5795933
  23.7733927  29.6851503  68.8844594  24.3132152  29.5422634  69.5547966
  23.0903873  30.0848253  69.2528620  23.7526081  29.7231174  69.0379015
  29.2166511  14.4289116  60.1757324  29.9452671  14.2505071  59.7295480
  29.3061404  15.2707196  60.3864502  29.3373173  14.5272994  60.1410842
  33.1974812  25.3642503  64.0789618  33.9532327  25.7974018  64.1178527
  33.3037136  24.7147273  64.6524254  33.3244982  25.3319987  64.1687644
  36.2354983  29.1915780  64.8292021  35.7990215  29.1952523  65.5850992
  35.9017898  29.8721279  64.3971598  36.1217603  29.2928236  64.8772853
  30.8084056  31.2324113  76.1535171  31.5924473  31.3454961  76.5190913
  30.6080651  30.4065250  76.3493857  30.8950082  31.1270833  76.2369557
  19.1771072  25.9051793  69.0379015  18.9109487  25.0890910  69.1970005
  19.1909636  25.9504949  68.1674531  19.1395794  25.7908698  68.9332497
  36.1552466  16.2329608  67.0721449  36.7978374  16.3027713  67.6583364
  36.4075486  15.5658831  66.5700991  36.2874598  16.1455957  67.0848728
  23.0828819  20.7036878  55.6530773  22.3686996  20.4175057  56.0653206
  23.5672787  21.0433504  56.2937161  23.0488182  20.7118527  55.8086408
  30.9654450  33.1434215  69.8001627  30.1669695  32.9033715  70.0575495
  31.4140461  33.1948608  70.5468674  30.9129061  33.1156607  69.9486551
  39.3699329  25.9096700  63.7211658  40.0315763  25.3487369  63.6207567
  38.7290741  25.4148731  64.0464349  39.3728196  25.7533109  63.7543998
  30.2576137  29.2066832  56.0292581  30.6727285  28.8751856  55.3377077
  29.4268066  28.9735734  55.9012718  30.1964145  29.1238088  55.9083429
  19.5864485  26.6910573  66.3190759  19.4040059  26.6657459  65.4663052
  20.3214154  27.1609511  66.3579668  19.6678549  26.7571935  66.1988678
  35.6564160  26.9262083  63.4623647  35.8919749  27.0707282  62.6350498
  35.8053723  27.6904491  63.8555161  35.7129963  27.0601137  63.3987251
  37.4854616  25.7663749  61.2993251  37.8162833  26.2991389  60.6933346
  38.0587704  25.8202636  61.9555202  37.6188296  25.8533318  61.3071032
  32.6986505  23.6128651  61.9816831  32.7933360  24.3517945  62.4356456
  32.0745349  23.1846127  62.4151395  32.6195536  23.6589972  62.1124978
  30.9538979  26.7914864  72.6307112  31.5277841  26.1542108  72.7855676
  30.8753783  26.7918946  71.7616769  31.0272214  26.6979975  72.5253523
  19.5535396  23.5704073  66.4689826  20.1308898  23.4340524  67.1082071
  18.8549458  23.1139858  66.7235410  19.5356417  23.4826340  66.6012116
  32.9509527  25.4577391  55.2153783  32.8689689  25.5279578  56.0808770
  33.5889247  26.0207135  55.0237523  33.0329364  25.5516362  55.3143732
  26.3102698  25.2238129  64.6828309  26.0521942  24.3909864  64.6559609
  26.3651181  25.4495742  63.8420810  26.2802476  25.1335900  64.5548446
  31.3903748  17.3266580  64.7832402  30.6860075  16.8375765  64.9416321
  31.4388722  17.3389054  63.9120846  31.2933800  17.2556228  64.6771742
  25.2837410  22.7775892  65.1693204  24.7087001  22.9368060  65.8057165
  24.9073086  22.1411301  64.7061654  25.1440222  22.7073705  65.1947762
  28.9510699  21.2499241  70.0285582  28.5625132  20.8253459  69.3737774
  28.2865397  21.4981391  70.5362609  28.7957627  21.2237962  70.0073450
  38.5933968  21.0074246  62.8033412  38.3370533  20.1954187  62.6131295
  39.4363282  21.0151813  62.5763600  38.6799993  20.8886243  62.7418229
  15.0294229  22.4215966  63.1837645  15.1154481  22.0447835  63.9651174
  15.6570026  22.0476412  62.7057603  15.1350780  22.3101449  63.2283122
  32.7737060  14.9473870  67.5409567  33.1547572  14.2652041  67.9277441
  31.9700345  14.6583472  67.3585231  32.7113522  14.8040918  67.5713622
  30.0549637  25.4797845  58.2262389  30.8690276  25.7712738  58.1145161
  29.9908778  24.8257708  57.6520682  30.1652376  25.4263040  58.1251227
  36.2759127  28.1623842  72.6391965  36.0397765  27.3311906  72.5204026
  36.9202356  28.1109449  73.2246809  36.3353798  28.0321530  72.7077859
  25.9257545  28.9519363  63.3534701  26.5631492  28.7131110  63.8986495
  26.3512617  29.1556522  62.6187862  26.0833712  28.9470373  63.3251859
  20.6170188  31.1907699  67.2369005  20.6574333  31.4622551  66.4088785
  21.1764712  31.7149608  67.6526793  20.7053534  31.3083454  67.1760893
  26.5660360  24.1721653  57.6909591  26.9505513  23.9529359  58.4426136
  26.3171981  24.9984598  57.8210667  26.5862433  24.2619799  57.8210667
  37.2995548  27.9468290  68.7020259  36.9941365  28.6796347  69.0633575
  36.5801763  27.5406220  68.4213046  37.1482890  27.9950023  68.7133397
  28.3079017  29.4291786  65.0328488  28.3818026  29.2666957  65.8870338
  29.1248524  29.6181975  64.7888969  28.4395376  29.4328528  65.1226513
  42.9997340  24.5861291  68.0288604  42.9321840  24.6057250  67.1591190
  42.9853002  25.4291618  68.2544274  42.9876096  24.7135026  67.9341081
  22.0684774  29.7749648  62.0622931  21.2422892  30.0211386  61.9357210
  22.1296765  29.6961729  62.9284989  21.9558941  29.7994597  62.1711876
  24.2860798  15.8418589  63.0218371  23.4183223  15.9141189  63.0875981
  24.5736002  16.6440668  63.2106346  24.2000546  15.9712736  63.0593138
  26.8483603  32.3926529  59.7641961  27.1381901  32.0015510  59.0401188
  27.5787084  32.5743234  60.2047236  26.9990487  32.3620342  59.7224768
  40.7855957  23.3605677  66.3035198  41.3363879  22.7273746  66.5432290
  40.7700073  23.8921070  66.9950702  40.8641154  23.3454625  66.4414056
  27.4378348  27.1944275  70.8495092  26.9390042  27.9060042  70.9279980
  28.2478572  27.5144941  70.8113254  27.4834455  27.3471123  70.8551660
  24.7889519  34.3693911  62.8302111  24.5689814  34.0791266  63.6228778
  24.5684041  33.7108866  62.3020023  24.7237113  34.2293619  62.8691019
  23.7006466  26.4567228  65.0957812  23.4119714  25.8304699  65.6303540
  24.5689814  26.3987515  65.1622493  23.7866718  26.3554772  65.1848767
  34.4884364  21.6002011  65.4139794  34.1449129  20.8792346  65.7647044
  34.5877406  21.3915862  64.5718153  34.4526406  21.4626214  65.3411474
  26.9557474  35.7423301  61.6132803  27.6081532  35.2099743  61.8423829
  26.2583083  35.3891953  62.0000677  26.9488192  35.6112824  61.7044971
  23.9038739  28.0962479  61.0200177  24.6584707  28.4775518  61.2335640
  23.3109352  28.5473622  61.4746874  23.9275453  28.2191306  61.1183056
  34.9497393  28.0627715  60.9563782  35.5155425  28.7220925  60.8722325
  34.3025296  28.4077413  61.4280185  34.9376149  28.2109656  61.0136539
  25.2236966  29.2671040  66.3940293  24.7017719  29.4071332  67.0792158
  25.6110986  28.5081704  66.5842410  25.2040667  29.1756564  66.5241369
  22.2128150  19.3176849  60.4635248  21.9252945  18.9478119  59.7267195
  22.8998618  19.7871704  60.2018952  22.2717047  19.3323818  60.3150323
  31.4203971  31.0066499  60.3800862  31.1790647  30.2734360  59.9727927
  31.6005304  31.5553356  59.7267195  31.4111595  30.9788890  60.2231085
  26.6503291  26.2975059  61.7921784  26.4546074  26.9049793  61.1982087
  26.8737637  25.6043003  61.3113458  26.6537932  26.2852584  61.6337865
  25.0481821  23.1829797  61.9102652  25.7704473  23.3470955  61.4506458
  24.5689814  23.9039462  61.8041992  25.0845552  23.3128026  61.8268266
  33.0075329  19.5193596  67.2899337  32.1686430  19.5454875  67.0537600
  33.0779696  20.1664331  67.8704684  32.8943722  19.6189722  67.3408454
  22.6989438  25.5887869  71.0156792  23.2110535  25.8672123  70.3665552
  22.4125781  26.3277163  71.3819605  22.7324301  25.7390223  70.9746670
  31.4544607  16.4178973  62.0226953  32.1570960  16.2186721  61.5446911
  31.1888796  15.6454915  62.3295797  31.5191239  16.2741939  61.9972395
  36.8832853  24.7261582  64.5760579  36.7966827  24.8817008  65.4295358
  36.4283333  25.3699658  64.2019984  36.8036109  24.8437338  64.6467686
  19.7856344  20.0958061  61.3120529  19.8872481  20.8984223  61.6401504
  20.5812231  19.8945397  61.0143609  19.9184250  20.1843960  61.3155884
  30.7558669  22.0472330  63.1986138  30.5093383  21.9668080  64.0322927
  31.0843792  21.2625797  63.0048666  30.7679912  21.9198595  63.2933662
  34.6506718  28.7555689  66.9872920  34.5121077  29.4536735  67.4921662
  33.8706716  28.6004345  66.6309101  34.5149944  28.8355856  67.0099194
  32.9884803  25.0552064  73.2395301  32.9832841  24.1831881  73.2437728
  33.6945797  25.2540233  72.7664757  33.0929807  24.9555938  73.1702337
  26.7155696  24.7829048  72.6109122  26.8599072  25.3630256  71.9752232
  27.0631345  25.1605345  73.3158976  26.7883157  24.9249752  72.6208116
  28.8875613  23.9819217  70.3934253  28.1398927  24.1750231  69.9882531
  29.0417139  23.1564436  70.1558374  28.7998041  23.8884328  70.2979659
  25.7883451  32.9731820  69.4770148  25.9373015  32.4134736  68.8243553
  26.5683453  33.0523822  69.8602667  25.9257545  32.9017385  69.4367098
  36.1460090  28.1133943  57.7489419  35.7666899  27.3271081  57.7418708
  35.4826336  28.6620800  57.6061063  35.9918565  28.0778767  57.7270216
  28.3136752  33.1446463  70.7554639  28.2380423  32.4755273  71.3105427
  28.2426611  33.8464251  71.2695305  28.2917359  33.1491370  70.9131487
  33.6004716  11.0559642  65.1523500  33.7188285  11.5136106  64.4190802
  33.4266892  10.2504904  64.8659717  33.5923887  11.0053415  65.0024433
  28.9706999  31.6647462  61.5878245  29.7356890  31.3957105  61.2660909
  28.8685089  31.1797472  62.3048308  29.0688494  31.5537026  61.6458073
  27.0059768  19.8671871  68.1271481  26.2155843  19.6863331  68.4488817
  27.4020391  19.0898824  68.1101775  26.9476645  19.7259332  68.1724029
  31.4925659  28.6959645  53.5678194  32.2598644  28.7559770  53.1584046
  31.0456968  28.1240087  53.0834513  31.5399086  28.6196221  53.4355905
  32.3903455  27.5014301  65.8530927  31.7148456  27.2699534  66.3544314
  32.3995831  26.8935484  65.2273032  32.2921959  27.3773227  65.8347079
  29.5197599  22.3432130  72.6094980  29.4556740  23.2042087  72.4815116
  29.6594786  22.0264123  71.8090531  29.5313069  22.4232297  72.4723193
  34.3920189  30.3579434  58.0841105  34.4740027  31.1646420  57.7602556
  34.8769931  30.3775393  58.8081878  34.4757347  30.4800096  58.1428003
  28.2016693  25.0364270  66.7511183  27.7778942  25.2368769  66.0150201
  28.0261548  24.1893118  66.8635483  28.1127573  24.9413051  66.6584873
  27.7028386  36.5514783  69.2132640  28.1924316  35.8525572  69.0308305
  27.1312618  36.2538653  69.8008697  27.6912916  36.4041006  69.2733681
  23.4899138  25.5316321  62.1839155  23.6463757  25.4663124  63.0395147
  23.8299731  26.3064874  61.9717835  23.5632372  25.6365519  62.2793749
  30.0278282  24.9074205  61.0532518  30.5693828  24.4044586  61.5171139
  30.3424841  24.8539399  60.2422004  30.1542679  24.8253626  61.0016331
  33.8995390  29.1176852  78.1659431  34.7130255  28.8462001  78.3264563
  33.7390356  28.8184392  77.3619627  33.9965338  29.0331778  78.0704837
  28.1964732  30.2991556  58.3372546  28.2657552  29.4406095  58.4765547
  28.9753187  30.5163437  58.0091571  28.3217582  30.2044420  58.3089704
  31.1767552  19.8010509  71.1054819  31.3909521  19.1621423  70.5518173
  30.5601451  20.2456333  70.6762681  31.1172881  19.7720653  70.9605250
  32.5872219  32.7229257  62.5509040  32.1952011  32.4195973  61.8331906
  32.7425292  33.5598347  62.3613994  32.5525809  32.8013094  62.4165537
  20.0633399  22.7151272  62.4999922  20.4432364  23.1335816  61.8360190
  19.4888764  23.2964727  62.8068766  20.0344724  22.8629130  62.4476663
  33.3406640  21.4099574  72.0438126  32.5283321  21.1025465  72.1251299
  33.7996574  20.9298574  72.6080838  33.2887024  21.2936067  72.1392720
  32.7511894  29.2879246  62.4915070  32.3926549  29.4593889  63.2679103
  32.2650605  29.7492452  61.9343069  32.6270591  29.3818217  62.5240339
  30.5682280  12.9110445  66.0942162  29.6975838  12.8849166  66.0475471
  30.8222621  12.7387637  65.2768007  30.4775840  12.8820589  65.9662298
  27.5400260  24.9678412  55.0315305  27.8292784  25.7443294  55.3058879
  27.6272058  24.4567143  55.7329804  27.5954516  25.0070330  55.1757803
  33.9116634  30.1783142  73.4382271  34.5496354  29.6843338  73.1044727
  33.2690725  30.1060543  72.8534498  33.9110860  30.0942151  73.3024626
  35.6373634  22.0272288  68.0048187  35.2101242  21.9398637  67.2496286
  34.9999687  22.1350064  68.5903031  35.4803241  22.0304948  67.9793628
  33.9670890  30.8702951  70.0787628  34.7563268  30.5192015  70.1989710
  34.1414488  31.6839339  69.8164262  34.1091172  30.9388808  70.0575496
  23.7064201  24.2811676  67.1315417  22.8652207  24.1815550  67.3394311
  23.9154209  25.0507157  67.4829737  23.6128893  24.3803720  67.2142732
  21.1839768  21.9031213  64.9600167  20.7896465  21.9774225  64.1850277
  20.6279884  22.2889160  65.5108529  21.0442580  21.9712988  64.9267827
  32.8204714  14.8812507  64.6404046  33.0254308  14.8134815  65.4861044
  32.4931138  15.6871328  64.5725224  32.8019962  14.9898448  64.7563702
  27.5180865  22.2093075  66.3813014  27.2144003  21.6549064  66.9823422
  26.8160286  22.3885285  65.8941049  27.3697075  22.1537858  66.3982720
  26.5746963  19.5193595  60.9457716  26.8506697  18.8012508  60.5335284
  27.1745632  20.1178515  60.7378822  26.7040227  19.5013966  60.8538477
  25.5799216  29.4242796  71.0885112  25.4719571  29.4344858  71.9547170
  25.7894998  30.2497577  70.8990066  25.5949328  29.5483871  71.1889204
  36.0738402  15.4344272  64.1206812  35.4612716  15.9214674  64.5060544
  36.1702577  14.7587762  64.6644463  35.9976300  15.4062580  64.2585670
  30.0757483  17.1907113  59.2204311  30.5301230  17.3617673  59.9452156
  30.5497529  16.5775223  58.8202087  30.2125803  17.1257998  59.2678073
  23.5973008  26.6755439  68.5507050  23.0060942  27.3164937  68.5210065
  24.3594032  27.0993056  68.5238349  23.6221269  26.8331277  68.5422197
  39.7163430  26.5061208  69.5484328  39.7746554  26.9547857  70.2944304
  39.0829898  26.9160021  69.1114408  39.6314725  26.6334943  69.5936876
  33.3562525  32.1264750  65.9839074  33.1582213  32.6155565  65.2895285
  32.7350236  32.3305992  66.5623208  33.2350089  32.2281288  65.9662297
  27.4170503  23.8949647  60.3249318  28.1612548  24.2823923  60.5632268
  27.5631199  23.0507072  60.4889806  27.5481088  23.8280120  60.3843288
  29.3350078  15.6899906  65.3581180  28.4886124  15.8622714  65.2322530
  29.3321211  14.8849250  65.6947008  29.2097228  15.5960935  65.3892307
  30.4048379  19.4675120  66.2243238  29.9308333  18.9416882  66.7348549
  30.7766515  18.9204593  65.6558099  30.3898268  19.3091117  66.2158385
  36.6685109  24.5277496  67.6350018  36.4283332  23.6883911  67.6392445
  37.1477117  24.6077663  68.3590792  36.7037293  24.4158896  67.7424821
  38.6690296  21.3078953  65.5879277  38.4300066  21.2674787  64.7500062
  38.8324198  22.1550105  65.7144998  38.6580600  21.4271038  65.4832759
  35.2736327  25.6928902  71.5184323  35.9970525  25.2401429  71.3395342
  35.0086289  25.9733568  70.7356650  35.3417600  25.6679871  71.3763038
  24.1423195  20.2889076  68.2537202  23.5176265  20.3007468  67.6463154
  23.8068790  20.7649251  68.9028442  24.0008687  20.3607593  68.2593770
  24.3264944  18.6314194  54.3109887  23.9777748  19.2833920  54.7741436
  23.8461390  18.6171308  53.5833758  24.2035188  18.7257248  54.2720978
  20.8548871  28.3489536  69.6940966  20.3248795  27.6581975  69.7435941
  21.1273964  28.3399721  68.8653675  20.8173593  28.2456668  69.5788382
  31.8868961  28.9315238  58.4178649  32.6103160  29.3973351  58.2743222
  31.4469552  28.9988848  57.6676246  31.9284653  29.0099075  58.2863430
  31.0555116  25.7912781  69.6679338  30.4412109  25.2470831  69.9627973
  31.5722401  25.2777017  69.1885154  31.0410779  25.6349190  69.6403566
  30.2951413  26.8617051  67.4023636  29.8679021  26.2366769  66.9689072
  30.2876358  26.5791973  68.2282643  30.2310554  26.7269831  67.4603464
  28.6237123  17.7385805  67.6166170  28.6479610  17.2045918  66.9278950
  28.8748597  17.2303114  68.2791761  28.6647042  17.5846709  67.6130815
  16.1344713  25.0217300  67.0509314  16.0288162  24.9764145  66.1861398
  15.3844933  25.3671081  67.3323599  16.0080316  25.0658208  66.9646644
  24.9038445  16.4656624  66.9971915  24.9436817  16.9665830  67.7106622
  24.0788110  16.5567017  66.7277838  24.7877971  16.5538440  67.0622453
  26.3252809  22.9817133  69.2945814  25.4944738  23.1490951  69.0881062
  26.2704326  22.6053084  70.0794699  26.1942223  22.9506865  69.3794342
  24.6988852  21.2572725  59.8235931  24.8391813  21.7545189  60.5264573
  25.1971385  20.5559019  59.9650145  24.7929933  21.2274704  59.9487510
  24.7289075  22.1239836  57.1528508  25.3634154  22.7200261  57.0877970
  24.8114686  21.8243294  57.9674378  24.8345626  22.1680744  57.2631595
  37.7071641  24.6555313  70.0214872  38.2989481  25.2952564  70.0533070
  38.1430635  23.9578350  70.3106939  37.8590072  24.6473664  70.0695705
  26.3068058  18.0553811  57.1273950  26.6283899  17.5756894  56.4733212
  26.5695001  18.8653457  56.9364762  26.3934083  18.1043709  57.0029442
  29.5365030  29.0772686  70.6472766  29.0290122  29.6308533  71.0913397
  29.2391677  29.1380976  69.8291541  29.4169915  29.1678997  70.5921223
  31.7027213  17.4426005  69.4897429  32.1282284  16.9898532  68.8780956
  31.0884206  16.8886076  69.7662217  31.6755858  17.2939981  69.4402454
  21.2342063  24.3207677  60.4218054  21.7434292  24.9172184  60.8029360
  21.7076335  24.0533650  59.7394474  21.3785438  24.3693492  60.3772577
  32.1472811  32.9935943  58.5776710  31.4302120  32.8196806  58.1123947
  32.7979548  32.7588516  58.0452196  32.1374661  32.9331736  58.4305928
  30.1421435  13.9141105  62.8988006  29.4989753  13.7638751  63.4673145
  29.8020842  13.6683450  62.1337111  29.9966513  13.8553228  62.8691021
  34.7320782  21.8700532  62.3218015  34.0611972  22.4130234  62.1931080
  35.4260532  22.3395387  62.0799710  34.7349649  22.0198803  62.2673543
  28.7807516  34.0097244  67.5529773  28.5573170  33.2516073  67.9213799
  28.2917359  34.0395265  66.8310213  28.6750965  33.9019468  67.5006514
  34.8948909  18.3256416  65.2308388  35.2476520  17.8986138  65.9054187
  34.0363711  18.2407259  65.3609464  34.8198354  18.2501156  65.3503398
  23.5932594  20.9563935  63.2891235  22.8744584  21.3728068  63.5564098
  23.9644957  21.5218174  62.7382873  23.5424526  21.1013217  63.2474042
  32.8932175  21.5891784  69.1793230  32.8730103  21.4075079  70.0328009
  32.9411376  22.4603803  69.1552814  32.8966816  21.6908322  69.3016525
  30.8378505  28.1778976  75.1041707  30.7974360  27.5328653  74.5186863
  31.6501823  28.1215593  75.4167119  30.9521659  28.0737943  75.0638656
  27.4285973  34.2297702  65.0066858  27.0146371  33.5671832  64.6170699
  28.1133347  34.3775561  64.4862552  27.4684344  34.1538360  64.8723355
  30.7951267  33.3887787  65.7590474  30.3967550  33.4990058  64.9911295
  30.1802486  33.5969854  66.3417034  30.6450156  33.4361355  65.7321774
  29.3679169  19.9961935  58.6264614  28.7744008  20.3178932  58.0749181
  29.4054446  19.1503031  58.4185720  29.2853558  19.9186263  58.5147385
  36.3272970  13.4474827  66.1592700  35.8203834  12.7403967  66.0913878
  37.1240403  13.1168016  66.2893777  36.3700209  13.2947979  66.1691695
  32.2436985  19.9541440  62.0566364  32.0150678  19.9774141  61.2144722
  32.5035062  19.1298907  62.1761375  32.2483173  19.8357520  61.9491562
  25.2981748  18.4917986  63.3520560  25.7739114  18.8535066  62.7170741
  24.7970348  19.1474453  63.6320703  25.2947107  18.6412175  63.2997301
  38.5293109  27.9639754  59.1433565  38.9126715  28.7131110  59.3731662
  37.7337223  28.2105574  58.8845554  38.4686892  28.1109448  59.1391138
  27.3408401  20.6359186  56.7193944  27.7207366  20.6538815  55.9345059
  26.6000997  21.0813175  56.5984791  27.2877239  20.7040960  56.5857512
  34.9693692  18.9441377  62.3069523  34.9687918  18.7890033  63.1653799
  34.7649872  19.7904364  62.2510908  34.9393469  19.0461998  62.4257462
  17.0310962  22.3681161  66.7228339  16.8532724  21.9157770  67.4483255
  16.7429985  23.1707323  66.9066817  16.9623916  22.4203719  66.8571842
  32.6934544  23.6238879  65.9605729  33.1888209  22.9061874  65.9209750
  31.8834319  23.3209676  65.8460216  32.6478437  23.4736525  65.9379455
  28.1393155  27.4736692  58.1102734  27.3304478  27.1503366  58.0636043
  28.6468064  26.7669914  58.0430983  28.0942822  27.3218008  58.0933028
  18.7683432  24.9008885  63.8350098  17.9028952  24.8894576  63.7232869
  18.8682248  24.7139108  64.6821237  18.6557599  24.8714946  63.9439043
  34.7586362  26.3742566  68.6482858  35.1841434  25.8516988  68.0953283
  34.3943282  26.9723404  68.1271481  34.7672965  26.3852793  68.4891868
  24.3940442  34.6706784  67.4080204  24.7087001  35.4843172  67.4157985
  24.8033856  34.2857002  68.0762363  24.5008540  34.7335486  67.5084295
  31.3464962  30.0876830  64.9784016  31.8176140  30.8017093  65.1474001
  31.6825140  29.4875581  65.5143885  31.4660077  30.1048295  65.0816392
  33.4341946  31.6978144  77.1576088  33.5438912  30.9086704  77.5132835
  33.7632843  31.6084080  76.3550426  33.4994352  31.5683997  77.0918478
  31.9838908  29.8794765  71.7411708  31.4359854  29.2552648  71.4731774
  32.4451937  30.0689037  71.0255788  31.9706118  29.8153815  71.5962139
  34.7932773  17.9480119  69.1262901  34.2095761  18.4489326  68.7140468
  35.1137067  17.4409675  68.4927224  34.7545948  17.9471954  68.9721408
  27.3327572  16.8620714  59.4021575  28.1543266  17.0319027  59.1603270
  26.8697223  17.0167975  58.6787873  27.3858734  16.9102447  59.2593220
  21.7353462  28.6179892  67.0558812  22.3398320  28.5775726  66.4272633
  21.5280775  29.4651044  67.0862868  21.7942360  28.7367895  66.9674929
  31.5497235  30.8845837  68.2721049  32.3695608  30.7408803  68.5337345
  31.2691312  31.5092036  68.8137487  31.6293978  30.9556189  68.3908989
  16.9704745  27.6014510  66.9257735  16.8729023  26.7910781  67.2347792
  17.7533614  27.5806303  66.5404003  17.0720881  27.4781600  66.9144598
  41.2210570  37.6286340  65.9916856  40.3648465  37.7894838  66.0425973
  41.2678223  36.7578404  66.0121917  41.1009681  37.5237142  66.0022922
  44.0662391  39.6878384  68.6348508  44.6118351  40.3663471  68.6942478
  44.0079267  39.5465845  67.7750089  44.1378305  39.7670386  68.5160568
  37.1836466  47.1767450  64.0216860  37.2846829  46.3667804  64.3313988
  36.5878211  47.0824396  63.3916539  37.1109004  47.0432478  63.9743099
  37.0237205  52.0945039  65.4231716  37.6674661  52.5358203  65.8127875
  37.3493461  51.2898465  65.3361975  37.1669034  52.0410234  65.4677194
  30.3801510  43.1987737  63.6469194  30.1451694  42.3655389  63.5401463
  30.5187151  43.4792402  62.8330395  30.3657172  43.1171240  63.5111549
  32.6791597  35.3673467  66.5453502  32.0596629  34.7766114  66.3763516
  32.5775461  35.9584902  65.9117825  32.5729273  35.3677550  66.4258491
  39.7759493  37.1073009  60.8785965  40.4739658  37.2861137  61.3707428
  40.0911826  36.5843348  60.2556354  39.9254830  37.0566781  60.8587975
  32.4060730  38.9125749  68.7897071  32.2819427  39.4988194  69.4246890
  33.0579015  38.4185945  69.0909346  32.4834380  38.9264553  68.9283000
  37.4319071  42.0887466  68.0684582  38.0768074  41.5959909  67.7495530
  37.6720848  42.2312252  68.8950660  37.5629657  42.0364908  68.1434115
  39.9705163  44.9342372  67.7191474  40.2528406  44.1393777  67.4978230
  40.6991323  45.4122959  67.7396535  40.1194726  44.8876969  67.6894489
  37.9486357  32.4765406  64.9607239  37.6189687  32.9276549  64.2910938
  37.2731358  32.3981569  65.5080246  37.7996793  32.5316541  64.9430463
  45.1562764  28.4650929  63.2056850  44.8416205  29.1554407  63.6377272
  44.6389706  28.4095711  62.5042351  45.0327235  28.5585817  63.1653799
  36.3874806  42.3618646  58.1201729  35.8032021  42.8668678  58.5267593
  35.9844901  42.1361033  57.3798321  36.2414110  42.4026895  58.0706754
  31.9418835  48.0773407  64.9225400  31.4586413  48.8023897  64.8984984
  32.7542153  48.3749537  65.0335558  31.9909582  48.2275761  64.9352679
  38.0132989  46.8705588  67.5275215  37.4959930  46.5113003  66.9236523
  38.7107380  46.3467763  67.5381281  38.0398570  46.7403276  67.4405473
  41.6696581  47.3200402  73.4891388  41.7579926  47.1326543  74.3369598
  42.0986293  46.6737832  73.0896234  41.7458683  47.1963410  73.5563139
  39.2367040  46.6031562  72.4709050  38.6737875  46.1904172  72.9948711
  39.9988064  46.5284468  72.8902193  39.2661489  46.5308963  72.6102050
  36.1542311  30.5377694  60.4430187  36.9088279  30.9056011  60.2047237
  35.9769845  30.9117248  61.2109367  36.2396789  30.6475882  60.5215076
  34.7963032  48.5929583  65.0745680  35.4983611  48.0781572  65.1318437
  34.7160515  48.9203735  65.8792555  34.8886792  48.5643810  65.2018472
  49.4477209  36.6872135  68.4877726  48.6105630  36.7574322  68.7225321
  49.4165440  36.6896629  67.6152029  49.3195492  36.6982362  68.3937274
  35.8441938  38.8305170  74.2026095  36.0162442  38.7211065  75.0511377
  36.3811296  39.4759576  73.9657287  35.9486942  38.9097172  74.2931192
  34.5099375  32.9448013  57.1408300  34.3274949  33.1619894  56.3149293
  35.3724988  33.0587026  57.1966915  34.6103965  32.9937911  57.0262787
  34.1213807  44.7835935  64.5831288  34.9602707  45.0158868  64.6305050
  34.1525576  43.9140247  64.5138323  34.2495525  44.6892882  64.5795933
  34.7466510  45.2036811  68.8844594  35.2864735  45.0607942  69.5547966
  34.0636457  45.6033561  69.2528620  34.7258664  45.2416481  69.0379015
  40.1899095  29.9474424  60.1757324  40.9185255  29.7690379  59.7295480
  40.2793987  30.7892504  60.3864502  40.3105757  30.0458302  60.1410842
  44.1707395  40.8827811  64.0789618  44.9264910  41.3159325  64.1178527
  44.2769720  40.2332581  64.6524254  44.2977566  40.8505295  64.1687644
  47.2087566  44.7101088  64.8292021  46.7722798  44.7137831  65.5850992
  46.8750482  45.3906587  64.3971598  47.0950186  44.8113544  64.8772853
  41.7816640  46.7509421  76.1535171  42.5657057  46.8640269  76.5190913
  41.5813234  45.9250558  76.3493857  41.8682665  46.6456141  76.2369557
  30.1503655  41.4237101  69.0379015  29.8842071  40.6076218  69.1970005
  30.1642220  41.4690257  68.1674531  30.1128378  41.3094006  68.9332497
  47.1285049  31.7514916  67.0721449  47.7710958  31.8213021  67.6583364
  47.3808070  31.0844139  66.5700991  47.2607181  31.6641265  67.0848728
  34.9002262  34.9615480  71.6846023  34.2074059  34.4912459  71.9306754
  35.5162589  34.7353784  72.2587730  34.8886792  34.8582611  71.8055175
  41.9387033  48.6619523  69.8001627  41.1402279  48.4219023  70.0575495
  42.3873045  48.7133916  70.5468674  41.8861644  48.6341914  69.9486551
  30.5597069  42.2095881  66.3190759  30.3772642  42.1842767  65.4663052
  31.2946738  42.6794819  66.3579668  30.6411133  42.2757243  66.1988678
  46.6296743  42.4447391  63.4623647  46.8652332  42.5892590  62.6350498
  46.7786307  43.2089799  63.8555161  46.6862546  42.5786445  63.3987251
  33.6242821  38.9280884  72.8272868  34.3482793  38.9133914  73.3137763
  33.7258957  39.6376239  72.3294836  33.7461030  39.0305587  72.8251655
  40.9987770  42.4079968  77.6921815  40.2060751  42.7223480  77.8774435
  41.1136697  42.6231437  76.8542600  40.8983181  42.4863805  77.5960150
  41.9271563  42.3100172  72.6307112  42.5010425  41.6727416  72.7855676
  41.8486367  42.3104254  71.7616769  42.0004798  42.2165283  72.5253523
  30.5267979  39.0889381  66.4689826  31.1041482  38.9525832  67.1082071
  29.8282041  38.6325166  66.7235410  30.5089001  39.0011648  66.6012116
  37.2835282  40.7423437  64.6828309  37.0254526  39.9095172  64.6559609
  37.3383764  40.9681050  63.8420810  37.2535059  40.6521208  64.5548446
  42.3636332  32.8451888  64.7832402  41.6592658  32.3561073  64.9416321
  42.4121306  32.8574362  63.9120846  42.2666383  32.7741536  64.6771742
  36.2569994  38.2961200  65.1693204  35.6819585  38.4553368  65.8057165
  35.8805670  37.6596609  64.7061654  36.1172806  38.2259012  65.1947762
  39.9243282  36.7684549  70.0285582  39.5357715  36.3438767  69.3737774
  39.2597981  37.0166698  70.5362609  39.7690210  36.7423270  70.0073450
  49.5666551  36.5259553  62.8033412  49.3103116  35.7139495  62.6131295
  50.4095865  36.5337121  62.5763600  49.6532577  36.4071551  62.7418229
  26.0026813  37.9401274  63.1837645  26.0887064  37.5633143  63.9651174
  26.6302610  37.5661720  62.7057603  26.1083364  37.8286756  63.2283122
  43.7469644  30.4659178  67.5409567  44.1280156  29.7837349  67.9277441
  42.9432928  30.1768780  67.3585231  43.6846106  30.3226226  67.5713622
  47.2491711  43.6809150  72.6391965  47.0130348  42.8497214  72.5204026
  47.8934940  43.6294757  73.2246809  47.3086382  43.5506837  72.7077859
  36.8990129  44.4704671  63.3534701  37.5364076  44.2316418  63.8986495
  37.3245200  44.6741830  62.6187862  37.0566295  44.4655681  63.3251859
  31.5902771  46.7093007  67.2369005  31.6306917  46.9807858  66.4088785
  32.1497295  47.2334915  67.6526793  31.6786117  46.8268762  67.1760893
  37.5392944  39.6906961  57.6909591  37.9238097  39.4714667  58.4426136
  37.2904564  40.5169906  57.8210667  37.5595016  39.7805107  57.8210667
  37.7061484  32.9713376  77.4072175  37.3914925  33.7412939  77.1441738
  37.3851417  32.4083632  76.8224402  37.6120403  33.0023645  77.2813525
  48.2728131  43.4653598  68.7020259  47.9673948  44.1981655  69.0633575
  47.5534347  43.0591528  68.4213046  48.1215474  43.5135331  68.7133397
  39.2811601  44.9477093  65.0328488  39.3550609  44.7852265  65.8870338
  40.0981107  45.1367283  64.7888969  39.4127959  44.9513836  65.1226513
  53.9729924  40.1046599  68.0288604  53.9054424  40.1242558  67.1591190
  53.9585586  40.9476926  68.2544274  53.9608680  40.2320334  67.9341081
  33.0417358  45.2934956  62.0622931  32.2155475  45.5396693  61.9357210
  33.1029349  45.2147037  62.9284989  32.9291524  45.3179905  62.1711876
  35.2593381  31.3603897  63.0218371  34.3915807  31.4326497  63.0875981
  35.5468586  32.1625976  63.2106346  35.1733129  31.4898044  63.0593138
  44.3826270  31.5081757  71.3529693  45.1279862  31.3191567  70.9393119
  43.9663575  32.0339995  70.7943549  44.4311244  31.5583902  71.2094266
  51.7588541  38.8790985  66.3035198  52.3096462  38.2459054  66.5432290
  51.7432656  39.4106378  66.9950702  51.8373737  38.8639933  66.4414056
  38.4110932  42.7129582  70.8495092  37.9122625  43.4245350  70.9279980
  39.2211156  43.0330249  70.8113254  38.4567038  42.8656431  70.8551660
  35.7622102  49.8879219  62.8302111  35.5422398  49.5976574  63.6228778
  35.5416624  49.2294174  62.3020023  35.6969696  49.7478927  62.8691019
  34.6739049  41.9752535  65.0957812  34.3852298  41.3490007  65.6303540
  35.5422397  41.9172823  65.1622493  34.7599301  41.8740080  65.1848767
  45.4616947  37.1187319  65.4139794  45.1181713  36.3977654  65.7647044
  45.5609990  36.9101170  64.5718153  45.4258990  36.9811522  65.3411474
  37.9290058  51.2608609  61.6132803  38.5814116  50.7285051  61.8423829
  37.2315667  50.9077261  62.0000677  37.9220776  51.1298132  61.7044971
  34.8771323  43.6147787  61.0200177  35.6317291  43.9960826  61.2335640
  34.2841935  44.0658930  61.4746874  34.9008036  43.7376614  61.1183056
  37.3377990  35.5710627  76.1457390  36.5277765  35.8768407  76.0347232
  37.8152676  36.2916209  76.2609974  37.2881468  35.7225228  76.1464461
  36.1969549  44.7856348  66.3940293  35.6750303  44.9256640  67.0792158
  36.5843570  44.0267012  66.5842410  36.1773250  44.6941872  66.5241369
  33.1860733  34.8362157  60.4635248  32.8985529  34.4663427  59.7267195
  33.8731202  35.3057012  60.2018952  33.2449631  34.8509126  60.3150323
  37.6235875  41.8160367  61.7921784  37.4278658  42.4235101  61.1982087
  37.8470220  41.1228311  61.3113458  37.6270516  41.8037892  61.6337865
  36.0214405  38.7015105  61.9102652  36.7437057  38.8656263  61.4506458
  35.5422398  39.4224770  61.8041992  36.0578136  38.8313334  61.8268266
  43.9807913  35.0378904  67.2899337  43.1419013  35.0640182  67.0537600
  44.0512280  35.6849639  67.8704684  43.8676306  35.1375029  67.3408454
  33.6722022  41.1073177  71.0156792  34.1843119  41.3857430  70.3665552
  33.3858364  41.8462471  71.3819605  33.7056885  41.2575531  70.9746670
  42.4277191  31.9364281  62.0226953  43.1303544  31.7372029  61.5446911
  42.1621380  31.1640223  62.3295797  42.4923823  31.7927247  61.9972395
  47.8565436  40.2446890  64.5760579  47.7699411  40.4002316  65.4295358
  47.4015916  40.8884966  64.2019984  47.7768693  40.3622645  64.6467686
  30.7588928  35.6143369  61.3120529  30.8605064  36.4169530  61.6401504
  31.5544815  35.4130705  61.0143609  30.8916834  35.7029268  61.3155884
  37.1905747  33.1999566  71.0757834  36.9988944  33.2154700  71.9257257
  38.0404343  33.3963240  71.0524489  37.2881469  33.2313917  71.1981128
  31.5752660  35.7290547  69.0541650  31.4338152  34.8774488  69.1786158
  31.8593223  35.7719208  68.2303856  31.5960506  35.6090297  68.9509274
  41.7291252  37.5657637  63.1986138  41.4825967  37.4853388  64.0322927
  42.0576375  36.7811105  63.0048666  41.7412496  37.4383903  63.2933662
  45.6239301  44.2740997  66.9872920  45.4853661  44.9722043  67.4921662
  44.8439299  44.1189653  66.6309101  45.4882528  44.3541163  67.0099194
  43.9617386  40.5737372  73.2395301  43.9565425  39.7017189  73.2437728
  44.6678380  40.7725541  72.7664757  44.0662390  40.4741246  73.1702337
  37.6888280  40.3014356  72.6109122  37.8331655  40.8815564  71.9752232
  38.0363928  40.6790653  73.3158976  37.7615741  40.4435060  72.6208116
  39.8608197  39.5004524  70.3934253  39.1131511  39.6935539  69.9882531
  40.0149722  38.6749744  70.1558374  39.7730625  39.4069636  70.2979659
  36.7616035  48.4917128  69.4770148  36.9105598  47.9320044  68.8243553
  37.5416037  48.5709130  69.8602667  36.8990128  48.4202693  69.4367098
  39.2869335  48.6631771  70.7554639  39.2113006  47.9940581  71.3105427
  39.2159194  49.3649559  71.2695305  39.2649942  48.6676678  70.9131487
  40.1009974  33.3955075  71.2829657  40.5582588  34.1279049  71.4102449
  40.1766303  32.9721540  72.0416913  40.1800944  33.4412313  71.4130733
  32.3442965  33.6420895  72.3719101  31.8085155  33.0301253  72.6879868
  32.4060730  34.2169031  73.0252767  32.2738598  33.6367823  72.5154527
  44.5737300  26.5744950  65.1523500  44.6920868  27.0321414  64.4190802
  44.3999476  25.7690212  64.8659717  44.5656471  26.5238722  65.0024433
  37.9792352  35.3857179  68.1271481  37.1888427  35.2048639  68.4488817
  38.3752975  34.6084132  68.1101775  37.9209228  35.2444640  68.1724029
  43.3636038  43.0199609  65.8530927  42.6881040  42.7884841  66.3544314
  43.3728414  42.4120792  65.2273032  43.2654543  42.8958534  65.8347079
  40.4930182  37.8617438  72.6094980  40.4289323  38.7227395  72.4815116
  40.6327370  37.5449431  71.8090531  40.5045652  37.9417605  72.4723193
  39.1749276  40.5549578  66.7511183  38.7511525  40.7554077  66.0150201
  38.9994131  39.7078426  66.8635483  39.0860157  40.4598359  66.6584873
  38.6760970  52.0700091  69.2132640  39.1656900  51.3710880  69.0308305
  38.1045202  51.7723961  69.8008697  38.6645500  51.9226314  69.2733681
  34.4631721  41.0501629  62.1839155  34.6196340  40.9848432  63.0395147
  34.8032314  41.8250182  61.9717835  34.5364956  41.1550827  62.2793749
  44.8727973  44.6362160  78.1659431  45.6862838  44.3647309  78.3264563
  44.7122939  44.3369700  77.3619627  44.9697922  44.5517086  78.0704837
  42.1500135  35.3195817  71.1054819  42.3642105  34.6806731  70.5518173
  41.5334034  35.7641641  70.6762681  42.0905464  35.2905961  70.9605250
  43.5604803  48.2414565  62.5509040  43.1684595  47.9381281  61.8331906
  43.7157875  49.0783655  62.3613994  43.5258393  48.3198402  62.4165537
  31.0365983  38.2336579  62.4999922  31.4164947  38.6521124  61.8360190
  30.4621347  38.8150035  62.8068766  31.0077307  38.3814438  62.4476663
  44.3139223  36.9284882  72.0438126  43.5015905  36.6210773  72.1251299
  44.7729158  36.4483882  72.6080838  44.2619608  36.8121375  72.1392720
  43.7244478  44.8064554  62.4915070  43.3659133  44.9779197  63.2679103
  43.2383189  45.2677760  61.9343069  43.6003175  44.9003525  62.5240339
  41.5414864  28.4295753  66.0942162  40.6708422  28.4034474  66.0475471
  41.7955205  28.2572945  65.2768007  41.4508424  28.4005896  65.9662298
  41.4092731  38.3344954  76.8266828  41.8792362  38.9587070  77.2134702
  41.4554611  37.6661929  77.3860043  41.4860606  38.3279634  76.9666900
  38.5664004  30.4401981  67.5515632  38.0502493  29.7482173  67.6767211
  38.0057933  31.1072758  67.4978231  38.4070517  30.4365239  67.5621698
  40.6356238  30.9794941  69.3808485  40.2487991  31.0043973  70.1622015
  40.1489175  30.4136620  68.9283001  40.5068747  30.8990692  69.4296388
  44.8849217  45.6968450  73.4382271  45.5228938  45.2028646  73.1044727
  44.2423309  45.6245851  72.8534498  44.8843444  45.6127459  73.3024626
  46.6106217  37.5457596  68.0048187  46.1833825  37.4583945  67.2496286
  45.9732270  37.6535372  68.5903031  46.4535824  37.5490256  67.9793628
  40.3013379  27.8661927  71.6718745  40.9306497  28.4022227  71.3939815
  40.4699242  27.7739286  72.5232310  40.4191174  27.9323289  71.7567273
  40.1027294  32.6533121  73.9445156  40.9300724  32.3818270  74.0003771
  40.1235140  33.4493963  74.3008974  40.2280144  32.7312876  74.0060339
  44.9403474  46.3888258  70.0787628  45.7295852  46.0377323  70.1989710
  45.1147072  47.2024647  69.8164262  45.0823755  46.4574116  70.0575496
  34.6796784  39.7996984  67.1315417  33.8384791  39.7000858  67.3394311
  34.8886792  40.5692464  67.4829737  34.5861477  39.8989028  67.2142732
  43.7937298  30.3997815  64.6404046  43.9986891  30.3320123  65.4861044
  43.4663722  31.2056636  64.5725224  43.7752546  30.5083756  64.7563702
  38.4913449  37.7278383  66.3813014  38.1876587  37.1734372  66.9823422
  37.7892870  37.9070593  65.8941049  38.3429659  37.6723166  66.3982720
  37.5479546  35.0378903  60.9457716  37.8239280  34.3197816  60.5335284
  38.1478215  35.6363823  60.7378822  37.6772811  35.0199274  60.8538477
  36.5531800  44.9428104  71.0885112  36.4452155  44.9530166  71.9547170
  36.7627582  45.7682885  70.8990066  36.5681911  45.0669179  71.1889204
  47.0470986  30.9529579  64.1206812  46.4345299  31.4399982  64.5060544
  47.1435161  30.2773070  64.6644463  46.9708883  30.9247888  64.2585670
  41.0490067  32.7092421  59.2204311  41.5033813  32.8802981  59.9452156
  41.5230112  32.0960531  58.8202087  41.1858387  32.6443306  59.2678073
  34.5705592  42.1940747  68.5507050  33.9793525  42.8350245  68.5210065
  35.3326616  42.6178364  68.5238349  34.5953853  42.3516585  68.5422197
  34.9666215  33.3542744  69.2175067  35.4267696  33.4281674  69.9550191
  35.0122322  34.1523998  68.8674889  35.0416770  33.4836891  69.2747824
  36.6149565  34.0209439  73.7847094  36.2235130  33.3742786  74.2202872
  36.7835427  34.6120874  74.4041350  36.5820475  34.0123707  73.9409800
  50.6896014  42.0246516  69.5484328  50.7479137  42.4733165  70.2944304
  50.0562481  42.4345329  69.1114408  50.6047309  42.1520251  69.5936876
  44.3295108  47.6450058  65.9839074  44.1314797  48.1340873  65.2895285
  43.7082819  47.8491300  66.5623208  44.2082673  47.7466596  65.9662297
  38.3903087  39.4134955  60.3249318  39.1345132  39.8009231  60.5632268
  38.5363783  38.5692380  60.4889806  38.5213672  39.3465428  60.3843288
  40.3082662  31.2085214  65.3581180  39.4618707  31.3808022  65.2322530
  40.3053795  30.4034558  65.6947008  40.1829812  31.1146243  65.3892307
  41.3780962  34.9860428  66.2243238  40.9040917  34.4602190  66.7348549
  41.7499098  34.4389901  65.6558099  41.3630851  34.8276425  66.2158385
  31.7553993  36.9831935  71.5926784  32.6179606  36.8827644  71.5064113
  31.4245776  36.4026644  71.0312356  31.8339189  36.8823562  71.4972189
  47.6417693  40.0462804  67.6350018  47.4015916  39.2069219  67.6392445
  48.1209700  40.1262971  68.3590792  47.6769877  39.9344204  67.7424821
  49.6422880  36.8264261  65.5879277  49.4032650  36.7860095  64.7500062
  49.8056781  37.6735413  65.7144998  49.6313184  36.9456346  65.4832759
  46.2468910  41.2114210  71.5184323  46.9703109  40.7586737  71.3395342
  45.9818873  41.4918876  70.7356650  46.3150184  41.1865179  71.3763038
  35.1155779  35.8074384  68.2537202  34.4908849  35.8192776  67.6463154
  34.7801373  36.2834559  68.9028442  34.9741270  35.8792901  68.2593770
  31.8281454  43.8674844  69.6940966  31.2981379  43.1767283  69.7435941
  32.1006547  43.8585029  68.8653675  31.7906176  43.7641976  69.5788382
  42.0287700  41.3098089  69.6679338  41.4144693  40.7656139  69.9627973
  42.5454985  40.7962325  69.1885154  42.0143362  41.1534498  69.6403566
  41.2683997  42.3802359  67.4023636  40.8411605  41.7552077  66.9689072
  41.2608941  42.0977281  68.2282643  41.2043138  42.2455139  67.4603464
  34.3846524  37.4167532  70.4712070  34.5440011  36.6610856  70.8763792
  34.2039418  37.9658471  71.1252808  34.3811883  37.3861345  70.6274776
  42.3266827  29.5828767  71.0262860  41.8307388  29.7792442  70.3354426
  43.0835889  29.9821436  70.8551661  42.3653652  29.6706501  70.8982996
  39.5969707  33.2571113  67.6166170  39.6212194  32.7231226  66.9278950
  39.8481180  32.7488422  68.2791761  39.6379625  33.1032017  67.6130815
  27.1077296  40.5402608  67.0509314  27.0020745  40.4949453  66.1861398
  26.3577516  40.8856389  67.3323599  26.9812899  40.5843516  66.9646644
  35.8771029  31.9841931  66.9971915  35.9169400  32.4851138  67.7106622
  35.0520693  32.0752325  66.7277838  35.7610555  32.0723748  67.0622453
  38.0600642  41.5502671  75.0992209  37.2096272  41.6874386  75.2349854
  38.2228769  40.8166450  75.5439911  37.9584505  41.4616773  75.1847808
  37.2985392  38.5002441  69.2945814  36.4677322  38.6676259  69.0881062
  37.2436909  38.1238392  70.0794699  37.1674807  38.4692173  69.3794342
  35.1069175  31.9911334  74.9302224  35.7321879  31.4473467  75.2031657
  34.6519655  31.5106252  74.3610015  35.1317436  31.8400816  74.8863818
  35.6721436  36.7758033  59.8235931  35.8124397  37.2730497  60.5264573
  36.1703969  36.0744327  59.9650145  35.7662517  36.7460012  59.9487510
  35.7021658  37.6425144  57.1528508  36.3366738  38.2385569  57.0877970
  35.7847269  37.3428601  57.9674378  35.8078209  37.6866052  57.2631595
  48.6804224  40.1740621  70.0214872  49.2722064  40.8137872  70.0533070
  49.1163219  39.4763658  70.3106939  48.8322655  40.1658972  70.0695705
  37.2800641  33.5739119  57.1273950  37.6016482  33.0942202  56.4733212
  37.5427585  34.3838765  56.9364762  37.3666667  33.6229017  57.0029442
  40.5097614  44.5957994  70.6472766  40.0022705  45.1493840  71.0913397
  40.2124260  44.6566283  69.8291541  40.3902499  44.6864305  70.5921223
  42.6759796  32.9611313  69.4897429  43.1014868  32.5083840  68.8780956
  42.0616789  32.4071384  69.7662217  42.6488442  32.8125289  69.4402454
  32.2074646  39.8392985  60.4218054  32.7166876  40.4357492  60.8029360
  32.6808919  39.5718958  59.7394474  32.3518022  39.8878800  60.3772577
  41.1154019  29.4326413  62.8988006  40.4722337  29.2824059  63.4673145
  40.7753426  29.1868758  62.1337111  40.9699096  29.3738535  62.8691021
  39.7540099  49.5282552  67.5529773  39.5305754  48.7701381  67.9213799
  39.2649943  49.5580573  66.8310213  39.6483548  49.4204776  67.5006514
  45.8681493  33.8441723  65.2308388  46.2209103  33.4171446  65.9054187
  45.0096294  33.7592567  65.3609464  45.7930938  33.7686464  65.3503398
  34.5665178  36.4749243  63.2891235  33.8477167  36.8913376  63.5564098
  34.9377540  37.0403482  62.7382873  34.5157110  36.6198525  63.2474042
  43.8664759  37.1077092  69.1793230  43.8462686  36.9260387  70.0328009
  43.9143960  37.9789111  69.1552814  43.8699400  37.2093630  69.3016525
  41.8111089  43.6964284  75.1041707  41.7706944  43.0513961  74.5186863
  42.6234407  43.6400901  75.4167119  41.9254242  43.5923251  75.0638656
  38.4018556  49.7483010  65.0066858  37.9878955  49.0857140  64.6170699
  39.0865930  49.8960869  64.4862552  38.4416928  49.6723668  64.8723355
  41.7683850  48.9073095  65.7590474  41.3700134  49.0175366  64.9911295
  41.1535070  49.1155162  66.3417034  41.6182740  48.9546663  65.7321774
  40.3411752  35.5147243  58.6264614  39.7476592  35.8364240  58.0749181
  40.3787030  34.6688338  58.4185720  40.2586141  35.4371571  58.5147385
  47.3005553  28.9660135  66.1592700  46.7936418  28.2589275  66.0913878
  48.0972987  28.6353324  66.2893777  47.3432792  28.8133287  66.1691695
  37.4988797  37.3261221  71.6591464  36.9867700  36.7182404  72.0176496
  37.3268294  38.0417813  72.1265440  37.3978434  37.3424520  71.7807688
  32.3454512  35.7698796  74.3093826  32.1757102  36.4300171  73.7642033
  31.9020462  35.9805357  75.0306315  32.2553846  35.8984778  74.3355456
  36.2714331  34.0103294  63.3520560  36.7471698  34.3720374  62.7170741
  35.7702931  34.6659761  63.6320703  36.2679690  34.1597483  63.2997301
  41.3757868  35.2485465  74.0993720  41.9329298  35.0199275  73.4672185
  41.0518933  36.0091131  73.8228932  41.4104278  35.3269302  73.9650217
  29.2456577  38.6745661  69.5682316  28.6983296  38.0046307  69.6863184
  30.0348955  38.3075509  69.6325783  29.2808760  38.5210648  69.5951017
  39.0940985  38.3353119  75.0645727  39.8452312  38.6504795  75.3785281
  39.2863561  38.1332289  74.2379649  39.2332399  38.3520500  74.9889123
  45.9426275  34.4626685  62.3069523  45.9420502  34.3075341  63.1653799
  45.7382455  35.3089672  62.2510908  45.9126053  34.5647306  62.4257462
  28.0043546  37.8866469  66.7228339  27.8265307  37.4343078  67.4483255
  27.7162568  38.6892631  66.9066817  27.9356499  37.9389027  66.8571842
  43.6667127  39.1424187  65.9605729  44.1620792  38.4247182  65.9209750
  42.8566903  38.8394984  65.8460216  43.6211020  38.9921833  65.9379455
  29.7416016  40.4194193  63.8350098  28.8761535  40.4079883  63.7232869
  29.8414832  40.2324416  64.6821237  29.6290183  40.3900254  63.9439043
  45.7318946  41.8927874  68.6482858  46.1574018  41.3702296  68.0953283
  45.3675866  42.4908712  68.1271481  45.7405549  41.9038101  68.4891868
  35.3673026  50.1892092  67.4080204  35.6819585  51.0028480  67.4157985
  35.7766439  49.8042310  68.0762363  35.4741124  50.2520794  67.5084295
  42.3197545  45.6062138  64.9784016  42.7908724  46.3202401  65.1474001
  42.6557724  45.0060889  65.5143885  42.4392661  45.6233603  65.0816392
  44.4074530  47.2163452  77.1576088  44.5171496  46.4272012  77.5132835
  44.7365427  47.1269388  76.3550426  44.4726936  47.0869305  77.0918478
  39.2367040  30.3789609  71.9342110  39.3694946  29.5820602  72.2623086
  39.6212193  30.9056012  72.5140386  39.3123369  30.3389526  72.0685613
  42.9571492  45.3980073  71.7411708  42.4092438  44.7737956  71.4731774
  43.4184521  45.5874345  71.0255788  42.9438701  45.3339123  71.5962139
  42.3099396  27.3019935  68.5323204  41.5045359  27.1917665  68.8491042
  42.1806131  27.4032391  67.6753069  42.1719528  27.3003605  68.4531244
  45.7665356  33.4665427  69.1262901  45.1828345  33.9674634  68.7140468
  46.0869650  32.9594983  68.4927224  45.7278531  33.4657262  68.9721408
  38.3060155  32.3806022  59.4021575  39.1275850  32.5504335  59.1603270
  37.8429806  32.5353283  58.6787873  38.3591318  32.4287755  59.2593220
  36.8955487  30.3748784  70.1820004  37.4399900  30.0339911  70.7724346
  36.9492423  31.2334246  70.3241289  36.9844607  30.4504043  70.2901878
  32.7086046  44.1365200  67.0558812  33.3130903  44.0961034  66.4272633
  32.5013359  44.9836352  67.0862868  32.7674943  44.2553203  66.9674929
  42.5229818  46.4031145  68.2721049  43.3428192  46.2594111  68.5337345
  42.2423896  47.0277344  68.8137487  42.6026561  46.4741497  68.3908989
  27.9437328  43.1199818  66.9257735  27.8461606  42.3096089  67.2347792
  28.7266198  43.0991611  66.5404003  28.0453465  42.9966908  66.9144598
  58.9943469  54.0595997  61.2363926  58.9637473  54.9140634  61.4082195
  59.5924817  53.7591290  61.7950069  59.0780626  54.1412494  61.3438728
  52.1943153  53.1471648  65.9916856  51.3381049  53.3080146  66.0425973
  52.2410807  52.2763712  66.0121917  52.0742265  53.0422450  66.0022922
  46.5784293  62.6834366  61.7554088  45.8267193  62.3049904  61.5270133
  47.0270305  62.7152799  61.0072898  46.5333960  62.6319973  61.6111590
  52.0309253  63.1059735  57.1839635  51.6960621  63.7836657  56.7483857
  52.5436123  62.7165047  56.5956507  52.0574834  63.1484314  57.0326426
  51.5713544  65.0574004  63.1250746  51.9552924  65.6260903  62.5855522
  51.5072685  64.3323514  62.6456563  51.6186971  65.0349467  62.9744609
  55.0394974  55.2063692  68.6348508  55.5850934  55.8848778  68.6942478
  54.9811851  55.0651153  67.7750089  55.1110889  55.2855694  68.5160568
  48.1569049  62.6952758  64.0216860  48.2579412  61.8853112  64.3313988
  47.5610794  62.6009704  63.3916539  48.0841588  62.5617786  63.9743099
  56.8160043  56.6348299  59.5082236  56.6999569  57.3855985  59.9374374
  57.6115930  56.3772252  59.7578323  56.9164632  56.7083146  59.6086327
  47.9969789  67.6130347  65.4231716  48.6407244  68.0543511  65.8127875
  48.3226044  66.8083773  65.3361975  48.1401617  67.5595542  65.4677194
  41.3534094  58.7173045  63.6469194  41.1184278  57.8840697  63.5401463
  41.4919734  58.9977710  62.8330395  41.3389756  58.6356548  63.5111549
  43.6524181  50.8858775  66.5453502  43.0329213  50.2951422  66.3763516
  43.5508045  51.4770210  65.9117825  43.5461856  50.8862858  66.4258491
  48.6990369  60.6242322  60.7951578  49.0206210  61.1647529  60.1912886
  49.3462465  60.0539093  60.9273868  48.8416424  60.6201497  60.7258613
  50.7492077  52.6258317  60.8785965  51.4472241  52.8046444  61.3707428
  51.0644409  52.1028656  60.2556354  50.8987414  52.5752089  60.8587975
  43.3793314  54.4311057  68.7897071  43.2552011  55.0173502  69.4246890
  44.0311598  53.9371253  69.0909346  43.4566963  54.4449861  68.9283000
  50.9380012  59.0128762  60.8665756  51.3773647  58.4045862  61.3120529
  50.7884675  58.6336135  60.0951221  50.9801478  58.8667233  60.8184924
  48.4051655  57.6072774  68.0684582  49.0500658  57.1145217  67.7495530
  48.6453432  57.7497560  68.8950660  48.5362240  57.5550216  68.1434115
  50.9437746  60.4527680  67.7191474  51.2260989  59.6579085  67.4978230
  51.6723907  60.9308267  67.7396535  51.0927310  60.4062277  67.6894489
  54.5389349  57.3655943  57.8196526  54.4540644  58.2216910  57.9646094
  55.0273732  57.0900267  58.4878685  54.5978246  57.4513265  57.9398607
  56.1295348  43.9836236  63.2056850  55.8148789  44.6739715  63.6377272
  55.6122290  43.9281019  62.5042351  56.0059818  44.0771125  63.1653799
  55.4707782  53.9840737  59.3194261  54.9419253  54.2000371  59.9791567
  55.9932802  54.6776876  59.2395230  55.4696235  54.1183874  59.4049860
  60.9255835  59.5587042  64.6927305  60.0953538  59.7697686  64.8560722
  60.8765087  58.7324096  64.4169589  60.7962570  59.4676648  64.6764671
  47.3607390  57.8803954  58.1201729  46.7764605  58.3853986  58.5267593
  46.9577485  57.6546341  57.3798321  47.2146693  57.9212203  58.0706754
  42.9151418  63.5958715  64.9225400  42.4318996  64.3209205  64.8984984
  43.7274736  63.8934845  65.0335558  42.9642166  63.7461069  64.9352679
  48.9865572  62.3890896  67.5275215  48.4692514  62.0298311  66.9236523
  49.6839963  61.8653070  67.5381281  49.0131153  62.2588584  67.4405473
  51.8184604  54.1269606  56.5970649  52.0580608  54.3347590  55.7845992
  52.1400445  53.3227115  56.7059594  51.9021762  54.0383707  56.4931202
  45.7695615  64.1114891  65.0745680  46.4716195  63.5966880  65.1318437
  45.6893099  64.4389043  65.8792555  45.8619376  64.0829117  65.2018472
  60.4209793  52.2057443  68.4877726  59.5838214  52.2759630  68.7225321
  60.3898024  52.2081937  67.6152029  60.2928075  52.2167670  68.3937274
  46.8174522  54.3490478  74.2026095  46.9895026  54.2396373  75.0511377
  47.3543880  54.9944884  73.9657287  46.9219526  54.4282480  74.2931192
  45.0946391  60.3021243  64.5831288  45.9335290  60.5344176  64.6305050
  45.1258160  59.4325555  64.5138323  45.2228108  60.2078190  64.5795933
  45.7199094  60.7222118  68.8844594  46.2597319  60.5793249  69.5547966
  45.0369040  61.1218869  69.2528620  45.6991248  60.7601789  69.0379015
  55.1439979  56.4013119  64.0789618  55.8997494  56.8344633  64.1178527
  55.2502303  55.7517889  64.6524254  55.2710149  56.3690603  64.1687644
  58.1820150  60.2286396  64.8292021  57.7455382  60.2323139  65.5850992
  57.8483065  60.9091895  64.3971598  58.0682770  60.3298852  64.8772853
  41.1236239  56.9422409  69.0379015  40.8574654  56.1261526  69.1970005
  41.1374803  56.9875565  68.1674531  41.0860961  56.8279314  68.9332497
  58.1017633  47.2700224  67.0721449  58.7443541  47.3398329  67.6583364
  58.3540654  46.6029447  66.5700991  58.2339765  47.1826573  67.0848728
  45.8734845  50.4800788  71.6846023  45.1806642  50.0097767  71.9306754
  46.4895173  50.2539092  72.2587730  45.8619375  50.3767919  71.8055175
  61.3164496  56.9467316  63.7211658  61.9780930  56.3857985  63.6207567
  60.6755908  56.4519347  64.0464349  61.3193364  56.7903725  63.7543998
  52.2041304  60.2437448  56.0292581  52.6192452  59.9122471  55.3377077
  51.3733233  60.0106350  55.9012718  52.1429313  60.1608704  55.9083429
  41.5329653  57.7281189  66.3190759  41.3505226  57.7028075  65.4663052
  42.2679322  58.1980126  66.3579668  41.6143716  57.7942551  66.1988678
  57.6029327  57.9632699  63.4623647  57.8384916  58.1077897  62.6350498
  57.7518890  58.7275107  63.8555161  57.6595130  58.0971753  63.3987251
  44.5975404  54.4466191  72.8272868  45.3215377  54.4319222  73.3137763
  44.6991541  55.1561547  72.3294836  44.7193613  54.5490895  72.8251655
  59.4319784  56.8034365  61.2993251  59.7628001  57.3362005  60.6933346
  60.0052872  56.8573252  61.9555202  59.5653463  56.8903933  61.3071032
  54.6451673  54.6499267  61.9816831  54.7398527  55.3888561  62.4356456
  54.0210516  54.2216743  62.4151395  54.5660703  54.6960588  62.1124978
  41.5000563  54.6074689  66.4689826  42.0774066  54.4711140  67.1082071
  40.8014625  54.1510473  66.7235410  41.4821584  54.5196956  66.6012116
  54.8974694  56.4948007  55.2153783  54.8154857  56.5650194  56.0808770
  55.5354414  57.0577751  55.0237523  54.9794531  56.5886978  55.3143732
  48.2567865  56.2608745  64.6828309  47.9987109  55.4280480  64.6559609
  48.3116348  56.4866358  63.8420810  48.2267643  56.1706516  64.5548446
  47.2302577  53.8146507  65.1693204  46.6552169  53.9738676  65.8057165
  46.8538254  53.1781917  64.7061654  47.0905390  53.7444320  65.1947762
  50.8975866  52.2869857  70.0285582  50.5090299  51.8624074  69.3737774
  50.2330564  52.5352006  70.5362609  50.7422794  52.2608578  70.0073450
  60.5399135  52.0444861  62.8033412  60.2835700  51.2324803  62.6131295
  61.3828449  52.0522429  62.5763600  60.6265160  51.9256859  62.7418229
  36.9759396  53.4586582  63.1837645  37.0619648  53.0818451  63.9651174
  37.6035194  53.0847028  62.7057603  37.0815947  53.3472064  63.2283122
  54.7202227  45.9844485  67.5409567  55.1012739  45.3022657  67.9277441
  53.9165512  45.6954088  67.3585231  54.6578689  45.8411534  67.5713622
  52.0014804  56.5168461  58.2262389  52.8155443  56.8083354  58.1145161
  51.9373945  55.8628324  57.6520682  52.1117543  56.4633656  58.1251227
  47.8722712  59.9889979  63.3534701  48.5096659  59.7501726  63.8986495
  48.2977784  60.1927138  62.6187862  48.0298879  59.9840989  63.3251859
  42.5635355  62.2278315  67.2369005  42.6039500  62.4993166  66.4088785
  43.1229879  62.7520223  67.6526793  42.6518701  62.3454070  67.1760893
  48.5125527  55.2092269  57.6909591  48.8970680  54.9899975  58.4426136
  48.2637148  56.0355214  57.8210667  48.5327600  55.2990415  57.8210667
  48.6794068  48.4898684  77.4072175  48.3647509  49.2598246  77.1441738
  48.3584000  47.9268940  76.8224402  48.5852987  48.5208952  77.2813525
  50.2544184  60.4662401  65.0328488  50.3283193  60.3037573  65.8870338
  51.0713691  60.6552591  64.7888969  50.3860543  60.4699144  65.1226513
  44.0149941  60.8120264  62.0622931  43.1888059  61.0582001  61.9357210
  44.0761932  60.7332345  62.9284989  43.9024108  60.8365213  62.1711876
  46.2325965  46.8789205  63.0218371  45.3648390  46.9511805  63.0875981
  46.5201169  47.6811284  63.2106346  46.1465713  47.0083352  63.0593138
  55.3558854  47.0267065  71.3529693  56.1012446  46.8376875  70.9393119
  54.9396158  47.5525303  70.7943549  55.4043828  47.0769210  71.2094266
  48.7948770  63.4297144  59.7641961  49.0847069  63.0386126  59.0401188
  49.5252251  63.6113849  60.2047236  48.9455654  63.3990958  59.7224768
  62.7321124  54.3976293  66.3035198  63.2829046  53.7644362  66.5432290
  62.7165240  54.9291686  66.9950702  62.8106321  54.3825241  66.4414056
  49.3843515  58.2314890  70.8495092  48.8855209  58.9430658  70.9279980
  50.1943740  58.5515557  70.8113254  49.4299622  58.3841739  70.8551660
  46.7354686  65.4064527  62.8302111  46.5154981  65.1161882  63.6228778
  46.5149208  64.7479482  62.3020023  46.6702280  65.2664235  62.8691019
  45.6471633  57.4937843  65.0957812  45.3584882  56.8675315  65.6303540
  46.5154981  57.4358131  65.1622493  45.7331885  57.3925388  65.1848767
  56.4349531  52.6372627  65.4139794  56.0914297  51.9162962  65.7647044
  56.5342573  52.4286478  64.5718153  56.3991574  52.4996830  65.3411474
  48.9022641  66.7793917  61.6132803  49.5546699  66.2470359  61.8423829
  48.2048250  66.4262569  62.0000677  48.8953359  66.6483440  61.7044971
  45.8503906  59.1333094  61.0200177  46.6049874  59.5146133  61.2335640
  45.2574519  59.5844238  61.4746874  45.8740620  59.2561922  61.1183056
  56.8962560  59.0998331  60.9563782  57.4620592  59.7591541  60.8722325
  56.2490463  59.4448029  61.4280185  56.8841316  59.2480272  61.0136539
  48.3110573  51.0895935  76.1457390  47.5010349  51.3953714  76.0347232
  48.7885260  51.8101517  76.2609974  48.2614052  51.2410536  76.1464461
  47.1702133  60.3041656  66.3940293  46.6482886  60.4441947  67.0792158
  47.5576153  59.5452320  66.5842410  47.1505834  60.2127180  66.5241369
  44.1593317  50.3547465  60.4635248  43.8718113  49.9848735  59.7267195
  44.8463785  50.8242320  60.2018952  44.2182214  50.3694434  60.3150323
  53.3669138  62.0437115  60.3800862  53.1255814  61.3104976  59.9727927
  53.5470471  62.5923972  59.7267195  53.3576762  62.0159506  60.2231085
  48.5968458  57.3345675  61.7921784  48.4011241  57.9420409  61.1982087
  48.8202804  56.6413619  61.3113458  48.6003100  57.3223200  61.6337865
  46.9946988  54.2200413  61.9102652  47.7169640  54.3841571  61.4506458
  46.5154981  54.9410078  61.8041992  47.0310719  54.3498642  61.8268266
  54.9540496  50.5564212  67.2899337  54.1151597  50.5825490  67.0537600
  55.0244863  51.2034947  67.8704684  54.8408890  50.6560337  67.3408454
  44.6454605  56.6258485  71.0156792  45.1575702  56.9042738  70.3665552
  44.3590948  57.3647779  71.3819605  44.6789468  56.7760839  70.9746670
  58.8298020  55.7632198  64.5760579  58.7431994  55.9187624  65.4295358
  58.3748500  56.4070274  64.2019984  58.7501277  55.8807953  64.6467686
  41.7321512  51.1328677  61.3120529  41.8337648  51.9354838  61.6401504
  42.5277398  50.9316013  61.0143609  41.8649417  51.2214576  61.3155884
  48.1638331  48.7184874  71.0757834  47.9721528  48.7340008  71.9257257
  49.0136927  48.9148548  71.0524489  48.2614053  48.7499225  71.1981128
  42.5485244  51.2475855  69.0541650  42.4070735  50.3959796  69.1786158
  42.8325807  51.2904516  68.2303856  42.5693090  51.1275605  68.9509274
  52.7023836  53.0842945  63.1986138  52.4558550  53.0038696  64.0322927
  53.0308959  52.2996413  63.0048666  52.7145080  52.9569211  63.2933662
  56.5971885  59.7926305  66.9872920  56.4586244  60.4907351  67.4921662
  55.8171883  59.6374961  66.6309101  56.4615112  59.8726471  67.0099194
  48.6620863  55.8199664  72.6109122  48.8064239  56.4000872  71.9752232
  49.0096512  56.1975961  73.3158976  48.7348325  55.9620368  72.6208116
  50.8340781  55.0189832  70.3934253  50.0864095  55.2120847  69.9882531
  50.9882306  54.1935052  70.1558374  50.7463208  54.9254944  70.2979659
  47.7348618  64.0102436  69.4770148  47.8838182  63.4505352  68.8243553
  48.5148620  64.0894438  69.8602667  47.8722712  63.9388001  69.4367098
  58.0925258  59.1504559  57.7489419  57.7132066  58.3641696  57.7418708
  57.4291503  59.6991416  57.6061063  57.9383732  59.1149382  57.7270216
  51.0742558  48.9140383  71.2829657  51.5315172  49.6464357  71.4102449
  51.1498886  48.4906848  72.0416913  51.1533527  48.9597621  71.4130733
  43.3175549  49.1606203  72.3719101  42.7817738  48.5486561  72.6879868
  43.3793314  49.7354339  73.0252767  43.2471182  49.1553131  72.5154527
  55.5469884  42.0930258  65.1523500  55.6653452  42.5506722  64.4190802
  55.3732059  41.2875519  64.8659717  55.5389055  42.0424030  65.0024433
  50.9172166  62.7018078  61.5878245  51.6822057  62.4327721  61.2660909
  50.8150256  62.2168088  62.3048308  51.0153661  62.5907642  61.6458073
  48.9524936  50.9042487  68.1271481  48.1621010  50.7233947  68.4488817
  49.3485558  50.1269440  68.1101775  48.8941812  50.7629948  68.1724029
  53.4390826  59.7330261  53.5678194  54.2063811  59.7930386  53.1584046
  52.9922135  59.1610703  53.0834513  53.4864254  59.6566837  53.4355905
  54.3368622  58.5384917  65.8530927  53.6613624  58.3070149  66.3544314
  54.3460998  57.9306100  65.2273032  54.2387126  58.4143842  65.8347079
  51.4662766  53.3802746  72.6094980  51.4021907  54.2412703  72.4815116
  51.6059954  53.0634739  71.8090531  51.4778236  53.4602913  72.4723193
  56.3385356  61.3950050  58.0841105  56.4205194  62.2017036  57.7602556
  56.8235099  61.4146009  58.8081878  56.4222514  61.5170712  58.1428003
  50.1481860  56.0734885  66.7511183  49.7244109  56.2739385  66.0150201
  49.9726715  55.2263733  66.8635483  50.0592740  55.9783667  66.6584873
  45.4364305  56.5686937  62.1839155  45.5928924  56.5033740  63.0395147
  45.7764898  57.3435489  61.9717835  45.5097540  56.6736135  62.2793749
  51.9743449  55.9444820  61.0532518  52.5158995  55.4415202  61.5171139
  52.2890008  55.8910015  60.2422004  52.1007846  55.8624241  61.0016331
  50.1429899  61.3362172  58.3372546  50.2122719  60.4776710  58.4765547
  50.9218354  61.5534053  58.0091571  50.2682749  61.2415036  58.3089704
  53.1232719  50.8381125  71.1054819  53.3374688  50.1992039  70.5518173
  52.5066618  51.2826949  70.6762681  53.0638048  50.8091269  70.9605250
  54.5337387  63.7599873  62.5509040  54.1417178  63.4566588  61.8331906
  54.6890459  64.5968963  62.3613994  54.4990976  63.8383710  62.4165537
  55.2871807  52.4470190  72.0438126  54.4748488  52.1396081  72.1251299
  55.7461741  51.9669190  72.6080838  55.2352191  52.3306683  72.1392720
  54.6977061  60.3249862  62.4915070  54.3391716  60.4964505  63.2679103
  54.2115772  60.7863068  61.9343069  54.5735758  60.4188833  62.5240339
  52.5147447  43.9481061  66.0942162  51.6441005  43.9219782  66.0475471
  52.7687789  43.7758253  65.2768007  52.4241007  43.9191204  65.9662298
  49.4865427  56.0049028  55.0315305  49.7757952  56.7813910  55.3058879
  49.5737226  55.4937759  55.7329804  49.5419683  56.0440946  55.1757803
  49.5396588  45.9587289  67.5515632  49.0235076  45.2667481  67.6767211
  48.9790517  46.6258066  67.4978231  49.3803101  45.9550547  67.5621698
  51.6088821  46.4980249  69.3808485  51.2220574  46.5229281  70.1622015
  51.1221759  45.9321928  68.9283001  51.4801330  46.4176000  69.4296388
  57.5838801  53.0642904  68.0048187  57.1566409  52.9769253  67.2496286
  56.9464854  53.1720680  68.5903031  57.4268408  53.0675564  67.9793628
  51.2745963  43.3847235  71.6718745  51.9039081  43.9207535  71.3939815
  51.4431826  43.2924594  72.5232310  51.3923758  43.4508597  71.7567273
  51.0759878  48.1718429  73.9445156  51.9033307  47.9003578  74.0003771
  51.0967724  48.9679271  74.3008974  51.2012728  48.2498184  74.0060339
  45.6529368  55.3182292  67.1315417  44.8117374  55.2186166  67.3394311
  45.8619376  56.0877772  67.4829737  45.5594060  55.4174335  67.2142732
  43.1304935  52.9401829  64.9600167  42.7361632  53.0144841  64.1850277
  42.5745052  53.3259775  65.5108529  42.9907747  53.0083604  64.9267827
  54.7669881  45.9183123  64.6404046  54.9719475  45.8505431  65.4861044
  54.4396305  46.7241944  64.5725224  54.7485129  46.0269064  64.7563702
  49.4646033  53.2463691  66.3813014  49.1609170  52.6919680  66.9823422
  48.7625453  53.4255901  65.8941049  49.3162242  53.1908474  66.3982720
  47.5264384  60.4613412  71.0885112  47.4184739  60.4715474  71.9547170
  47.7360165  61.2868192  70.8990066  47.5414495  60.5854487  71.1889204
  58.0203569  46.4714887  64.1206812  57.4077883  46.9585289  64.5060544
  58.1167744  45.7958378  64.6644463  57.9441467  46.4433196  64.2585670
  45.5438176  57.7126054  68.5507050  44.9526109  58.3535553  68.5210065
  46.3059199  58.1363672  68.5238349  45.5686436  57.8701893  68.5422197
  45.9398798  48.8728052  69.2175067  46.4000280  48.9466982  69.9550191
  45.9854905  49.6709306  68.8674889  46.0149354  49.0022199  69.2747824
  47.5882148  49.5394747  73.7847094  47.1967713  48.8928094  74.2202872
  47.7568011  50.1306182  74.4041350  47.5553058  49.5309015  73.9409800
  55.3027692  63.1635366  65.9839074  55.1047380  63.6526180  65.2895285
  54.6815403  63.3676608  66.5623208  55.1815256  63.2651904  65.9662297
  49.3635670  54.9320263  60.3249318  50.1077715  55.3194539  60.5632268
  49.5096366  54.0877688  60.4889806  49.4946255  54.8650736  60.3843288
  52.3513546  50.5045736  66.2243238  51.8773500  49.9787498  66.7348549
  52.7231682  49.9575209  65.6558099  52.3363435  50.3461733  66.2158385
  42.7286576  52.5017243  71.5926784  43.5912189  52.4012952  71.5064113
  42.3978359  51.9211952  71.0312356  42.8071773  52.4008870  71.4972189
  58.6150277  55.5648112  67.6350018  58.3748500  54.7254527  67.6392445
  59.0942284  55.6448279  68.3590792  58.6502460  55.4529512  67.7424821
  60.6155464  52.3449569  65.5879277  60.3765234  52.3045403  64.7500062
  60.7789365  53.1920721  65.7144998  60.6045767  52.4641654  65.4832759
  46.0888362  51.3259692  68.2537202  45.4641432  51.3378084  67.6463154
  45.7533957  51.8019867  68.9028442  45.9473854  51.3978209  68.2593770
  42.8014038  59.3860152  69.6940966  42.2713962  58.6952591  69.7435941
  43.0739131  59.3770337  68.8653675  42.7638760  59.2827284  69.5788382
  53.8334128  59.9685854  58.4178649  54.5568327  60.4343967  58.2743222
  53.3934719  60.0359464  57.6676246  53.8749820  60.0469691  58.2863430
  53.0020283  56.8283397  69.6679338  52.3877276  56.2841447  69.9627973
  53.5187568  56.3147633  69.1885154  52.9875946  56.6719806  69.6403566
  52.2416580  57.8987667  67.4023636  51.8144188  57.2737385  66.9689072
  52.2341525  57.6162588  68.2282643  52.1775722  57.7640447  67.4603464
  45.3579108  52.9352840  70.4712070  45.5172594  52.1796164  70.8763792
  45.1772001  53.4843779  71.1252808  45.3544467  52.9046653  70.6274776
  53.2999411  45.1014075  71.0262860  52.8039972  45.2977749  70.3354426
  54.0568473  45.5006743  70.8551661  53.3386235  45.1891809  70.8982996
  50.5702290  48.7756421  67.6166170  50.5944777  48.2416533  66.9278950
  50.8213764  48.2673730  68.2791761  50.6112209  48.6217325  67.6130815
  38.0809880  56.0587916  67.0509314  37.9753329  56.0134760  66.1861398
  37.3310100  56.4041697  67.3323599  37.9545483  56.1028824  66.9646644
  46.8503612  47.5027239  66.9971915  46.8901984  48.0036446  67.7106622
  46.0253277  47.5937633  66.7277838  46.7343138  47.5909056  67.0622453
  48.2717976  54.0187749  69.2945814  47.4409905  54.1861567  69.0881062
  48.2169493  53.6423700  70.0794699  48.1407391  53.9877480  69.3794342
  46.0801759  47.5096642  74.9302224  46.7054462  46.9658775  75.2031657
  45.6252239  47.0291560  74.3610015  46.1050020  47.3586123  74.8863818
  46.6454020  52.2943341  59.8235931  46.7856981  52.7915805  60.5264573
  47.1436552  51.5929635  59.9650145  46.7395100  52.2645320  59.9487510
  46.6754242  53.1610452  57.1528508  47.3099321  53.7570877  57.0877970
  46.7579853  52.8613909  57.9674378  46.7810793  53.2051360  57.2631595
  53.6492380  48.4796621  69.4897429  54.0747451  48.0269148  68.8780956
  53.0349373  47.9256692  69.7662217  53.6221025  48.3310597  69.4402454
  43.1807230  55.3578293  60.4218054  43.6899459  55.9542800  60.8029360
  43.6541502  55.0904266  59.7394474  43.3250606  55.4064108  60.3772577
  54.0937978  64.0306559  58.5776710  53.3767288  63.8567421  58.1123947
  54.7444715  63.7959132  58.0452196  54.0839828  63.9702352  58.4305928
  56.6785949  52.9071148  62.3218015  56.0077139  53.4500850  62.1931080
  57.3725699  53.3766003  62.0799710  56.6814817  53.0569419  62.2673543
  50.7272683  65.0467860  67.5529773  50.5038337  64.2886689  67.9213799
  50.2382526  65.0765881  66.8310213  50.6216132  64.9390084  67.5006514
  56.8414077  49.3627031  65.2308388  57.1941687  48.9356754  65.9054187
  55.9828878  49.2777875  65.3609464  56.7663521  49.2871772  65.3503398
  45.5397762  51.9934551  63.2891235  44.8209751  52.4098684  63.5564098
  45.9110124  52.5588790  62.7382873  45.4889693  52.1383833  63.2474042
  54.8397342  52.6262400  69.1793230  54.8195270  52.4445695  70.0328009
  54.8876543  53.4974418  69.1552814  54.8431983  52.7278938  69.3016525
  49.3751140  65.2668318  65.0066858  48.9611538  64.6042448  64.6170699
  50.0598514  65.4146177  64.4862552  49.4149511  65.1908976  64.8723355
  52.7416434  64.4258403  65.7590474  52.3432717  64.5360673  64.9911295
  52.1267653  64.6340469  66.3417034  52.5915323  64.4731971  65.7321774
  58.2738137  44.4845443  66.1592700  57.7669001  43.7774583  66.0913878
  59.0705570  44.1538632  66.2893777  58.3165376  44.3318595  66.1691695
  54.1902153  50.9912055  62.0566364  53.9615846  51.0144757  61.2144722
  54.4500229  50.1669522  62.1761375  54.1948341  50.8728135  61.9491562
  48.4721381  52.8446528  71.6591464  47.9600284  52.2367711  72.0176496
  48.3000877  53.5603121  72.1265440  48.3711018  52.8609828  71.7807688
  43.3187096  51.2884104  74.3093826  43.1489686  51.9485479  73.7642033
  42.8753046  51.4990665  75.0306315  43.2286429  51.4170086  74.3355456
  47.2446915  49.5288602  63.3520560  47.7204281  49.8905682  62.7170741
  46.7435515  50.1845069  63.6320703  47.2412274  49.6782791  63.2997301
  60.4758277  59.0010370  59.1433565  60.8591882  59.7501726  59.3731662
  59.6802390  59.2476190  58.8845554  60.4152059  59.1480064  59.1391138
  52.3490451  50.7670773  74.0993720  52.9061881  50.5384583  73.4672185
  52.0251516  51.5276439  73.8228932  52.3836861  50.8454610  73.9650217
  40.2189160  54.1930969  69.5682316  39.6715880  53.5231615  69.6863184
  41.0081538  53.8260817  69.6325783  40.2541344  54.0395956  69.5951017
  49.2873568  51.6729802  56.7193944  49.6672533  51.6909431  55.9345059
  48.5466164  52.1183790  56.5984791  49.2342406  51.7411576  56.5857512
  56.9158859  49.9811993  62.3069523  56.9153085  49.8260649  63.1653799
  56.7115039  50.8274980  62.2510908  56.8858637  50.0832614  62.4257462
  38.9776130  53.4051777  66.7228339  38.7997891  52.9528386  67.4483255
  38.6895152  54.2077939  66.9066817  38.9089083  53.4574335  66.8571842
  54.6399711  54.6609495  65.9605729  55.1353376  53.9432490  65.9209750
  53.8299486  54.3580292  65.8460216  54.5943604  54.5107141  65.9379455
  50.0858322  58.5107308  58.1102734  49.2769645  58.1873981  58.0636043
  50.5933231  57.8040530  58.0430983  50.0407989  58.3588624  58.0933028
  40.7148600  55.9379501  63.8350098  39.8494119  55.9265191  63.7232869
  40.8147415  55.7509724  64.6821237  40.6022766  55.9085562  63.9439043
  56.7051530  57.4113182  68.6482858  57.1306601  56.8887604  68.0953283
  56.3408449  58.0094019  68.1271481  56.7138132  57.4223409  68.4891868
  46.3405609  65.7077400  67.4080204  46.6552168  66.5213788  67.4157985
  46.7499023  65.3227618  68.0762363  46.4473707  65.7706102  67.5084295
  53.2930129  61.1247446  64.9784016  53.7641307  61.8387709  65.1474001
  53.6290308  60.5246196  65.5143885  53.4125244  61.1418911  65.0816392
  50.2099624  45.8974917  71.9342110  50.3427530  45.1005910  72.2623086
  50.5944777  46.4241320  72.5140386  50.2855953  45.8574834  72.0685613
  53.2831979  42.8205243  68.5323204  52.4777943  42.7102973  68.8491042
  53.1538715  42.9217699  67.6753069  53.1452112  42.8188913  68.4531244
  56.7397940  48.9850735  69.1262901  56.1560929  49.4859941  68.7140468
  57.0602234  48.4780291  68.4927224  56.7011115  48.9842570  68.9721408
  47.8688071  45.8934092  70.1820004  48.4132484  45.5525219  70.7724346
  47.9225007  46.7519554  70.3241289  47.9577190  45.9689351  70.2901878
  43.6818630  59.6550508  67.0558812  44.2863487  59.6146342  66.4272633
  43.4745942  60.5021660  67.0862868  43.7407527  59.7738511  66.9674929
  53.4962402  61.9216453  68.2721049  54.3160775  61.7779419  68.5337345
  53.2156479  62.5462652  68.8137487  53.5759145  61.9926805  68.3908989
  38.9169912  58.6385126  66.9257735  38.8194190  57.8281397  67.2347792
  39.6998782  58.6176919  66.5404003  39.0186048  58.5152216  66.9144598
  61.7224660  68.1443625  60.8785965  62.4204825  68.3231752  61.3707428
  62.0376993  67.6213964  60.2556354  61.8719997  68.0937397  60.8587975
  59.8951524  63.5136022  64.9607239  59.5654854  63.9647165  64.2910938
  59.2196526  63.4352185  65.5080246  59.7461960  63.5687157  64.9430463
  67.1027932  59.5021544  63.2056850  66.7881373  60.1925023  63.6377272
  66.5854873  59.4466327  62.5042351  66.9792402  59.5956433  63.1653799
  58.3339973  73.3989262  58.1201729  57.7497188  73.9039294  58.5267593
  57.9310068  73.1731649  57.3798321  58.1879277  73.4397510  58.0706754
  62.7917188  69.6454914  56.5970649  63.0313191  69.8532898  55.7845992
  63.1133029  68.8412423  56.7059594  62.8754345  69.5569015  56.4931202
  58.1007478  61.5748310  60.4430187  58.8553446  61.9426627  60.2047237
  57.9235012  61.9487864  61.2109367  58.1861956  61.6846498  60.5215076
  56.4564542  63.9818629  57.1408300  56.2740116  64.1990510  56.3149293
  57.3190155  64.0957642  57.1966915  56.5569132  64.0308527  57.0262787
  62.1364262  60.9845040  60.1757324  62.8650422  60.8060995  59.7295480
  62.2259155  61.8263119  60.3864502  62.2570924  61.0828918  60.1410842
  56.0026569  67.2592802  55.6530773  55.2884747  66.9730981  56.0653206
  56.4870538  67.5989427  56.2937161  55.9685933  67.2674451  55.8086408
  63.1773887  75.7622756  56.0292581  63.5925036  75.4307779  55.3377077
  62.3465817  75.5291658  55.9012718  63.1161896  75.6794012  55.9083429
  65.8707278  72.0133315  55.2153783  65.7887440  72.0835502  56.0808770
  66.5086998  72.5763059  55.0237523  65.9527115  72.1072286  55.3143732
  47.9491980  68.9771890  63.1837645  48.0352232  68.6003758  63.9651174
  48.5767777  68.6032336  62.7057603  48.0548531  68.8657372  63.2283122
  62.9747388  72.0353769  58.2262389  63.7888027  72.3268662  58.1145161
  62.9106529  71.3813632  57.6520682  63.0850127  71.9818964  58.1251227
  59.4858111  70.7277576  57.6909591  59.8703264  70.5085283  58.4426136
  59.2369731  71.5540522  57.8210667  59.5060184  70.8175723  57.8210667
  57.2058548  62.3974513  63.0218371  56.3380974  62.4697113  63.0875981
  57.4933753  63.1996592  63.2106346  57.1198297  62.5268660  63.0593138
  55.1325900  65.8732772  60.4635248  54.8450696  65.5034043  59.7267195
  55.8196369  66.3427628  60.2018952  55.1914798  65.8879742  60.3150323
  57.9679572  69.7385721  61.9102652  58.6902224  69.9026879  61.4506458
  57.4887565  70.4595385  61.8041992  58.0043303  69.8683950  61.8268266
  64.3742358  62.9734896  62.0226953  65.0768711  62.7742645  61.5446911
  64.1086547  62.2010839  62.3295797  64.4388990  62.8297862  61.9972395
  52.7054095  66.6513985  61.3120529  52.8070232  67.4540146  61.6401504
  53.5009982  66.4501321  61.0143609  52.8382001  66.7399884  61.3155884
  66.5202467  57.6115566  65.1523500  66.6386035  58.0692029  64.4190802
  66.3464643  56.8060827  64.8659717  66.5121638  57.5609338  65.0024433
  64.4123410  75.2515569  53.5678194  65.1796395  75.3115694  53.1584046
  63.9654719  74.6796011  53.0834513  64.4596837  75.1752145  53.4355905
  52.9831150  69.2707195  62.4999922  53.3630115  69.6891740  61.8360190
  52.4086515  69.8520651  62.8068766  52.9542475  69.4185054  62.4476663
  63.4880031  59.4666369  66.0942162  62.6173589  59.4405090  66.0475471
  63.7420372  59.2943561  65.2768007  63.3973591  59.4376512  65.9662298
  60.4598010  71.5234335  55.0315305  60.7490535  72.2999218  55.3058879
  60.5469809  71.0123067  55.7329804  60.5152267  71.5626254  55.1757803
  59.4944713  66.0749519  60.9457716  59.7704448  65.3568432  60.5335284
  60.0943383  66.6734439  60.7378822  59.6237978  66.0569890  60.8538477
  62.9955234  63.7463036  59.2204311  63.4498980  63.9173597  59.9452156
  63.4695280  63.1331147  58.8202087  63.1323554  63.6813922  59.2678073
  60.3368254  70.4505571  60.3249318  61.0810299  70.8379847  60.5632268
  60.4828950  69.6062996  60.4889806  60.4678839  70.3836044  60.3843288
  65.2529629  66.9167599  59.2868992  64.7252648  66.9996343  58.5974700
  65.7125337  67.6585470  59.2833636  65.2431480  67.0388261  59.1843687
  57.2462694  65.1870118  54.3109887  56.8975499  65.8389843  54.7741436
  56.7659140  65.1727231  53.5833758  57.1232938  65.2813172  54.2720978
  57.6186603  67.8128649  59.8235931  57.7589564  68.3101113  60.5264573
  58.1169136  67.1114943  59.9650145  57.7127684  67.7830627  59.9487510
  57.6486826  68.6795760  57.1528508  58.2831905  69.2756185  57.0877970
  57.7312436  68.3799217  57.9674378  57.7543377  68.7236668  57.2631595
  59.2265808  64.6109735  57.1273950  59.5481649  64.1312818  56.4733212
  59.4892752  65.4209381  56.9364762  59.3131834  64.6599633  57.0029442
  54.1539813  70.8763600  60.4218054  54.6632043  71.4728108  60.8029360
  54.6274086  70.6089574  59.7394474  54.2983189  70.9249416  60.3772577
  63.0619186  60.4697029  62.8988006  62.4187504  60.3194675  63.4673145
  62.7218593  60.2239374  62.1337111  62.9164264  60.4109151  62.8691021
  56.5130345  67.5119859  63.2891235  55.7942334  67.9283992  63.5564098
  56.8842707  68.0774098  62.7382873  56.4622277  67.6569140  63.2474042
  62.2876920  66.5517859  58.6264614  61.6941759  66.8734855  58.0749181
  62.3252197  65.7058954  58.4185720  62.2051309  66.4742187  58.5147385
  58.2179499  65.0473910  63.3520560  58.6936865  65.4090990  62.7170741
  57.7168098  65.7030377  63.6320703  58.2144858  65.1968098  63.2997301
  60.2606152  67.1915109  56.7193944  60.6405117  67.2094739  55.9345059
  59.5198748  67.6369098  56.5984791  60.2074990  67.2596884  56.5857512
  61.0590906  74.0292616  58.1102734  60.2502229  73.7059289  58.0636043
  61.5665815  73.3225838  58.0430983  61.0140573  73.8773932  58.0933028
  60.2525322  63.4176638  59.4021575  61.0741017  63.5874951  59.1603270
  59.7894973  63.5723899  58.6787873  60.3056485  63.4658371  59.2593220
  36.7429125  -0.0396488  48.1703973  36.7123130   0.8148149  48.3422242
  37.3410474  -0.3401195  48.7290116  36.8266283   0.0420009  48.2778775
  29.9428810  -0.9520837  52.9256903  29.0866706  -0.7912338  52.9766020
  29.9896464  -1.8228773  52.9461964  29.8227922  -1.0570035  52.9362969
  24.3269950   8.5841881  48.6894135  23.5752849   8.2057419  48.4610180
  24.7755962   8.6160315  47.9412945  24.2819617   8.5327488  48.5451637
  33.2522527   5.3165689  62.5317359  33.9589294   4.8217720  62.6604294
  33.4410462   5.7574770  61.8020017  33.3850432   5.3084039  62.4426405
  29.7794910   9.0067251  44.1179682  29.4446278   9.6844172  43.6823904
  30.2921780   8.6172562  43.5296553  29.8060491   9.0491829  43.9666473
  29.3199201  10.9581519  50.0590793  29.7038580  11.5268418  49.5195569
  29.2558342  10.2331030  49.5796609  29.3672628  10.9356983  49.9084656
  32.7880631   1.1071207  55.5688555  33.3336591   1.7856294  55.6282524
  32.7297507   0.9658668  54.7090136  32.8596545   1.1863209  55.4500615
  25.9054706   8.5960273  50.9556907  26.0065069   7.7860627  51.2654035
  25.3096451   8.5017220  50.3256586  25.8327245   8.4625301  50.9083146
  34.5645700   2.5355814  46.4422283  34.4485226   3.2863500  46.8714421
  35.3601586   2.2779768  46.6918370  34.6650289   2.6090661  46.5426374
  25.7455446  13.5137862  52.3571763  26.3892901  13.9551027  52.7467922
  26.0711701  12.7091289  52.2702022  25.8887274  13.4603057  52.4017240
  19.1019750   4.6180560  50.5809241  18.8669935   3.7848212  50.4741510
  19.2405391   4.8985226  49.7670442  19.0875413   4.5364063  50.4451596
  26.4476025   6.5249837  47.7291625  26.7691866   7.0655045  47.1252933
  27.0948122   5.9546609  47.8613915  26.5902080   6.5209012  47.6598660
  28.4977733  -1.4734168  47.8126012  29.1957898  -1.2946040  48.3047475
  28.8130066  -1.9963828  47.1896401  28.6473071  -1.5240396  47.7928022
  21.1278971   0.3318572  55.7237117  21.0037668   0.9181018  56.3586936
  21.7797255  -0.1621232  56.0249392  21.2052620   0.3457377  55.8623047
  28.6865669   4.9136277  47.8005803  29.1259304   4.3053378  48.2460576
  28.5370332   4.5343651  47.0291268  28.7287134   4.7674748  47.7524970
  26.1537312   3.5080289  55.0024629  26.7986314   3.0152732  54.6835577
  26.3939089   3.6505076  55.8290707  26.2847897   3.4557731  55.0774162
  28.6923403   6.3535195  54.6531521  28.9746646   5.5586601  54.4318277
  29.4209564   6.8315782  54.6736582  28.8412967   6.3069792  54.6234536
  32.2875005   3.2663459  44.7536572  32.2026300   4.1224425  44.8986141
  32.7759389   2.9907783  45.4218731  32.3463903   3.3520780  44.8738654
  33.2193439  -0.1151747  46.2534307  32.6904910   0.1007886  46.9131614
  33.7418458   0.5784391  46.1735277  33.2181892   0.0191390  46.3389907
  38.6741491   5.4594557  51.6267352  37.8439195   5.6705201  51.7900768
  38.6250744   4.6331612  51.3509636  38.5448227   5.3684164  51.6104717
  25.1093046   3.7811470  45.0541775  24.5250262   4.2861501  45.4607639
  24.7063142   3.5553856  44.3138367  24.9632350   3.8219718  45.0046801
  20.6637075   9.4966231  51.8565447  20.1804653  10.2216720  51.8325031
  21.4760393   9.7942361  51.9675605  20.7127823   9.6468584  51.8692726
  26.7351229   8.2898411  54.4615261  26.2178171   7.9305826  53.8576570
  27.4325620   7.7660586  54.4721328  26.7616810   8.1596099  54.3745520
  30.3914821   8.7393225  60.4231434  30.4798167   8.5519366  61.2709645
  30.8204534   8.0930655  60.0236281  30.4676923   8.6156233  60.4903186
  27.9585281   8.0224385  59.4049097  27.3956116   7.6096995  59.9288758
  28.7206304   7.9477291  59.8242240  27.9879729   7.9501786  59.5442097
  29.5670261   0.0277122  43.5310696  29.8066264   0.2355105  42.7186039
  29.8886102  -0.7765370  43.6399641  29.6507419  -0.0608777  43.4271249
  23.5181272  10.0122407  52.0085727  24.2201852   9.4974396  52.0658483
  23.4378755  10.3396558  52.8132602  23.6105033   9.9836633  52.1358519
  38.1695450  -1.8935042  55.4217773  37.3323871  -1.8232855  55.6565368
  38.1383681  -1.8910547  54.5492076  38.0413732  -1.8824815  55.3277321
  22.8432048   6.2028759  51.5171335  23.6820947   6.4351691  51.5645096
  22.8743817   5.3333070  51.4478370  22.9713765   6.1085705  51.5135980
  23.4684751   6.6229634  55.8184640  24.0082976   6.4800765  56.4888013
  22.7854697   7.0226385  56.1868667  23.4476905   6.6609305  55.9719062
  32.8925636   2.3020634  51.0129665  33.6483151   2.7352149  51.0518573
  32.9987960   1.6525404  51.5864301  33.0195806   2.2698118  51.1027690
  35.9305807   6.1293912  51.7632068  35.4941039   6.1330654  52.5191039
  35.5968722   6.8099411  51.3311645  35.8168427   6.2306367  51.8112900
  30.5034880   8.1702244  63.0875218  31.2875297   8.2833092  63.4530960
  30.3031475   7.3443382  63.2833904  30.5900906   8.0648964  63.1709604
  18.8721896   2.8429925  55.9719062  18.6060311   2.0269041  56.1310052
  18.8860460   2.8883080  55.1014577  18.8346618   2.7286829  55.8672544
  22.7779643  -2.3584991  42.5870820  22.0637820  -2.6446812  42.9993253
  23.2623611  -2.0188365  43.2277207  22.7439006  -2.3503341  42.7426455
  30.6605274  10.0812347  56.7341674  29.8620519   9.8411847  56.9915542
  31.1091285  10.1326739  57.4808721  30.6079885  10.0534738  56.8826598
  39.0650153   2.8474832  50.6551705  39.7266587   2.2865500  50.5547613
  38.4241565   2.3526862  50.9804396  39.0679020   2.6911241  50.6884045
  29.9526961   6.1444963  42.9632628  30.3678109   5.8129987  42.2717124
  29.1218890   5.9113865  42.8352765  29.8914969   6.0616219  42.8423476
  19.2815309   3.6288704  53.2530806  19.0990883   3.6035590  52.4003098
  20.0164978   4.0987642  53.2919715  19.3629373   3.6950066  53.1328725
  35.3514984   3.8640214  50.3963694  35.5870573   4.0085413  49.5690544
  35.5004547   4.6282622  50.7895207  35.4080787   3.9979268  50.3327298
  37.1805440   2.7041880  48.2333298  37.5113657   3.2369520  47.6273392
  37.7538528   2.7580768  48.8895248  37.3139119   2.7911449  48.2411079
  32.3937329   0.5506783  48.9156878  32.4884184   1.2896077  49.3696503
  31.7696173   0.1224258  49.3491442  32.3146360   0.5968103  49.0465025
  30.6489803   3.7292995  59.5647159  31.2228665   3.0920239  59.7195722
  30.5704607   3.7297078  58.6956816  30.7223038   3.6358107  59.4593569
  19.2486220   0.5082205  53.4029873  19.8259722   0.3718655  54.0422118
  18.5500281   0.0517989  53.6575457  19.2307241   0.4204471  53.5352162
  32.6460351   2.3955522  42.1493830  32.5640513   2.4657709  43.0148817
  33.2840071   2.9585266  41.9577570  32.7280188   2.4894493  42.2483779
  26.0053522   2.1616260  51.6168356  25.7472766   1.3287995  51.5899655
  26.0602005   2.3873873  50.7760856  25.9753300   2.0714032  51.4888493
  24.9788234  -0.2845977  52.1033251  24.4037825  -0.1253809  52.7397212
  24.6023910  -0.9210568  51.6401701  24.8391046  -0.3548164  52.1287809
  28.6461523  -1.8122628  56.9625629  28.2575955  -2.2368410  56.3077820
  27.9816221  -1.5640478  57.4702656  28.4908450  -1.8383907  56.9413497
  29.7500461   2.4175977  45.1602436  30.5641100   2.7090869  45.0485207
  29.6859602   1.7635839  44.5860729  29.8603200   2.3641171  45.0591273
  35.9709951   5.1001973  59.5732012  35.7348589   4.2690038  59.4544072
  36.6153180   5.0487580  60.1586856  36.0304622   4.9699661  59.6417905
  25.6208369   5.8897494  50.2874748  26.2582316   5.6509242  50.8326542
  26.0463441   6.0934653  49.5527909  25.7784535   5.8848504  50.2591906
  20.3121012   8.1285831  54.1709052  20.3525157   8.4000682  53.3428832
  20.8715536   8.6527739  54.5866840  20.4004358   8.2461586  54.1100940
  26.2611184   1.1099784  44.6249638  26.6456337   0.8907491  45.3766183
  26.0122805   1.9362729  44.7550714  26.2813257   1.1997930  44.7550714
  36.9946372   4.8846422  55.6360306  36.6892189   5.6174478  55.9973622
  36.2752587   4.4784351  55.3553092  36.8433714   4.9328155  55.6473443
  28.0029841   6.3669917  51.9668534  28.0768849   6.2045089  52.8210384
  28.8199348   6.5560106  51.7229016  28.1346200   6.3706659  52.0566560
  42.6948164   1.5239422  54.9628650  42.6272664   1.5435381  54.0931237
  42.6803826   2.3669749  55.1884321  42.6826920   1.6513157  54.8681127
  21.7635598   6.7127780  48.9962978  20.9373716   6.9589517  48.8697257
  21.8247589   6.6339860  49.8625036  21.6509765   6.7372729  49.1051922
  26.5434427   9.3304660  46.6982008  26.8332725   8.9393641  45.9741234
  27.2737908   9.5121365  47.1387283  26.6941311   9.2998474  46.6564815
  40.4806781   0.2983808  53.2375245  41.0314703  -0.3348123  53.4772337
  40.4650897   0.8299201  53.9290749  40.5591978   0.2832757  53.3754103
  27.1329172   4.1322406  57.7835138  26.6340866   4.8438173  57.8620027
  27.9429396   4.4523072  57.7453301  27.1785279   4.2849254  57.7891707
  24.4840342  11.3072042  49.7642158  24.2640638  11.0169397  50.5568825
  24.2634865  10.6486997  49.2360070  24.4187937  11.1671751  49.8031066
  23.3957290   3.3945359  52.0297859  23.1070538   2.7682830  52.5643587
  24.2640638   3.3365646  52.0962540  23.4817542   3.2932903  52.1188814
  34.1835187  -1.4619858  52.3479841  33.8399953  -2.1829523  52.6987091
  34.2828230  -1.6706007  51.5058199  34.1477230  -1.5995655  52.2751521
  26.6508298  12.6801432  48.5472850  27.3032356  12.1477874  48.7763876
  25.9533907  12.3270084  48.9340724  26.6439016  12.5490955  48.6385018
  23.5989563   5.0340610  47.9540224  24.3535531   5.4153649  48.1675687
  23.0060176   5.4851753  48.4086921  23.6226277   5.1569437  48.0523103
  34.6448217   5.0005846  47.8903829  35.2106249   5.6599056  47.8062372
  33.9976120   5.3455544  48.3620231  34.6326973   5.1487787  47.9476586
  24.9187790   6.2049171  53.3280340  24.3968543   6.3449463  54.0132204
  25.3061810   5.4459835  53.5182457  24.8991491   6.1134695  53.4581416
  31.1154795   7.9444630  47.3140908  30.8741471   7.2112491  46.9067973
  31.2956128   8.4931487  46.6607242  31.1062419   7.9167022  47.1571131
  26.3454115   3.2353190  48.7261831  26.1496898   3.8427925  48.1322134
  26.5688461   2.5421134  48.2453505  26.3488756   3.2230716  48.5677912
  24.7432645   0.1207928  48.8442699  25.4655297   0.2849086  48.3846505
  24.2640638   0.8417593  48.7382039  24.7796376   0.2506158  48.7608313
  32.7026153  -3.5428273  54.2239384  31.8637253  -3.5166994  53.9877647
  32.7730520  -2.8957538  54.8044731  32.5894546  -3.4432147  54.2748501
  22.3940262   2.5266000  57.9496839  22.9061359   2.8050254  57.3005599
  22.1076605   3.2655295  58.3159652  22.4275125   2.6768354  57.9086717
  36.5783677   1.6639714  51.5100626  36.4917651   1.8195140  52.3635405
  36.1234157   2.3077789  51.1360031  36.4986933   1.7815469  51.5807733
  30.4509493  -1.0149539  50.1326185  30.2044207  -1.0953788  50.9662974
  30.7794616  -1.7996071  49.9388713  30.4630736  -1.1423274  50.2273708
  34.3457542   5.6933820  53.9212967  34.2071901   6.3914866  54.4261709
  33.5657539   5.5382477  53.5649148  34.2100768   5.7733987  53.9439241
  32.6835627   1.9930195  60.1735348  32.6783665   1.1210012  60.1777775
  33.3896621   2.1918365  59.7004804  32.7880631   1.8934070  60.1042384
  26.4106520   1.7207179  59.5449168  26.5549896   2.3008387  58.9092278
  26.7582169   2.0983476  60.2499023  26.4833981   1.8627883  59.5548163
  28.5826437   0.9197348  57.3274300  27.8349751   1.1128362  56.9222578
  28.7367963   0.0942567  57.0898421  28.4948865   0.8262459  57.2319706
  25.4834275   9.9109951  56.4110195  25.6323839   9.3512867  55.7583600
  26.2634277   9.9901953  56.7942714  25.6208369   9.8395517  56.3707144
  35.8410914   5.0512074  44.6829466  35.4617723   4.2649212  44.6758755
  35.1777160   5.5998931  44.5401110  35.6869389   5.0156898  44.6610263
  28.0087576  10.0824594  57.6894686  27.9331247   9.4133405  58.2445474
  27.9377435  10.7842382  58.2035352  27.9868183  10.0869501  57.8471534
  28.6657823   8.6025593  48.5218292  29.4307714   8.3335237  48.2000956
  28.5635913   8.1175603  49.2388355  28.7639318   8.4915158  48.5798120
  26.7010592  -3.1949998  55.0611528  25.9106667  -3.3758538  55.3828864
  27.0971215  -3.9723045  55.0441822  26.6427469  -3.3362537  55.1064076
  31.1876483   5.6337777  40.5018241  31.9549468   5.6937902  40.0924093
  30.7407792   5.0618218  40.0174560  31.2349910   5.5574352  40.3695952
  32.0854279   4.4392433  52.7870974  31.4099280   4.2077665  53.2884361
  32.0946655   3.8313615  52.1613079  31.9872783   4.3151358  52.7687126
  29.2148423  -0.7189739  59.5435027  29.1507564   0.1420218  59.4155163
  29.3545610  -1.0357745  58.7430578  29.2263893  -0.6389572  59.4063239
  34.0871013   7.2957565  45.0181152  34.1690851   8.1024551  44.6942602
  34.5720755   7.3153524  45.7421925  34.1708171   7.4178227  45.0768050
  27.8967517   1.9742401  53.6851230  27.4729766   2.1746900  52.9490248
  27.7212372   1.1271249  53.7975529  27.8078397   1.8791182  53.5924920
  27.3979210  13.4892914  56.1472687  27.8875140  12.7903703  55.9648351
  26.8263442  13.1916784  56.7348744  27.3863740  13.3419137  56.2073728
  23.1849961   2.4694452  49.1179202  23.3414581   2.4041255  49.9735194
  23.5250555   3.2443005  48.9057882  23.2583196   2.5743650  49.2133796
  29.7229106   1.8452336  47.9872565  30.2644652   1.3422717  48.4511186
  30.0375665   1.7917530  47.1762051  29.8493503   1.7631757  47.9356377
  33.5946214   6.0554983  65.0999477  34.4081079   5.7840132  65.2604610
  33.4341180   5.7562523  64.2959673  33.6916162   5.9709909  65.0044883
  27.8915556   7.2369687  45.2712593  27.9608376   6.3784226  45.4105594
  28.6704011   7.4541568  44.9431618  28.0168406   7.1422551  45.2429751
  30.8718375  -3.2611360  58.0394866  31.0860345  -3.9000445  57.4858220
  30.2552275  -2.8165536  57.6102727  30.8123705  -3.2901216  57.8945297
  32.2823043   9.6607389  49.4849087  31.8902835   9.3574104  48.7671953
  32.4376116  10.4976479  49.2954040  32.2476633   9.7391225  49.3505584
  19.7584223  -0.3470597  49.4339969  20.1383188   0.0713948  48.7700237
  19.1839588   0.2342858  49.7408813  19.7295548  -0.1992738  49.3816710
  33.0357463  -1.6522295  58.9778173  32.2234145  -1.9596404  59.0591346
  33.4947398  -2.1323294  59.5420885  32.9837848  -1.7685802  59.0732767
  32.4462718   6.2257377  49.4255117  32.0877373   6.3972020  50.2019150
  31.9601429   6.6870583  48.8683116  32.3221415   6.3196349  49.4580386
  27.2351084   1.9056543  41.9655352  27.5243608   2.6821425  42.2398926
  27.3222882   1.3945274  42.6669851  27.2905340   1.9448461  42.1097849
  33.6067458   7.1161273  60.3722318  34.2447178   6.6221469  60.0384774
  32.9641549   7.0438674  59.7874545  33.6061684   7.0320282  60.2364673
  35.3324458  -1.0349581  54.9388234  34.9052066  -1.1223232  54.1836333
  34.6950511  -0.9271805  55.5243078  35.1754065  -1.0316921  54.9133675
  33.6621714   7.8081082  57.0127675  34.4514092   7.4570146  57.1329756
  33.8365312   8.6217470  56.7504309  33.8041996   7.8766939  56.9915543
  23.4015025   1.2189807  54.0655464  22.5603031   1.1193682  54.2734357
  23.6105032   1.9885288  54.4169784  23.3079717   1.3181851  54.1482779
  20.8790591  -1.1590656  51.8940214  20.4847289  -1.0847644  51.1190324
  20.3230708  -0.7732709  52.4448576  20.7393404  -1.0908881  51.8607874
  27.2131689  -0.8528793  53.3153061  26.9094827  -1.4072805  53.9163469
  26.5111110  -0.6736583  52.8281095  27.0647899  -0.9084011  53.3322767
  26.2697786  -3.5428274  47.8797763  26.5457521  -4.2609361  47.4675331
  26.8696456  -2.9443354  47.6718869  26.3991051  -3.5607903  47.7878524
  25.2750040   6.3620927  58.0225159  25.1670395   6.3722989  58.8887217
  25.4845822   7.1875708  57.8330113  25.2900151   6.4862002  58.1229251
  23.2923832   3.6133570  55.4847097  22.7011766   4.2543068  55.4550112
  24.0544856   4.0371187  55.4578396  23.3172093   3.7709408  55.4762244
  39.4114254   3.4439339  56.4824375  39.4697378   3.8925988  57.2284351
  38.7780722   3.8538152  56.0454455  39.3265549   3.5713074  56.5276923
  33.0513349   9.0642881  52.9179121  32.8533037   9.5533696  52.2235332
  32.4301060   9.2684123  53.4963254  32.9300913   9.1659420  52.9002344
  27.1121327   0.8327778  47.2589365  27.8563372   1.2202054  47.4972315
  27.2582023  -0.0114796  47.4229853  27.2431912   0.7658251  47.3183335
  30.0999203  -3.5946749  53.1583285  29.6259157  -4.1204987  53.6688596
  30.4717339  -4.1417276  52.5898146  30.0849092  -3.7530752  53.1498432
  36.3635933   1.4655627  54.5690065  36.1234156   0.6262042  54.5732492
  36.8427941   1.5455794  55.2930839  36.3988117   1.3537027  54.6764867
  32.0282702  -2.7010194  46.2209038  31.5005721  -2.6181450  45.5314747
  32.4878411  -1.9592323  46.2173683  32.0184553  -2.5789532  46.1183734
  38.3641120  -1.7542916  52.5219324  38.1250890  -1.7947082  51.6840109
  38.5275022  -0.9071764  52.6485045  38.3531424  -1.6350831  52.4172806
  34.9687151   2.6307034  58.4524369  35.6921349   2.1779560  58.2735389
  34.7037113   2.9111699  57.6696697  35.0368424   2.6058002  58.3103085
  23.8374019  -2.7732793  55.1877249  23.2127089  -2.7614401  54.5803201
  23.5019614  -2.2972618  55.8368489  23.6959511  -2.7014276  55.1933817
  20.5499694   5.2867667  56.6281013  20.0199619   4.5960106  56.6775988
  20.8224788   5.2777853  55.7993721  20.5124417   5.1834799  56.5128429
  31.5819785   5.8693370  45.3518695  32.3053984   6.3351483  45.2083269
  31.1420376   5.9366979  44.6016292  31.6235477   5.9477206  45.2203477
  30.7505940   2.7290912  56.6019384  30.1362933   2.1848962  56.8968020
  31.2673225   2.2155148  56.1225201  30.7361602   2.5727321  56.5743613
  29.9902237   3.7995182  54.3363683  29.5629845   3.1744901  53.9029118
  29.9827182   3.5170104  55.1622690  29.9261378   3.6647963  54.3943511
  15.8295537   1.9595431  53.9849361  15.7238986   1.9142276  53.1201445
  15.0795757   2.3049212  54.2663646  15.7031140   2.0036340  53.8986691
  26.0203633  -0.0804736  56.2285860  25.1895562   0.0869082  56.0221109
  25.9655150  -0.4568785  57.0134746  25.8893047  -0.1115004  56.3134389
  24.3939676  -1.8049144  46.7575978  24.5342637  -1.3076680  47.4604619
  24.8922209  -2.5062850  46.8990192  24.4880757  -1.8347165  46.8827557
  24.4239899  -0.9382033  44.0868555  25.0584978  -0.3421608  44.0218017
  24.5065510  -1.2378575  44.9014425  24.5296450  -0.8941125  44.1971641
  37.4022465   1.5933444  56.9554919  37.9940305   2.2330695  56.9873117
  37.8381459   0.8956481  57.2446986  37.5540896   1.5851795  57.0035752
  26.0018882  -5.0068058  44.0613997  26.3234723  -5.4864975  43.4073259
  26.2645825  -4.1968411  43.8704809  26.0884907  -4.9578160  43.9369489
  29.2315854   6.0150817  57.5812813  28.7240945   6.5686664  58.0253444
  28.9342501   6.0759107  56.7631588  29.1120739   6.1057128  57.5261270
  20.9292887   1.2585808  47.3558101  21.4385116   1.8550315  47.7369406
  21.4027159   0.9911781  46.6734521  21.0736262   1.3071623  47.3112624
  31.8423635   9.9314075  45.5116757  31.1252944   9.7574937  45.0463994
  32.4930372   9.6966647  44.9792243  31.8325485   9.8709867  45.3645974
  34.4271606  -1.1921337  49.2558062  33.7562796  -0.6491635  49.1271127
  35.1211356  -0.7226482  49.0139756  34.4300473  -1.0423066  49.2013589
  28.4758340  10.9475375  54.4869820  28.2523994  10.1894204  54.8553846
  27.9868183  10.9773396  53.7650260  28.3701789  10.8397600  54.4346561
  23.2883418  -2.1057934  50.2231281  22.5695407  -1.6893801  50.4904145
  23.6595781  -1.5403695  49.6722920  23.2375350  -1.9608652  50.1814088
  32.5882999  -1.4730085  56.1133277  32.5680926  -1.6546790  56.9668056
  32.6362200  -0.6018066  56.0892861  32.5917640  -1.3713546  56.2356572
  30.5329329   5.1157107  62.0381754  30.4925184   4.4706784  61.4526910
  31.3452647   5.0593725  62.3507166  30.6472483   5.0116074  61.9978703
  27.1236797  11.1675833  51.9406905  26.7097195  10.5049963  51.5510746
  27.8084171  11.3153692  51.4202599  27.1635168  11.0916491  51.8063402
  30.4902091  10.3265918  52.6930521  30.0918374  10.4368189  51.9251341
  29.8753310  10.5347985  53.2757081  30.3400980  10.3739486  52.6661820
  29.0629993  -3.0659934  45.5604661  28.4694832  -2.7442937  45.0089228
  29.1005270  -3.9118838  45.3525767  28.9804382  -3.1435605  45.4487432
  31.9387809  -3.1080429  48.9906411  31.7101502  -3.0847728  48.1484769
  32.1985886  -3.9322962  49.1101422  31.9433997  -3.2264349  48.8831609
  24.9932572  -4.5703883  50.2860607  25.4689938  -4.2086803  49.6510788
  24.4921171  -3.9147415  50.5660749  24.9897931  -4.4209694  50.2337348
  38.2243933   4.9017885  46.0773612  38.6077539   5.6509241  46.3071709
  37.4288047   5.1483705  45.8185601  38.1637716   5.0487579  46.0731185
  27.0359225  -2.4262683  43.6533991  27.4158190  -2.4083054  42.8685105
  26.2951821  -1.9808694  43.5324838  26.9828063  -2.3580908  43.5197559
  32.3885368   0.5617010  52.8945776  32.8839033  -0.1559995  52.8549797
  31.5785143   0.2587808  52.7800263  32.3429261   0.4114656  52.8719502
  27.8343979   4.4114823  45.0442781  27.0255302   4.0881497  44.9976090
  28.3418888   3.7048045  44.9771029  27.7893646   4.2596140  45.0273075
  18.4634256   1.8387016  50.7690145  17.5979776   1.8272707  50.6572916
  18.5633072   1.6517239  51.6161284  18.3508423   1.8093078  50.8779089
  34.4537186   3.3120697  55.5822905  34.8792258   2.7895119  55.0293330
  34.0894106   3.9101535  55.0611528  34.4623789   3.3230924  55.4231915
  24.0891266  11.6084915  54.3420251  24.4037825  12.4221303  54.3498032
  24.4984680  11.2235134  55.0102410  24.1959364  11.6713617  54.4424342
  31.0415786   7.0254962  51.9124062  31.5126964   7.7395224  52.0814048
  31.3775964   6.4253712  52.4483932  31.1610901   7.0426426  52.0156438
  33.1292770   8.6356275  64.0916135  33.2389736   7.8464836  64.4472882
  33.4583667   8.5462211  63.2890473  33.1945176   8.5062128  64.0258525
  31.6789732   6.8172896  58.6751755  31.1310678   6.1930779  58.4071820
  32.1402761   7.0067168  57.9595835  31.6656942   6.7531946  58.5302186
  21.4304286   5.5558023  53.9898859  22.0349144   5.5153857  53.3612680
  21.2231599   6.4029175  54.0202915  21.4893184   5.6746026  53.9014975
  31.2448058   7.8223968  55.2061096  32.0646432   7.6786935  55.4677391
  30.9642136   8.4470167  55.7477534  31.3244802   7.8934321  55.3249036
  16.6655569   4.5392641  53.8597782  16.5679847   3.7288912  54.1687839
  17.4484438   4.5184434  53.4744050  16.7671705   4.4159731  53.8484645
  40.9161394  14.5664471  52.9256903  40.0599289  14.7272969  52.9766020
  40.9629047  13.6956535  52.9461964  40.7960505  14.4615273  52.9362969
  44.2255110  20.8350997  62.5317359  44.9321878  20.3403028  62.6604294
  44.4143046  21.2760078  61.8020017  44.3583016  20.8269347  62.4426405
  43.7613215  16.6256515  55.5688555  44.3069175  17.3041602  55.6282524
  43.7030091  16.4843976  54.7090136  43.8329129  16.7048517  55.4500615
  36.7188029  29.0323170  52.3571763  37.3625485  29.4736334  52.7467922
  37.0444285  28.2276597  52.2702022  36.8619858  28.9788365  52.4017240
  30.0752334  20.1365868  50.5809241  29.8402518  19.3033520  50.4741510
  30.2137975  20.4170533  49.7670442  30.0607996  20.0549371  50.4451596
  32.3742421  12.3051598  53.4793549  31.7547453  11.7144246  53.3103563
  32.2726285  12.8963034  52.8457872  32.2680097  12.3055681  53.3598538
  39.4710317  14.0451140  47.8126012  40.1690482  14.2239268  48.3047475
  39.7862649  13.5221480  47.1896401  39.6205654  13.9944912  47.7928022
  32.1011554  15.8503880  55.7237117  31.9770251  16.4366326  56.3586936
  32.7529839  15.3564076  56.0249392  32.1785204  15.8642685  55.8623047
  39.6598252  20.4321585  47.8005803  40.0991888  19.8238686  48.2460576
  39.5102915  20.0528959  47.0291268  39.7019718  20.2860056  47.7524970
  37.1269895  19.0265597  55.0024629  37.7718898  18.5338040  54.6835577
  37.3671672  19.1690384  55.8290707  37.2580480  18.9743039  55.0774162
  39.6655987  21.8720503  54.6531521  39.9479230  21.0771909  54.4318277
  40.3942147  22.3501090  54.6736582  39.8145550  21.8255100  54.6234536
  37.6437181   9.4143537  51.8947286  37.3140511   9.8654680  51.2250985
  36.9682182   9.3359700  52.4420293  37.4947617   9.4694672  51.8770510
  44.8513588   5.4029060  50.1396897  44.5367029   6.0932538  50.5717319
  44.3340530   5.3473842  49.4382398  44.7278059   5.4963948  50.0993846
  49.6474075  20.9779865  51.6267352  48.8171778  21.1890509  51.7900768
  49.5983327  20.1516920  51.3509636  49.5180810  20.8869471  51.6104717
  36.0825630  19.2996777  45.0541775  35.4982845  19.8046809  45.4607639
  35.6795725  19.0739164  44.3138367  35.9364934  19.3405026  45.0046801
  31.6369659  25.0151539  51.8565447  31.1537237  25.7402028  51.8325031
  32.4492977  25.3127669  51.9675605  31.6860406  25.1653892  51.8692726
  37.7083813  23.8083719  54.4615261  37.1910754  23.4491134  53.8576570
  38.4058204  23.2845894  54.4721328  37.7349394  23.6781407  54.3745520
  41.3647405  24.2578533  60.4231434  41.4530750  24.0704674  61.2709645
  41.7937117  23.6115963  60.0236281  41.4409507  24.1341541  60.4903186
  38.9317864  23.5409693  59.4049097  38.3688699  23.1282303  59.9288758
  39.6938888  23.4662599  59.8242240  38.9612313  23.4687094  59.5442097
  40.5402844  15.5462430  43.5310696  40.7798848  15.7540413  42.7186039
  40.8618685  14.7419938  43.6399641  40.6240002  15.4576531  43.4271249
  35.8493135   7.4755825  47.3770234  36.6039103   7.8434142  47.1387284
  35.6720669   7.8495380  48.1449414  35.9347613   7.5854013  47.4555122
  34.4913856  25.5307715  52.0085727  35.1934435  25.0159704  52.0658483
  34.4111339  25.8581866  52.8132602  34.5837616  25.5021941  52.1358519
  49.1428033  13.6250266  55.4217773  48.3056454  13.6952453  55.6565368
  49.1116264  13.6274761  54.5492076  49.0146316  13.6360493  55.3277321
  35.5392762  15.7683301  61.1366142  35.7113266  15.6589196  61.9851423
  36.0762120  16.4137707  60.8997334  35.6437766  15.8475303  61.2271239
  34.2050199   9.8826144  44.0748347  34.0225772  10.0998025  43.2489340
  35.0675812   9.9965157  44.1306961  34.3054789   9.9316042  43.9602834
  33.8164631  21.7214066  51.5171335  34.6553531  21.9536999  51.5645096
  33.8476400  20.8518378  51.4478370  33.9446349  21.6271013  51.5135980
  34.4417334  22.1414942  55.8184640  34.9815559  21.9986073  56.4888013
  33.7587281  22.5411692  56.1868667  34.4209488  22.1794613  55.9719062
  39.8849918   6.8852555  47.1097371  40.6136079   6.7068510  46.6635527
  39.9744811   7.7270635  47.3204549  40.0056581   6.9836433  47.0750888
  43.8658219  17.8205942  51.0129665  44.6215734  18.2537457  51.0518573
  43.9720544  17.1710712  51.5864301  43.9928390  17.7883426  51.1027690
  46.9038390  21.6479220  51.7632068  46.4673622  21.6515962  52.5191039
  46.5701306  22.3284719  51.3311645  46.7901010  21.7491675  51.8112900
  41.4767464  23.6887552  63.0875218  42.2607880  23.8018400  63.4530960
  41.2764058  22.8628689  63.2833904  41.5633489  23.5834272  63.1709604
  29.8454479  18.3615232  55.9719062  29.5792895  17.5454349  56.1310052
  29.8593043  18.4068388  55.1014577  29.8079202  18.2472137  55.8672544
  46.8235873   8.6893047  54.0061496  47.4661782   8.7591152  54.5923411
  47.0758894   8.0222270  53.5041038  46.9558005   8.6019396  54.0188775
  33.7512226  13.1600317  42.5870820  33.0370403  12.8738496  42.9993253
  34.2356195  13.4996943  43.2277207  33.7171590  13.1681967  42.7426455
  34.5953086  11.8993611  58.6186070  33.9024882  11.4290590  58.8646801
  35.2113413  11.6731915  59.1927777  34.5837616  11.7960743  58.7395222
  41.6337857  25.5997654  56.7341674  40.8353103  25.3597155  56.9915542
  42.0823869  25.6512047  57.4808721  41.5812468  25.5720046  56.8826598
  50.0382736  18.3660139  50.6551705  50.6999171  17.8050808  50.5547613
  49.3974148  17.8712170  50.9804396  50.0411604  18.2096548  50.6884045
  30.2547893  19.1474012  53.2530806  30.0723466  19.1220898  52.4003098
  30.9897562  19.6172950  53.2919715  30.3361957  19.2135374  53.1328725
  46.3247567  19.3825522  50.3963694  46.5603156  19.5270721  49.5690544
  46.4737131  20.1467930  50.7895207  46.3813370  19.5164576  50.3327298
  33.3193645  15.8659015  59.7612915  34.0433617  15.8512045  60.2477810
  33.4209781  16.5754370  59.2634883  33.4411854  15.9683718  59.7591702
  40.6938594  19.3458099  64.6261862  39.9011575  19.6601611  64.8114481
  40.8087521  19.5609568  63.7882646  40.5934005  19.4241936  64.5300197
  43.3669913  16.0692091  48.9156878  43.4616767  16.8081385  49.3696503
  42.7428757  15.6409566  49.3491442  43.2878943  16.1153411  49.0465025
  41.6222387  19.2478303  59.5647159  42.1961249  18.6105547  59.7195722
  41.5437191  19.2482386  58.6956816  41.6955622  19.1543415  59.4593569
  30.2218803  16.0267513  53.4029873  30.7992306  15.8903963  54.0422118
  29.5232865  15.5703297  53.6575457  30.2039825  15.9389779  53.5352162
  36.9786105  17.6801568  51.6168356  36.7205350  16.8473303  51.5899655
  37.0334588  17.9059181  50.7760856  36.9485883  17.5899339  51.4888493
  35.9520818  15.2339331  52.1033251  35.3770409  15.3931499  52.7397212
  35.5756494  14.5974740  51.6401701  35.8123630  15.1637144  52.1287809
  39.6194106  13.7062680  56.9625629  39.2308539  13.2816898  56.3077820
  38.9548805  13.9544830  57.4702656  39.4641034  13.6801401  56.9413497
  49.2617375  13.4637685  49.7373459  49.0053940  12.6517626  49.5471342
  50.1046689  13.4715252  49.5103646  49.3483401  13.3449682  49.6758276
  25.6977637  14.8779405  50.1177691  25.7837888  14.5011274  50.8991221
  26.3253434  14.5039851  49.6397650  25.8034188  14.7664888  50.1623169
  43.4420468   7.4037309  54.4749613  43.8230980   6.7215480  54.8617488
  42.6383752   7.1146911  54.2925278  43.3796930   7.2604357  54.5053669
  40.7233045  17.9361285  45.1602436  41.5373683  18.2276177  45.0485207
  40.6592186  17.2821147  44.5860729  40.8335784  17.8826479  45.0591273
  46.9442535  20.6187281  59.5732012  46.7081172  19.7875346  59.4544072
  47.5885764  20.5672888  60.1586856  47.0037205  20.4884969  59.6417905
  36.5940953  21.4082802  50.2874748  37.2314900  21.1694550  50.8326542
  37.0196024  21.6119961  49.5527909  36.7517119  21.4033812  50.2591906
  31.2853595  23.6471139  54.1709052  31.3257740  23.9185990  53.3428832
  31.8448119  24.1713047  54.5866840  31.3736941  23.7646894  54.1100940
  37.2343768  16.6285092  44.6249638  37.6188921  16.4092799  45.3766183
  36.9855388  17.4548037  44.7550714  37.2545840  16.7183238  44.7550714
  37.4012308   9.9091507  64.3412222  37.0865749  10.6791070  64.0781785
  37.0802241   9.3461763  63.7564449  37.3071227   9.9401776  64.2153572
  47.9678955  20.4031729  55.6360306  47.6624772  21.1359786  55.9973622
  47.2485171  19.9969659  55.3553092  47.8166298  20.4513462  55.6473443
  38.9762425  21.8855225  51.9668534  39.0501433  21.7230397  52.8210384
  39.7931931  22.0745414  51.7229016  39.1078783  21.8891967  52.0566560
  53.6680747  17.0424730  54.9628650  53.6005248  17.0620689  54.0931237
  53.6536410  17.8855057  55.1884321  53.6559504  17.1698465  54.8681127
  32.7368181  22.2313087  48.9962978  31.9106299  22.4774825  48.8697257
  32.7980173  22.1525168  49.8625036  32.6242348  22.2558036  49.1051922
  34.9544205   8.2982028  49.9558418  34.0866631   8.3704628  50.0216027
  35.2419410   9.1004107  50.1446393  34.8683953   8.4276176  49.9933185
  44.0777094   8.4459888  58.2869740  44.8230686   8.2569698  57.8733165
  43.6614399   8.9718126  57.7283596  44.1262068   8.4962033  58.1434313
  51.4539365  15.8169116  53.2375245  52.0047286  15.1837185  53.4772337
  51.4383480  16.3484509  53.9290749  51.5324561  15.8018064  53.3754103
  38.1061756  19.6507714  57.7835138  37.6073449  20.3623481  57.8620027
  38.9161980  19.9708380  57.7453301  38.1517862  19.8034562  57.7891707
  34.3689873  18.9130667  52.0297859  34.0803122  18.2868138  52.5643587
  35.2373221  18.8550954  52.0962540  34.4550125  18.8118211  52.1188814
  45.1567771  14.0565450  52.3479841  44.8132537  13.3355785  52.6987091
  45.2560814  13.8479301  51.5058199  45.1209814  13.9189653  52.2751521
  45.6180800  20.5191154  47.8903829  46.1838833  21.1784364  47.8062372
  44.9708704  20.8640852  48.3620231  45.6059557  20.6673095  47.9476586
  37.0328814  12.5088758  63.0797437  36.2228589  12.8146538  62.9687279
  37.5103500  13.2294340  63.1950021  36.9832292  12.6603359  63.0804508
  35.8920373  21.7234479  53.3280340  35.3701127  21.8634771  54.0132204
  36.2794394  20.9645143  53.5182457  35.8724074  21.6320003  53.4581416
  32.8811557  11.7740288  47.3975294  32.5936353  11.4041558  46.6607242
  33.5682025  12.2435143  47.1358999  32.9400455  11.7887257  47.2490370
  37.3186699  18.7538498  48.7261831  37.1229481  19.3613233  48.1322134
  37.5421044  18.0606442  48.2453505  37.3221340  18.7416024  48.5677912
  35.7165229  15.6393236  48.8442699  36.4387881  15.8034394  48.3846505
  35.2373222  16.3602901  48.7382039  35.7528960  15.7691466  48.7608313
  43.6758736  11.9757035  54.2239384  42.8369837  12.0018314  53.9877647
  43.7463104  12.6227770  54.8044731  43.5627130  12.0753161  54.2748501
  33.3672846  18.0451308  57.9496839  33.8793942  18.3235562  57.3005599
  33.0809188  18.7840602  58.3159652  33.4007709  18.1953662  57.9086717
  42.1228015   8.8742412  48.9567000  42.8254368   8.6750160  48.4786958
  41.8572203   8.1018354  49.2635843  42.1874647   8.7305378  48.9312442
  47.5516260  17.1825022  51.5100626  47.4650235  17.3380448  52.3635405
  47.0966740  17.8263097  51.1360031  47.4719517  17.3000777  51.5807733
  30.4539752  12.5521500  48.2460575  30.5555888  13.3547662  48.5741551
  31.2495639  12.3508836  47.9483656  30.5867657  12.6407399  48.2495931
  36.8856571  10.1377697  58.0097881  36.6939768  10.1532831  58.8597304
  37.7355167  10.3341371  57.9864535  36.9832293  10.1692048  58.1321175
  31.2703484  12.6668678  55.9881697  31.1288976  11.8152619  56.1126205
  31.5544047  12.7097339  55.1643903  31.2911330  12.5468428  55.8849321
  41.4242076  14.5035769  50.1326185  41.1776791  14.4231520  50.9662974
  41.7527199  13.7189236  49.9388713  41.4363320  14.3762034  50.2273708
  45.3190125  21.2119128  53.9212967  45.1804484  21.9100174  54.4261709
  44.5390123  21.0567784  53.5649148  45.1833352  21.2919295  53.9439241
  43.6568210  17.5115503  60.1735348  43.6516249  16.6395320  60.1777775
  44.3629204  17.7103673  59.7004804  43.7613214  17.4119378  60.1042384
  37.3839104  17.2392487  59.5449168  37.5282479  17.8193695  58.9092278
  37.7314752  17.6168784  60.2499023  37.4566565  17.3813191  59.5548163
  39.5559021  16.4382656  57.3274300  38.8082335  16.6313670  56.9222578
  39.7100546  15.6127875  57.0898421  39.4681449  16.3447767  57.2319706
  36.4566859  25.4295259  56.4110195  36.6056422  24.8698175  55.7583600
  37.2366861  25.5087261  56.7942714  36.5940952  25.3580825  56.3707144
  38.9820159  25.6009902  57.6894686  38.9063830  24.9318713  58.2445474
  38.9110018  26.3027690  58.2035352  38.9600766  25.6054809  57.8471534
  39.7960798  10.3333206  58.2169704  40.2533412  11.0657181  58.3442496
  39.8717127   9.9099672  58.9756959  39.8751768  10.3790444  58.3470780
  32.0393789  10.5799026  59.3059147  31.5035979   9.9679384  59.6219915
  32.1011554  11.1547162  59.9592814  31.9689422  10.5745954  59.4494574
  44.2688124   3.5123082  52.0863547  44.3871692   3.9699545  51.3530849
  44.0950300   2.7068343  51.7999764  44.2607295   3.4616854  51.9364480
  37.6743176  12.3235310  55.0611528  36.8839251  12.1426770  55.3828864
  38.0703799  11.5462263  55.0441822  37.6160052  12.1822771  55.1064076
  43.0586862  19.9577740  52.7870974  42.3831864  19.7262973  53.2884361
  43.0679238  19.3498923  52.1613079  42.9605367  19.8336666  52.7687126
  40.1881006  14.7995569  59.5435027  40.1240147  15.6605526  59.4155163
  40.3278194  14.4827563  58.7430578  40.1996476  14.8795736  59.4063239
  38.8700100  17.4927709  53.6851230  38.4462349  17.6932208  52.9490248
  38.6944955  16.6456557  53.7975529  38.7810981  17.3976490  53.5924920
  38.3711794  29.0078222  56.1472687  38.8607724  28.3089011  55.9648351
  37.7996026  28.7102092  56.7348744  38.3596323  28.8604445  56.2073728
  34.1582545  17.9879760  49.1179202  34.3147164  17.9226563  49.9735194
  34.4983138  18.7628313  48.9057882  34.2315780  18.0928958  49.2133796
  40.6961690  17.3637644  47.9872565  41.2377235  16.8608025  48.4511186
  41.0108249  17.3102838  47.1762051  40.8226087  17.2817065  47.9356377
  44.5678797  21.5740291  65.0999477  45.3813662  21.3025440  65.2604610
  44.4073763  21.2747831  64.2959673  44.6648746  21.4895217  65.0044883
  41.8450959  12.2573948  58.0394866  42.0592929  11.6184862  57.4858220
  41.2284858  12.7019772  57.6102727  41.7856288  12.2284092  57.8945297
  30.7316807  15.1714711  49.4339969  31.1115771  15.5899256  48.7700237
  30.1572171  15.7528166  49.7408813  30.7028131  15.3192569  49.3816710
  43.4195302  21.7442685  49.4255117  43.0609956  21.9157328  50.2019150
  42.9334012  22.2055891  48.8683116  43.2953999  21.8381656  49.4580386
  41.2365688   5.3673884  53.0282209  40.3659246   5.3412605  52.9815518
  41.4906029   5.1951076  52.2108054  41.1459248   5.3384028  52.9002345
  38.2083667  17.4241851  41.9655352  38.4976192  18.2006733  42.2398926
  38.2955466  16.9130582  42.6669851  38.2637923  17.4633769  42.1097849
  41.1043555  15.2723085  63.7606875  41.5743186  15.8965201  64.1474749
  41.1505435  14.6040060  64.3200090  41.1811430  15.2657765  63.9006947
  38.2614828   7.3780112  54.4855679  37.7453317   6.6860304  54.6107258
  37.7008757   8.0450889  54.4318278  38.1021341   7.3743370  54.4961745
  40.3307062   7.9173072  56.3148531  39.9438815   7.9422104  57.0962061
  39.8439999   7.3514751  55.8623048  40.2019571   7.8368823  56.3636435
  44.5800041  22.6346581  60.3722318  45.2179762  22.1406777  60.0384774
  43.9374133  22.5623982  59.7874545  44.5794268  22.5505590  60.2364673
  46.3057041  14.4835727  54.9388234  45.8784649  14.3962076  54.1836333
  45.6683094  14.5913503  55.5243078  46.1486648  14.4868387  54.9133675
  39.9964203   4.8040058  58.6058791  40.6257321   5.3400358  58.3279862
  40.1650066   4.7117417  59.4572357  40.1141998   4.8701420  58.6907320
  39.7978118   9.5911253  60.8785203  40.6251548   9.3196401  60.9343817
  39.8185964  10.3872094  61.2349021  39.9230968   9.6691007  60.9400386
  44.6354298  23.3266390  57.0127675  45.4246676  22.9755454  57.1329756
  44.8097896  24.1402778  56.7504309  44.7774579  23.3952247  56.9915543
  34.3747608  16.7375115  54.0655464  33.5335615  16.6378990  54.2734357
  34.5837616  17.5070596  54.4169784  34.2812301  16.8367159  54.1482779
  31.8523175  14.3594652  51.8940214  31.4579873  14.4337664  51.1190324
  31.2963292  14.7452599  52.4448576  31.7125987  14.4276427  51.8607874
  43.4888122   7.3375946  51.5744093  43.6937715   7.2698254  52.4201090
  43.1614546   8.1434768  51.5065271  43.4703370   7.4461887  51.6903748
  38.1864273  14.6656515  53.3153061  37.8827410  14.1112503  53.9163469
  37.4843694  14.8448725  52.8281095  38.0380483  14.6101297  53.3322767
  37.2430370  11.9757034  47.8797763  37.5190104  11.2575947  47.4675331
  37.8429039  12.5741954  47.6718869  37.3723635  11.9577405  47.7878524
  36.2482624  21.8806235  58.0225159  36.1402979  21.8908297  58.8887217
  36.4578405  22.7061016  57.8330113  36.2632735  22.0047310  58.1229251
  46.7421810   7.8907711  51.0546859  46.1296123   8.3778113  51.4400591
  46.8385984   7.2151201  51.5984510  46.6659707   7.8626019  51.1925717
  40.7440891   9.6470552  46.1544358  41.1984637   9.8181112  46.8792203
  41.2180936   9.0338662  45.7542134  40.8809211   9.5821437  46.2018120
  34.2656416  19.1318878  55.4847097  33.6744349  19.7728376  55.4550112
  35.0277440  19.5556495  55.4578396  34.2904677  19.2894716  55.4762244
  34.6617039  10.2920875  56.1515114  35.1218520  10.3659805  56.8890238
  34.7073145  11.0902129  55.8014936  34.7367594  10.4215022  56.2087871
  36.3100388  10.9587570  60.7187141  35.9185954  10.3120917  61.1542919
  36.4786251  11.5499006  61.3381397  36.2771299  10.9501838  60.8749847
  50.3846838  18.9624647  56.4824375  50.4429961  19.4111296  57.2284351
  49.7513305  19.3723460  56.0454455  50.2998133  19.0898382  56.5276923
  44.0245932  24.5828189  52.9179121  43.8265621  25.0719004  52.2235332
  43.4033643  24.7869431  53.4963254  43.9033497  24.6844728  52.9002344
  38.0853911  16.3513086  47.2589365  38.8295955  16.7387362  47.4972315
  38.2314607  15.5070511  47.4229853  38.2164496  16.2843559  47.3183335
  40.0033486   8.1463345  52.2921227  39.1569531   8.3186153  52.1662576
  40.0004618   7.3412689  52.6287055  39.8780636   8.0524374  52.3232354
  41.0731786  11.9238559  53.1583285  40.5991741  11.3980321  53.6688596
  41.4449922  11.3768032  52.5898146  41.0581675  11.7654556  53.1498432
  31.4504817  13.9210066  58.5266830  32.3130430  13.8205775  58.4404160
  31.1196600  13.3404775  57.9652403  31.5290013  13.8201693  58.4312236
  47.3368517  16.9840935  54.5690065  47.0966740  16.1447350  54.5732492
  47.8160524  17.0641102  55.2930839  47.3720701  16.8722335  54.6764867
  43.0015286  12.8175114  46.2209038  42.4738305  12.9003858  45.5314747
  43.4610994  13.5592985  46.2173683  42.9917137  12.9395776  46.1183734
  49.3373704  13.7642392  52.5219324  49.0983474  13.7238226  51.6840109
  49.5007605  14.6113544  52.6485045  49.3264007  13.8834477  52.4172806
  45.9419734  18.1492342  58.4524369  46.6653933  17.6964868  58.2735389
  45.6769696  18.4297007  57.6696697  46.0101007  18.1243310  58.3103085
  34.8106603  12.7452515  55.1877249  34.1859673  12.7570907  54.5803201
  34.4752197  13.2212690  55.8368489  34.6692094  12.8171032  55.1933817
  34.9948351  11.0877634  41.2449934  34.6461156  11.7397359  41.7081483
  34.5144797  11.0734747  40.5173805  34.8718595  11.1820687  41.2061025
  31.5232278  20.8052975  56.6281013  30.9932203  20.1145414  56.6775988
  31.7957371  20.7963161  55.7993721  31.4857000  20.7020107  56.5128429
  41.7238524  18.2476220  56.6019384  41.1095517  17.7034270  56.8968020
  42.2405809  17.7340456  56.1225201  41.7094186  18.0912629  56.5743613
  40.9634821  19.3180490  54.3363683  40.5362429  18.6930208  53.9029118
  40.9559765  19.0355412  55.1622690  40.8993962  19.1833270  54.3943511
  34.0797348  14.3545663  57.4052117  34.2390835  13.5988987  57.8103839
  33.8990242  14.9036602  58.0592855  34.0762707  14.3239477  57.5614823
  42.0217651   6.5206898  57.9602907  41.5258212   6.7170573  57.2694473
  42.7786713   6.9199567  57.7891708  42.0604476   6.6084632  57.8323043
  39.2920530  10.1949244  54.5506217  39.3163018   9.6609357  53.8618997
  39.5432004   9.6866553  55.2131808  39.3330449  10.0410148  54.5470862
  26.8028120  17.4780739  53.9849361  26.6971569  17.4327584  53.1201445
  26.0528340  17.8234520  54.2663646  26.6763723  17.5221647  53.8986691
  35.5721853   8.9220063  53.9311961  35.6120224   9.4229269  54.6446669
  34.7471517   9.0130456  53.6617884  35.4561379   9.0101879  53.9962500
  37.7551466  18.4880803  62.0332256  36.9047096  18.6252517  62.1689901
  37.9179593  17.7544581  62.4779958  37.6535329  18.3994904  62.1187855
  36.9936216  15.4380572  56.2285860  36.1628146  15.6054390  56.0221109
  36.9387733  15.0616523  57.0134746  36.8625631  15.4070304  56.3134389
  34.8019999   8.9289465  61.8642271  35.4272703   8.3851598  62.1371703
  34.3470479   8.4484383  61.2950061  34.8268260   8.7778947  61.8203865
  35.3672260  13.7136164  46.7575978  35.5075221  14.2108628  47.4604619
  35.8654793  13.0122458  46.8990192  35.4613341  13.6838143  46.8827557
  35.3972482  14.5803275  44.0868555  36.0317562  15.1763700  44.0218017
  35.4798093  14.2806733  44.9014425  35.5029033  14.6244183  44.1971641
  48.3755048  17.1118752  56.9554919  48.9672888  17.7516003  56.9873117
  48.8114043  16.4141789  57.2446986  48.5273479  17.1037103  57.0035752
  36.9751465  10.5117250  44.0613997  37.2967306  10.0320333  43.4073259
  37.2378409  11.3216896  43.8704809  37.0617491  10.5607148  43.9369489
  40.2048438  21.5336125  57.5812813  39.6973529  22.0871972  58.0253444
  39.9075084  21.5944415  56.7631588  40.0853323  21.6242436  57.5261270
  42.3710620   9.8989444  56.4237476  42.7965692   9.4461971  55.8121002
  41.7567613   9.3449515  56.7002263  42.3439266   9.7503421  56.3742501
  31.9025470  16.7771116  47.3558101  32.4117700  17.3735623  47.7369406
  32.3759742  16.5097089  46.6734521  32.0468846  16.8256931  47.3112624
  40.8104843   6.3704544  49.8328053  40.1673161   6.2202191  50.4013191
  40.4704250   6.1246889  49.0677158  40.6649920   6.3116667  49.8031068
  45.4004189  14.3263971  49.2558062  44.7295379  14.8693673  49.1271127
  46.0943940  14.7958826  49.0139756  45.4033057  14.4762242  49.2013589
  39.4490923  26.4660683  54.4869820  39.2256578  25.7079512  54.8553846
  38.9600767  26.4958704  53.7650260  39.3434372  26.3582908  54.4346561
  45.5632317  10.7819855  52.1648435  45.9159927  10.3549578  52.8394234
  44.7047118  10.6970698  52.2949511  45.4881762  10.7064595  52.2843445
  34.2616002  13.4127374  50.2231281  33.5427991  13.8291507  50.4904145
  34.6328364  13.9781613  49.6722920  34.2107934  13.5576656  50.1814088
  43.5615583  14.0455223  56.1133277  43.5413510  13.8638518  56.9668056
  43.6094783  14.9167242  56.0892861  43.5650224  14.1471761  56.2356572
  41.5061913  20.6342415  62.0381754  41.4657767  19.9892092  61.4526910
  42.3185231  20.5779033  62.3507166  41.6205066  20.5301382  61.9978703
  41.4634674  25.8451226  52.6930521  41.0650957  25.9553497  51.9251341
  40.8485894  26.0533293  53.2757081  41.3133564  25.8924794  52.6661820
  40.0362576  12.4525374  45.5604661  39.4427416  12.7742371  45.0089228
  40.0737854  11.6066470  45.3525767  39.9536965  12.3749702  45.4487432
  46.9956377   5.9038266  53.0932747  46.4887242   5.1967406  53.0253925
  47.7923811   5.5731455  53.2233824  47.0383616   5.7511418  53.1031742
  42.9120393  12.4104879  48.9906411  42.6834086  12.4337580  48.1484769
  43.1718469  11.5862346  49.1101422  42.9166581  12.2920959  48.8831609
  37.1939621  14.2639352  58.5931511  36.6818524  13.6560535  58.9516543
  37.0219117  14.9795944  59.0605487  37.0929258  14.2802651  58.7147735
  32.0405336  12.7076927  61.2433873  31.8707926  13.3678302  60.6982080
  31.5971286  12.9183488  61.9646362  31.9504670  12.8362909  61.2695503
  35.9665155  10.9481425  50.2860607  36.4422522  11.3098505  49.6510788
  35.4653755  11.6037893  50.5660749  35.9630514  11.0975614  50.2337348
  41.0708692  12.1863596  61.0333767  41.6280122  11.9577406  60.4012232
  40.7469757  12.9469262  60.7568979  41.1055102  12.2647433  60.8990264
  28.9407401  15.6123793  56.5022363  28.3934120  14.9424438  56.6203231
  29.7299779  15.2453641  56.5665830  28.9759584  15.4588779  56.5291063
  38.7891809  15.2731250  61.9985774  39.5403136  15.5882927  62.3125328
  38.9814385  15.0710421  61.1719696  38.9283223  15.2898632  61.9229170
  38.0091809  13.0922625  43.6533991  38.3890773  13.1102254  42.8685105
  37.2684405  13.5376614  43.5324838  37.9560646  13.1604399  43.5197559
  45.6377099  11.4004816  49.2409569  45.6371325  11.2453473  50.0993846
  45.4333279  12.2467803  49.1850955  45.6076877  11.5025437  49.3597509
  27.6994370  14.8244600  53.6568386  27.5216131  14.3721209  54.3823302
  27.4113392  15.6270762  53.8406863  27.6307323  14.8767158  53.7911889
  43.3617951  16.0802318  52.8945776  43.8571616  15.3625313  52.8549797
  42.5517727  15.7773115  52.7800263  43.3161844  15.9299964  52.8719502
  29.4366840  17.3572324  50.7690145  28.5712359  17.3458015  50.6572916
  29.5365656  17.1702547  51.6161284  29.3241007  17.3278385  50.8779089
  45.4269770  18.8306005  55.5822905  45.8524842  18.3080427  55.0293330
  45.0626690  19.4286843  55.0611528  45.4356373  18.8416232  55.4231915
  35.0623850  27.1270223  54.3420251  35.3770409  27.9406611  54.3498032
  35.4717263  26.7420441  55.0102410  35.1691948  27.1898925  54.4424342
  42.0148369  22.5440270  51.9124062  42.4859548  23.2580532  52.0814048
  42.3508548  21.9439020  52.4483932  42.1343484  22.5611734  52.0156438
  44.1025354  24.1541583  64.0916135  44.2122319  23.3650144  64.4472882
  44.4316251  24.0647519  63.2890473  44.1677760  24.0247436  64.0258525
  38.9317864   7.3167740  58.8682157  39.0645770   6.5198734  59.1963133
  39.3163017   7.8434143  59.4480433  39.0074193   7.2767657  59.0025660
  42.6522316  22.3358204  58.6751755  42.1043262  21.7116087  58.4071820
  43.1135344  22.5252476  57.9595835  42.6389525  22.2717254  58.5302186
  42.0050220   4.2398066  55.4663251  41.1996183   4.1295796  55.7831089
  41.8756955   4.3410522  54.6093116  41.8670352   4.2381736  55.3871291
  45.4616180  10.4043558  56.0602947  44.8779169  10.9052765  55.6480515
  45.7820474   9.8973114  55.4267271  45.4229355  10.4035393  55.9061455
  38.0010979   9.3184153  46.3361622  38.8226674   9.4882466  46.0943317
  37.5380630   9.4731414  45.6127920  38.0542142   9.3665886  46.1933267
  36.5906311   7.3126915  57.1160051  37.1350724   6.9718042  57.7064393
  36.6443247   8.1712377  57.2581336  36.6795431   7.3882175  57.2241924
  32.4036870  21.0743331  53.9898859  33.0081727  21.0339165  53.3612680
  32.1964182  21.9214483  54.0202915  32.4625767  21.1931334  53.9014975
  42.2180642  23.3409276  55.2061096  43.0379016  23.1972242  55.4677391
  41.9374720  23.9655475  55.7477534  42.2977385  23.4119628  55.3249036
  27.6388152  20.0577949  53.8597782  27.5412430  19.2474220  54.1687839
  28.4217022  20.0369742  53.4744050  27.7404289  19.9345039  53.8484645
  58.6894292  30.9974128  48.1703973  58.6588297  31.8518765  48.3422242
  59.2875641  30.6969421  48.7290116  58.7731450  31.0790625  48.2778775
  51.8893977  30.0849779  52.9256903  51.0331873  30.2458277  52.9766020
  51.9361631  29.2141843  52.9461964  51.7693089  29.9800581  52.9362969
  55.1987694  36.3536305  62.5317359  55.9054461  35.8588335  62.6604294
  55.3875629  36.7945386  61.8020017  55.3315599  36.3454655  62.4426405
  54.7345798  32.1441823  55.5688555  55.2801758  32.8226910  55.6282524
  54.6762675  32.0029284  54.7090136  54.8061713  32.2233825  55.4500615
  43.3475005  27.8236906  53.4793549  42.7280037  27.2329554  53.3103563
  43.2458868  28.4148342  52.8457872  43.2412680  27.8240989  53.3598538
  50.4442901  29.5636448  47.8126012  51.1423065  29.7424576  48.3047475
  50.7595233  29.0406787  47.1896401  50.5938238  29.5130220  47.7928022
  43.0744138  31.3689188  55.7237117  42.9502835  31.9551634  56.3586936
  43.7262422  30.8749384  56.0249392  43.1517787  31.3827992  55.8623047
  48.6169764  24.9328845  51.8947286  48.2873094  25.3839988  51.2250985
  47.9414766  24.8545008  52.4420293  48.4680200  24.9879980  51.8770510
  55.8246172  20.9214368  50.1396897  55.5099613  21.6117846  50.5717319
  55.3073114  20.8659150  49.4382398  55.7010642  21.0149256  50.0993846
  60.6206659  36.4965173  51.6267352  59.7904362  36.7075817  51.7900768
  60.5715911  35.6702228  51.3509636  60.4913394  36.4054779  51.6104717
  60.1160617  29.1435574  55.4217773  59.2789038  29.2137761  55.6565368
  60.0848848  29.1460069  54.5492076  59.9878899  29.1545801  55.3277321
  46.5125346  31.2868609  61.1366142  46.6845850  31.1774504  61.9851423
  47.0494703  31.9323015  60.8997334  46.6170350  31.3660611  61.2271239
  57.8770974  37.1664528  51.7632068  57.4406206  37.1701270  52.5191039
  57.5433889  37.8470026  51.3311645  57.7633594  37.2676983  51.8112900
  52.4500047  39.2072860  63.0875218  53.2340464  39.3203708  63.4530960
  52.2496642  38.3813997  63.2833904  52.5366073  39.1019580  63.1709604
  57.7968457  24.2078355  54.0061496  58.4394365  24.2776460  54.5923411
  58.0491477  23.5407578  53.5041038  57.9290589  24.1204704  54.0188775
  45.5685669  27.4178919  58.6186070  44.8757466  26.9475898  58.8646801
  46.1845997  27.1917223  59.1927777  45.5570199  27.3146051  58.7395222
  61.0115320  33.8845447  50.6551705  61.6731754  33.3236116  50.5547613
  60.3706732  33.3897478  50.9804396  61.0144188  33.7281856  50.6884045
  57.2980151  34.9010830  50.3963694  57.5335740  35.0456029  49.5690544
  57.4469714  35.6653238  50.7895207  57.3545954  35.0349884  50.3327298
  44.2926228  31.3844323  59.7612915  45.0166201  31.3697353  60.2477810
  44.3942365  32.0939678  59.2634883  44.4144437  31.4869026  59.7591702
  59.1270607  33.7412496  48.2333298  59.4578825  34.2740136  47.6273392
  59.7003696  33.7951383  48.8895248  59.2604287  33.8282065  48.2411079
  51.6671178  34.8643407  64.6261862  50.8744158  35.1786919  64.8114481
  51.7820105  35.0794876  63.7882646  51.5666588  34.9427244  64.5300197
  52.5954970  34.7663611  59.5647159  53.1693832  34.1290855  59.7195722
  52.5169774  34.7667693  58.6956816  52.6688205  34.6728722  59.4593569
  53.0319739  25.3015327  51.7172449  52.3276066  24.8124512  51.8756368
  53.0804714  25.3137801  50.8460893  52.9349791  25.2304975  51.6111788
  50.5926690  29.2247988  56.9625629  50.2041123  28.8002206  56.3077820
  49.9281388  29.4730138  57.4702656  50.4373618  29.1986709  56.9413497
  60.2349959  28.9822993  49.7373459  59.9786524  28.1702934  49.5471342
  61.0779273  28.9900560  49.5103646  60.3215984  28.8634990  49.6758276
  54.4153051  22.9222617  54.4749613  54.7963563  22.2400788  54.8617488
  53.6116336  22.6332219  54.2925278  54.3529513  22.7789665  54.5053669
  57.9175118  36.1372589  59.5732012  57.6813756  35.3060653  59.4544072
  58.5618347  36.0858196  60.1586856  57.9769789  36.0070277  59.6417905
  48.3744892  25.4276815  64.3412222  48.0598333  26.1976378  64.0781785
  48.0534824  24.8647071  63.7564449  48.2803811  25.4587084  64.2153572
  58.9411539  35.9217037  55.6360306  58.6357356  36.6545094  55.9973622
  58.2217755  35.5154967  55.3553092  58.7898881  35.9698770  55.6473443
  64.6413331  32.5610038  54.9628650  64.5737831  32.5805997  54.0931237
  64.6268993  33.4040365  55.1884321  64.6292088  32.6883773  54.8681127
  45.9276789  23.8167336  49.9558418  45.0599214  23.8889936  50.0216027
  46.2151993  24.6189415  50.1446393  45.8416537  23.9461483  49.9933185
  55.0509678  23.9645196  58.2869740  55.7963270  23.7755006  57.8733165
  54.6346982  24.4903434  57.7283596  55.0994652  24.0147341  58.1434313
  62.4271948  31.3354424  53.2375245  62.9779870  30.7022493  53.4772337
  62.4116064  31.8669817  53.9290749  62.5057145  31.3203372  53.3754103
  49.0794339  35.1693022  57.7835138  48.5806033  35.8808789  57.8620027
  49.8894564  35.4893688  57.7453301  49.1250446  35.3219870  57.7891707
  56.1300355  29.5750758  52.3479841  55.7865120  28.8541093  52.6987091
  56.2293397  29.3664609  51.5058199  56.0942397  29.4374961  52.2751521
  48.0061397  28.0274066  63.0797437  47.1961173  28.3331846  62.9687279
  48.4836084  28.7479648  63.1950021  47.9564876  28.1788667  63.0804508
  54.6491320  27.4942343  54.2239384  53.8102421  27.5203622  53.9877647
  54.7195687  28.1413078  54.8044731  54.5359713  27.5938469  54.2748501
  44.3405429  33.5636616  57.9496839  44.8526526  33.8420870  57.3005599
  44.0541772  34.3025910  58.3159652  44.3740292  33.7138970  57.9086717
  53.0960598  24.3927720  48.9567000  53.7986951  24.1935468  48.4786958
  52.8304787  23.6203662  49.2635843  53.1607231  24.2490686  48.9312442
  58.5248844  32.7010329  51.5100626  58.4382818  32.8565756  52.3635405
  58.0699324  33.3448405  51.1360031  58.4452100  32.8186085  51.5807733
  47.8589155  25.6563005  58.0097881  47.6672352  25.6718139  58.8597304
  48.7087750  25.8526679  57.9864535  47.9564876  25.6877356  58.1321175
  42.2436068  28.1853986  55.9881697  42.1021559  27.3337927  56.1126205
  42.5276631  28.2282647  55.1643903  42.2643914  28.0653736  55.8849321
  52.3974660  30.0221077  50.1326185  52.1509374  29.9416827  50.9662974
  52.7259783  29.2374544  49.9388713  52.4095903  29.8947342  50.2273708
  56.2922709  36.7304436  53.9212967  56.1537068  37.4285482  54.4261709
  55.5122707  36.5753092  53.5649148  56.1565936  36.8104603  53.9439241
  54.6300794  33.0300811  60.1735348  54.6248832  32.1580628  60.1777775
  55.3361788  33.2288980  59.7004804  54.7345798  32.9304685  60.1042384
  48.3571687  32.7577795  59.5449168  48.5015063  33.3379003  58.9092278
  48.7047336  33.1354092  60.2499023  48.4299149  32.8998499  59.5548163
  50.5291605  31.9567964  57.3274300  49.7814919  32.1498978  56.9222578
  50.6833130  31.1313183  57.0898421  50.4414032  31.8633075  57.2319706
  50.7693382  25.8518514  58.2169704  51.2265996  26.5842489  58.3442496
  50.8449710  25.4284980  58.9756959  50.8484351  25.8975752  58.3470780
  43.0126373  26.0984334  59.3059147  42.4768562  25.4864692  59.6219915
  43.0744138  26.6732470  59.9592814  42.9422005  26.0931262  59.4494574
  55.2420707  19.0308389  52.0863547  55.3604276  19.4884853  51.3530849
  55.0682883  18.2253651  51.7999764  55.2339878  18.9802162  51.9364480
  48.6475759  27.8420618  55.0611528  47.8571834  27.6612078  55.3828864
  49.0436382  27.0647571  55.0441822  48.5892636  27.7008079  55.1064076
  51.1613590  30.3180877  59.5435027  51.0972731  31.1790834  59.4155163
  51.3010777  30.0012871  58.7430578  51.1729060  30.3981044  59.4063239
  55.5411381  37.0925599  65.0999477  56.3546246  36.8210748  65.2604610
  55.3806347  36.7933139  64.2959673  55.6381329  37.0080525  65.0044883
  52.8183543  27.7759256  58.0394866  53.0325512  27.1370170  57.4858220
  52.2017442  28.2205080  57.6102727  52.7588872  27.7469400  57.8945297
  54.9822631  29.3848321  58.9778173  54.1699312  29.0774212  59.0591346
  55.4412565  28.9047321  59.5420885  54.9303015  29.2684814  59.0732767
  52.2098271  20.8859192  53.0282209  51.3391829  20.8597913  52.9815518
  52.4638613  20.7136384  52.2108054  52.1191831  20.8569336  52.9002345
  52.0776138  30.7908393  63.7606875  52.5475769  31.4150509  64.1474749
  52.1238018  30.1225368  64.3200090  52.1544014  30.7843073  63.9006947
  49.2347412  22.8965420  54.4855679  48.7185900  22.2045612  54.6107258
  48.6741341  23.5636197  54.4318278  49.0753925  22.8928678  54.4961745
  51.3039645  23.4358380  56.3148531  50.9171398  23.4607412  57.0962061
  50.8172583  22.8700059  55.8623048  51.1752154  23.3554131  56.3636435
  55.5532625  38.1531889  60.3722318  56.1912345  37.6592085  60.0384774
  54.9106716  38.0809290  59.7874545  55.5526851  38.0690898  60.2364673
  57.2789625  30.0021035  54.9388234  56.8517233  29.9147384  54.1836333
  56.6415678  30.1098811  55.5243078  57.1219232  30.0053695  54.9133675
  50.9696787  20.3225366  58.6058791  51.5989905  20.8585666  58.3279862
  51.1382650  20.2302725  59.4572357  51.0874582  20.3886728  58.6907320
  50.7710702  25.1096561  60.8785203  51.5984131  24.8381709  60.9343817
  50.7918548  25.9057402  61.2349021  50.8963552  25.1876315  60.9400386
  55.6086881  38.8451698  57.0127675  56.3979259  38.4940762  57.1329756
  55.7830479  39.6588086  56.7504309  55.7507163  38.9137555  56.9915543
  54.4620705  22.8561254  51.5744093  54.6670299  22.7883562  52.4201090
  54.1347129  23.6620075  51.5065271  54.4435953  22.9647195  51.6903748
  49.1596857  30.1841822  53.3153061  48.8559994  29.6297811  53.9163469
  48.4576277  30.3634032  52.8281095  49.0113066  30.1286605  53.3322767
  57.7154393  23.4093019  51.0546859  57.1028707  23.8963421  51.4400591
  57.8118568  22.7336509  51.5984510  57.6392291  23.3811327  51.1925717
  51.7173474  25.1655860  46.1544358  52.1717221  25.3366420  46.8792203
  52.1913520  24.5523970  45.7542134  51.8541794  25.1006745  46.2018120
  45.6349622  25.8106183  56.1515114  46.0951104  25.8845113  56.8890238
  45.6805729  26.6087437  55.8014936  45.7100178  25.9400330  56.2087871
  47.2832972  26.4772878  60.7187141  46.8918537  25.8306225  61.1542919
  47.4518835  27.0684314  61.3381397  47.2503882  26.4687146  60.8749847
  61.3579421  34.4809955  56.4824375  61.4162545  34.9296604  57.2284351
  60.7245889  34.8908768  56.0454455  61.2730716  34.6083690  56.5276923
  54.9978516  40.1013497  52.9179121  54.7998204  40.5904312  52.2235332
  54.3766227  40.3054739  53.4963254  54.8766080  40.2030035  52.9002344
  50.9766070  23.6648653  52.2921227  50.1302115  23.8371461  52.1662576
  50.9737202  22.8597997  52.6287055  50.8513220  23.5709682  52.3232354
  52.0464370  27.4423867  53.1583285  51.5724324  26.9165629  53.6688596
  52.4182506  26.8953340  52.5898146  52.0314259  27.2839864  53.1498432
  42.4237400  29.4395374  58.5266830  43.2863013  29.3391083  58.4404160
  42.0929183  28.8590083  57.9652403  42.5022596  29.3387001  58.4312236
  58.3101101  32.5026243  54.5690065  58.0699323  31.6632658  54.5732492
  58.7893108  32.5826410  55.2930839  58.3453284  32.3907643  54.6764867
  53.9747870  28.3360422  46.2209038  53.4470888  28.4189166  45.5314747
  54.4343578  29.0778293  46.2173683  53.9649720  28.4581084  46.1183734
  60.3106288  29.2827700  52.5219324  60.0716058  29.2423534  51.6840109
  60.4740189  30.1298852  52.6485045  60.2996591  29.4019785  52.4172806
  56.9152318  33.6677649  58.4524369  57.6386517  33.2150176  58.2735389
  56.6502280  33.9482315  57.6696697  56.9833591  33.6428618  58.3103085
  45.7839186  28.2637823  55.1877249  45.1592256  28.2756215  54.5803201
  45.4484781  28.7397998  55.8368489  45.6424678  28.3356340  55.1933817
  52.6971107  33.7661528  56.6019384  52.0828100  33.2219578  56.8968020
  53.2138392  33.2525764  56.1225201  52.6826770  33.6097937  56.5743613
  45.0529931  29.8730971  57.4052117  45.2123418  29.1174295  57.8103839
  44.8722825  30.4221910  58.0592855  45.0495290  29.8424785  57.5614823
  52.9950234  22.0392206  57.9602907  52.4990796  22.2355881  57.2694473
  53.7519297  22.4384875  57.7891708  53.0337059  22.1269940  57.8323043
  50.2653114  25.7134552  54.5506217  50.2895601  25.1794665  53.8618997
  50.5164588  25.2051861  55.2131808  50.3063033  25.5595456  54.5470862
  46.5454436  24.4405371  53.9311961  46.5852808  24.9414577  54.6446669
  45.7204101  24.5315764  53.6617884  46.4293962  24.5287187  53.9962500
  48.7284049  34.0066111  62.0332256  47.8779680  34.1437825  62.1689901
  48.8912177  33.2729889  62.4779958  48.6267913  33.9180212  62.1187855
  47.9668800  30.9565880  56.2285860  47.1360729  31.1239698  56.0221109
  47.9120317  30.5801831  57.0134746  47.8358215  30.9255612  56.3134389
  45.7752583  24.4474773  61.8642271  46.4005286  23.9036906  62.1371703
  45.3203063  23.9669691  61.2950061  45.8000844  24.2964255  61.8203865
  59.3487632  32.6304060  56.9554919  59.9405472  33.2701311  56.9873117
  59.7846626  31.9327097  57.2446986  59.5006063  32.6222411  57.0035752
  51.1781022  37.0521433  57.5812813  50.6706113  37.6057280  58.0253444
  50.8807668  37.1129723  56.7631588  51.0585906  37.1427744  57.5261270
  53.3443204  25.4174752  56.4237476  53.7698275  24.9647279  55.8121002
  52.7300197  24.8634823  56.7002263  53.3171849  25.2688729  56.3742501
  51.7837427  21.8889852  49.8328053  51.1405745  21.7387498  50.4013191
  51.4436834  21.6432197  49.0677158  51.6382504  21.8301975  49.8031068
  56.3736773  29.8449279  49.2558062  55.7027963  30.3878981  49.1271127
  57.0676523  30.3144134  49.0139756  56.3765641  29.9947550  49.2013589
  56.5364901  26.3005163  52.1648435  56.8892511  25.8734885  52.8394234
  55.6779702  26.2156006  52.2949511  56.4614345  26.2249903  52.2843445
  54.5348166  29.5640531  56.1133277  54.5146094  29.3823826  56.9668056
  54.5827367  30.4352550  56.0892861  54.5382807  29.6657069  56.2356572
  52.4794496  36.1527723  62.0381754  52.4390351  35.5077400  61.4526910
  53.2917814  36.0964341  62.3507166  52.5937650  36.0486690  61.9978703
  51.0095160  27.9710682  45.5604661  50.4159999  28.2927679  45.0089228
  51.0470438  27.1251778  45.3525767  50.9269549  27.8935010  45.4487432
  57.9688961  21.4223574  53.0932747  57.4619825  20.7152714  53.0253925
  58.7656394  21.0916763  53.2233824  58.0116200  21.2696726  53.1031742
  53.8852976  27.9290187  48.9906411  53.6566669  27.9522888  48.1484769
  54.1451053  27.1047654  49.1101422  53.8899164  27.8106267  48.8831609
  48.1672205  29.7824660  58.5931511  47.6551108  29.1745843  58.9516543
  47.9951701  30.4981252  59.0605487  48.0661842  29.7987959  58.7147735
  43.0137920  28.2262235  61.2433873  42.8440510  28.8863610  60.6982080
  42.5703869  28.4368796  61.9646362  42.9237253  28.3548217  61.2695503
  46.9397739  26.4666733  50.2860607  47.4155105  26.8283813  49.6510788
  46.4386339  27.1223201  50.5660749  46.9363098  26.6160922  50.2337348
  60.1709101  35.9388501  46.0773612  60.5542706  36.6879857  46.3071709
  59.3753214  36.1854321  45.8185601  60.1102883  36.0858195  46.0731185
  52.0441275  27.7048904  61.0333767  52.6012705  27.4762714  60.4012232
  51.7202340  28.4654570  60.7568979  52.0787685  27.7832741  60.8990264
  39.9139984  31.1309101  56.5022363  39.3666704  30.4609746  56.6203231
  40.7032362  30.7638948  56.5665830  39.9492168  30.9774087  56.5291063
  49.7624393  30.7916558  61.9985774  50.5135719  31.1068234  62.3125328
  49.9546969  30.5895729  61.1719696  49.9015807  30.8083939  61.9229170
  56.6109683  26.9190124  49.2409569  56.6103909  26.7638781  50.0993846
  56.4065863  27.7653111  49.1850955  56.5809460  27.0210745  49.3597509
  38.6726954  30.3429908  53.6568386  38.4948715  29.8906517  54.3823302
  38.3845976  31.1456070  53.8406863  38.6039907  30.3952466  53.7911889
  54.3350535  31.5987626  52.8945776  54.8304200  30.8810621  52.8549797
  53.5250310  31.2958423  52.7800263  54.2894428  31.4485272  52.8719502
  56.4002354  34.3491313  55.5822905  56.8257425  33.8265735  55.0293330
  56.0359273  34.9472151  55.0611528  56.4088956  34.3601540  55.4231915
  55.0757938  39.6726891  64.0916135  55.1854903  38.8835451  64.4472882
  55.4048834  39.5832827  63.2890473  55.1410343  39.5432744  64.0258525
  49.9050448  22.8353048  58.8682157  50.0378354  22.0384041  59.1963133
  50.2895601  23.3619451  59.4480433  49.9806777  22.7952965  59.0025660
  53.6254899  37.8543512  58.6751755  53.0775845  37.2301395  58.4071820
  54.0867928  38.0437784  57.9595835  53.6122109  37.7902562  58.5302186
  52.9782803  19.7583374  55.4663251  52.1728767  19.6481104  55.7831089
  52.8489539  19.8595830  54.6093116  52.8402936  19.7567044  55.3871291
  56.4348764  25.9228866  56.0602947  55.8511752  26.4238073  55.6480515
  56.7553058  25.4158422  55.4267271  56.3961939  25.9220701  55.9061455
  47.5638895  22.8312223  57.1160051  48.1083308  22.4903350  57.7064393
  47.6175830  23.6897685  57.2581336  47.6528014  22.9067483  57.2241924
  53.1913226  38.8594584  55.2061096  54.0111599  38.7157550  55.4677391
  52.9107303  39.4840783  55.7477534  53.2709969  38.9304936  55.3249036
  69.6626876  46.5159436  48.1703973  69.6320880  47.3704073  48.3422242
  70.2608225  46.2154729  48.7290116  69.7464034  46.5975933  48.2778775
  62.8626561  45.6035087  52.9256903  62.0064456  45.7643585  52.9766020
  62.9094215  44.7327151  52.9461964  62.7425672  45.4985889  52.9362969
  57.2467701  55.1397805  48.6894135  56.4950600  54.7613343  48.4610180
  57.6953712  55.1716239  47.9412945  57.2017367  55.0883412  48.5451637
  66.1720277  51.8721613  62.5317359  66.8787045  51.3773643  62.6604294
  66.3608213  52.3130694  61.8020017  66.3048183  51.8639963  62.4426405
  62.2396952  57.5137443  50.0590793  62.6236331  58.0824342  49.5195569
  62.1756093  56.7886953  49.5796609  62.2870379  57.4912907  49.9084656
  65.7078382  47.6627131  55.5688555  66.2534342  48.3412218  55.6282524
  65.6495258  47.5214592  54.7090136  65.7794296  47.7419133  55.4500615
  58.8252457  55.1516197  50.9556907  58.9262820  54.3416551  51.2654035
  58.2294202  55.0573144  50.3256586  58.7524995  55.0181225  50.9083146
  67.4843451  49.0911738  46.4422283  67.3682976  49.8419424  46.8714421
  68.2799337  48.8335691  46.6918370  67.5848040  49.1646585  46.5426374
  58.6653196  60.0693786  52.3571763  59.3090652  60.5106950  52.7467922
  58.9909452  59.2647212  52.2702022  58.8085025  60.0158981  52.4017240
  59.3673776  53.0805761  47.7291625  59.6889617  53.6210968  47.1252933
  60.0145873  52.5102532  47.8613915  59.5099831  53.0764936  47.6598660
  61.6063419  51.4692201  47.8005803  62.0457055  50.8609302  48.2460576
  61.4568082  51.0899574  47.0291268  61.6484885  51.3230672  47.7524970
  59.0735062  50.0636213  55.0024629  59.7184065  49.5708656  54.6835577
  59.3136840  50.2061000  55.8290707  59.2045648  50.0113655  55.0774162
  61.6121154  52.9091119  54.6531521  61.8944397  52.1142525  54.4318277
  62.3407314  53.3871706  54.6736582  61.7610718  52.8625716  54.6234536
  59.5902348  40.4514153  51.8947286  59.2605678  40.9025296  51.2250985
  58.9147350  40.3730316  52.4420293  59.4412784  40.5065288  51.8770510
  65.2072756  49.8219382  44.7536572  65.1224051  50.6780349  44.8986141
  65.6957139  49.5463706  45.4218731  65.2661653  49.9076704  44.8738654
  66.7978755  36.4399676  50.1396897  66.4832196  37.1303154  50.5717319
  66.2805697  36.3844458  49.4382398  66.6743226  36.5334564  50.0993846
  66.1391189  46.4404177  46.2534307  65.6102661  46.6563810  46.9131614
  66.6616209  47.1340315  46.1735277  66.1379642  46.5747313  46.3389907
  71.5939242  52.0150481  51.6267352  70.7636945  52.2261125  51.7900768
  71.5448494  51.1887536  51.3509636  71.4645978  51.9240087  51.6104717
  53.5834826  56.0522154  51.8565447  53.1002404  56.7772644  51.8325031
  54.3958144  56.3498284  51.9675605  53.6325573  56.2024508  51.8692726
  59.6548980  54.8454335  54.4615261  59.1375921  54.4861750  53.8576570
  60.3523371  54.3216510  54.4721328  59.6814561  54.7152023  54.3745520
  63.3112572  55.2949149  60.4231434  63.3995918  55.1075290  61.2709645
  63.7402284  54.6486579  60.0236281  63.3874674  55.1712157  60.4903186
  60.8783031  54.5780309  59.4049097  60.3153866  54.1652919  59.9288758
  61.6404055  54.5033215  59.8242240  60.9077480  54.5057710  59.5442097
  56.4379023  56.5678330  52.0085727  57.1399602  56.0530319  52.0658483
  56.3576506  56.8952482  52.8132602  56.5302783  56.5392557  52.1358519
  71.0893200  44.6620882  55.4217773  70.2521622  44.7323069  55.6565368
  71.0581431  44.6645376  54.5492076  70.9611483  44.6731109  55.3277321
  57.4857930  46.8053917  61.1366142  57.6578433  46.6959812  61.9851423
  58.0227287  47.4508323  60.8997334  57.5902933  46.8845919  61.2271239
  56.3882501  53.1785558  55.8184640  56.9280726  53.0356689  56.4888013
  55.7052448  53.5782308  56.1868667  56.3674655  53.2165228  55.9719062
  61.8315086  37.9223171  47.1097371  62.5601246  37.7439126  46.6635527
  61.9209979  38.7641251  47.3204549  61.9521748  38.0207049  47.0750888
  65.8123386  48.8576558  51.0129665  66.5680901  49.2908073  51.0518573
  65.9185711  48.2081328  51.5864301  65.9393557  48.8254042  51.1027690
  68.8503557  52.6849835  51.7632068  68.4138789  52.6886578  52.5191039
  68.5166473  53.3655334  51.3311645  68.7366177  52.7862291  51.8112900
  63.4232631  54.7258168  63.0875218  64.2073048  54.8389016  63.4530960
  63.2229226  53.8999305  63.2833904  63.5098656  54.6204888  63.1709604
  68.7701040  39.7263663  54.0061496  69.4126949  39.7961768  54.5923411
  69.0224061  39.0592886  53.5041038  68.9023172  39.6390012  54.0188775
  63.5803024  56.6368270  56.7341674  62.7818270  56.3967770  56.9915542
  64.0289036  56.6882663  57.4808721  63.5277636  56.6090661  56.8826598
  71.9847904  49.4030755  50.6551705  72.6464338  48.8421424  50.5547613
  71.3439316  48.9082786  50.9804396  71.9876771  49.2467164  50.6884045
  62.8724711  52.7000887  42.9632628  63.2875860  52.3685911  42.2717124
  62.0416641  52.4669789  42.8352765  62.8112720  52.6172143  42.8423476
  68.2712734  50.4196138  50.3963694  68.5068323  50.5641337  49.5690544
  68.4202298  51.1838546  50.7895207  68.3278538  50.5535192  50.3327298
  70.1003191  49.2597804  48.2333298  70.4311408  49.7925444  47.6273392
  70.6736279  49.3136691  48.8895248  70.2336870  49.3467372  48.2411079
  62.6403761  50.3828715  64.6261862  61.8476742  50.6972227  64.8114481
  62.7552688  50.5980184  63.7882646  62.5399172  50.4612552  64.5300197
  65.3135080  47.1062706  48.9156878  65.4081935  47.8452000  49.3696503
  64.6893924  46.6780182  49.3491442  65.2344110  47.1524027  49.0465025
  63.5687554  50.2848919  59.5647159  64.1426416  49.6476163  59.7195722
  63.4902358  50.2853001  58.6956816  63.6420789  50.1914030  59.4593569
  65.5658101  48.9511446  42.1493830  65.4838264  49.0213633  43.0148817
  66.2037822  49.5141190  41.9577570  65.6477939  49.0450417  42.2483779
  58.9251273  48.7172184  51.6168356  58.6670517  47.8843919  51.5899655
  58.9799755  48.9429797  50.7760856  58.8951050  48.6269955  51.4888493
  64.0052323  40.8200635  51.7172449  63.3008650  40.3309820  51.8756368
  64.0537297  40.8323109  50.8460893  63.9082374  40.7490283  51.6111788
  61.5659273  44.7433296  56.9625629  61.1773706  44.3187514  56.3077820
  60.9013972  44.9915445  57.4702656  61.4106201  44.7172017  56.9413497
  71.2082543  44.5008301  49.7373459  70.9519107  43.6888242  49.5471342
  72.0511857  44.5085868  49.5103646  71.2948568  44.3820298  49.6758276
  65.3885635  38.4407925  54.4749613  65.7696147  37.7586096  54.8617488
  64.5848919  38.1517527  54.2925278  65.3262097  38.2974973  54.5053669
  68.8907702  51.6557897  59.5732012  68.6546339  50.8245961  59.4544072
  69.5350931  51.6043504  60.1586856  68.9502373  51.5255585  59.6417905
  58.5406120  52.4453418  50.2874748  59.1780067  52.2065165  50.8326542
  58.9661192  52.6490577  49.5527909  58.6982286  52.4404428  50.2591906
  53.2318762  54.6841754  54.1709052  53.2722908  54.9556605  53.3428832
  53.7913286  55.2083662  54.5866840  53.3202108  54.8017509  54.1100940
  59.3477475  40.9462123  64.3412222  59.0330916  41.7161686  64.0781785
  59.0267408  40.3832379  63.7564449  59.2536394  40.9772392  64.2153572
  69.9144122  51.4402345  55.6360306  69.6089940  52.1730402  55.9973622
  69.1950338  51.0340275  55.3553092  69.7631465  51.4884078  55.6473443
  60.9227592  52.9225841  51.9668534  60.9966600  52.7601012  52.8210384
  61.7397098  53.1116030  51.7229016  61.0543951  52.9262583  52.0566560
  75.6145915  48.0795346  54.9628650  75.5470415  48.0991305  54.0931237
  75.6001577  48.9225673  55.1884321  75.6024671  48.2069081  54.8681127
  66.0242261  39.4830504  58.2869740  66.7695853  39.2940314  57.8733165
  65.6079566  40.0088742  57.7283596  66.0727235  39.5332649  58.1434313
  59.4632178  55.8860584  46.6982008  59.7530476  55.4949565  45.9741234
  60.1935658  56.0677288  47.1387283  59.6139062  55.8554397  46.6564815
  73.4004532  46.8539732  53.2375245  73.9512454  46.2207801  53.4772337
  73.3848647  47.3855125  53.9290749  73.4789728  46.8388680  53.3754103
  60.0526923  50.6878329  57.7835138  59.5538616  51.3994097  57.8620027
  60.8627147  51.0078996  57.7453301  60.0983030  50.8405178  57.7891707
  57.4038093  57.8627966  49.7642158  57.1838389  57.5725321  50.5568825
  57.1832615  57.2042921  49.2360070  57.3385687  57.7227674  49.8031066
  67.1032938  45.0936066  52.3479841  66.7597704  44.3726401  52.6987091
  67.2025981  44.8849917  51.5058199  67.0674981  44.9560269  52.2751521
  59.5706049  59.2357356  48.5472850  60.2230107  58.7033798  48.7763876
  58.8731658  58.8826008  48.9340724  59.5636767  59.1046879  48.6385018
  67.5645967  51.5561770  47.8903829  68.1304000  52.2154980  47.8062372
  66.9173871  51.9011468  48.3620231  67.5524724  51.7043711  47.9476586
  58.9793981  43.5459374  63.0797437  58.1693757  43.8517154  62.9687279
  59.4568668  44.2664956  63.1950021  58.9297460  43.6973975  63.0804508
  57.8385540  52.7605095  53.3280340  57.3166294  52.9005387  54.0132204
  58.2259561  52.0015759  53.5182457  57.8189241  52.6690619  53.4581416
  64.0352545  54.5000554  47.3140908  63.7939221  53.7668415  46.9067973
  64.2153878  55.0487411  46.6607242  64.0260169  54.4722945  47.1571131
  59.2651866  49.7909114  48.7261831  59.0694649  50.3983848  48.1322134
  59.4886212  49.0977058  48.2453505  59.2686507  49.7786639  48.5677912
  65.6223904  43.0127651  54.2239384  64.7835004  43.0388930  53.9877647
  65.6928271  43.6598386  54.8044731  65.5092297  43.1123776  54.2748501
  64.0693182  39.9113028  48.9567000  64.7719535  39.7120776  48.4786958
  63.8037371  39.1388970  49.2635843  64.1339814  39.7675994  48.9312442
  69.4981427  48.2195637  51.5100626  69.4115402  48.3751063  52.3635405
  69.0431907  48.8633713  51.1360031  69.4184684  48.3371392  51.5807733
  58.8321738  41.1748313  58.0097881  58.6404935  41.1903447  58.8597304
  59.6820334  41.3711987  57.9864535  58.9297460  41.2062664  58.1321175
  63.3707243  45.5406385  50.1326185  63.1241958  45.4602135  50.9662974
  63.6992367  44.7559852  49.9388713  63.3828487  45.4132650  50.2273708
  67.2655292  52.2489744  53.9212967  67.1269652  52.9470790  54.4261709
  66.4855290  52.0938400  53.5649148  67.1298519  52.3289910  53.9439241
  65.6033377  48.5486119  60.1735348  65.5981416  47.6765936  60.1777775
  66.3094371  48.7474288  59.7004804  65.7078381  48.4489993  60.1042384
  59.3304271  48.2763103  59.5449168  59.4747646  48.8564311  58.9092278
  59.6779919  48.6539400  60.2499023  59.4031732  48.4183807  59.5548163
  61.5024188  47.4753271  57.3274300  60.7547502  47.6684286  56.9222578
  61.6565713  46.6498491  57.0898421  61.4146616  47.3818383  57.2319706
  58.4032026  56.4665875  56.4110195  58.5521589  55.9068791  55.7583600
  59.1832028  56.5457877  56.7942714  58.5406119  56.3951440  56.3707144
  68.7608665  51.6067998  44.6829466  68.3815474  50.8205136  44.6758755
  68.0974911  52.1554855  44.5401110  68.6067140  51.5712822  44.6610263
  60.9285326  56.6380518  57.6894686  60.8528997  55.9689328  58.2445474
  60.8575186  57.3398306  58.2035352  60.9065933  56.6425425  57.8471534
  61.7425965  41.3703822  58.2169704  62.1998579  42.1027797  58.3442496
  61.8182294  40.9470287  58.9756959  61.8216935  41.4161060  58.3470780
  66.2153291  34.5493697  52.0863547  66.3336859  35.0070161  51.3530849
  66.0415467  33.7438959  51.7999764  66.2072462  34.4987469  51.9364480
  61.5855573  55.1581517  48.5218292  62.3505464  54.8891160  48.2000956
  61.4833663  54.6731527  49.2388355  61.6837069  55.0471081  48.5798120
  59.6208343  43.3605926  55.0611528  58.8304418  43.1797386  55.3828864
  60.0168966  42.5832879  55.0441822  59.5625219  43.2193387  55.1064076
  64.1074234  52.1893700  40.5018241  64.8747219  52.2493825  40.0924093
  63.6605543  51.6174142  40.0174560  64.1547661  52.1130276  40.3695952
  65.0052029  50.9948356  52.7870974  64.3297031  50.7633589  53.2884361
  65.0144405  50.3869539  52.1613079  64.9070534  50.8707281  52.7687126
  62.1346173  45.8366185  59.5435027  62.0705315  46.6976142  59.4155163
  62.2743361  45.5198178  58.7430578  62.1461643  45.9166352  59.4063239
  67.0068764  53.8513489  45.0181152  67.0888601  54.6580475  44.6942602
  67.4918506  53.8709448  45.7421925  67.0905922  53.9734151  45.0768050
  60.8165267  48.5298325  53.6851230  60.3927516  48.7302824  52.9490248
  60.6410122  47.6827173  53.7975529  60.7276148  48.4347106  53.5924920
  60.3176961  60.0448838  56.1472687  60.8072891  59.3459627  55.9648351
  59.7461193  59.7472708  56.7348744  60.3061491  59.8975061  56.2073728
  66.5143964  52.6110907  65.0999477  67.3278830  52.3396056  65.2604610
  66.3538931  52.3118447  64.2959673  66.6113913  52.5265833  65.0044883
  60.8113307  53.7925611  45.2712593  60.8806127  52.9340150  45.4105594
  61.5901762  54.0097492  44.9431618  60.9366157  53.6978475  45.2429751
  63.7916126  43.2944564  58.0394866  64.0058096  42.6555478  57.4858220
  63.1750025  43.7390388  57.6102727  63.7321455  43.2654708  57.8945297
  65.2020794  56.2163312  49.4849087  64.8100586  55.9130028  48.7671953
  65.3573866  57.0532402  49.2954040  65.1674384  56.2947149  49.3505584
  65.9555214  44.9033629  58.9778173  65.1431896  44.5959520  59.0591346
  66.4145149  44.4232629  59.5420885  65.9035599  44.7870122  59.0732767
  65.3660469  52.7813301  49.4255117  65.0075124  52.9527944  50.2019150
  64.8799180  53.2426507  48.8683116  65.2419166  52.8752272  49.4580386
  63.1830855  36.4044500  53.0282209  62.3124413  36.3783221  52.9815518
  63.4371196  36.2321692  52.2108054  63.0924415  36.3754643  52.9002345
  63.0508722  46.3093701  63.7606875  63.5208353  46.9335817  64.1474749
  63.0970602  45.6410676  64.3200090  63.1276598  46.3028381  63.9006947
  60.2079995  38.4150728  54.4855679  59.6918484  37.7230920  54.6107258
  59.6473924  39.0821505  54.4318278  60.0486509  38.4113986  54.4961745
  62.2772229  38.9543688  56.3148531  61.8903982  38.9792720  57.0962061
  61.7905166  38.3885367  55.8623048  62.1484738  38.8739439  56.3636435
  66.5265208  53.6717197  60.3722318  67.1644929  53.1777393  60.0384774
  65.8839300  53.5994598  59.7874545  66.5259435  53.5876206  60.2364673
  68.2522208  45.5206343  54.9388234  67.8249816  45.4332692  54.1836333
  67.6148261  45.6284119  55.5243078  68.0951816  45.5239003  54.9133675
  61.9429371  35.8410674  58.6058791  62.5722488  36.3770974  58.3279862
  62.1115233  35.7488033  59.4572357  62.0607165  35.9072036  58.6907320
  61.7443285  40.6281868  60.8785203  62.5716715  40.3567017  60.9343817
  61.7651131  41.4242710  61.2349021  61.8696135  40.7061623  60.9400386
  66.5819465  54.3637005  57.0127675  67.3711843  54.0126070  57.1329756
  66.7563063  55.1773394  56.7504309  66.7239746  54.4322863  56.9915543
  56.3212775  47.7745731  54.0655464  55.4800782  47.6749605  54.2734357
  56.5302783  48.5441212  54.4169784  56.2277468  47.8737775  54.1482779
  65.4353289  38.3746562  51.5744093  65.6402882  38.3068870  52.4201090
  65.1079713  39.1805383  51.5065271  65.4168537  38.4832503  51.6903748
  60.1329440  45.7027130  53.3153061  59.8292578  45.1483119  53.9163469
  59.4308861  45.8819340  52.8281095  59.9845650  45.6471913  53.3322767
  58.1947791  52.9176851  58.0225159  58.0868146  52.9278913  58.8887217
  58.4043573  53.7431632  57.8330113  58.2097902  53.0417926  58.1229251
  68.6886977  38.9278326  51.0546859  68.0761290  39.4148729  51.4400591
  68.7851152  38.2521817  51.5984510  68.6124874  38.8996635  51.1925717
  56.2121583  50.1689494  55.4847097  55.6209516  50.8098992  55.4550112
  56.9742607  50.5927111  55.4578396  56.2369844  50.3265332  55.4762244
  56.6082206  41.3291491  56.1515114  57.0683687  41.4030421  56.8890238
  56.6538313  42.1272745  55.8014936  56.6832761  41.4585638  56.2087871
  58.2565556  41.9958186  60.7187141  57.8651121  41.3491533  61.1542919
  58.4251418  42.5869621  61.3381397  58.2236466  41.9872454  60.8749847
  72.3312005  49.9995263  56.4824375  72.3895128  50.4481912  57.2284351
  71.6978472  50.4094076  56.0454455  72.2463300  50.1268998  56.5276923
  65.9711099  55.6198805  52.9179121  65.7730788  56.1089620  52.2235332
  65.3498810  55.8240047  53.4963254  65.8498664  55.7215343  52.9002344
  61.9498653  39.1833961  52.2921227  61.1034698  39.3556769  52.1662576
  61.9469786  38.3783305  52.6287055  61.8245803  39.0894990  52.3232354
  63.0196954  42.9609175  53.1583285  62.5456908  42.4350937  53.6688596
  63.3915089  42.4138648  52.5898146  63.0046843  42.8025172  53.1498432
  69.2833684  48.0211551  54.5690065  69.0431907  47.1817966  54.5732492
  69.7625691  48.1011718  55.2930839  69.3185868  47.9092951  54.6764867
  64.9480453  43.8545730  46.2209038  64.4203472  43.9374474  45.5314747
  65.4076161  44.5963601  46.2173683  64.9382304  43.9766392  46.1183734
  71.2838871  44.8013008  52.5219324  71.0448641  44.7608842  51.6840109
  71.4472772  45.6484160  52.6485045  71.2729175  44.9205093  52.4172806
  67.8884901  49.1862957  58.4524369  68.6119100  48.7335484  58.2735389
  67.6234864  49.4667623  57.6696697  67.9566175  49.1613926  58.3103085
  64.5017536  52.4249293  45.3518695  65.2251735  52.8907406  45.2083269
  64.0618127  52.4922903  44.6016292  64.5433228  52.5033130  45.2203477
  63.6703691  49.2846836  56.6019384  63.0560684  48.7404886  56.8968020
  64.1870976  48.7711072  56.1225201  63.6559353  49.1283245  56.5743613
  62.9099988  50.3551106  54.3363683  62.4827596  49.7300824  53.9029118
  62.9024932  50.0726028  55.1622690  62.8459129  50.2203886  54.3943511
  63.9682818  37.5577514  57.9602907  63.4723379  37.7541189  57.2694473
  64.7251880  37.9570183  57.7891708  64.0069643  37.6455248  57.8323043
  61.2385698  41.2319860  54.5506217  61.2628185  40.6979973  53.8618997
  61.4897171  40.7237169  55.2131808  61.2795616  41.0780764  54.5470862
  57.5187020  39.9590678  53.9311961  57.5585391  40.4599885  54.6446669
  56.6936685  40.0501072  53.6617884  57.4026546  40.0472495  53.9962500
  59.7016633  49.5251418  62.0332256  58.8512263  49.6623133  62.1689901
  59.8644760  48.7915197  62.4779958  59.6000496  49.4365520  62.1187855
  58.9401383  46.4751188  56.2285860  58.1093313  46.6425006  56.0221109
  58.8852900  46.0987139  57.0134746  58.8090798  46.4440920  56.3134389
  56.7485167  39.9660081  61.8642271  57.3737870  39.4222214  62.1371703
  56.2935646  39.4854999  61.2950061  56.7733427  39.8149563  61.8203865
  70.3220215  48.1489368  56.9554919  70.9138056  48.7886619  56.9873117
  70.7579210  47.4512405  57.2446986  70.4738646  48.1407719  57.0035752
  62.1513605  52.5706741  57.5812813  61.6438696  53.1242587  58.0253444
  61.8540251  52.6315031  56.7631588  62.0318490  52.6613052  57.5261270
  64.3175787  40.9360060  56.4237476  64.7430859  40.4832587  55.8121002
  63.7032780  40.3820131  56.7002263  64.2904433  40.7874036  56.3742501
  64.7621385  56.4869998  45.5116757  64.0450695  56.3130861  45.0463994
  65.4128123  56.2522571  44.9792243  64.7523236  56.4265791  45.3645974
  62.7570010  37.4075160  49.8328053  62.1138328  37.2572806  50.4013191
  62.4169417  37.1617505  49.0677158  62.6115087  37.3487283  49.8031068
  67.3469357  45.3634587  49.2558062  66.6760547  45.9064289  49.1271127
  68.0409107  45.8329442  49.0139756  67.3498224  45.5132858  49.2013589
  61.3956090  57.5031299  54.4869820  61.1721745  56.7450128  54.8553846
  60.9065934  57.5329320  53.7650260  61.2899539  57.3953523  54.4346561
  67.5097484  41.8190470  52.1648435  67.8625094  41.3920193  52.8394234
  66.6512286  41.7341314  52.2949511  67.4346929  41.7435211  52.2843445
  65.5080750  45.0825839  56.1133277  65.4878677  44.9009134  56.9668056
  65.5559951  45.9537858  56.0892861  65.5115391  45.1842377  56.2356572
  63.4527080  51.6713031  62.0381754  63.4122935  51.0262708  61.4526910
  64.2650398  51.6149648  62.3507166  63.5670233  51.5671998  61.9978703
  60.0434547  57.7231757  51.9406905  59.6294946  57.0605887  51.5510746
  60.7281922  57.8709616  51.4202599  60.0832919  57.6472415  51.8063402
  63.4099841  56.8821842  52.6930521  63.0116125  56.9924113  51.9251341
  62.7951061  57.0903909  53.2757081  63.2598731  56.9295410  52.6661820
  68.9421544  36.9408882  53.0932747  68.4352409  36.2338022  53.0253925
  69.7388978  36.6102071  53.2233824  68.9848783  36.7882034  53.1031742
  64.8585560  43.4475495  48.9906411  64.6299253  43.4708196  48.1484769
  65.1183636  42.6232962  49.1101422  64.8631748  43.3291575  48.8831609
  59.1404788  45.3009968  58.5931511  58.6283692  44.6931151  58.9516543
  58.9684285  46.0166560  59.0605487  59.0394425  45.3173267  58.7147735
  53.9870503  43.7447543  61.2433873  53.8173093  44.4048918  60.6982080
  53.5436453  43.9554104  61.9646362  53.8969837  43.8733525  61.2695503
  71.1441684  51.4573809  46.0773612  71.5275290  52.2065165  46.3071709
  70.3485797  51.7039629  45.8185601  71.0835466  51.6043503  46.0731185
  63.0173859  43.2234212  61.0333767  63.5745289  42.9948022  60.4012232
  62.6934924  43.9839878  60.7568979  63.0520269  43.3018049  60.8990264
  60.7356976  46.3101866  61.9985774  61.4868303  46.6253542  62.3125328
  60.9279553  46.1081036  61.1719696  60.8748390  46.3269247  61.9229170
  67.5842266  42.4375432  49.2409569  67.5836493  42.2824088  50.0993846
  67.3798446  43.2838419  49.1850955  67.5542044  42.5396053  49.3597509
  65.3083118  47.1172934  52.8945776  65.8036784  46.3995929  52.8549797
  64.4982894  46.8143731  52.7800263  65.2627012  46.9670580  52.8719502
  67.3734937  49.8676621  55.5822905  67.7990009  49.3451043  55.0293330
  67.0091857  50.4657459  55.0611528  67.3821540  49.8786848  55.4231915
  57.0089017  58.1640839  54.3420251  57.3235576  58.9777227  54.3498032
  57.4182430  57.7791057  55.0102410  57.1157115  58.2269541  54.4424342
  63.9613537  53.5810885  51.9124062  64.4324715  54.2951148  52.0814048
  64.2973715  52.9809636  52.4483932  64.0808652  53.5982350  52.0156438
  66.0490521  55.1912199  64.0916135  66.1587487  54.4020759  64.4472882
  66.3781418  55.1018135  63.2890473  66.1142927  55.0618052  64.0258525
  60.8783032  38.3538356  58.8682157  61.0110937  37.5569349  59.1963133
  61.2628184  38.8804759  59.4480433  60.9539360  38.3138273  59.0025660
  64.5987483  53.3728820  58.6751755  64.0508429  52.7486703  58.4071820
  65.0600512  53.5623092  57.9595835  64.5854692  53.3087870  58.5302186
  63.9515387  35.2768682  55.4663251  63.1461350  35.1666412  55.7831089
  63.8222122  35.3781138  54.6093116  63.8135520  35.2752352  55.3871291
  67.4081347  41.4414174  56.0602947  66.8244336  41.9423381  55.6480515
  67.7285641  40.9343730  55.4267271  67.3694523  41.4406009  55.9061455
  58.5371478  38.3497531  57.1160051  59.0815891  38.0088658  57.7064393
  58.5908414  39.2082993  57.2581336  58.6260598  38.4252790  57.2241924
  54.3502037  52.1113947  53.9898859  54.9546894  52.0709781  53.3612680
  54.1429350  52.9585099  54.0202915  54.4090934  52.2301950  53.9014975
  64.1645809  54.3779892  55.2061096  64.9844183  54.2342858  55.4677391
  63.8839887  55.0026091  55.7477534  64.2442553  54.4490244  55.3249036
  73.8359144  61.1220395  52.9256903  72.9797040  61.2828893  52.9766020
  73.8826798  60.2512459  52.9461964  73.7158256  61.0171197  52.9362969
  68.2200284  70.6583113  48.6894135  67.4683184  70.2798651  48.4610180
  68.6686296  70.6901546  47.9412945  68.1749951  70.6068720  48.5451637
  76.6810965  63.1812439  55.5688555  77.2266925  63.8597526  55.6282524
  76.6227842  63.0399900  54.7090136  76.7526880  63.2604441  55.4500615
  69.7985040  70.6701505  50.9556907  69.8995403  69.8601859  51.2654035
  69.2026786  70.5758451  50.3256586  69.7257579  70.5366533  50.9083146
  62.9950085  66.6921792  50.5809241  62.7600269  65.8589444  50.4741510
  63.1335725  66.9726457  49.7670442  62.9805747  66.6105295  50.4451596
  65.2940172  58.8607522  53.4793549  64.6745204  58.2700169  53.3103563
  65.1924036  59.4518957  52.8457872  65.1877848  58.8611605  53.3598538
  70.3406360  68.5991069  47.7291625  70.6622201  69.1396276  47.1252933
  70.9878456  68.0287840  47.8613915  70.4832415  68.5950244  47.6598660
  72.3908068  60.6007064  47.8126012  73.0888232  60.7795192  48.3047475
  72.7060400  60.0777403  47.1896401  72.5403405  60.5500836  47.7928022
  65.0209305  62.4059804  55.7237117  64.8968002  62.9922249  56.3586936
  65.6727590  61.9120000  56.0249392  65.0982954  62.4198608  55.8623047
  72.5796003  66.9877509  47.8005803  73.0189639  66.3794610  48.2460576
  72.4300666  66.6084882  47.0291268  72.6217469  66.8415980  47.7524970
  70.0467646  65.5821521  55.0024629  70.6916649  65.0893964  54.6835577
  70.2869423  65.7246307  55.8290707  70.1778231  65.5298963  55.0774162
  72.5853737  68.4276427  54.6531521  72.8676980  67.6327832  54.4318277
  73.3139898  68.9057014  54.6736582  72.7343301  68.3811024  54.6234536
  70.5634931  55.9699461  51.8947286  70.2338261  56.4210604  51.2250985
  69.8879933  55.8915624  52.4420293  70.4145368  56.0250596  51.8770510
  76.1805340  65.3404690  44.7536572  76.0956635  66.1965657  44.8986141
  76.6689723  65.0649014  45.4218731  76.2394237  65.4262012  44.8738654
  77.7711339  51.9584984  50.1396897  77.4564780  52.6488462  50.5717319
  77.2538281  51.9029766  49.4382398  77.6475809  52.0519872  50.0993846
  77.1123773  61.9589484  46.2534307  76.5835244  62.1749118  46.9131614
  77.6348793  62.6525623  46.1735277  77.1112226  62.0932621  46.3389907
  69.0023381  65.8552701  45.0541775  68.4180596  66.3602733  45.4607639
  68.5993476  65.6295088  44.3138367  68.8562684  65.8960950  45.0046801
  64.5567409  71.5707462  51.8565447  64.0734988  72.2957952  51.8325031
  65.3690728  71.8683592  51.9675605  64.6058157  71.7209816  51.8692726
  70.6281563  70.3639643  54.4615261  70.1108505  70.0047058  53.8576570
  71.3255955  69.8401818  54.4721328  70.6547144  70.2337331  54.3745520
  73.4600595  62.1018353  43.5310696  73.6996599  62.3096337  42.7186039
  73.7816436  61.2975862  43.6399641  73.5437753  62.0132455  43.4271249
  68.7690885  54.0311749  47.3770234  69.5236853  54.3990066  47.1387284
  68.5918420  54.4051303  48.1449414  68.8545364  54.1409937  47.4555122
  67.4111607  72.0863638  52.0085727  68.1132186  71.5715627  52.0658483
  67.3309090  72.4137790  52.8132602  67.5035367  72.0577864  52.1358519
  68.4590513  62.3239225  61.1366142  68.6311017  62.2145120  61.9851423
  68.9959871  62.9693631  60.8997334  68.5635517  62.4031227  61.2271239
  67.1247950  56.4382068  44.0748347  66.9423523  56.6553949  43.2489340
  67.9873563  56.5521081  44.1306961  67.2252539  56.4871966  43.9602834
  66.7362382  68.2769990  51.5171335  67.5751281  68.5092923  51.5645096
  66.7674151  67.4074302  51.4478370  66.8644100  68.1826937  51.5135980
  67.3615085  68.6970865  55.8184640  67.9013310  68.5541997  56.4888013
  66.6785031  69.0967616  56.1868667  67.3407239  68.7350536  55.9719062
  72.8047669  53.4408479  47.1097371  73.5333830  53.2624434  46.6635527
  72.8942562  54.2826559  47.3204549  72.9254331  53.5392357  47.0750888
  76.7855970  64.3761866  51.0129665  77.5413485  64.8093380  51.0518573
  76.8918294  63.7266636  51.5864301  76.9126140  64.3439350  51.1027690
  62.7652230  64.9171156  55.9719062  62.4990645  64.1010273  56.1310052
  62.7790794  64.9624312  55.1014577  62.7276952  64.8028061  55.8672544
  66.6709977  59.7156241  42.5870820  65.9568154  59.4294420  42.9993253
  67.1553946  60.0552867  43.2277207  66.6369340  59.7237890  42.7426455
  67.5150836  58.4549535  58.6186070  66.8222633  57.9846514  58.8646801
  68.1311164  58.2287839  59.1927777  67.5035366  58.3516666  58.7395222
  73.8457295  68.2186195  42.9632628  74.2608443  67.8871218  42.2717124
  73.0149225  67.9855097  42.8352765  73.7845304  68.1357451  42.8423476
  63.1745644  65.7029936  53.2530806  62.9921217  65.6776822  52.4003098
  63.9095313  66.1728874  53.2919715  63.2559708  65.7691298  53.1328725
  66.2391395  62.4214939  59.7612915  66.9631368  62.4067969  60.2477810
  66.3407532  63.1310294  59.2634883  66.3609604  62.5239642  59.7591702
  76.2867664  62.6248014  48.9156878  76.3814518  63.3637308  49.3696503
  75.6626507  62.1965490  49.3491442  76.2076694  62.6709335  49.0465025
  63.1416554  62.5823436  53.4029873  63.7190057  62.4459887  54.0422118
  62.4430616  62.1259220  53.6575457  63.1237575  62.4945703  53.5352162
  76.5390685  64.4696754  42.1493830  76.4570848  64.5398941  43.0148817
  77.1770406  65.0326498  41.9577570  76.6210522  64.5635725  42.2483779
  69.8983856  64.2357492  51.6168356  69.6403101  63.4029227  51.5899655
  69.9532339  64.4615105  50.7760856  69.8683634  64.1455263  51.4888493
  74.9784906  56.3385943  51.7172449  74.2741233  55.8495128  51.8756368
  75.0269881  56.3508417  50.8460893  74.8814958  56.2675591  51.6111788
  68.8718568  61.7895254  52.1033251  68.2968160  61.9487423  52.7397212
  68.4954245  61.1530664  51.6401701  68.7321381  61.7193067  52.1287809
  72.5391857  60.2618604  56.9625629  72.1506290  59.8372822  56.3077820
  71.8746555  60.5100753  57.4702656  72.3838785  60.2357325  56.9413497
  58.6175387  61.4335329  50.1177691  58.7035639  61.0567198  50.8991221
  59.2451185  61.0595775  49.6397650  58.7231938  61.3220811  50.1623169
  76.3618219  53.9593233  54.4749613  76.7428730  53.2771404  54.8617488
  75.5581503  53.6702835  54.2925278  76.2994680  53.8160281  54.5053669
  73.6430795  64.4917208  45.1602436  74.4571434  64.7832101  45.0485207
  73.5789937  63.8377071  44.5860729  73.7533534  64.4382403  45.0591273
  69.5138704  67.9638726  50.2874748  70.1512650  67.7250473  50.8326542
  69.9393775  68.1675885  49.5527909  69.6714870  67.9589736  50.2591906
  64.2051346  70.2027062  54.1709052  64.2455491  70.4741913  53.3428832
  64.7645870  70.7268970  54.5866840  64.2934692  70.3202817  54.1100940
  70.1541519  63.1841016  44.6249638  70.5386671  62.9648722  45.3766183
  69.9053139  64.0103961  44.7550714  70.1743591  63.2739162  44.7550714
  70.3210059  56.4647431  64.3412222  70.0063500  57.2346994  64.0781785
  69.9999992  55.9017687  63.7564449  70.2268978  56.4957699  64.2153572
  71.8960175  68.4411148  51.9668534  71.9699184  68.2786320  52.8210384
  72.7129682  68.6301338  51.7229016  72.0276534  68.4447891  52.0566560
  65.6565932  68.7869011  48.9962978  64.8304050  69.0330748  48.8697257
  65.7177923  68.7081092  49.8625036  65.5440099  68.8113960  49.1051922
  67.8741956  54.8537952  49.9558418  67.0064381  54.9260552  50.0216027
  68.1617160  55.6560031  50.1446393  67.7881704  54.9832099  49.9933185
  76.9974845  55.0015812  58.2869740  77.7428437  54.8125622  57.8733165
  76.5812149  55.5274050  57.7283596  77.0459819  55.0517957  58.1434313
  70.4364761  71.4045891  46.6982008  70.7263060  71.0134873  45.9741234
  71.1668242  71.5862596  47.1387283  70.5871645  71.3739705  46.6564815
  71.0259506  66.2063637  57.7835138  70.5271200  66.9179405  57.8620027
  71.8359731  66.5264304  57.7453301  71.0715613  66.3590486  57.7891707
  68.3770677  73.3813274  49.7642158  68.1570972  73.0910629  50.5568825
  68.1565199  72.7228229  49.2360070  68.3118271  73.2412982  49.8031066
  67.2887624  65.4686590  52.0297859  67.0000873  64.8424062  52.5643587
  68.1570972  65.4106878  52.0962540  67.3747876  65.3674135  52.1188814
  78.0765522  60.6121374  52.3479841  77.7330288  59.8911709  52.6987091
  78.1758564  60.4035225  51.5058199  78.0407565  60.4745577  52.2751521
  67.4919897  67.1081841  47.9540224  68.2465865  67.4894881  48.1675687
  66.8990510  67.5592985  48.4086921  67.5156611  67.2310669  48.0523103
  69.9526564  59.0644682  63.0797437  69.1426340  59.3702462  62.9687279
  70.4301251  59.7850264  63.1950021  69.9030043  59.2159283  63.0804508
  68.8118124  68.2790403  53.3280340  68.2898877  68.4190694  54.0132204
  69.1992144  67.5201067  53.5182457  68.7921825  68.1875927  53.4581416
  65.8009308  58.3296212  47.3975294  65.5134104  57.9597482  46.6607242
  66.4879776  58.7991067  47.1358999  65.8598205  58.3443181  47.2490370
  70.2384450  65.3094422  48.7261831  70.0427232  65.9169156  48.1322134
  70.4618795  64.6162366  48.2453505  70.2419091  65.2971947  48.5677912
  68.6362980  62.1949160  48.8442699  69.3585631  62.3590318  48.3846505
  68.1570972  62.9158825  48.7382039  68.6726710  62.3247389  48.7608313
  76.5956487  58.5312959  54.2239384  75.7567588  58.5574237  53.9877647
  76.6660854  59.1783694  54.8044731  76.4824881  58.6309084  54.2748501
  66.2870596  64.6007232  57.9496839  66.7991693  64.8791485  57.3005599
  66.0006939  65.3396526  58.3159652  66.3205459  64.7509586  57.9086717
  75.0425765  55.4298336  48.9567000  75.7452118  55.2306084  48.4786958
  74.7769954  54.6574278  49.2635843  75.1072398  55.2861302  48.9312442
  63.3737503  59.1077424  48.2460575  63.4753639  59.9103585  48.5741551
  64.1693389  58.9064760  47.9483656  63.5065408  59.1963323  48.2495931
  69.8054322  56.6933621  58.0097881  69.6137519  56.7088755  58.8597304
  70.6552918  56.8897295  57.9864535  69.9030044  56.7247972  58.1321175
  64.1901235  59.2224602  55.9881697  64.0486727  58.3708543  56.1126205
  64.4741798  59.2653263  55.1643903  64.2109081  59.1024352  55.8849321
  74.3439827  61.0591692  50.1326185  74.0974541  60.9787443  50.9662974
  74.6724950  60.2745160  49.9388713  74.3561071  60.9317958  50.2273708
  70.3036854  63.7948411  59.5449168  70.4480230  64.3749619  58.9092278
  70.6512503  64.1724708  60.2499023  70.3764316  63.9369115  59.5548163
  72.4756772  62.9938579  57.3274300  71.7280086  63.1869594  56.9222578
  72.6298297  62.1683799  57.0898421  72.3879199  62.9003691  57.2319706
  72.7158549  56.8889130  58.2169704  73.1731163  57.6213104  58.3442496
  72.7914877  56.4655595  58.9756959  72.7949519  56.9346368  58.3470780
  64.9591540  57.1354950  59.3059147  64.4233729  56.5235308  59.6219915
  65.0209305  57.7103086  59.9592814  64.8887173  57.1301878  59.4494574
  77.1885875  50.0679005  52.0863547  77.3069443  50.5255469  51.3530849
  77.0148050  49.2624267  51.7999764  77.1805046  50.0172777  51.9364480
  72.5588157  70.6766825  48.5218292  73.3238048  70.4076468  48.2000956
  72.4566247  70.1916835  49.2388355  72.6569652  70.5656389  48.5798120
  70.5940927  58.8791234  55.0611528  69.8037001  58.6982694  55.3828864
  70.9901549  58.1018187  55.0441822  70.5357803  58.7378695  55.1064076
  75.0806817  67.7079008  40.5018241  75.8479803  67.7679133  40.0924093
  74.6338126  67.1359450  40.0174560  75.1280245  67.6315584  40.3695952
  75.9784613  66.5133664  52.7870974  75.3029615  66.2818896  53.2884361
  75.9876989  65.9054847  52.1613079  75.8803117  66.3892589  52.7687126
  73.1078757  61.3551493  59.5435027  73.0437898  62.2161450  59.4155163
  73.2475945  61.0383486  58.7430578  73.1194227  61.4351660  59.4063239
  71.7897851  64.0483632  53.6851230  71.3660100  64.2488132  52.9490248
  71.6142706  63.2012480  53.7975529  71.7008731  63.9532414  53.5924920
  67.0780296  64.5435684  49.1179202  67.2344915  64.4782487  49.9735194
  67.4180889  65.3184236  48.9057882  67.1513531  64.6484882  49.2133796
  73.6159440  63.9193568  47.9872565  74.1574986  63.4163949  48.4511186
  73.9305999  63.8658762  47.1762051  73.7423837  63.8372988  47.9356377
  71.7845890  69.3110919  45.2712593  71.8538710  68.4525458  45.4105594
  72.5634345  69.5282800  44.9431618  71.9098740  69.2163783  45.2429751
  74.7648710  58.8129872  58.0394866  74.9790679  58.1740786  57.4858220
  74.1482609  59.2575696  57.6102727  74.7054039  58.7840016  57.8945297
  63.6514557  61.7270634  49.4339969  64.0313522  62.1455179  48.7700237
  63.0769922  62.3084090  49.7408813  63.6225882  61.8748493  49.3816710
  76.9287798  60.4218937  58.9778173  76.1164479  60.1144828  59.0591346
  77.3877732  59.9417937  59.5420885  76.8768183  60.3055430  59.0732767
  76.3393052  68.2998609  49.4255117  75.9807707  68.4713252  50.2019150
  75.8531763  68.7611815  48.8683116  76.2151749  68.3937580  49.4580386
  74.1563438  51.9229808  53.0282209  73.2856996  51.8968529  52.9815518
  74.4103780  51.7507000  52.2108054  74.0656999  51.8939951  52.9002345
  71.1281418  63.9797775  41.9655352  71.4173943  64.7562657  42.2398926
  71.2153217  63.4686506  42.6669851  71.1835674  64.0189693  42.1097849
  71.1812579  53.9336036  54.4855679  70.6651067  53.2416228  54.6107258
  70.6206508  54.6006813  54.4318278  71.0219092  53.9299294  54.4961745
  73.2504812  54.4728996  56.3148531  72.8636566  54.4978028  57.0962061
  72.7637750  53.9070675  55.8623048  73.1217321  54.3924747  56.3636435
  72.9161954  51.3595982  58.6058791  73.5455072  51.8956282  58.3279862
  73.0847817  51.2673341  59.4572357  73.0339749  51.4257344  58.6907320
  72.7175869  56.1467176  60.8785203  73.5449298  55.8752325  60.9343817
  72.7383715  56.9428018  61.2349021  72.8428719  56.2246931  60.9400386
  67.2945359  63.2931039  54.0655464  66.4533365  63.1934913  54.2734357
  67.5035367  64.0626519  54.4169784  67.2010051  63.3923082  54.1482779
  64.7720926  60.9150576  51.8940214  64.3777624  60.9893588  51.1190324
  64.2161043  61.3008522  52.4448576  64.6323738  60.9832351  51.8607874
  76.4085873  53.8931870  51.5744093  76.6135466  53.8254178  52.4201090
  76.0812297  54.6990691  51.5065271  76.3901120  54.0017811  51.6903748
  71.1062024  61.2212438  53.3153061  70.8025161  60.6668427  53.9163469
  70.4041444  61.4004648  52.8281095  70.9578233  61.1657221  53.3322767
  70.1628121  58.5312958  47.8797763  70.4387855  57.8131871  47.4675331
  70.7626790  59.1297878  47.6718869  70.2921385  58.5133329  47.7878524
  69.1680375  68.4362159  58.0225159  69.0600730  68.4464221  58.8887217
  69.3776156  69.2616939  57.8330113  69.1830486  68.5603234  58.1229251
  73.6638641  56.2026476  46.1544358  74.1182388  56.3737036  46.8792203
  74.1378687  55.5894586  45.7542134  73.8006961  56.1377361  46.2018120
  67.1854167  65.6874801  55.4847097  66.5942100  66.3284300  55.4550112
  67.9475190  66.1112419  55.4578396  67.2102427  65.8450640  55.4762244
  67.5814789  56.8476799  56.1515114  68.0416271  56.9215729  56.8890238
  67.6270896  57.6458053  55.8014936  67.6565345  56.9770946  56.2087871
  69.2298139  57.5143494  60.7187141  68.8383704  56.8676841  61.1542919
  69.3984002  58.1054929  61.3381397  69.1969050  57.5057762  60.8749847
  71.0051661  62.9069010  47.2589365  71.7493706  63.2943286  47.4972315
  71.1512357  62.0626435  47.4229853  71.1362246  62.8399483  47.3183335
  72.9231237  54.7019269  52.2921227  72.0767282  54.8742077  52.1662576
  72.9202369  53.8968613  52.6287055  72.7978387  54.6080298  52.3232354
  73.9929537  58.4794483  53.1583285  73.5189491  57.9536245  53.6688596
  74.3647673  57.9323956  52.5898146  73.9779426  58.3210480  53.1498432
  64.3702567  60.4765990  58.5266830  65.2328180  60.3761699  58.4404160
  64.0394350  59.8960699  57.9652403  64.4487764  60.3757617  58.4312236
  75.9213037  59.3731038  46.2209038  75.3936055  59.4559782  45.5314747
  76.3808745  60.1148909  46.2173683  75.9114887  59.4951700  46.1183734
  67.7304353  59.3008439  55.1877249  67.1057423  59.3126831  54.5803201
  67.3949948  59.7768614  55.8368489  67.5889845  59.3726956  55.1933817
  67.9146102  57.6433557  41.2449934  67.5658906  58.2953283  41.7081483
  67.4342548  57.6290670  40.5173805  67.7916346  57.7376611  41.2061025
  64.4430029  67.3608899  56.6281013  63.9129953  66.6701338  56.6775988
  64.7155122  67.3519084  55.7993721  64.4054751  67.2576031  56.5128429
  75.4750119  67.9434601  45.3518695  76.1984318  68.4092714  45.2083269
  75.0350710  68.0108211  44.6016292  75.5165812  68.0218438  45.2203477
  74.6436274  64.8032144  56.6019384  74.0293267  64.2590194  56.8968020
  75.1603559  64.2896380  56.1225201  74.6291937  64.6468553  56.5743613
  73.8832572  65.8736414  54.3363683  73.4560180  65.2486132  53.9029118
  73.8757516  65.5911335  55.1622690  73.8191713  65.7389194  54.3943511
  66.9995099  60.9101587  57.4052117  67.1588585  60.1544911  57.8103839
  66.8187992  61.4592526  58.0592855  66.9960458  60.8795400  57.5614823
  74.9415402  53.0762822  57.9602907  74.4455963  53.2726496  57.2694473
  75.6984464  53.4755491  57.7891708  74.9802226  53.1640556  57.8323043
  72.2118281  56.7505168  54.5506217  72.2360768  56.2165280  53.8618997
  72.4629755  56.2422477  55.2131808  72.2528200  56.5966072  54.5470862
  59.7225871  64.0336663  53.9849361  59.6169320  63.9883507  53.1201445
  58.9726091  64.3790444  54.2663646  59.5961474  64.0777571  53.8986691
  68.4919603  55.4775986  53.9311961  68.5317975  55.9785193  54.6446669
  67.6669268  55.5686380  53.6617884  68.3759129  55.5657803  53.9962500
  69.9133967  61.9936496  56.2285860  69.0825896  62.1610314  56.0221109
  69.8585484  61.6172447  57.0134746  69.7823382  61.9626228  56.3134389
  67.7217750  55.4845389  61.8642271  68.3470453  54.9407522  62.1371703
  67.2668230  55.0040307  61.2950061  67.7466011  55.3334870  61.8203865
  68.2870011  60.2692088  46.7575978  68.4272972  60.7664552  47.4604619
  68.7852543  59.5678382  46.8990192  68.3811092  60.2394067  46.8827557
  68.3170233  61.1359199  44.0868555  68.9515313  61.7319624  44.0218017
  68.3995844  60.8362656  44.9014425  68.4226784  61.1800107  44.1971641
  69.8949216  57.0673174  44.0613997  70.2165057  56.5876257  43.4073259
  70.1576160  57.8772820  43.8704809  69.9815241  57.1163072  43.9369489
  75.2908371  56.4545368  56.4237476  75.7163442  56.0017895  55.8121002
  74.6765364  55.9005439  56.7002263  75.2637016  56.3059344  56.3742501
  64.8223221  63.3327040  47.3558101  65.3315450  63.9291547  47.7369406
  65.2957493  63.0653013  46.6734521  64.9666597  63.3812855  47.3112624
  73.7302594  52.9260468  49.8328053  73.0870912  52.7758114  50.4013191
  73.3902001  52.6802813  49.0677158  73.5847671  52.8672590  49.8031068
  67.1813753  59.9683298  50.2231281  66.4625742  60.3847431  50.4904145
  67.5526115  60.5337537  49.6722920  67.1305684  60.1132580  50.1814088
  76.4813333  60.6011147  56.1133277  76.4611261  60.4194442  56.9668056
  76.5292534  61.4723166  56.0892861  76.4847974  60.7027685  56.2356572
  72.9560327  59.0081298  45.5604661  72.3625166  59.3298295  45.0089228
  72.9935605  58.1622393  45.3525767  72.8734716  58.9305626  45.4487432
  75.8318144  58.9660802  48.9906411  75.6031837  58.9893504  48.1484769
  76.0916220  58.1418270  49.1101422  75.8364332  58.8476882  48.8831609
  70.1137372  60.8195276  58.5931511  69.6016275  60.2116459  58.9516543
  69.9416868  61.5351868  59.0605487  70.0127009  60.8358575  58.7147735
  64.9603087  59.2632851  61.2433873  64.7905677  59.9234226  60.6982080
  64.5169037  59.4739412  61.9646362  64.8702420  59.3918833  61.2695503
  68.8862906  57.5037349  50.2860607  69.3620272  57.8654429  49.6510788
  68.3851506  58.1593816  50.5660749  68.8828265  57.6531538  50.2337348
  73.9906442  58.7419520  61.0333767  74.5477873  58.5133330  60.4012232
  73.6667507  59.5025186  60.7568979  74.0252853  58.8203357  60.8990264
  61.8605151  62.1679716  56.5022363  61.3131871  61.4980362  56.6203231
  62.6497529  61.8009564  56.5665830  61.8957335  62.0144703  56.5291063
  70.9289559  59.6478549  43.6533991  71.3088524  59.6658178  42.8685105
  70.1882155  60.0932537  43.5324838  70.8758397  59.7160323  43.5197559
  78.5574850  57.9560740  49.2409569  78.5569076  57.8009396  50.0993846
  78.3531030  58.8023727  49.1850955  78.5274628  58.0581361  49.3597509
  60.6192121  61.3800524  53.6568386  60.4413882  60.9277133  54.3823302
  60.3311143  62.1826686  53.8406863  60.5505074  61.4323082  53.7911889
  76.2815702  62.6358242  52.8945776  76.7769367  61.9181237  52.8549797
  75.4715478  62.3329039  52.7800263  76.2359595  62.4855888  52.8719502
  71.7274313  66.4856055  45.0442781  70.9185636  66.1622728  44.9976090
  72.2349222  65.7789277  44.9771029  71.6823980  66.3337371  45.0273075
  62.3564591  63.9128248  50.7690145  61.4910110  63.9013938  50.6572916
  62.4563407  63.7258471  51.6161284  62.2438758  63.8834309  50.8779089
  67.9821601  73.6826147  54.3420251  68.2968159  74.4962535  54.3498032
  68.3915014  73.2976365  55.0102410  68.0889698  73.7454849  54.4424342
  74.9346120  69.0996193  51.9124062  75.4057298  69.8136456  52.0814048
  75.2706299  68.4994944  52.4483932  75.0541235  69.1167658  52.0156438
  71.8515615  53.8723664  58.8682157  71.9843521  53.0754657  59.1963133
  72.2360768  54.3990067  59.4480433  71.9271944  53.8323581  59.0025660
  74.9247970  50.7953990  55.4663251  74.1193934  50.6851720  55.7831089
  74.7954706  50.8966446  54.6093116  74.7868103  50.7937660  55.3871291
  78.3813931  56.9599482  56.0602947  77.7976920  57.4608688  55.6480515
  78.7018225  56.4529038  55.4267271  78.3427106  56.9591317  55.9061455
  70.9208730  55.8740077  46.3361622  71.7424424  56.0438390  46.0943317
  70.4578381  56.0287338  45.6127920  70.9739892  55.9221810  46.1933267
  69.5104062  53.8682839  57.1160051  70.0548475  53.5273966  57.7064393
  69.5640998  54.7268301  57.2581336  69.5993181  53.9438098  57.2241924
  65.3234621  67.6299255  53.9898859  65.9279478  67.5895089  53.3612680
  65.1161933  68.4770407  54.0202915  65.3823518  67.7487258  53.9014975
  60.5585903  66.6133873  53.8597782  60.4610181  65.8030144  54.1687839
  61.3414773  66.5925666  53.4744050  60.6602039  66.4900963  53.8484645
  34.9953357   1.0405320  35.6234181  34.2436257   0.6620859  35.3950227
  35.4439369   1.0723754  34.8752992  34.9503024   0.9890927  35.4791684
  40.4478317   1.4630690  31.0519729  40.1129686   2.1407611  30.6163951
  40.9605188   1.0736001  30.4636600  40.4743898   1.5055268  30.9006520
  39.9882609   3.4144958  36.9930840  40.3721988   3.9831857  36.4535615
  39.9241750   2.6894469  36.5136656  40.0356036   3.3920422  36.8424703
  36.5738114   1.0523712  37.8896954  36.6748476   0.2424066  38.1994082
  35.9779859   0.9580659  37.2596632  36.5010652   0.9188741  37.8423192
  36.4138853   5.9701302  39.2911810  37.0576309   6.4114466  39.6807968
  36.7395109   5.1654728  39.2042069  36.5570682   5.9166496  39.3357287
  29.7703158  -2.9256001  37.5149288  29.5353342  -3.7588349  37.4081556
  29.9088799  -2.6451335  36.7010489  29.7558820  -3.0072498  37.3791643
  37.1159433  -1.0186724  34.6631672  37.4375274  -0.4781516  34.0592980
  37.7631529  -1.5889952  34.7953961  37.2585488  -1.0227548  34.5938707
  31.3320482   1.9529670  38.7905494  30.8488061   2.6780159  38.7665077
  32.1443801   2.2505800  38.9015651  31.3811230   2.1032023  38.8032773
  37.4034637   0.7461850  41.3955308  36.8861578   0.3869265  40.7916616
  38.1009028   0.2224025  41.4061374  37.4300218   0.6159538  41.3085567
  41.0598229   1.1956665  47.3571481  41.1481574   1.0082805  48.2049692
  41.4887941   0.5494094  46.9576328  41.1360331   1.0719672  47.4243233
  38.6268688   0.4787825  46.3389143  38.0639523   0.0660434  46.8628805
  39.3889712   0.4040730  46.7582287  38.6563137   0.4065225  46.4782144
  34.1864680   2.4685846  38.9425774  34.8885259   1.9537835  38.9998530
  34.1062163   2.7959997  39.7472649  34.2788440   2.4400072  39.0698566
  33.5115455  -1.3407802  38.4511382  34.3504355  -1.1084870  38.4985143
  33.5427224  -2.2103491  38.3818417  33.6397173  -1.4350856  38.4476026
  34.1368158  -0.9206927  42.7524687  34.6766383  -1.0635796  43.4228060
  33.4538104  -0.5210176  43.1208713  34.1160312  -0.8827256  42.9059109
  41.1718288   0.6265684  50.0215265  41.9558704   0.7396531  50.3871007
  40.9714882  -0.1993179  50.2173951  41.2584313   0.5212403  50.1049651
  41.3288681   2.5375786  43.6681720  40.5303927   2.2975286  43.9255589
  41.7774693   2.5890179  44.4148768  41.2763292   2.5098177  43.8166645
  29.9498717  -3.9147857  40.1870853  29.7674290  -3.9400971  39.3343145
  30.6848386  -3.4448919  40.2259762  30.0312781  -3.8486495  40.0668771
  36.2891777  -1.6539067  37.2214795  36.9265724  -1.8927319  37.7666588
  36.7146848  -1.4501908  36.4867956  36.4467943  -1.6588057  37.1931952
  30.9804419   0.5849270  41.1049099  31.0208564   0.8564121  40.2768878
  31.5398943   1.1091178  41.5206887  31.0687765   0.7025025  41.0440987
  38.6713249  -1.1766644  38.9008581  38.7452257  -1.3391472  39.7550431
  39.4882755  -0.9876455  38.6569063  38.8029607  -1.1729902  38.9906607
  32.4319005  -0.8308781  35.9303025  31.6057123  -0.5847044  35.8037304
  32.4930997  -0.9096700  36.7965083  32.3193172  -0.8063832  36.0391969
  37.2117834   1.7868099  33.6322055  37.5016133   1.3957080  32.9081281
  37.9421315   1.9684804  34.0727330  37.3624719   1.7561913  33.5904862
  35.1523750   3.7635481  36.6982204  34.9324045   3.4732836  37.4908871
  34.9318272   3.1050436  36.1700117  35.0871344   3.6235190  36.7371113
  34.2672971  -2.5095951  34.8880271  35.0218939  -2.1282912  35.1015734
  33.6743583  -2.0584807  35.3426968  34.2909684  -2.3867124  34.9863150
  35.5871197  -1.3387390  40.2620387  35.0651951  -1.1987098  40.9472251
  35.9745217  -2.0976726  40.4522504  35.5674898  -1.4301866  40.3921463
  41.7838202   0.4008069  34.2480955  41.5424878  -0.3324070  33.8408020
  41.9639535   0.9494926  33.5947289  41.7745826   0.3730461  34.0911178
  36.1517683   2.3673390  43.3450242  36.3007246   1.8076306  42.6923646
  36.9317685   2.4465392  43.7282761  36.2891776   2.2958956  43.3047191
  38.6770983   2.5388033  44.6234733  38.6014654   1.8696844  45.1785521
  38.6060842   3.2405821  45.1375399  38.6551590   2.5432940  44.7811581
  39.3341230   1.0589032  35.4558339  40.0991121   0.7898676  35.1341003
  39.2319320   0.5739042  36.1728402  39.4322726   0.9478597  35.5138166
  38.0662617   5.9456353  43.0812734  38.5558548   5.2467142  42.8988398
  37.4946850   5.6480223  43.6688791  38.0547147   5.7982577  43.1413774
  38.5598963  -0.3066874  32.2052640  38.6291784  -1.1652335  32.3445641
  39.3387418  -0.0894993  31.8771665  38.6851813  -0.4014010  32.1769797
  42.9506451   2.1170828  36.4189133  42.5586243   1.8137543  35.7012000
  43.1059523   2.9539918  36.2294087  42.9160041   2.1954664  36.2845631
  35.9433448  -1.1815634  44.9565206  35.8353803  -1.1713571  45.8227264
  36.1529229  -0.3560853  44.7670160  35.9583559  -1.0574559  45.0569297
  43.7196756   1.5206320  39.8519168  43.5216445   2.0097135  39.1575379
  43.0984467   1.7247562  40.4303301  43.5984321   1.6222859  39.8342391
  31.2183102  -2.2568894  43.5621060  30.6883027  -2.9476455  43.6116034
  31.4908195  -2.2658708  42.7333768  31.1807824  -2.3601762  43.4468476
  26.4978944  -5.5841129  40.9189408  26.3922393  -5.6294285  40.0541492
  25.7479164  -5.2387349  41.2003693  26.3714547  -5.5400221  40.8326738
  39.8999262  -1.5285744  44.5152860  39.3924353  -0.9749897  44.9593490
  39.6025908  -1.4677454  43.6971634  39.7804147  -1.4379433  44.4601317
  42.5107042   2.3877514  32.4456803  41.7936352   2.2138376  31.9804041
  43.1613780   2.1530086  31.9132289  42.5008893   2.3273306  32.2986021
  39.1441747   3.4038814  41.4209867  38.9207402   2.6457643  41.7893893
  38.6551590   3.4336835  40.6990306  39.0385196   3.2961039  41.3686608
  37.7920204   3.6239272  38.8746951  37.3780603   2.9613403  38.4850793
  38.4767578   3.7717131  38.3542645  37.8318576   3.5479930  38.7403448
  41.1585498   2.7829358  39.6270568  40.7601781   2.8931628  38.8591388
  40.5436718   2.9911424  40.2097128  41.0084388   2.8302926  39.6001867
  34.7574674   4.0648354  41.2760297  35.0721233   4.8784742  41.2838079
  35.1668087   3.6798573  41.9442456  34.8642772   4.1277056  41.3764389
  43.7976178   1.0919714  51.0256181  43.9073143   0.3028275  51.3812929
  44.1267075   1.0025650  50.2230519  43.8628584   0.9625567  50.9598572
  32.0987694  -1.9878538  40.9238906  32.7032551  -2.0282703  40.2952726
  31.8915006  -1.1407386  40.9542962  32.1576591  -1.8690535  40.8355022
  41.9131466   0.2787408  42.1401143  42.7329840   0.1350374  42.4017438
  41.6325544   0.9033606  42.6817581  41.9928209   0.3497760  42.2589083
  27.3338976  -3.0043920  40.7937829  27.2363254  -3.8147649  41.1027886
  28.1167846  -3.0252127  40.4084097  27.4355113  -3.1276830  40.7824692
  58.3845116   7.9352259  35.1044019  58.3539121   8.7896896  35.2762289
  58.9826465   7.6347552  35.6630163  58.4682274   8.0168756  35.2118822
  51.5844801   7.0227910  39.8596950  50.7282697   7.1836409  39.9106067
  51.6312455   6.1519974  39.8802011  51.4643913   6.9178712  39.8703016
  54.8938518  13.2914436  49.4657406  55.6005285  12.7966467  49.5944340
  55.0826453  13.7323517  48.7360064  55.0266423  13.2832786  49.3766451
  51.4210901  16.9815998  31.0519729  51.0862269  17.6592919  30.6163951
  51.9337771  16.5921309  30.4636600  51.4476482  17.0240576  30.9006520
  50.9615192  18.9330266  36.9930840  51.3454571  19.5017165  36.4535615
  50.8974333  18.2079777  36.5136656  51.0088619  18.9105730  36.8424703
  54.4296622   9.0819954  42.5028602  54.9752582   9.7605041  42.5622571
  54.3713499   8.9407415  41.6430183  54.5012537   9.1611956  42.3840662
  56.2061691  10.5104561  33.3762329  56.0901217  11.2612247  33.8054467
  57.0017578  10.2528515  33.6258416  56.3066280  10.5839408  33.4766421
  40.7435741  12.5929307  37.5149288  40.5085926  11.7596959  37.4081556
  40.8821382  12.8733973  36.7010489  40.7291404  12.5112810  37.3791643
  43.0425829   4.7615038  40.4133595  42.4230860   4.1707685  40.2443610
  42.9409692   5.3526473  39.7797919  42.9363504   4.7619120  40.2938585
  50.1393724   6.5014579  34.7466058  50.8373889   6.6802707  35.2387522
  50.4546057   5.9784919  34.1236448  50.2889062   6.4508351  34.7268069
  42.7694962   8.3067319  42.6577164  42.6453659   8.8929765  43.2926983
  43.4213246   7.8127515  42.9589439  42.8468611   8.3206124  42.7963094
  47.7953303  11.4829036  41.9364675  48.4402305  10.9901479  41.6175624
  48.0355080  11.6253823  42.7630754  47.9263888  11.4306478  42.0114209
  50.3339394  14.3283942  41.5871568  50.6162637  13.5335348  41.3658324
  51.0625555  14.8064529  41.6076629  50.4828958  14.2818539  41.5574583
  48.3120588   1.8706976  38.8287333  47.9823918   2.3218120  38.1591032
  47.6365590   1.7923139  39.3760339  48.1631024   1.9258111  38.8110556
  53.9290996  11.2412206  31.6876619  53.8442292  12.0973172  31.8326188
  54.4175380  10.9656530  32.3558778  53.9879894  11.3269527  31.8078701
  54.8609430   7.8597000  33.1874354  54.3320901   8.0756633  33.8471660
  55.3834450   8.5533138  33.1075324  54.8597883   7.9940137  33.2729953
  60.3157483  13.4343304  38.5607399  59.4855186  13.6453948  38.7240815
  60.2666735  12.6080359  38.2849682  60.1864218  13.3432911  38.5444764
  46.7509037  11.7560217  31.9881822  46.1666253  12.2610248  32.3947686
  46.3479133  11.5302603  31.2478414  46.6048341  11.7968465  31.9386847
  52.0330812  16.7141972  47.3571481  52.1214158  16.5268113  48.2049692
  52.4620525  16.0679402  46.9576328  52.1092914  16.5904980  47.4243233
  51.2086252   8.0025869  30.4650743  51.4482256   8.2103852  29.6526086
  51.5302093   7.1983377  30.5739687  51.2923410   7.9139970  30.3611296
  59.8111441   6.0813705  42.3557820  58.9739862   6.1515892  42.5905415
  59.7799672   6.0838200  41.4832122  59.6829723   6.0923932  42.2617368
  46.2076170   8.2246741  48.0706189  46.3796674   8.1152635  48.9191470
  46.7445527   8.8701146  47.8337381  46.3121174   8.3038742  48.1611285
  44.8733607   2.3389583  31.0088394  44.6909180   2.5561464  30.1829387
  45.7359220   2.4528596  31.0647008  44.9738196   2.3879481  30.8942881
  54.5341627  10.2769381  37.9469712  55.2899142  10.7100896  37.9858620
  54.6403951   9.6274151  38.5204348  54.6611797  10.2446865  38.0367737
  57.5721798  14.1042659  38.6972114  57.1357030  14.1079401  39.4531086
  57.2384713  14.7848158  38.2651692  57.4584418  14.2055114  38.7452947
  52.1450871  16.1450991  50.0215265  52.9291288  16.2581839  50.3871007
  51.9447466  15.3192129  50.2173951  52.2316897  16.0397711  50.1049651
  40.5137887  10.8178672  42.9059109  40.2476302  10.0017788  43.0650099
  40.5276451  10.8631827  42.0354624  40.4762609  10.7035576  42.8012591
  44.4195634   5.6163756  29.5210867  43.7053811   5.3301936  29.9333299
  44.9039602   5.9560382  30.1617254  44.3854997   5.6245406  29.6766502
  45.2636493   4.3557050  45.5526116  44.5708290   3.8854030  45.7986848
  45.8796821   4.1295354  46.1267824  45.2521023   4.2524182  45.6735269
  60.7066144  10.8223579  37.5891752  61.3682578  10.2614247  37.4887660
  60.0657556  10.3275609  37.9144443  60.7095011  10.6659988  37.6224092
  51.5942952  14.1193710  29.8972675  52.0094100  13.7878734  29.2057171
  50.7634881  13.8862612  29.7692812  51.5330960  14.0364966  29.7763522
  40.9231300  11.6037451  40.1870853  40.7406874  11.5784337  39.3343145
  41.6580969  12.0736389  40.2259762  41.0045364  11.6698813  40.0668771
  56.9930975  11.8388961  37.3303741  57.2286564  11.9834160  36.5030591
  57.1420538  12.6031369  37.7235254  57.0496778  11.9728015  37.2667344
  43.9877052   8.3222454  46.6952962  44.7117024   8.3075484  47.1817856
  44.0893189   9.0317809  46.1974930  44.1095261   8.4247157  46.6931748
  58.8221431  10.6790627  35.1673344  59.1529649  11.2118267  34.5613439
  59.3954520  10.7329515  35.8235295  58.9555111  10.7660196  35.1751126
  51.3622002  11.8021538  51.5601909  50.5694982  12.1165050  51.7454528
  51.4770929  12.0173007  50.7222693  51.2617412  11.8805375  51.4640243
  54.0353321   8.5255530  35.8496924  54.1300175   9.2644824  36.3036550
  53.4112164   8.0973005  36.2831489  53.9562351   8.5716850  35.9805072
  52.2905794  11.7041742  46.4987205  52.8644656  11.0668986  46.6535769
  52.2120598  11.7045825  45.6296863  52.3639029  11.6106854  46.3933616
  40.8902211   8.4830952  40.3369920  41.4675713   8.3467402  40.9762165
  40.1916273   8.0266736  40.5915504  40.8723232   8.3953218  40.4692209
  54.2876342  10.3704269  29.0833876  54.2056504  10.4406457  29.9488863
  54.9256062  10.9334013  28.8917617  54.3696179  10.4643240  29.1823826
  47.6469513  10.1365007  38.5508403  47.3888757   9.3036742  38.5239702
  47.7017996  10.3622620  37.7100903  47.6169291  10.0462779  38.4228540
  46.6204225   7.6902770  39.0373298  46.0453816   7.8494938  39.6737258
  46.2439901   7.0538179  38.5741748  46.4807038   7.6200583  39.0627856
  50.2877514   6.1626119  43.8965676  49.8991947   5.7380337  43.2417867
  49.6232212   6.4108269  44.4042703  50.1324442   6.1364840  43.8753544
  36.3661044   7.3342845  37.0517738  36.4521296   6.9574713  37.8331268
  36.9936842   6.9603290  36.5737696  36.4717595   7.2228327  37.0963215
  51.3916452  10.3924724  32.0942483  52.2057091  10.6839616  31.9825254
  51.3275593   9.7384586  31.5200776  51.5019191  10.3389918  31.9931320
  57.6125942  13.0750720  46.5072059  57.3764580  12.2438785  46.3884119
  58.2569171  13.0236327  47.0926903  57.6720613  12.9448408  46.5757952
  47.9027175   9.0848531  31.5589684  48.2872328   8.8656238  32.3106229
  47.6538796   9.9111476  31.6890761  47.9229248   9.1746677  31.6890761
  48.0695716   2.3654946  51.2752269  47.7549157   3.1354509  51.0121831
  47.7485648   1.8025202  50.6904496  47.9754635   2.3965215  51.1493619
  58.6362363  12.8595169  42.5700353  58.3308180  13.5923225  42.9313669
  57.9168579  12.4533098  42.2893139  58.4849705  12.9076902  42.5813490
  64.3364155   9.4988169  41.8968697  64.2688655   9.5184128  41.0271284
  64.3219817  10.3418496  42.1224368  64.3242911   9.6261904  41.8021174
  43.4051589  14.6876527  35.9303025  42.5789707  14.9338264  35.8037304
  43.4663580  14.6088607  36.7965083  43.2925756  14.7121476  36.0391969
  45.6227613   0.7545468  36.8898465  44.7550038   0.8268067  36.9556074
  45.9102817   1.5567547  37.0786440  45.5367361   0.8839615  36.9273232
  62.1222772   8.2732555  40.1715292  62.6730694   7.6400624  40.4112384
  62.1066888   8.8047948  40.8630796  62.2007969   8.2581504  40.3094150
  48.7745163  12.1071153  44.7175185  48.2756857  12.8186920  44.7960074
  49.5845387  12.4271819  44.6793348  48.8201270  12.2598001  44.7231754
  45.0373281  11.3694106  38.9637906  44.7486529  10.7431577  39.4983633
  45.9056629  11.3114393  39.0302587  45.1233533  11.2681650  39.0528861
  55.8251179   6.5128889  39.2819888  55.4815944   5.7919224  39.6327138
  55.9244221   6.3042740  38.4398246  55.7893221   6.3753092  39.2091568
  45.2405554  13.0089357  34.8880271  45.9951522  13.3902396  35.1015734
  44.6476167  13.4600500  35.3426968  45.2642268  13.1318184  34.9863150
  56.2864208  12.9754593  34.8243876  56.8522240  13.6347803  34.7402419
  55.6392111  13.3204291  35.2960278  56.2742964  13.1236534  34.8816633
  47.7012221   4.9652197  50.0137483  46.8911997   5.2709977  49.9027326
  48.1786908   5.6857779  50.1290067  47.6515700   5.1166798  50.0144554
  43.5494965   4.2303727  34.3315341  43.2619761   3.8604997  33.5947288
  44.2365433   4.6998582  34.0699046  43.6083862   4.2450696  34.1830417
  52.7570786  15.9193377  34.2480955  52.5157462  15.1861238  33.8408020
  52.9372119  16.4680234  33.5947289  52.7478410  15.8915769  34.0911178
  46.3848636   8.0956675  35.7782746  47.1071288   8.2597833  35.3186552
  45.9056629   8.8166340  35.6722086  46.4212367   8.2254905  35.6948360
  54.3442144   4.4320474  41.1579431  53.5053245   4.4581753  40.9217694
  54.4146511   5.0791209  41.7384777  54.2310537   4.5316600  41.2088548
  44.0356253  10.5014747  44.8836886  44.5477350  10.7799001  44.2345646
  43.7492596  11.2404042  45.2499699  44.0691116  10.6517101  44.8426764
  58.2199668   9.6388461  38.4440673  58.1333642   9.7943887  39.2975451
  57.7650148  10.2826536  38.0700078  58.1402924   9.7564216  38.5147779
  41.1223159   5.0084939  35.1800622  41.2239296   5.8111101  35.5081598
  41.9179046   4.8072275  34.8823703  41.2551065   5.0970838  35.1835978
  47.5539978   2.5941136  44.9437927  47.3623175   2.6096271  45.7937351
  48.4038574   2.7904810  44.9204582  47.6515700   2.6255487  45.0661222
  41.9386891   5.1232118  42.9221744  41.7972383   4.2716058  43.0466252
  42.2227455   5.1660778  42.0983950  41.9594738   5.0031868  42.8189368
  52.0925484   6.9599208  37.0666232  51.8460198   6.8794959  37.9003021
  52.4210607   6.1752676  36.8728760  52.1046727   6.8325473  37.1613755
  55.9873533  13.6682567  40.8553013  55.8487892  14.3663613  41.3601756
  55.2073531  13.5131224  40.4989195  55.8516760  13.7482734  40.8779287
  54.3251618   9.9678942  47.1075395  54.3199656   9.0958759  47.1117821
  55.0312612  10.1667112  46.6344851  54.4296622   9.8682817  47.0382430
  48.0522511   9.6955926  46.4789215  48.1965887  10.2757134  45.8432325
  48.3998160  10.0732223  47.1839070  48.1249972   9.8376630  46.4888210
  50.2242428   8.8946095  44.2614347  49.4765743   9.0877109  43.8562625
  50.3783954   8.0691314  44.0238468  50.1364856   8.8011206  44.1659753
  57.4826906  13.0260821  31.6169513  57.1033714  12.2397959  31.6098802
  56.8193151  13.5747678  31.4741157  57.3285380  12.9905645  31.5950309
  50.4644206   2.7896645  45.1509751  50.9216820   3.5220620  45.2782543
  50.5400534   2.3663111  45.9097006  50.5435175   2.8353884  45.2810827
  42.7077197   3.0362465  46.2399194  42.1719386   2.4242823  46.5559961
  42.7694961   3.6110601  46.8932861  42.6372829   3.0309393  46.3834621
  48.3426583   4.7798749  41.9951575  47.5522658   4.5990209  42.3168910
  48.7387206   4.0025702  41.9781869  48.2843460   4.6386210  42.0404123
  52.8292474  13.6086524  27.4358288  53.5965459  13.6686649  27.0264140
  52.3823783  13.0366965  26.9514607  52.8765901  13.5323099  27.3035998
  53.7270270  12.4141180  39.7211020  53.0515272  12.1826412  40.2224407
  53.7362646  11.8062362  39.0953125  53.6288774  12.2900105  39.7027173
  50.8564414   7.2559008  46.4775073  50.7923555   8.1168965  46.3495210
  50.9961601   6.9391002  45.6770625  50.8679884   7.3359175  46.3403286
  55.7287004  15.2706312  31.9521198  55.8106842  16.0773298  31.6282649
  56.2136746  15.2902271  32.6761972  55.8124162  15.3926974  32.0108097
  49.5383508   9.9491148  40.6191276  49.1145757  10.1495647  39.8830295
  49.3628363   9.1019996  40.7315576  49.4494388   9.8539929  40.5264966
  44.8265953  10.4443199  36.0519249  44.9830572  10.3790002  36.9075241
  45.1666546  11.2191752  35.8397928  44.8999187  10.5492397  36.1473843
  51.3645097   9.8201083  34.9212612  51.9060643   9.3171464  35.3851233
  51.6791656   9.7666278  34.1102097  51.4909494   9.7380504  34.8696424
  55.2362205  14.0303730  52.0339524  56.0497070  13.7588879  52.1944657
  55.0757171  13.7311270  51.2299720  55.3332153  13.9458656  51.9384930
  52.5134367   4.7137387  44.9734913  52.7276336   4.0748302  44.4198267
  51.8968266   5.1583211  44.5442774  52.4539696   4.6847531  44.8285344
  53.9239034  17.6356136  36.4189133  53.5318826  17.3322851  35.7012000
  54.0792107  18.4725226  36.2294087  53.8892624  17.7139972  36.2845631
  41.4000214   7.6278150  36.3680016  41.7799179   8.0462695  35.7040283
  40.8255579   8.2091605  36.6748859  41.3711539   7.7756009  36.3156757
  54.6773455   6.3226453  45.9118220  53.8650136   6.0152343  45.9931392
  55.1363389   5.8425453  46.4760932  54.6253839   6.2062945  46.0072814
  54.0878709  14.2006124  36.3595164  53.7293364  14.3720767  37.1359196
  53.6017420  14.6619330  35.8023162  53.9637406  14.2945096  36.3920433
  48.8767075   9.8805290  28.8995398  49.1659599  10.6570172  29.1738973
  48.9638873   9.3694021  29.6009898  48.9321331   9.9197208  29.0437896
  51.7726962   7.7286524  50.6946922  52.2426593   8.3528640  51.0814796
  51.8188842   7.0603499  51.2540137  51.8494838   7.7221204  50.8346993
  55.2483449  15.0910020  47.3062365  55.8863169  14.5970216  46.9724821
  54.6057540  15.0187421  46.7214592  55.2477675  15.0069029  47.1704720
  56.9740449   6.9399166  41.8728280  56.5468057   6.8525515  41.1176380
  56.3366502   7.0476942  42.4583125  56.8170056   6.9431826  41.8473722
  55.3037705  15.7829829  43.9467722  56.0930083  15.4318893  44.0669803
  55.4781303  16.5966217  43.6844355  55.4457987  15.8515686  43.9255590
  45.0431016   9.1938554  40.9995510  44.2019022   9.0942429  41.2074404
  45.2521024   9.9634035  41.3509831  44.9495708   9.2930598  41.0822825
  42.5206583   6.8158091  38.8280261  42.1263280   6.8901103  38.0530371
  41.9646699   7.2016038  39.3788623  42.3809395   6.8839866  38.7947921
  48.8547680   7.1219954  40.2493108  48.5510818   6.5675942  40.8503516
  48.1527101   7.3012164  39.7621142  48.7063890   7.0664736  40.2662814
  47.9113778   4.4320473  34.8137810  48.1873512   3.7139386  34.4015377
  48.5112447   5.0305393  34.6058916  48.0407042   4.4140844  34.7218571
  44.9339823  11.5882317  42.4187143  44.3427757  12.2291815  42.3890158
  45.6960847  12.0119934  42.3918443  44.9588084  11.7458155  42.4102291
  45.3300446   2.7484315  43.0855161  45.7901928   2.8223244  43.8230285
  45.3756553   3.5465569  42.7354982  45.4051002   2.8778462  43.1427917
  46.9783796   3.4151009  47.6527188  46.5869361   2.7684357  48.0882966
  47.1469659   4.0062445  48.2721443  46.9454706   3.4065277  47.8089894
  61.0530245  11.4188086  43.4164422  61.1113369  11.8674735  44.1624398
  60.4196713  11.8286899  42.9794502  60.9681540  11.5461821  43.4616970
  54.6929340  17.0391628  39.8519168  54.4949028  17.5282443  39.1575379
  54.0717051  17.2432870  40.4303301  54.5716904  17.1408167  39.8342391
  48.7537318   8.8076525  34.1929412  49.4979363   9.1950801  34.4312362
  48.8998014   7.9633951  34.3569900  48.8847903   8.7406998  34.2523382
  51.7415194   4.3801998  40.0923331  51.2675148   3.8543761  40.6028642
  52.1133330   3.8331471  39.5238193  51.7265083   4.2217995  40.0838479
  42.1188224   6.3773505  45.4606877  42.9813837   6.2769214  45.3744207
  41.7880007   5.7968214  44.8992449  42.1973420   6.2765132  45.3652283
  58.0051925   9.4404374  41.5030112  57.7650147   8.6010789  41.5072538
  58.4843932   9.5204541  42.2270885  58.0404108   9.3285774  41.6104914
  53.6698694   5.2738553  33.1549085  53.1421712   5.3567297  32.4654794
  54.1294402   6.0156425  33.1513730  53.6600544   5.3959215  33.0523780
  60.0057112   6.2205831  39.4559371  59.7666881   6.1801666  38.6180156
  60.1691013   7.0676983  39.5825092  59.9947415   6.3397916  39.3512853
  56.6103142  10.6055781  45.3864416  57.3337341  10.1528307  45.2075436
  56.3453104  10.8860446  44.6036744  56.6784415  10.5806749  45.2443132
  45.4790010   5.2015954  42.1217295  44.8543080   5.2134346  41.5143248
  45.1435605   5.6776129  42.7708536  45.3375502   5.2734471  42.1273864
  45.6631759   3.5441073  28.1789980  45.3144563   4.1960798  28.6421530
  45.1828205   3.5298186  27.4513852  45.5402003   3.6384126  28.1401072
  42.1915686  13.2616414  43.5621060  41.6615610  12.5708853  43.6116034
  42.4640779  13.2526600  42.7333768  42.1540408  13.1583546  43.4468476
  53.2235776  13.8442117  32.2858742  53.9469975  14.3100230  32.1423316
  52.7836367  13.9115726  31.5356339  53.2651468  13.9225953  32.1543524
  52.3921931  10.7039659  43.5359431  51.7778924  10.1597709  43.8308067
  52.9089216  10.1903895  43.0565247  52.3777594  10.5476068  43.5083660
  51.6318228  11.7743929  41.2703730  51.2045836  11.1493648  40.8369165
  51.6243173  11.4918851  42.0962737  51.5677370  11.6396710  41.3283557
  44.7480755   6.8109102  44.3392164  44.9074242   6.0552426  44.7443886
  44.5673649   7.3600042  44.9932902  44.7446114   6.7802916  44.4954870
  49.9603938   2.6512683  41.4846264  49.9846425   2.1172796  40.7959044
  50.2115412   2.1429992  42.1471854  50.0013857   2.4973587  41.4810909
  37.4711528   9.9344178  40.9189408  37.3654977   9.8891023  40.0541492
  36.7211748  10.2797959  41.2003693  37.3447131   9.9785087  40.8326738
  46.2405260   1.3783502  40.8652008  46.2803632   1.8792708  41.5786716
  45.4154925   1.4693895  40.5957931  46.1244786   1.4665318  40.9302546
  48.4234873  10.9444242  48.9672303  47.5730504  11.0815956  49.1029948
  48.5863001  10.2108020  49.4120004  48.3218737  10.8558343  49.0527902
  47.6619624   7.8944012  43.1625907  46.8311553   8.0617830  42.9561155
  47.6071141   7.5179962  43.9474793  47.5309039   7.8633743  43.2474435
  45.4703407   1.3852904  48.7982318  46.0956110   0.8415037  49.0711750
  45.0153887   0.9047822  48.2290108  45.4951667   1.2342386  48.7543912
  46.0355667   6.1699603  33.6916025  46.1758629   6.6672067  34.3944666
  46.5338200   5.4685897  33.8330239  46.1296748   6.1401582  33.8167604
  46.0655890   7.0366714  31.0208602  46.7000969   7.6327139  30.9558063
  46.1481501   6.7370172  31.8354472  46.1712441   7.0807622  31.1311688
  59.0438456   9.5682191  43.8894966  59.6356296  10.2079442  43.9213164
  59.4797450   8.8705228  44.1787033  59.1956887   9.5600542  43.9375799
  47.6434873   2.9680690  30.9954044  47.9650714   2.4883772  30.3413306
  47.9061816   3.7780336  30.8044855  47.7300898   3.0170587  30.8709536
  50.8731845  13.9899564  44.5152860  50.3656937  14.5435411  44.9593490
  50.5758492  14.0507854  43.6971634  50.7536730  14.0805875  44.4601317
  42.5708878   9.2334555  34.2898148  43.0801107   9.8299062  34.6709453
  43.0443150   8.9660529  33.6074567  42.7152253   9.2820370  34.2452670
  53.4839626  17.9062822  32.4456803  52.7668935  17.7323684  31.9804041
  54.1346363  17.6715394  31.9132289  53.4741476  17.8458614  32.2986021
  56.0687597   6.7827410  36.1898108  55.3978787   7.3257112  36.0611174
  56.7627347   7.2522265  35.9479803  56.0716465   6.9325681  36.1353636
  44.9299409   5.8690813  37.1571328  44.2111399   6.2854946  37.4244192
  45.3011772   6.4345052  36.6062966  44.8791341   6.0140095  37.1154135
  54.2298990   6.5018662  43.0473324  54.2096918   6.3201957  43.9008103
  54.2778191   7.3730681  43.0232908  54.2333631   6.6035201  43.1696619
  52.1745320  13.0905854  48.9721800  52.1341175  12.4455531  48.3866956
  52.9868638  13.0342472  49.2847212  52.2888474  12.9864821  48.9318750
  52.1318082  18.3014665  39.6270568  51.7334365  18.4116936  38.8591388
  51.5169301  18.5096732  40.2097128  51.9816971  18.3488234  39.6001867
  50.7045984   4.9088813  32.4944708  50.1110823   5.2305810  31.9429275
  50.7421262   4.0629909  32.2865814  50.6220373   4.8313142  32.3827479
  53.5803800   4.8668318  35.9246458  53.3517493   4.8901019  35.0824816
  53.8401877   4.0425785  36.0441468  53.5849988   4.7484398  35.8171656
  47.8623029   6.7202791  45.5271558  47.3501932   6.1123974  45.8856589
  47.6902525   7.4359383  45.9945534  47.7612666   6.7366090  45.6487782
  42.7088744   5.1640366  48.1773920  42.5391334   5.8241741  47.6322127
  42.2654693   5.3746927  48.8986409  42.6188077   5.2926348  48.2035549
  46.6348563   3.4044864  37.2200654  47.1105929   3.7661944  36.5850835
  46.1337163   4.0601332  37.5000796  46.6313922   3.5539053  37.1677394
  59.8659924  12.8766632  33.0113659  60.2493530  13.6257988  33.2411756
  59.0704038  13.1232452  32.7525648  59.8053707  13.0236326  33.0071232
  51.7392099   4.6427036  47.9673814  52.2963529   4.4140845  47.3352279
  51.4153164   5.4032701  47.6909026  51.7738509   4.7210872  47.8330311
  39.6090808   8.0687232  43.4362410  39.0617527   7.3987877  43.5543278
  40.3983186   7.7017080  43.5005877  39.6442992   7.9152218  43.4631110
  49.4575216   7.7294689  48.9325821  50.2086543   8.0446366  49.2465375
  49.6497793   7.5273860  48.1059742  49.5966631   7.7462071  48.8569216
  48.6775216   5.5486064  30.5874037  49.0574181   5.5665693  29.8025152
  47.9367812   5.9940053  30.4664885  48.6244054   5.6167839  30.4537606
  38.3677778   7.2808040  40.5908433  38.1899539   6.8284649  41.3163348
  38.0796800   8.0834201  40.7746910  38.2990731   7.3330597  40.7251936
  54.0301359   8.5365757  39.8285823  54.5255024   7.8188752  39.7889843
  53.2201134   8.2336555  39.7140310  53.9845252   8.3863403  39.8059549
  49.4759970  12.3863570  31.9782827  48.6671293  12.0630244  31.9316137
  49.9834879  11.6796792  31.9111076  49.4309637  12.2344887  31.9613122
  40.1050247   9.8135763  37.7030192  39.2395767   9.8021454  37.5912963
  40.2049063   9.6265986  38.5501331  39.9924414   9.7841825  37.8119136
  56.0953178  11.2869444  42.5162952  56.5208249  10.7643866  41.9633377
  55.7310097  11.8850282  41.9951575  56.1039780  11.2979671  42.3571962
  52.6831777  15.0003709  38.8464109  53.1542955  15.7143971  39.0154094
  53.0191955  14.4002459  39.3823979  52.8026892  15.0175173  38.9496485
  54.7708762  16.6105022  51.0256181  54.8805727  15.8213583  51.3812929
  55.0999658  16.5210958  50.2230519  54.8361167  16.4810875  50.9598572
  53.3205723  14.7921643  45.6091802  52.7726669  14.1679526  45.3411867
  53.7818752  14.9815915  44.8935881  53.3072933  14.7280693  45.4642233
  48.6694387   1.7747592  33.2701669  49.4910081   1.9445905  33.0283364
  48.2064038   1.9294853  32.5467967  48.7225549   1.8229325  33.1273313
  43.0720277  13.5306770  40.9238906  43.6765135  13.4902605  40.2952726
  42.8647590  14.3777922  40.9542962  43.1309175  13.6494773  40.8355022
  52.8864050  15.7972716  42.1401143  53.7062423  15.6535682  42.4017438
  52.6058127  16.4218914  42.6817581  52.9660793  15.8683068  42.2589083
  38.3071560  12.5141388  40.7937829  38.2095838  11.7037659  41.1027886
  39.0900429  12.4933181  40.4084097  38.4087696  12.3908478  40.7824692
  69.3577700  23.4537567  35.1044019  69.3271704  24.3082204  35.2762289
  69.9559049  23.1532860  35.6630163  69.4414858  23.5354064  35.2118822
  62.5577385  22.5413218  39.8596950  61.7015280  22.7021716  39.9106067
  62.6045039  21.6705282  39.8802011  62.4376496  22.4364020  39.8703016
  65.8671101  28.8099744  49.4657406  66.5737869  28.3151775  49.5944340
  66.0559037  29.2508825  48.7360064  65.9999007  28.8018094  49.3766451
  62.3943484  32.5001306  31.0519729  62.0594853  33.1778227  30.6163951
  62.9070355  32.1106617  30.4636600  62.4209066  32.5425884  30.9006520
  61.9347776  34.4515574  36.9930840  62.3187155  35.0202473  36.4535615
  61.8706917  33.7265085  36.5136656  61.9821203  34.4291038  36.8424703
  65.4029206  24.6005262  42.5028602  65.9485166  25.2790349  42.5622571
  65.3446082  24.4592723  41.6430183  65.4745120  24.6797264  42.3840662
  58.5203281  32.0894328  37.8896954  58.6213644  31.2794682  38.1994082
  57.9245026  31.9951275  37.2596632  58.4475819  31.9559356  37.8423192
  67.1794274  26.0289869  33.3762329  67.0633800  26.7797555  33.8054467
  67.9750161  25.7713823  33.6258416  67.2798864  26.1024716  33.4766421
  54.0158412  20.2800345  40.4133595  53.3963444  19.6892993  40.2443610
  53.9142276  20.8711781  39.7797919  53.9096088  20.2804428  40.2938585
  59.0624600  30.0183892  34.6631672  59.3840441  30.5589100  34.0592980
  59.7096697  29.4480664  34.7953961  59.2050655  30.0143067  34.5938707
  61.1126308  22.0199887  34.7466058  61.8106473  22.1988015  35.2387522
  61.4278641  21.4970227  34.1236448  61.2621645  21.9693659  34.7268069
  53.7427545  23.8252627  42.6577164  53.6186242  24.4115073  43.2926983
  54.3945830  23.3312823  42.9589439  53.8201195  23.8391432  42.7963094
  61.3014243  28.4070332  34.7345850  61.7407879  27.7987433  35.1800623
  61.1518906  28.0277706  33.9631315  61.3435709  28.2608803  34.6865017
  58.7685886  27.0014344  41.9364675  59.4134889  26.5086787  41.6175624
  59.0087663  27.1439131  42.7630754  58.8996472  26.9491786  42.0114209
  61.3071978  29.8469250  41.5871568  61.5895221  29.0520656  41.3658324
  62.0358138  30.3249837  41.6076629  61.4561542  29.8003847  41.5574583
  59.2853172  17.3892284  38.8287333  58.9556502  17.8403427  38.1591032
  58.6098173  17.3108447  39.3760339  59.1363608  17.4443419  38.8110556
  64.9023580  26.7597514  31.6876619  64.8174875  27.6158480  31.8326188
  65.3907963  26.4841838  32.3558778  64.9612477  26.8454835  31.8078701
  66.4929579  13.3777807  37.0736944  66.1783020  14.0681285  37.5057366
  65.9756521  13.3222589  36.3722444  66.3694050  13.4712695  37.0333893
  71.2890066  28.9528612  38.5607399  70.4587769  29.1639256  38.7240815
  71.2399318  28.1265667  38.2849682  71.1596802  28.8618218  38.5444764
  57.7241621  27.2745525  31.9881822  57.1398836  27.7795556  32.3947686
  57.3211716  27.0487911  31.2478414  57.5780925  27.3153773  31.9386847
  59.3499804  31.7832466  41.3955308  58.8326745  31.4239881  40.7916616
  60.0474195  31.2594641  41.4061374  59.3765385  31.6530154  41.3085567
  63.0063396  32.2327280  47.3571481  63.0946742  32.0453421  48.2049692
  63.4353108  31.5864710  46.9576328  63.0825498  32.1090288  47.4243233
  60.5733855  31.5158440  46.3389143  60.0104690  31.1031050  46.8628805
  61.3354879  31.4411346  46.7582287  60.6028304  31.4435841  46.4782144
  62.1818835  23.5211177  30.4650743  62.4214839  23.7289160  29.6526086
  62.5034676  22.7168685  30.5739687  62.2655993  23.4325278  30.3611296
  57.4909126  15.4504572  34.3110281  58.2455094  15.8182889  34.0727331
  57.3136660  15.8244127  35.0789460  57.5763604  15.5602760  34.3895169
  70.7844024  21.5999013  42.3557820  69.9472445  21.6701200  42.5905415
  70.7532255  21.6023508  41.4832122  70.6562307  21.6109240  42.2617368
  57.1808753  23.7432048  48.0706189  57.3529257  23.6337943  48.9191470
  57.7178111  24.3886454  47.8337381  57.2853757  23.8224050  48.1611285
  55.8466190  17.8574891  31.0088394  55.6641764  18.0746772  30.1829387
  56.7091803  17.9713904  31.0647008  55.9470780  17.9064789  30.8942881
  56.0833325  30.1163689  42.7524687  56.6231550  29.9734820  43.4228060
  55.4003272  30.5160440  43.1208713  56.0625479  30.1543360  42.9059109
  61.5265910  14.8601302  34.0437418  62.2552070  14.6817257  33.5975574
  61.6160802  15.7019382  34.2544596  61.6472572  14.9585180  34.0090935
  65.5074210  25.7954689  37.9469712  66.2631725  26.2286204  37.9858620
  65.6136535  25.1459459  38.5204348  65.6344381  25.7632173  38.0367737
  68.5454381  29.6227967  38.6972114  68.1089613  29.6264709  39.4531086
  68.2117297  30.3033466  38.2651692  68.4317001  29.7240422  38.7452947
  63.1183455  31.6636299  50.0215265  63.9023872  31.7767147  50.3871007
  62.9180050  30.8377437  50.2173951  63.2049480  31.5583019  50.1049651
  51.4870470  26.3363980  42.9059109  51.2208886  25.5203096  43.0650099
  51.5009035  26.3817135  42.0354624  51.4495193  26.2220884  42.8012591
  68.4651864  16.6641794  40.9401542  69.1077773  16.7339899  41.5263458
  68.7174885  15.9971017  40.4381084  68.5973996  16.5768143  40.9528822
  55.3928217  21.1349064  29.5210867  54.6786395  20.8487243  29.9333299
  55.8772186  21.4745690  30.1617254  55.3587581  21.1430714  29.6766502
  56.2369077  19.8742358  45.5526116  55.5440874  19.4039338  45.7986848
  56.8529404  19.6480662  46.1267824  56.2253607  19.7709490  45.6735269
  63.2753848  33.5746401  43.6681720  62.4769094  33.3345902  43.9255589
  63.7239860  33.6260794  44.4148768  63.2228460  33.5468793  43.8166645
  71.6798728  26.3408886  37.5891752  72.3415162  25.7799555  37.4887660
  71.0390140  25.8460917  37.9144443  71.6827595  26.1845296  37.6224092
  62.5675535  29.6379018  29.8972675  62.9826684  29.3064042  29.2057171
  61.7367465  29.4047920  29.7692812  62.5063544  29.5550274  29.7763522
  67.9663558  27.3574269  37.3303741  68.2019147  27.5019468  36.5030591
  68.1153122  28.1216677  37.7235254  68.0229362  27.4913323  37.2667344
  54.9609636  23.8407762  46.6952962  55.6849608  23.8260792  47.1817856
  55.0625772  24.5503117  46.1974930  55.0827845  23.9432465  46.6931748
  69.7954015  26.1975935  35.1673344  70.1262232  26.7303575  34.5613439
  70.3687103  26.2514823  35.8235295  69.9287694  26.2845504  35.1751126
  62.3354585  27.3206846  51.5601909  61.5427566  27.6350358  51.7454528
  62.4503512  27.5358315  50.7222693  62.2349996  27.3990683  51.4640243
  65.0085904  24.0440838  35.8496924  65.1032759  24.7830132  36.3036550
  64.3844748  23.6158313  36.2831489  64.9294934  24.0902158  35.9805072
  63.2638378  27.2227050  46.4987205  63.8377240  26.5854294  46.6535769
  63.1853182  27.2231133  45.6296863  63.3371613  27.1292162  46.3933616
  65.2608925  25.8889577  29.0833876  65.1789088  25.9591764  29.9488863
  65.8988646  26.4519321  28.8917617  65.3428763  25.9828548  29.1823826
  58.6202097  25.6550315  38.5508403  58.3621341  24.8222050  38.5239702
  58.6750579  25.8807928  37.7100903  58.5901874  25.5648087  38.4228540
  63.7003147  17.7578766  38.6512495  62.9959473  17.2687951  38.8096415
  63.7488121  17.7701240  37.7800940  63.6033198  17.6868414  38.5451835
  57.5936809  23.2088078  39.0373298  57.0186400  23.3680246  39.6737258
  57.2172485  22.5723487  38.5741748  57.4539621  23.1385891  39.0627856
  61.2610097  21.6811427  43.8965676  60.8724530  21.2565645  43.2417867
  60.5964796  21.9293577  44.4042703  61.1057025  21.6550148  43.8753544
  70.9033367  21.4386432  36.6713506  70.6469931  20.6266373  36.4811389
  71.7462680  21.4463999  36.4443693  70.9899392  21.3198429  36.6098323
  65.0836459  15.3786056  41.4089660  65.4646971  14.6964227  41.7957534
  64.2799743  15.0895658  41.2265325  65.0212921  15.2353104  41.4393716
  62.3649036  25.9110032  32.0942483  63.1789674  26.2024924  31.9825254
  62.3008177  25.2569894  31.5200776  62.4751775  25.8575226  31.9931320
  68.5858526  28.5936028  46.5072059  68.3497163  27.7624093  46.3884119
  69.2301755  28.5421635  47.0926903  68.6453197  28.4633716  46.5757952
  58.2356944  29.3831549  37.2214795  58.8730891  29.1443297  37.7666588
  58.6612015  29.5868708  36.4867956  58.3933110  29.3782559  37.1931952
  58.8759759  24.6033839  31.5589684  59.2604912  24.3841546  32.3106229
  58.6271379  25.4296784  31.6890761  58.8961832  24.6931985  31.6890761
  59.0428299  17.8840254  51.2752269  58.7281740  18.6539817  51.0121831
  58.7218232  17.3210510  50.6904496  58.9487218  17.9150523  51.1493619
  69.6094946  28.3780477  42.5700353  69.3040763  29.1108533  42.9313669
  68.8901162  27.9718406  42.2893139  69.4582289  28.4262209  42.5813490
  60.6178416  29.8603972  38.9008581  60.6917424  29.6979144  39.7550431
  61.4347922  30.0494161  38.6569063  60.7494774  29.8640714  38.9906607
  75.3096739  25.0173477  41.8968697  75.2421239  25.0369436  41.0271284
  75.2952401  25.8603804  42.1224368  75.2975495  25.1447212  41.8021174
  56.5960196  16.2730776  36.8898465  55.7282622  16.3453375  36.9556074
  56.8835401  17.0752854  37.0786440  56.5099944  16.4024923  36.9273232
  65.7193085  16.4208635  45.2209787  66.4646677  16.2318445  44.8073212
  65.3030390  16.9466873  44.6623643  65.7678059  16.4710780  45.0774360
  59.1583002  32.8238715  33.6322055  59.4481300  32.4327696  32.9081281
  59.8886482  33.0055420  34.0727330  59.3089886  32.7932529  33.5904862
  73.0955356  23.7917863  40.1715292  73.6463277  23.1585932  40.4112384
  73.0799471  24.3233256  40.8630796  73.1740552  23.7766812  40.3094150
  59.7477747  27.6256461  44.7175185  59.2489440  28.3372228  44.7960074
  60.5577971  27.9457127  44.6793348  59.7933853  27.7783309  44.7231754
  56.0105864  26.8879414  38.9637906  55.7219113  26.2616885  39.4983633
  56.8789212  26.8299701  39.0302587  56.0966116  26.7866958  39.0528861
  66.7983762  22.0314197  39.2819888  66.4548528  21.3104532  39.6327138
  66.8976805  21.8228048  38.4398246  66.7625805  21.8938400  39.2091568
  59.2656873  36.1735487  35.4812897  59.9180931  35.6411929  35.7103923
  58.5682482  35.8204139  35.8680771  59.2587591  36.0425010  35.5725065
  56.2138138  28.5274665  34.8880271  56.9684106  28.9087704  35.1015734
  55.6208750  28.9785808  35.3426968  56.2374851  28.6503492  34.9863150
  67.2596791  28.4939901  34.8243876  67.8254824  29.1533111  34.7402419
  66.6124695  28.8389599  35.2960278  67.2475548  28.6421842  34.8816633
  58.6744805  20.4837505  50.0137483  57.8644580  20.7895285  49.9027326
  59.1519491  21.2043087  50.1290067  58.6248284  20.6352106  50.0144554
  57.5336364  29.6983226  40.2620387  57.0117118  29.8383518  40.9472251
  57.9210385  28.9393890  40.4522504  57.5140065  29.6068750  40.3921463
  54.5227548  19.7489035  34.3315341  54.2352344  19.3790305  33.5947288
  55.2098017  20.2183890  34.0699046  54.5816446  19.7636004  34.1830417
  63.7303369  31.4378685  34.2480955  63.4890045  30.7046546  33.8408020
  63.9104702  31.9865542  33.5947289  63.7210993  31.4101076  34.0911178
  58.9602690  26.7287245  35.6601878  58.7645473  27.3361980  35.0662181
  59.1837036  26.0355189  35.1793551  58.9637331  26.7164771  35.5017958
  57.3581220  23.6141983  35.7782746  58.0803872  23.7783141  35.3186552
  56.8789213  24.3351648  35.6722086  57.3944951  23.7440213  35.6948360
  65.3174728  19.9505782  41.1579431  64.4785828  19.9767061  40.9217694
  65.3879095  20.5976517  41.7384777  65.2043121  20.0501908  41.2088548
  55.0088837  26.0200055  44.8836886  55.5209934  26.2984309  44.2345646
  54.7225179  26.7589349  45.2499699  55.0423700  26.1702409  44.8426764
  63.7644006  16.8491159  35.8907047  64.4670359  16.6498907  35.4127005
  63.4988195  16.0767101  36.1975890  63.8290638  16.7054125  35.8652488
  69.1932251  25.1573769  38.4440673  69.1066226  25.3129195  39.2975451
  68.7382731  25.8011844  38.0700078  69.1135508  25.2749524  38.5147779
  52.0955743  20.5270247  35.1800622  52.1971879  21.3296409  35.5081598
  52.8911630  20.3257583  34.8823703  52.2283649  20.6156146  35.1835978
  58.5272562  18.1126444  44.9437927  58.3355759  18.1281578  45.7937351
  59.3771158  18.3090118  44.9204582  58.6248284  18.1440795  45.0661222
  52.9119475  20.6417425  42.9221744  52.7704967  19.7901366  43.0466252
  53.1960038  20.6846086  42.0983950  52.9327321  20.5217176  42.8189368
  63.0658067  22.4784516  37.0666232  62.8192782  22.3980267  37.9003021
  63.3943190  21.6937984  36.8728760  63.0779311  22.3510781  37.1613755
  66.9606116  29.1867875  40.8553013  66.8220476  29.8848921  41.3601756
  66.1806114  29.0316531  40.4989195  66.8249343  29.2668042  40.8779287
  65.2984201  25.4864250  47.1075395  65.2932240  24.6144067  47.1117821
  66.0045195  25.6852420  46.6344851  65.4029205  25.3868125  47.0382430
  59.0255095  25.2141234  46.4789215  59.1698470  25.7942442  45.8432325
  59.3730743  25.5917531  47.1839070  59.0982556  25.3561938  46.4888210
  61.1975012  24.4131403  44.2614347  60.4498326  24.6062417  43.8562625
  61.3516537  23.5876622  44.0238468  61.1097440  24.3196514  44.1659753
  58.0982850  33.4044006  43.3450242  58.2472413  32.8446922  42.6923646
  58.8782852  33.4836008  43.7282761  58.2356943  33.3329572  43.3047191
  68.4559489  28.5446129  31.6169513  68.0766298  27.7583267  31.6098802
  67.7925735  29.0932986  31.4741157  68.3017964  28.5090953  31.5950309
  60.6236150  33.5758649  44.6234733  60.5479821  32.9067460  45.1785521
  60.5526009  34.2776437  45.1375399  60.6016757  33.5803556  44.7811581
  61.4376789  18.3081953  45.1509751  61.8949403  19.0405928  45.2782543
  61.5133118  17.8848419  45.9097006  61.5167759  18.3539191  45.2810827
  53.6809780  18.5547773  46.2399194  53.1451970  17.9428131  46.5559961
  53.7427545  19.1295909  46.8932861  53.6105413  18.5494701  46.3834621
  65.9104115  11.4871829  39.0203593  66.0287683  11.9448292  38.2870896
  65.7366291  10.6817090  38.7339811  65.9023286  11.4365601  38.8704527
  61.2806397  32.0959648  35.4558339  62.0456288  31.8269292  35.1341003
  61.1784487  31.6109658  36.1728402  61.3787893  31.9849212  35.5138166
  59.3159167  20.2984057  41.9951575  58.5255242  20.1175517  42.3168910
  59.7119790  19.5211010  41.9781869  59.2576043  20.1571518  42.0404123
  63.8025058  29.1271832  27.4358288  64.5698043  29.1871957  27.0264140
  63.3556367  28.5552273  26.9514607  63.8498485  29.0508407  27.3035998
  64.7002853  27.9326487  39.7211020  64.0247855  27.7011720  40.2224407
  64.7095229  27.3247670  39.0953125  64.6021358  27.8085413  39.7027173
  61.8296997  22.7744316  46.4775073  61.7656138  23.6354273  46.3495210
  61.9694185  22.4576310  45.6770625  61.8412467  22.8544483  46.3403286
  66.7019588  30.7891620  31.9521198  66.7839425  31.5958606  31.6282649
  67.1869330  30.8087579  32.6761972  66.7856746  30.9112282  32.0108097
  60.5116091  25.4676456  40.6191276  60.0878340  25.6680955  39.8830295
  60.3360946  24.6205304  40.7315576  60.4226972  25.3725237  40.5264966
  55.7998536  25.9628507  36.0519249  55.9563155  25.8975310  36.9075241
  56.1399129  26.7377060  35.8397928  55.8731771  26.0677705  36.1473843
  62.3377681  25.3386391  34.9212612  62.8793226  24.8356772  35.3851233
  62.6524240  25.2851585  34.1102097  62.4642078  25.2565812  34.8696424
  66.2094788  29.5489038  52.0339524  67.0229653  29.2774187  52.1944657
  66.0489755  29.2496578  51.2299720  66.3064737  29.4643964  51.9384930
  60.5064130  30.7303742  32.2052640  60.5756951  29.8718281  32.3445641
  61.2852586  30.9475623  31.8771665  60.6316981  30.6356606  32.1769797
  63.4866950  20.2322695  44.9734913  63.7008920  19.5933609  44.4198267
  62.8700849  20.6768519  44.5442774  63.4272279  20.2032839  44.8285344
  64.8971618  33.1541444  36.4189133  64.5051410  32.8508159  35.7012000
  65.0524690  33.9910534  36.2294087  64.8625208  33.2325280  36.2845631
  52.3732798  23.1463458  36.3680016  52.7531762  23.5648003  35.7040283
  51.7988162  23.7276913  36.6748859  52.3444123  23.2941316  36.3156757
  65.6506038  21.8411760  45.9118220  64.8382720  21.5337651  45.9931392
  66.1095973  21.3610761  46.4760932  65.5986423  21.7248253  46.0072814
  65.0611293  29.7191432  36.3595164  64.7025948  29.8906075  37.1359196
  64.5750004  30.1804638  35.8023162  64.9369990  29.8130403  36.3920433
  62.8781679  13.3422631  39.9622255  62.0075237  13.3161352  39.9155565
  63.1322020  13.1699823  39.1448101  62.7875239  13.3132775  39.8342392
  59.8499658  25.3990598  28.8995398  60.1392183  26.1755480  29.1738973
  59.9371457  24.8879329  29.6009898  59.9053914  25.4382516  29.0437896
  62.7459546  23.2471832  50.6946922  63.2159177  23.8713948  51.0814796
  62.7921426  22.5788807  51.2540137  62.8227421  23.2406512  50.8346993
  59.9030819  15.3528859  41.4195726  59.3869308  14.6609051  41.5447305
  59.3424748  16.0199636  41.3658324  59.7437333  15.3492117  41.4301792
  61.9723053  15.8921819  43.2488578  61.5854806  15.9170851  44.0302108
  61.4855990  15.3263498  42.7963095  61.8435562  15.8117570  43.2976482
  66.2216032  30.6095328  47.3062365  66.8595753  30.1155524  46.9724821
  65.5790124  30.5372729  46.7214592  66.2210259  30.5254337  47.1704720
  67.9473032  22.4584474  41.8728280  67.5200640  22.3710823  41.1176380
  67.3099085  22.5662250  42.4583125  67.7902640  22.4617134  41.8473722
  61.6380194  12.7788805  45.5398838  62.2673312  13.3149105  45.2619909
  61.8066057  12.6866164  46.3912404  61.7557989  12.8450167  45.6247366
  61.4394109  17.5660000  47.8125250  62.2667539  17.2945148  47.8683864
  61.4601955  18.3620841  48.1689068  61.5646959  17.6439754  47.8740433
  66.2770289  31.3015137  43.9467722  67.0662667  30.9504201  44.0669803
  66.4513887  32.1151525  43.6844355  66.4190570  31.3700994  43.9255590
  56.0163599  24.7123862  40.9995510  55.1751606  24.6127737  41.2074404
  56.2253607  25.4819343  41.3509831  55.9228292  24.8115906  41.0822825
  53.4939166  22.3343399  38.8280261  53.0995864  22.4086411  38.0530371
  52.9379283  22.7201346  39.3788623  53.3541978  22.4025174  38.7947921
  65.1304113  15.3124693  38.5084140  65.3353706  15.2447001  39.3541137
  64.8030537  16.1183515  38.4405317  65.1119361  15.4210634  38.6243795
  59.8280264  22.6405262  40.2493108  59.5243402  22.0861250  40.8503516
  59.1259685  22.8197472  39.7621142  59.6796474  22.5850044  40.2662814
  58.8846361  19.9505781  34.8137810  59.1606095  19.2324694  34.4015377
  59.4845030  20.5490701  34.6058916  59.0139626  19.9326152  34.7218571
  57.8898615  29.8554982  44.9565206  57.7818970  29.8657044  45.8227264
  58.0994397  30.6809763  44.7670160  57.9048726  29.9796057  45.0569297
  68.3837801  15.8656458  37.9886905  67.7712114  16.3526860  38.3740637
  68.4801976  15.1899948  38.5324557  68.3075698  15.8374766  38.1265764
  62.3856882  17.6219299  33.0884405  62.8400628  17.7929859  33.8132249
  62.8596927  17.0087409  32.6882181  62.5225202  17.5570184  33.1358166
  55.9072407  27.1067625  42.4187143  55.3160340  27.7477123  42.3890158
  56.6693431  27.5305242  42.3918443  55.9320668  27.2643463  42.4102291
  56.3033030  18.2669622  43.0855161  56.7634511  18.3408552  43.8230285
  56.3489137  19.0650876  42.7354982  56.3783585  18.3963770  43.1427917
  57.9516380  18.9336317  47.6527188  57.5601945  18.2869664  48.0882966
  58.1202242  19.5247753  48.2721443  57.9187290  18.9250585  47.8089894
  72.0262829  26.9373394  43.4164422  72.0845952  27.3860043  44.1624398
  71.3929296  27.3472207  42.9794502  71.9414124  27.0647129  43.4616970
  65.6661923  32.5576936  39.8519168  65.4681612  33.0467751  39.1575379
  65.0449634  32.7618178  40.4303301  65.5449488  32.6593475  39.8342391
  59.7269902  24.3261833  34.1929412  60.4711947  24.7136109  34.4312362
  59.8730598  23.4819258  34.3569900  59.8580487  24.2592306  34.2523382
  61.6449477  16.1212092  39.2261273  60.7985522  16.2934900  39.1002623
  61.6420610  15.3161436  39.5627102  61.5196627  16.0273121  39.2572400
  62.7147778  19.8987306  40.0923331  62.2407732  19.3729068  40.6028642
  63.0865913  19.3516779  39.5238193  62.6997666  19.7403303  40.0838479
  53.0920808  21.8958813  45.4606877  53.9546421  21.7954522  45.3744207
  52.7612591  21.3153522  44.8992449  53.1706004  21.7950440  45.3652283
  68.9784508  24.9589682  41.5030112  68.7382731  24.1196097  41.5072538
  69.4576515  25.0389849  42.2270885  69.0136692  24.8471082  41.6104914
  64.6431277  20.7923861  33.1549085  64.1154296  20.8752605  32.4654794
  65.1026985  21.5341732  33.1513730  64.6333128  20.9144523  33.0523780
  70.9789695  21.7391139  39.4559371  70.7399465  21.6986973  38.6180156
  71.1423596  22.5862291  39.5825092  70.9679999  21.8583224  39.3512853
  67.5835725  26.1241089  45.3864416  68.3069924  25.6713615  45.2075436
  67.3185688  26.4045754  44.6036744  67.6516999  26.0992057  45.2443132
  56.4522594  20.7201262  42.1217295  55.8275664  20.7319654  41.5143248
  56.1168188  21.1961437  42.7708536  56.3108085  20.7919779  42.1273864
  56.6364342  19.0626381  28.1789980  56.2877147  19.7146106  28.6421530
  56.1560788  19.0483494  27.4513852  56.5134586  19.1569434  28.1401072
  53.1648269  28.7801722  43.5621060  52.6348194  28.0894161  43.6116034
  53.4373363  28.7711908  42.7333768  53.1272991  28.6768854  43.4468476
  64.1968360  29.3627425  32.2858742  64.9202559  29.8285538  32.1423316
  63.7568951  29.4301034  31.5356339  64.2384052  29.4411261  32.1543524
  63.3654515  26.2224967  43.5359431  62.7511508  25.6783017  43.8308067
  63.8821800  25.7089203  43.0565247  63.3510177  26.0661376  43.5083660
  62.6050812  27.2929237  41.2703730  62.1778420  26.6678955  40.8369165
  62.5975756  27.0104159  42.0962737  62.5409953  27.1582017  41.3283557
  55.7213339  22.3294410  44.3392164  55.8806826  21.5737734  44.7443886
  55.5406233  22.8785349  44.9932902  55.7178698  22.2988224  44.4954870
  63.6633642  14.4955645  44.8942953  63.1674203  14.6919320  44.2034520
  64.4202704  14.8948314  44.7231755  63.7020467  14.5833379  44.7663090
  60.9336522  18.1697991  41.4846264  60.9579009  17.6358104  40.7959044
  61.1847995  17.6615300  42.1471854  60.9746440  18.0158895  41.4810909
  57.2137844  16.8968810  40.8652008  57.2536215  17.3978016  41.5786716
  56.3887508  16.9879203  40.5957931  57.0977370  16.9850626  40.9302546
  59.3967457  26.4629550  48.9672303  58.5463087  26.6001264  49.1029948
  59.5595584  25.7293328  49.4120004  59.2951320  26.3743651  49.0527902
  58.6352207  23.4129319  43.1625907  57.8044137  23.5803137  42.9561155
  58.5803724  23.0365270  43.9474793  58.5041622  23.3819051  43.2474435
  56.4435990  16.9038212  48.7982318  57.0688694  16.3600345  49.0711750
  55.9886470  16.4233130  48.2290108  56.4684251  16.7527694  48.7543912
  57.0088251  21.6884911  33.6916025  57.1491212  22.1857375  34.3944666
  57.5070784  20.9871205  33.8330239  57.1029332  21.6586890  33.8167604
  57.0388473  22.5552022  31.0208602  57.6733553  23.1512447  30.9558063
  57.1214084  22.2555480  31.8354472  57.1445024  22.5992930  31.1311688
  70.0171039  25.0867499  43.8894966  70.6088879  25.7264750  43.9213164
  70.4530034  24.3890536  44.1787033  70.1689470  25.0785850  43.9375799
  58.6167456  18.4865997  30.9954044  58.9383297  18.0069080  30.3413306
  58.8794400  19.2965643  30.8044855  58.7033482  18.5355895  30.8709536
  61.8464429  29.5084872  44.5152860  61.3389520  30.0620719  44.9593490
  61.5491075  29.5693162  43.6971634  61.7269314  29.5991183  44.4601317
  64.0126611  17.8738191  43.3577523  64.4381683  17.4210718  42.7461049
  63.3983604  17.3198262  43.6342310  63.9855257  17.7252168  43.3082548
  53.5441461  24.7519863  34.2898148  54.0533691  25.3484370  34.6709453
  54.0175734  24.4845836  33.6074567  53.6884837  24.8005678  34.2452670
  64.4572209  33.4248129  32.4456803  63.7401519  33.2508992  31.9804041
  65.1078947  33.1900702  31.9132289  64.4474060  33.3643922  32.2986021
  62.4520834  14.3453291  36.7668100  61.8089152  14.1950938  37.3353238
  62.1120241  14.0995636  36.0017204  62.3065911  14.2865414  36.7371115
  67.0420181  22.3012718  36.1898108  66.3711370  22.8442420  36.0611174
  67.7359931  22.7707573  35.9479803  67.0449048  22.4510989  36.1353636
  61.0906914  34.4409430  41.4209867  60.8672569  33.6828259  41.7893893
  60.6016758  34.4707451  40.6990306  60.9850363  34.3331655  41.3686608
  67.2048308  18.7568602  39.0988482  67.5575918  18.3298325  39.7734280
  66.3463110  18.6719445  39.2289558  67.1297753  18.6813342  39.2183492
  55.9031993  21.3876121  37.1571328  55.1843982  21.8040254  37.4244192
  56.2744355  21.9530360  36.6062966  55.8523925  21.5325403  37.1154135
  65.2031574  22.0203970  43.0473324  65.1829501  21.8387265  43.9008103
  65.2510775  22.8915989  43.0232908  65.2066215  22.1220509  43.1696619
  63.1477904  28.6091162  48.9721800  63.1073759  27.9640839  48.3866956
  63.9601222  28.5527780  49.2847212  63.2621057  28.5050129  48.9318750
  59.7385371  34.6609888  38.8746951  59.3245770  33.9984018  38.4850793
  60.4232745  34.8087747  38.3542645  59.7783743  34.5850546  38.7403448
  63.1050665  33.8199973  39.6270568  62.7066949  33.9302244  38.8591388
  62.4901885  34.0282040  40.2097128  62.9549555  33.8673541  39.6001867
  61.6778567  20.4274121  32.4944708  61.0843407  20.7491118  31.9429275
  61.7153845  19.5815217  32.2865814  61.5952957  20.3498449  32.3827479
  68.6372368  13.8787013  40.0272794  68.1303233  13.1716153  39.9593972
  69.4339802  13.5480202  40.1573871  68.6799607  13.7260165  40.0371789
  64.5536384  20.3853626  35.9246458  64.3250077  20.4086327  35.0824816
  64.8134460  19.5611093  36.0441468  64.5582572  20.2669706  35.8171656
  58.8355612  22.2388099  45.5271558  58.3234515  21.6309282  45.8856589
  58.6635109  22.9544691  45.9945534  58.7345249  22.2551398  45.6487782
  53.6821327  20.6825674  48.1773920  53.5123917  21.3427049  47.6322127
  53.2387277  20.8932235  48.8986409  53.5920661  20.8111656  48.2035549
  57.6081146  18.9230172  37.2200654  58.0838513  19.2847252  36.5850835
  57.1069746  19.5786640  37.5000796  57.6046505  19.0724361  37.1677394
  70.8392508  28.3951940  33.0113659  71.2226114  29.1443296  33.2411756
  70.0436621  28.6417760  32.7525648  70.7786290  28.5421634  33.0071232
  62.7124683  20.1612343  47.9673814  63.2696113  19.9326153  47.3352279
  62.3885748  20.9218009  47.6909026  62.7471093  20.2396180  47.8330311
  60.4307800  23.2479997  48.9325821  61.1819127  23.5631674  49.2465375
  60.6230377  23.0459168  48.1059742  60.5699214  23.2647379  48.8569216
  59.6507800  21.0671372  30.5874037  60.0306764  21.0851001  29.8025152
  58.9100396  21.5125361  30.4664885  59.5976637  21.1353146  30.4537606
  67.2793090  19.3753563  36.1749616  67.2787317  19.2202220  37.0333893
  67.0749270  20.2216550  36.1191002  67.2492868  19.4774184  36.2937556
  65.0033942  24.0551065  39.8285823  65.4987608  23.3374060  39.7889843
  64.1933718  23.7521863  39.7140310  64.9577835  23.9048711  39.8059549
  60.4492554  27.9048878  31.9782827  59.6403876  27.5815552  31.9316137
  60.9567463  27.1982100  31.9111076  60.4042221  27.7530194  31.9613122
  67.0685761  26.8054752  42.5162952  67.4940833  26.2829174  41.9633377
  66.7042681  27.4035590  41.9951575  67.0772364  26.8164979  42.3571962
  63.6564361  30.5189017  38.8464109  64.1275539  31.2329279  39.0154094
  63.9924539  29.9187767  39.3823979  63.7759476  30.5360481  38.9496485
  65.7441345  32.1290330  51.0256181  65.8538311  31.3398891  51.3812929
  66.0732242  32.0396266  50.2230519  65.8093751  31.9996183  50.9598572
  60.5733855  15.2916487  45.8022204  60.7061761  14.4947481  46.1303180
  60.9579008  15.8182890  46.3820480  60.6490184  15.2516404  45.9365707
  64.2938307  30.3106951  45.6091802  63.7459253  29.6864834  45.3411867
  64.7551336  30.5001223  44.8935881  64.2805516  30.2466001  45.4642233
  63.6466211  12.2146813  42.4003297  62.8412174  12.1044543  42.7171136
  63.5172946  12.3159269  41.5433163  63.5086344  12.2130483  42.3211338
  67.1032171  18.3792305  42.9942994  66.5195160  18.8801512  42.5820562
  67.4236465  17.8721861  42.3607318  67.0645347  18.3784140  42.8401501
  59.6426970  17.2932900  33.2701669  60.4642665  17.4631213  33.0283364
  59.1796621  17.4480161  32.5467967  59.6958133  17.3414633  33.1273313
  58.2322302  15.2875662  44.0500098  58.7766715  14.9466789  44.6404440
  58.2859238  16.1461124  44.1921382  58.3211422  15.3630922  44.1581971
  54.0452861  29.0492078  40.9238906  54.6497718  29.0087912  40.2952726
  53.8380174  29.8963230  40.9542962  54.1041758  29.1680081  40.8355022
  63.8596633  31.3158023  42.1401143  64.6795007  31.1720989  42.4017438
  63.5790711  31.9404222  42.6817581  63.9393377  31.3868375  42.2589083
  73.5309968  38.0598526  39.8596950  72.6747864  38.2207024  39.9106067
  73.5777622  37.1890590  39.8802011  73.4109080  37.9549328  39.8703016
  67.9151108  47.5961244  35.6234181  67.1634008  47.2176782  35.3950227
  68.3637120  47.6279678  34.8752992  67.8700775  47.5446851  35.4791684
  76.8403685  44.3285052  49.4657406  77.5470452  43.8337083  49.5944340
  77.0291620  44.7694133  48.7360064  76.9731591  44.3203402  49.3766451
  73.3676068  48.0186614  31.0519729  73.0327436  48.6963535  30.6163951
  73.8802938  47.6291925  30.4636600  73.3941649  48.0611192  30.9006520
  72.9080359  49.9700882  36.9930840  73.2919739  50.5387781  36.4535615
  72.8439500  49.2450393  36.5136656  72.9553786  49.9476346  36.8424703
  76.3761789  40.1190570  42.5028602  76.9217749  40.7975657  42.5622571
  76.3178666  39.9778031  41.6430183  76.4477704  40.1982572  42.3840662
  69.4935864  47.6079636  37.8896954  69.5946227  46.7979990  38.1994082
  68.8977610  47.5136583  37.2596632  69.4208403  47.4744664  37.8423192
  69.3336604  52.5257225  39.2911810  69.9774059  52.9670389  39.6807968
  69.6592859  51.7210652  39.2042069  69.4768433  52.4722420  39.3357287
  64.9890996  35.7985653  40.4133595  64.3696028  35.2078301  40.2443610
  64.8874860  36.3897089  39.7797919  64.8828672  35.7989736  40.2938585
  70.0357184  45.5369200  34.6631672  70.3573025  46.0774408  34.0592980
  70.6829280  44.9665972  34.7953961  70.1783239  45.5328375  34.5938707
  72.0858892  37.5385195  34.7466058  72.7839056  37.7173323  35.2387522
  72.4011224  37.0155535  34.1236448  72.2354229  37.4878967  34.7268069
  72.2746827  43.9255640  34.7345850  72.7140463  43.3172741  35.1800623
  72.1251490  43.5463014  33.9631315  72.3168293  43.7794111  34.6865017
  69.7418470  42.5199652  41.9364675  70.3867473  42.0272095  41.6175624
  69.9820247  42.6624439  42.7630754  69.8729055  42.4677094  42.0114209
  72.2804561  45.3654558  41.5871568  72.5627804  44.5705964  41.3658324
  73.0090722  45.8435145  41.6076629  72.4294125  45.3189155  41.5574583
  70.2585755  32.9077592  38.8287333  69.9289085  33.3588735  38.1591032
  69.5830757  32.8293755  39.3760339  70.1096192  32.9628727  38.8110556
  75.8756164  42.2782821  31.6876619  75.7907459  43.1343788  31.8326188
  76.3640547  42.0027146  32.3558778  75.9345061  42.3640143  31.8078701
  77.4662163  28.8963115  37.0736944  77.1515604  29.5866593  37.5057366
  76.9489105  28.8407897  36.3722444  77.3426633  28.9898003  37.0333893
  76.8074597  38.8967616  33.1874354  76.2786068  39.1127249  33.8471660
  77.3299617  39.5903754  33.1075324  76.8063050  39.0310753  33.2729953
  68.6974205  42.7930832  31.9881822  68.1131420  43.2980864  32.3947686
  68.2944300  42.5673219  31.2478414  68.5513508  42.8339081  31.9386847
  64.2518233  48.5085594  38.7905494  63.7685811  49.2336083  38.7665077
  65.0641551  48.8061724  38.9015651  64.3008981  48.6587947  38.8032773
  70.3232387  47.3017774  41.3955308  69.8059329  46.9425189  40.7916616
  71.0206779  46.7779949  41.4061374  70.3497968  47.1715462  41.3085567
  73.9795979  47.7512588  47.3571481  74.0679325  47.5638729  48.2049692
  74.4085692  47.1050018  46.9576328  74.0558082  47.6275596  47.4243233
  71.5466439  47.0343748  46.3389143  70.9837274  46.6216358  46.8628805
  72.3087463  46.9596654  46.7582287  71.5760888  46.9621149  46.4782144
  73.1551419  39.0396485  30.4650743  73.3947423  39.2474468  29.6526086
  73.4767260  38.2353993  30.5739687  73.2388577  38.9510586  30.3611296
  68.4641709  30.9689880  34.3110281  69.2187677  31.3368197  34.0727331
  68.2869244  31.3429435  35.0789460  68.5496188  31.0788068  34.3895169
  67.1062431  49.0241769  38.9425774  67.8083010  48.5093759  38.9998530
  67.0259914  49.3515921  39.7472649  67.1986191  48.9955996  39.0698566
  68.1541337  39.2617356  48.0706189  68.3261841  39.1523251  48.9191470
  68.6910695  39.9071762  47.8337381  68.2586341  39.3409358  48.1611285
  66.8198774  33.3760199  31.0088394  66.6374347  33.5932080  30.1829387
  67.6824387  33.4899212  31.0647008  66.9203363  33.4250097  30.8942881
  67.0565909  45.6348997  42.7524687  67.5964134  45.4920128  43.4228060
  66.3735855  46.0345747  43.1208713  67.0358063  45.6728668  42.9059109
  72.4998493  30.3786610  34.0437418  73.2284654  30.2002565  33.5975574
  72.5893386  31.2204690  34.2544596  72.6205155  30.4770488  34.0090935
  76.4806794  41.3139997  37.9469712  77.2364309  41.7471512  37.9858620
  76.5869118  40.6644767  38.5204348  76.6076964  41.2817481  38.0367737
  74.0916039  47.1821607  50.0215265  74.8756455  47.2952455  50.3871007
  73.8912633  46.3562744  50.2173951  74.1782064  47.0768327  50.1049651
  66.3660801  36.6534372  29.5210867  65.6518978  36.3672551  29.9333299
  66.8504770  36.9930998  30.1617254  66.3320164  36.6616022  29.6766502
  67.2101660  35.3927666  45.5526116  66.5173457  34.9224645  45.7986848
  67.8261988  35.1665970  46.1267824  67.1986190  35.2894798  45.6735269
  74.2486432  49.0931709  43.6681720  73.4501678  48.8531209  43.9255589
  74.6972443  49.1446102  44.4148768  74.1961043  49.0654101  43.8166645
  73.5408119  45.1564326  29.8972675  73.9559267  44.8249350  29.2057171
  72.7100049  44.9233228  29.7692812  73.4796128  45.0735582  29.7763522
  65.9342219  39.3593070  46.6952962  66.6582192  39.3446100  47.1817856
  66.0358356  40.0688425  46.1974930  66.0560428  39.4617773  46.6931748
  73.3087169  42.8392154  51.5601909  72.5160150  43.1535666  51.7454528
  73.4236096  43.0543623  50.7222693  73.2082579  42.9175991  51.4640243
  75.9818488  39.5626145  35.8496924  76.0765342  40.3015440  36.3036550
  75.3577331  39.1343621  36.2831489  75.9027518  39.6087466  35.9805072
  74.2370962  42.7412358  46.4987205  74.8109823  42.1039602  46.6535769
  74.1585765  42.7416440  45.6296863  74.3104196  42.6477469  46.3933616
  76.2341509  41.4074885  29.0833876  76.1521672  41.4777072  29.9488863
  76.8721229  41.9704629  28.8917617  76.3161346  41.5013856  29.1823826
  69.5934680  41.1735623  38.5508403  69.3353924  40.3407358  38.5239702
  69.6483163  41.3993236  37.7100903  69.5634458  41.0833394  38.4228540
  74.6735730  33.2764074  38.6512495  73.9692057  32.7873259  38.8096415
  74.7220705  33.2886548  37.7800940  74.5765782  33.2053722  38.5451835
  68.5669392  38.7273386  39.0373298  67.9918984  38.8865554  39.6737258
  68.1905069  38.0908795  38.5741748  68.4272205  38.6571199  39.0627856
  72.2342681  37.1996735  43.8965676  71.8457114  36.7750953  43.2417867
  71.5697379  37.4478885  44.4042703  72.0789609  37.1735456  43.8753544
  76.0569043  30.8971364  41.4089660  76.4379554  30.2149535  41.7957534
  75.2532327  30.6080966  41.2265325  75.9945504  30.7538412  41.4393716
  73.3381619  41.4295340  32.0942483  74.1522258  41.7210232  31.9825254
  73.2740760  40.7755202  31.5200776  73.4484358  41.3760534  31.9931320
  69.2089527  44.9016857  37.2214795  69.8463474  44.6628605  37.7666588
  69.6344599  45.1054016  36.4867956  69.3665694  44.8967867  37.1931952
  69.8492342  40.1219147  31.5589684  70.2337495  39.9026853  32.3106229
  69.6003963  40.9482092  31.6890761  69.8694415  40.2117293  31.6890761
  70.0160883  33.4025562  51.2752269  69.7014324  34.1725125  51.0121831
  69.6950815  32.8395818  50.6904496  69.9219802  33.4335831  51.1493619
  71.5910999  45.3789280  38.9008581  71.6650008  45.2164451  39.7550431
  72.4080506  45.5679469  38.6569063  71.7227358  45.3826022  38.9906607
  67.5692780  31.7916083  36.8898465  66.7015205  31.8638683  36.9556074
  67.8567984  32.5938162  37.0786440  67.4832528  31.9210231  36.9273232
  76.6925669  31.9393943  45.2209787  77.4379261  31.7503753  44.8073212
  76.2762973  32.4652181  44.6623643  76.7410643  31.9896088  45.0774360
  70.1315585  48.3424023  33.6322055  70.4213884  47.9513004  32.9081281
  70.8619066  48.5240728  34.0727330  70.2822469  48.3117836  33.5904862
  70.7210330  43.1441769  44.7175185  70.2222024  43.8557536  44.7960074
  71.5310555  43.4642435  44.6793348  70.7666437  43.2968617  44.7231754
  68.0721501  50.3191405  36.6982204  67.8521796  50.0288760  37.4908871
  67.8516023  49.6606360  36.1700117  68.0069095  50.1791113  36.7371113
  77.7716346  37.5499505  39.2819888  77.4281112  36.8289840  39.6327138
  77.8709388  37.3413356  38.4398246  77.7358389  37.4123708  39.2091568
  70.2389456  51.6920795  35.4812897  70.8913514  51.1597237  35.7103923
  69.5415065  51.3389447  35.8680771  70.2320174  51.5610318  35.5725065
  69.6477388  36.0022813  50.0137483  68.8377164  36.3080593  49.9027326
  70.1252075  36.7228395  50.1290067  69.5980867  36.1537414  50.0144554
  68.5068948  45.2168534  40.2620387  67.9849701  45.3568826  40.9472251
  68.8942968  44.4579198  40.4522504  68.4872649  45.1254058  40.3921463
  65.4960132  35.2674343  34.3315341  65.2084928  34.8975613  33.5947288
  66.1830600  35.7369198  34.0699046  65.5549029  35.2821312  34.1830417
  74.7035953  46.9563993  34.2480955  74.4622629  46.2231854  33.8408020
  74.8837286  47.5050850  33.5947289  74.6943577  46.9286384  34.0911178
  69.9335274  42.2472553  35.6601878  69.7378056  42.8547288  35.0662181
  70.1569619  41.5540497  35.1793551  69.9369915  42.2350079  35.5017958
  68.3313804  39.1327291  35.7782746  69.0536455  39.2968449  35.3186552
  67.8521796  39.8536956  35.6722086  68.3677534  39.2625521  35.6948360
  76.2907311  35.4691090  41.1579431  75.4518412  35.4952369  40.9217694
  76.3611678  36.1161825  41.7384777  76.1775705  35.5687216  41.2088548
  65.9821420  41.5385363  44.8836886  66.4942517  41.8169617  44.2345646
  65.6957763  42.2774657  45.2499699  66.0156283  41.6887717  44.8426764
  74.7376589  32.3676467  35.8907047  75.4402942  32.1684215  35.4127005
  74.4720778  31.5952409  36.1975890  74.8023222  32.2239433  35.8652488
  63.0688327  36.0455555  35.1800622  63.1704463  36.8481717  35.5081598
  63.8644213  35.8442891  34.8823703  63.2016232  36.1341454  35.1835978
  69.5005146  33.6311752  44.9437927  69.3088343  33.6466886  45.7937351
  70.3503742  33.8275426  44.9204582  69.5980868  33.6626103  45.0661222
  63.8852059  36.1602733  42.9221744  63.7437550  35.3086674  43.0466252
  64.1692622  36.2031394  42.0983950  63.9059905  36.0402483  42.8189368
  74.0390651  37.9969824  37.0666232  73.7925365  37.9165575  37.9003021
  74.3675774  37.2123291  36.8728760  74.0511895  37.8696089  37.1613755
  77.9338700  44.7053183  40.8553013  77.7953059  45.4034229  41.3601756
  77.1538698  44.5501839  40.4989195  77.7981927  44.7853350  40.8779287
  76.2716785  41.0049558  47.1075395  76.2664823  40.1329375  47.1117821
  76.9777779  41.2037727  46.6344851  76.3761789  40.9053432  47.0382430
  69.9987678  40.7326542  46.4789215  70.1431054  41.3127750  45.8432325
  70.3463327  41.1102839  47.1839070  70.0715140  40.8747246  46.4888210
  72.1707596  39.9316711  44.2614347  71.4230910  40.1247725  43.8562625
  72.3249121  39.1061930  44.0238468  72.0830023  39.8381822  44.1659753
  69.0715433  48.9229314  43.3450242  69.2204997  48.3632230  42.6923646
  69.8515435  49.0021316  43.7282761  69.2089527  48.8514879  43.3047191
  71.5968734  49.0943957  44.6234733  71.5212405  48.4252767  45.1785521
  71.5258593  49.7961745  45.1375399  71.5749341  49.0988864  44.7811581
  72.4109373  33.8267261  45.1509751  72.8681987  34.5591236  45.2782543
  72.4865701  33.4033727  45.9097006  72.4900343  33.8724499  45.2810827
  64.6542364  34.0733081  46.2399194  64.1184553  33.4613439  46.5559961
  64.7160129  34.6481217  46.8932861  64.5837997  34.0680009  46.3834621
  76.8836699  27.0057136  39.0203593  77.0020267  27.4633600  38.2870896
  76.7098874  26.2002398  38.7339811  76.8755870  26.9550909  38.8704527
  72.2538981  47.6144956  35.4558339  73.0188872  47.3454600  35.1341003
  72.1517071  47.1294966  36.1728402  72.3520476  47.5034520  35.5138166
  70.2891751  35.8169365  41.9951575  69.4987825  35.6360825  42.3168910
  70.6852373  35.0396318  41.9781869  70.2308627  35.6756826  42.0404123
  74.7757641  44.6457140  27.4358288  75.5430626  44.7057265  27.0264140
  74.3288950  44.0737581  26.9514607  74.8231069  44.5693715  27.3035998
  75.6735437  43.4511795  39.7211020  74.9980439  43.2197028  40.2224407
  75.6827813  42.8432978  39.0953125  75.5753941  43.3270721  39.7027173
  72.8029581  38.2929624  46.4775073  72.7388722  39.1539581  46.3495210
  72.9426769  37.9761618  45.6770625  72.8145051  38.3729791  46.3403286
  77.6752171  46.3076928  31.9521198  77.7572009  47.1143914  31.6282649
  78.1601914  46.3272887  32.6761972  77.7589329  46.4297590  32.0108097
  71.4848675  40.9861764  40.6191276  71.0610924  41.1866263  39.8830295
  71.3093530  40.1390612  40.7315576  71.3959555  40.8910545  40.5264966
  70.9860368  52.5012277  43.0812734  71.4756299  51.8023066  42.8988398
  70.4144600  52.2036147  43.6688791  70.9744898  52.3538500  43.1413774
  66.7731120  41.4813815  36.0519249  66.9295739  41.4160618  36.9075241
  67.1131713  42.2562368  35.8397928  66.8464355  41.5863013  36.1473843
  73.3110264  40.8571699  34.9212612  73.8525810  40.3542080  35.3851233
  73.6256823  40.8036893  34.1102097  73.4374661  40.7751120  34.8696424
  77.1827372  45.0674346  52.0339524  77.9962237  44.7959495  52.1944657
  77.0222338  44.7681886  51.2299720  77.2797320  44.9829272  51.9384930
  71.4796714  46.2489050  32.2052640  71.5489534  45.3903589  32.3445641
  72.2585169  46.4660931  31.8771665  71.6049564  46.1541914  32.1769797
  74.4599534  35.7508003  44.9734913  74.6741503  35.1118917  44.4198267
  73.8433433  36.1953827  44.5442774  74.4004863  35.7218147  44.8285344
  75.8704202  48.6726752  36.4189133  75.4783993  48.3693467  35.7012000
  76.0257274  49.5095841  36.2294087  75.8357791  48.7510588  36.2845631
  63.3465381  38.6648766  36.3680016  63.7264346  39.0833311  35.7040283
  62.7720746  39.2462221  36.6748859  63.3176706  38.8126624  36.3156757
  76.6238622  37.3597068  45.9118220  75.8115303  37.0522959  45.9931392
  77.0828556  36.8796069  46.4760932  76.5719006  37.2433561  46.0072814
  76.0343876  45.2376740  36.3595164  75.6758531  45.4091383  37.1359196
  75.5482587  45.6989946  35.8023162  75.9102573  45.3315711  36.3920433
  73.8514262  28.8607939  39.9622255  72.9807820  28.8346660  39.9155565
  74.1054604  28.6885131  39.1448101  73.7607822  28.8318083  39.8342392
  70.8232242  40.9175906  28.8995398  71.1124767  41.6940788  29.1738973
  70.9104041  40.4064637  29.6009898  70.8786498  40.9567824  29.0437896
  73.7192129  38.7657140  50.6946922  74.1891760  39.3899256  51.0814796
  73.7654009  38.0974115  51.2540137  73.7960005  38.7591820  50.8346993
  70.8763403  30.8714167  41.4195726  70.3601891  30.1794359  41.5447305
  70.3157332  31.5384944  41.3658324  70.7169916  30.8677425  41.4301792
  72.9455636  31.4107127  43.2488578  72.5587389  31.4356159  44.0302108
  72.4588574  30.8448806  42.7963095  72.8168145  31.3302878  43.2976482
  77.1948616  46.1280636  47.3062365  77.8328336  45.6340832  46.9724821
  76.5522707  46.0558037  46.7214592  77.1942842  46.0439645  47.1704720
  72.6112778  28.2974113  45.5398838  73.2405896  28.8334413  45.2619909
  72.7798641  28.2051472  46.3912404  72.7290573  28.3635475  45.6247366
  72.4126693  33.0845308  47.8125250  73.2400122  32.8130456  47.8683864
  72.4334539  33.8806149  48.1689068  72.5379543  33.1625062  47.8740433
  77.2502872  46.8200445  43.9467722  78.0395251  46.4689509  44.0669803
  77.4246470  47.6336833  43.6844355  77.3923154  46.8886302  43.9255590
  66.9896183  40.2309170  40.9995510  66.1484189  40.1313045  41.2074404
  67.1986191  41.0004651  41.3509831  66.8960875  40.3301214  41.0822825
  64.4671750  37.8528707  38.8280261  64.0728447  37.9271719  38.0530371
  63.9111867  38.2386654  39.3788623  64.3274562  37.9210482  38.7947921
  76.1036697  30.8310001  38.5084140  76.3086290  30.7632309  39.3541137
  75.7763120  31.6368823  38.4405317  76.0851944  30.9395942  38.6243795
  70.8012848  38.1590570  40.2493108  70.4975985  37.6046558  40.8503516
  70.0992268  38.3382779  39.7621142  70.6529057  38.1035352  40.2662814
  69.8578945  35.4691089  34.8137810  70.1338679  34.7510002  34.4015377
  70.4577614  36.0676009  34.6058916  69.9872209  35.4511460  34.7218571
  68.8631199  45.3740290  44.9565206  68.7551554  45.3842352  45.8227264
  69.0726980  46.1995071  44.7670160  68.8781310  45.4981365  45.0569297
  73.3589465  33.1404607  33.0884405  73.8133212  33.3115167  33.8132249
  73.8329511  32.5272717  32.6882181  73.4957785  33.0755492  33.1358166
  67.2765613  33.7854930  43.0855161  67.7367095  33.8593860  43.8230285
  67.3221720  34.5836184  42.7354982  67.3516169  33.9149077  43.1427917
  68.9248963  34.4521625  47.6527188  68.5334528  33.8054972  48.0882966
  69.0934826  35.0433061  48.2721443  68.8919873  34.4435893  47.8089894
  76.6394507  48.0762244  39.8519168  76.4414196  48.5653059  39.1575379
  76.0182218  48.2803486  40.4303301  76.5182071  48.1778782  39.8342391
  70.7002485  39.8447141  34.1929412  71.4444530  40.2321417  34.4312362
  70.8463181  39.0004566  34.3569900  70.8313070  39.7777614  34.2523382
  72.6182061  31.6397400  39.2261273  71.7718106  31.8120208  39.1002623
  72.6153193  30.8346744  39.5627102  72.4929211  31.5458429  39.2572400
  73.6880361  35.4172614  40.0923331  73.2140315  34.8914376  40.6028642
  74.0598497  34.8702087  39.5238193  73.6730250  35.2588611  40.0838479
  64.0653391  37.4144121  45.4606877  64.9279004  37.3139830  45.3744207
  63.7345174  36.8338830  44.8992449  64.1438588  37.3135748  45.3652283
  75.6163861  36.3109169  33.1549085  75.0886879  36.3937913  32.4654794
  76.0759569  37.0527040  33.1513730  75.6065711  36.4329831  33.0523780
  67.4255177  36.2386570  42.1217295  66.8008247  36.2504962  41.5143248
  67.0900772  36.7146745  42.7708536  67.2840669  36.3105087  42.1273864
  67.6096926  34.5811689  28.1789980  67.2609730  35.2331414  28.6421530
  67.1293372  34.5668802  27.4513852  67.4867170  34.6754742  28.1401072
  75.1700943  44.8812733  32.2858742  75.8935142  45.3470845  32.1423316
  74.7301534  44.9486342  31.5356339  75.2116635  44.9596569  32.1543524
  74.3387098  41.7410275  43.5359431  73.7244091  41.1968325  43.8308067
  74.8554383  41.2274511  43.0565247  74.3242761  41.5846684  43.5083660
  73.5783395  42.8114545  41.2703730  73.1511004  42.1864263  40.8369165
  73.5708340  42.5289467  42.0962737  73.5142537  42.6767325  41.3283557
  66.6945923  37.8479718  44.3392164  66.8539409  37.0923042  44.7443886
  66.5138816  38.3970657  44.9932902  66.6911282  37.8173532  44.4954870
  74.6366226  30.0140953  44.8942953  74.1406787  30.2104628  44.2034520
  75.3935288  30.4133622  44.7231755  74.6753050  30.1018687  44.7663090
  71.9069105  33.6883299  41.4846264  71.9311592  33.1543412  40.7959044
  72.1580579  33.1800608  42.1471854  71.9479024  33.5344203  41.4810909
  68.1870427  32.4154118  40.8652008  68.2268799  32.9163324  41.5786716
  67.3620092  32.5064511  40.5957931  68.0709953  32.5035934  40.9302546
  70.3700040  41.9814858  48.9672303  69.5195671  42.1186572  49.1029948
  70.5328168  41.2478636  49.4120004  70.2683904  41.8928959  49.0527902
  69.6084791  38.9314627  43.1625907  68.7776720  39.0988445  42.9561155
  69.5536308  38.5550578  43.9474793  69.4774206  38.9004359  43.2474435
  67.4168574  32.4223520  48.7982318  68.0421277  31.8785653  49.0711750
  66.9619054  31.9418438  48.2290108  67.4416835  32.2713002  48.7543912
  67.9820835  37.2070219  33.6916025  68.1223796  37.7042683  34.3944666
  68.4803367  36.5056513  33.8330239  68.0761916  37.1772198  33.8167604
  68.0121057  38.0737330  31.0208602  68.6466136  38.6697755  30.9558063
  68.0946668  37.7740788  31.8354472  68.1177608  38.1178238  31.1311688
  69.5900040  34.0051305  30.9954044  69.9115881  33.5254388  30.3413306
  69.8526984  34.8150951  30.8044855  69.6766065  34.0541203  30.8709536
  72.8197013  45.0270180  44.5152860  72.3122104  45.5806027  44.9593490
  72.5223659  45.0878470  43.6971634  72.7001898  45.1176491  44.4601317
  74.9859195  33.3923499  43.3577523  75.4114266  32.9396026  42.7461049
  74.3716188  32.8383570  43.6342310  74.9587840  33.2437476  43.3082548
  75.4304793  48.9433437  32.4456803  74.7134103  48.7694300  31.9804041
  76.0811531  48.7086010  31.9132289  75.4206643  48.8829230  32.2986021
  73.4253418  29.8638599  36.7668100  72.7821736  29.7136245  37.3353238
  73.0852825  29.6180944  36.0017204  73.2798495  29.8050722  36.7371115
  78.0152764  37.8198026  36.1898108  77.3443954  38.3627728  36.0611174
  78.7092514  38.2892881  35.9479803  78.0181632  37.9696297  36.1353636
  72.0639498  49.9594738  41.4209867  71.8405152  49.2013567  41.7893893
  71.5749341  49.9892759  40.6990306  71.9582947  49.8516962  41.3686608
  78.1780892  34.2753910  39.0988482  78.5308502  33.8483633  39.7734280
  77.3195693  34.1904753  39.2289558  78.1030336  34.1998650  39.2183492
  66.8764577  36.9061429  37.1571328  66.1576566  37.3225562  37.4244192
  67.2476939  37.4715668  36.6062966  66.8256508  37.0510711  37.1154135
  76.1764157  37.5389278  43.0473324  76.1562085  37.3572573  43.9008103
  76.2243358  38.4101297  43.0232908  76.1798798  37.6405816  43.1696619
  74.1210487  44.1276470  48.9721800  74.0806342  43.4826147  48.3866956
  74.9333806  44.0713088  49.2847212  74.2353641  44.0235437  48.9318750
  70.7117955  50.1795196  38.8746951  70.2978353  49.5169326  38.4850793
  71.3965329  50.3273055  38.3542645  70.7516327  50.1035854  38.7403448
  74.0783249  49.3385281  39.6270568  73.6799532  49.4487552  38.8591388
  73.4634469  49.5467348  40.2097128  73.9282138  49.3858849  39.6001867
  72.6511151  35.9459429  32.4944708  72.0575990  36.2676426  31.9429275
  72.6886429  35.1000525  32.2865814  72.5685540  35.8683757  32.3827479
  75.5268968  35.9038934  35.9246458  75.2982661  35.9271635  35.0824816
  75.7867044  35.0796401  36.0441468  75.5315156  35.7855014  35.8171656
  69.8088196  37.7573407  45.5271558  69.2967099  37.1494590  45.8856589
  69.6367692  38.4729999  45.9945534  69.7077833  37.7736706  45.6487782
  64.6553911  36.2010982  48.1773920  64.4856501  36.8612357  47.6322127
  64.2119861  36.4117543  48.8986409  64.5653244  36.3296964  48.2035549
  68.5813730  34.4415480  37.2200654  69.0571096  34.8032560  36.5850835
  68.0802330  35.0971948  37.5000796  68.5779089  34.5909669  37.1677394
  73.6857266  35.6797651  47.9673814  74.2428696  35.4511461  47.3352279
  73.3618331  36.4403317  47.6909026  73.7203677  35.7581488  47.8330311
  71.4040384  38.7665305  48.9325821  72.1551711  39.0816981  49.2465375
  71.5962960  38.5644476  48.1059742  71.5431798  38.7832686  48.8569216
  70.6240383  36.5856680  30.5874037  71.0039348  36.6036309  29.8025152
  69.8832979  37.0310669  30.4664885  70.5709221  36.6538454  30.4537606
  78.2525674  34.8938871  36.1749616  78.2519900  34.7387528  37.0333893
  78.0481854  35.7401858  36.1191002  78.2225452  34.9959492  36.2937556
  75.9766526  39.5736373  39.8285823  76.4720191  38.8559368  39.7889843
  75.1666302  39.2707170  39.7140310  75.9310419  39.4234019  39.8059549
  71.4225137  43.4234186  31.9782827  70.6136460  43.1000860  31.9316137
  71.9300046  42.7167408  31.9111076  71.3774804  43.2715502  31.9613122
  78.0418345  42.3240060  42.5162952  78.4673416  41.8014482  41.9633377
  77.6775265  42.9220898  41.9951575  78.0504947  42.3350287  42.3571962
  67.6772424  50.6204278  41.2760297  67.9918983  51.4340666  41.2838079
  68.0865838  50.2354496  41.9442456  67.7840522  50.6832980  41.3764389
  74.6296944  46.0374325  38.8464109  75.1008122  46.7514587  39.0154094
  74.9657123  45.4373075  39.3823979  74.7492059  46.0545789  38.9496485
  76.7173929  47.6475638  51.0256181  76.8270894  46.8584198  51.3812929
  77.0464825  47.5581574  50.2230519  76.7826334  47.5181491  50.9598572
  71.5466439  30.8101795  45.8022204  71.6794345  30.0132789  46.1303180
  71.9311592  31.3368198  46.3820480  71.6222768  30.7701712  45.9365707
  75.2670890  45.8292259  45.6091802  74.7191836  45.2050142  45.3411867
  75.7283919  46.0186531  44.8935881  75.2538100  45.7651309  45.4642233
  74.6198794  27.7332121  42.4003297  73.8144758  27.6229851  42.7171136
  74.4905530  27.8344577  41.5433163  74.4818927  27.7315791  42.3211338
  78.0764755  33.8977613  42.9942994  77.4927744  34.3986820  42.5820562
  78.3969049  33.3907169  42.3607318  78.0377930  33.8969448  42.8401501
  70.6159554  32.8118208  33.2701669  71.4375248  32.9816521  33.0283364
  70.1529205  32.9665469  32.5467967  70.6690716  32.8599941  33.1273313
  69.2054886  30.8060970  44.0500098  69.7499299  30.4652097  44.6404440
  69.2591822  31.6646432  44.1921382  69.2944005  30.8816230  44.1581971
  74.8329217  46.8343331  42.1401143  75.6527591  46.6906297  42.4017438
  74.5523294  47.4589530  42.6817581  74.9125960  46.9053683  42.2589083
  73.6633492  59.1485231  37.5149288  73.4283677  58.3152883  37.4081556
  73.8019133  59.4289896  36.7010489  73.6489155  59.0668734  37.3791643
  75.9623580  51.3170961  40.4133595  75.3428611  50.7263609  40.2443610
  75.8607443  51.9082397  39.7797919  75.8561255  51.3175044  40.2938585
  75.6892713  54.8623243  42.6577164  75.5651409  55.4485689  43.2926983
  76.3410997  54.3683439  42.9589439  75.7666362  54.8762047  42.7963094
  75.2250817  64.0270901  38.7905494  74.7418395  64.7521391  38.7665077
  76.0374135  64.3247032  38.9015651  75.2741565  64.1773255  38.8032773
  77.7931358  48.8945507  31.0088394  77.6106931  49.1117388  30.1829387
  78.6556971  49.0084520  31.0647008  77.8935947  48.9435405  30.8942881
  77.4045789  60.7333429  38.4511382  78.2434689  60.9656362  38.4985143
  77.4357559  59.8637741  38.3818417  77.5327507  60.6390376  38.4476026
  78.0298492  61.1534305  42.7524687  78.5696717  61.0105436  43.4228060
  77.3468439  61.5531055  43.1208713  78.0090646  61.1913975  42.9059109
  73.4335638  57.3734595  42.9059109  73.1674053  56.5573712  43.0650099
  73.4474202  57.4187751  42.0354624  73.3960360  57.2591500  42.8012591
  77.3393385  52.1719680  29.5210867  76.6251562  51.8857859  29.9333299
  77.8237353  52.5116306  30.1617254  77.3052748  52.1801329  29.6766502
  73.8429051  58.1593375  40.1870853  73.6604624  58.1340261  39.3343145
  74.5778720  58.6292313  40.2259762  73.9243115  58.2254737  40.0668771
  76.9074803  54.8778378  46.6952962  77.6314775  54.8631408  47.1817856
  77.0090939  55.5873733  46.1974930  77.0293012  54.9803081  46.6931748
  73.8099962  55.0386875  40.3369920  74.3873464  54.9023326  40.9762165
  73.1114023  54.5822660  40.5915504  73.7920983  54.9509142  40.4692209
  69.2858795  53.8898768  37.0517738  69.3719047  53.5130637  37.8331268
  69.9134592  53.5159214  36.5737696  69.3915346  53.7784251  37.0963215
  74.8734753  62.6590501  41.1049099  74.9138899  62.9305352  40.2768878
  75.4329278  63.1832409  41.5206887  74.9618099  62.7766256  41.0440987
  76.3249340  61.2432450  35.9303025  75.4987457  61.4894188  35.8037304
  76.3861331  61.1644531  36.7965083  76.2123507  61.2677399  36.0391969
  76.4692716  50.7859651  34.3315341  76.1817511  50.4160921  33.5947288
  77.1563184  51.2554506  34.0699046  76.5281613  50.8006620  34.1830417
  76.9554004  57.0570671  44.8836886  77.4675101  57.3354925  44.2345646
  76.6690346  57.7959965  45.2499699  76.9888867  57.2073025  44.8426764
  74.0420910  51.5640863  35.1800622  74.1437047  52.3667025  35.5081598
  74.8376797  51.3628199  34.8823703  74.1748816  51.6526762  35.1835978
  74.8584642  51.6788041  42.9221744  74.7170134  50.8271982  43.0466252
  75.1425206  51.7216702  42.0983950  74.8792488  51.5587791  42.8189368
  75.6274947  49.5918389  46.2399194  75.0917137  48.9798747  46.5559961
  75.6892712  50.1666525  46.8932861  75.5570580  49.5865317  46.3834621
  77.7463703  56.9999123  36.0519249  77.9028322  56.9345926  36.9075241
  78.0864296  57.7747676  35.8397928  77.8196938  57.1048321  36.1473843
  74.3197965  54.1834074  36.3680016  74.6996930  54.6018618  35.7040283
  73.7453330  54.7647529  36.6748859  74.2909290  54.3311932  36.3156757
  77.9628766  55.7494478  40.9995510  77.1216773  55.6498352  41.2074404
  78.1718774  56.5189959  41.3509831  77.8693459  55.8486522  41.0822825
  75.4404333  53.3714015  38.8280261  75.0461031  53.4457027  38.0530371
  74.8844450  53.7571962  39.3788623  75.3007146  53.4395790  38.7947921
  77.8537574  58.1438241  42.4187143  77.2625507  58.7847739  42.3890158
  78.6158598  58.5675858  42.3918443  77.8785835  58.3014079  42.4102291
  78.2498197  49.3040238  43.0855161  78.7099679  49.3779168  43.8230285
  78.2954304  50.1021492  42.7354982  78.3248752  49.4334385  43.1427917
  75.0385975  52.9329429  45.4606877  75.9011588  52.8325138  45.3744207
  74.7077758  52.3524138  44.8992449  75.1171171  52.8321056  45.3652283
  78.3987761  51.7571878  42.1217295  77.7740831  51.7690270  41.5143248
  78.0633356  52.2332053  42.7708536  78.2573253  51.8290395  42.1273864
  78.5829509  50.0996996  28.1789980  78.2342314  50.7516722  28.6421530
  78.1025955  50.0854110  27.4513852  78.4599753  50.1940050  28.1401072
  75.1113436  59.8172338  43.5621060  74.5813361  59.1264777  43.6116034
  75.3838530  59.8082523  42.7333768  75.0738159  59.7139470  43.4468476
  77.6678506  53.3665026  44.3392164  77.8271993  52.6108350  44.7443886
  77.4871400  53.9155965  44.9932902  77.6643865  53.3358840  44.4954870
  70.3909279  56.4900102  40.9189408  70.2852728  56.4446947  40.0541492
  69.6409499  56.8353883  41.2003693  70.2644881  56.5341010  40.8326738
  75.4906628  55.7890479  34.2898148  75.9998858  56.3854986  34.6709453
  75.9640901  55.5216452  33.6074567  75.6350004  55.8376294  34.2452670
  77.8497160  52.4246737  37.1571328  77.1309149  52.8410870  37.4244192
  78.2209522  52.9900976  36.6062966  77.7989092  52.5696019  37.1154135
  75.6286494  51.7196290  48.1773920  75.4589085  52.3797665  47.6322127
  75.1852444  51.9302851  48.8986409  75.5385828  51.8482272  48.2035549
  72.5288559  54.6243156  43.4362410  71.9815278  53.9543801  43.5543278
  73.3180937  54.2573003  43.5005877  72.5640742  54.4708142  43.4631110
  71.2875528  53.8363963  40.5908433  71.1097289  53.3840572  41.3163348
  70.9994550  54.6390125  40.7746910  71.2188481  53.8886521  40.7251936
  73.0247998  56.3691687  37.7030192  72.1593518  56.3577378  37.5912963
  73.1246814  56.1821910  38.5501331  72.9122165  56.3397748  37.8119136
  75.9918028  60.0862694  40.9238906  76.5962886  60.0458528  40.2952726
  75.7845341  60.9333846  40.9542962  76.0506925  60.2050697  40.8355022
  71.2269310  59.0697312  40.7937829  71.1293588  58.2593583  41.1027886
  72.0098180  59.0489105  40.4084097  71.3285447  58.9464402  40.7824692
  56.6369348   9.0154067  22.5574228  55.8852248   8.6369606  22.3290273
  57.0855360   9.0472501  21.8093039  56.5919015   8.9639674  22.4131730
  62.0894308   9.4379437  17.9859775  61.7545677  10.1156358  17.5503998
  62.6021179   9.0484748  17.3976647  62.1159889   9.4804015  17.8346567
  61.6298600  11.3893705  23.9270887  62.0137979  11.9580604  23.3875662
  61.5657741  10.6643216  23.4476703  61.6772027  11.3669169  23.7764749
  58.2154105   9.0272459  24.8237001  58.3164468   8.2172813  25.1334129
  57.6195850   8.9329406  24.1936679  58.1426643   8.8937488  24.7763239
  58.0554844  13.9450049  26.2251857  58.6992300  14.3863213  26.6148015
  58.3811100  13.1403475  26.1382116  58.1986673  13.8915243  26.2697334
  51.4119149   5.0492746  24.4489334  51.1769333   4.2160398  24.3421603
  51.5504790   5.3297412  23.6350535  51.3974811   4.9676249  24.3131689
  58.7575424   6.9562023  21.5971719  59.0791265   7.4967231  20.9933027
  59.4047520   6.3858795  21.7294008  58.9001479   6.9521199  21.5278754
  61.0022802   6.7847381  28.5211615  61.2846045   5.9898787  28.2998371
  61.7308962   7.2627969  28.5416676  61.1512365   6.7381978  28.4914630
  52.9736474   9.9278417  25.7245541  52.4904052  10.6528906  25.7005124
  53.7859792  10.2254547  25.8355698  53.0227221  10.0780771  25.7372820
  59.0450628   8.7210598  28.3295355  58.5277569   8.3618013  27.7256663
  59.7425019   8.1972772  28.3401421  59.0716209   8.5908285  28.2425614
  62.7014220   9.1705412  34.2911528  62.7897565   8.9831552  35.1389738
  63.1303932   8.5242841  33.8916375  62.7776322   9.0468419  34.3583280
  60.2684679   8.4536572  33.2729190  59.7055514   8.0409181  33.7968851
  61.0305703   8.3789477  33.6922334  60.2979128   8.3813972  33.4122191
  55.8280671  10.4434593  25.8765820  56.5301250   9.9286582  25.9338577
  55.7478154  10.7708744  26.6812696  55.9204431  10.4148819  26.0038613
  55.1531446   6.6340945  25.3851428  55.9920346   6.8663877  25.4325190
  55.1843215   5.7645256  25.3158464  55.2813164   6.5397891  25.3816073
  55.7784149   7.0541820  29.6864734  56.3182374   6.9112951  30.3568106
  55.0954096   7.4538571  30.0548760  55.7576303   7.0921491  29.8399156
  62.8134279   8.6014431  36.9555312  63.5974696   8.7145278  37.3211054
  62.6130873   7.7755568  37.1513997  62.9000304   8.4961150  37.0389698
  51.1821294   3.2742111  29.8399156  50.9159710   2.4581227  29.9990146
  51.1959858   3.3195266  28.9694671  51.1446017   3.1599015  29.7352638
  62.9704672  10.5124533  30.6021767  62.1719918  10.2724033  30.8595636
  63.4190684  10.5638926  31.3488815  62.9179283  10.4846924  30.7506692
  51.5914708   4.0600890  27.1210900  51.4090281   4.0347776  26.2683192
  52.3264377   4.5299828  27.1599809  51.6728772   4.1262252  27.0008818
  57.9307768   6.3209680  24.1554842  58.5681715   6.0821428  24.7006635
  58.3562839   6.5246839  23.4208002  58.0883934   6.3160690  24.1271999
  52.6220410   8.5598017  28.0389146  52.6624555   8.8312868  27.2108925
  53.1814934   9.0839925  28.4546933  52.7103756   8.6773772  27.9781034
  60.3129240   6.7982103  25.8348628  60.3868248   6.6357275  26.6890478
  61.1298746   6.9872292  25.5909110  60.4445598   6.8018845  25.9246654
  54.0734996   7.1439966  22.8643072  53.2473114   7.3901703  22.7377350
  54.1346988   7.0652047  23.7305130  53.9609163   7.1684915  22.9732016
  58.8533825   9.7616846  20.5662101  59.1432124   9.3705827  19.8421328
  59.5837306   9.9433551  21.0067377  59.0040710   9.7310660  20.5244908
  56.7939741  11.7384228  23.6322251  56.5740036  11.4481583  24.4248918
  56.5734263  11.0799183  23.1040164  56.7287335  11.5983937  23.6711160
  58.9607697  13.1113618  22.4152944  59.6131755  12.5790061  22.6443970
  58.2633306  12.7582271  22.8020818  58.9538415  12.9803141  22.5065111
  55.9088962   5.4652796  21.8220318  56.6634930   5.8465835  22.0355780
  55.3159574   5.9163940  22.2767014  55.9325675   5.5881623  21.9203196
  57.2287188   6.6361357  27.1960433  56.7067942   6.7761649  27.8812298
  57.6161209   5.8772022  27.3862551  57.2090889   6.5446881  27.3261510
  63.4254193   8.3756816  21.1821002  63.1840869   7.6424677  20.7748067
  63.6055526   8.9243673  20.5287335  63.4161817   8.3479208  21.0251225
  57.7933674  10.3422137  30.2790289  57.9423237   9.7825053  29.6263693
  58.5733676  10.4214139  30.6622808  57.9307767  10.2707703  30.2387238
  60.3186974  10.5136780  31.5574780  60.2430645   9.8445591  32.1125568
  60.2476833  11.2154568  32.0715446  60.2967581  10.5181687  31.7151628
  60.9757221   9.0337779  22.3898386  61.7407112   8.7647423  22.0681050
  60.8735311   8.5487789  23.1068448  61.0738717   8.9227344  22.4478213
  59.7078609  13.9205100  30.0152780  60.1974539  13.2215889  29.8328445
  59.1362841  13.6228970  30.6028838  59.6963139  13.7731324  30.0753821
  60.2014954   7.6681873  19.1392687  60.2707775   6.8096412  19.2785687
  60.9803410   7.8853754  18.8111711  60.3267804   7.5734737  19.1109844
  64.5922442  10.0919575  23.3529180  64.2002234   9.7886290  22.6352046
  64.7475514  10.9288665  23.1634134  64.5576032  10.1703411  23.2185677
  65.9721113   8.2393268  30.8807768  66.7613491   7.8882333  31.0009850
  66.1464711   9.0529656  30.6184402  66.1141394   8.3079125  30.8595636
  57.5849439   6.7933113  31.8905253  57.4769794   6.8035176  32.7567311
  57.7945220   7.6187894  31.7010206  57.5999550   6.9174188  31.9909344
  55.6023231   4.0445756  29.3527190  55.0111164   4.6855254  29.3230205
  56.3644255   4.4683373  29.3258490  55.6271492   4.2021594  29.3442337
  65.3612747   9.4955067  26.7859215  65.1632436   9.9845882  26.0915426
  64.7400458   9.6996309  27.3643348  65.2400312   9.5971606  26.7682438
  52.8599093   5.7179853  30.4961106  52.3299018   5.0272292  30.5456081
  53.1324186   5.7090039  29.6673815  52.8223815   5.6146985  30.3808522
  48.1394935   2.3907618  27.8529455  48.0338384   2.3454462  26.9881539
  47.3895155   2.7361398  28.1343740  48.0130538   2.4348526  27.7666784
  61.5415253   6.4463003  31.4492907  61.0340344   6.9998850  31.8933537
  61.2441899   6.5071293  30.6311681  61.4220138   6.5369314  31.3941363
  64.1523033  10.3626261  19.3796850  63.4352343  10.1887123  18.9144087
  64.8029771  10.1278833  18.8472336  64.1424884  10.3022053  19.2326068
  60.7857738  11.3787561  28.3549913  60.5623393  10.6206390  28.7233940
  60.2967582  11.4085582  27.6330353  60.6801187  11.2709786  28.3026654
  59.4336195  11.5988019  25.8086998  59.0196594  10.9362150  25.4190840
  60.1183569  11.7465878  25.2882692  59.4734567  11.5228678  25.6743495
  62.8001489  10.7578105  26.5610615  62.4017773  10.8680375  25.7931435
  62.1852709  10.9660171  27.1437174  62.6500379  10.8051673  26.5341914
  56.3990665  12.0397101  28.2100344  56.7137224  12.8533489  28.2178126
  56.8084078  11.6547320  28.8782503  56.5058763  12.1025803  28.3104436
  63.3515184   7.4567148  25.7804156  63.8226363   8.1707410  25.9494141
  63.6875363   6.8565898  26.3164026  63.4710300   7.4738612  25.8836532
  65.4392169   9.0668461  37.9596228  65.5489135   8.2777022  38.3152975
  65.7683066   8.9774397  37.1570566  65.5044575   8.9374314  37.8938619
  53.7403685   5.9870209  27.8578953  54.3448542   5.9466044  27.2292773
  53.5330997   6.8341361  27.8883008  53.7992582   6.1058212  27.7695069
  63.5547457   8.2536155  29.0741190  64.3745831   8.1099121  29.3357485
  63.2741535   8.8782354  29.6157628  63.6344200   8.3246507  29.1929129
  48.9754967   4.9704827  27.7277876  48.8779245   4.1601098  28.0367932
  49.7583837   4.9496620  27.3424144  49.0771104   4.8471917  27.7164739
  73.2260792  14.9976657  26.7936997  72.3698688  15.1585156  26.8446113
  73.2728446  14.1268721  26.8142058  73.1059904  14.8927459  26.8043063
  67.6101932  24.5339375  22.5574228  66.8584832  24.1554914  22.3290273
  68.0587944  24.5657809  21.8093039  67.5651599  24.4824982  22.4131730
  76.5354509  21.2663183  36.3997453  77.2421276  20.7715214  36.5284387
  76.7242444  21.7072264  35.6700111  76.6682414  21.2581533  36.3106498
  73.0626892  24.9564745  17.9859775  72.7278260  25.6341666  17.5503998
  73.5753762  24.5670056  17.3976647  73.0892473  24.9989323  17.8346567
  72.6031183  26.9079013  23.9270887  72.9870563  27.4765912  23.3875662
  72.5390324  26.1828524  23.4476703  72.6504610  26.8854477  23.7764749
  76.0712613  17.0568701  29.4368648  76.6168573  17.7353788  29.4962618
  76.0129490  16.9156162  28.5770230  76.1428528  17.1360703  29.3180709
  69.1886688  24.5457767  24.8237001  69.2897051  23.7358121  25.1334129
  68.5928433  24.4514714  24.1936679  69.1159227  24.4122795  24.7763239
  77.8477682  18.4853308  20.3102376  77.7317208  19.2360994  20.7394514
  78.6433569  18.2277262  20.5598463  77.9482271  18.5588155  20.4106468
  69.0287428  29.4635357  26.2251857  69.6724883  29.9048521  26.6148015
  69.3543683  28.6588783  26.1382116  69.1719256  29.4100551  26.2697334
  62.3851732  20.5678054  24.4489334  62.1501917  19.7345706  24.3421603
  62.5237373  20.8482720  23.6350535  62.3707395  20.4861557  24.3131689
  64.6841820  12.7363785  27.3473642  64.0646852  12.1456432  27.1783657
  64.5825684  13.3275220  26.7137965  64.5779495  12.7367867  27.2278632
  69.7308008  22.4747331  21.5971719  70.0523849  23.0152539  20.9933027
  70.3780104  21.9044103  21.7294008  69.8734063  22.4706507  21.5278754
  71.7809716  14.4763326  21.6806105  72.4789880  14.6551454  22.1727569
  72.0962048  13.9533666  21.0576495  71.9305053  14.4257098  21.6608115
  64.4110953  16.2816066  29.5917211  64.2869650  16.8678512  30.2267030
  65.0629237  15.7876262  29.8929486  64.4884602  16.2954871  29.7303140
  71.9697651  20.8633771  21.6685897  72.4091286  20.2550872  22.1140669
  71.8202314  20.4841145  20.8971362  72.0119117  20.7172242  21.6205064
  69.4369294  19.4577783  28.8704722  70.0818296  18.9650226  28.5515671
  69.6771071  19.6002570  29.6970800  69.5679879  19.4055225  28.9454255
  71.9755385  22.3032689  28.5211615  72.2578628  21.5084095  28.2998371
  72.7041546  22.7813277  28.5416676  72.1244949  22.2567286  28.4914630
  69.9536579   9.8455723  25.7627380  69.6239909  10.2966867  25.0931079
  69.2781581   9.7671886  26.3100386  69.8047015   9.9006858  25.7450603
  75.5706988  19.2160953  18.6216666  75.4858283  20.0721919  18.7666235
  76.0591371  18.9405277  19.2898825  75.6295885  19.3018274  18.7418747
  76.5025421  15.8345747  20.1214401  75.9736892  16.0505380  20.7811707
  77.0250441  16.5281885  20.0415370  76.5013874  15.9688884  20.2070000
  68.3925029  19.7308964  18.9221869  67.8082244  20.2358995  19.3287733
  67.9895124  19.5051351  18.1818461  68.2464332  19.7717212  18.8726894
  63.9469057  25.4463725  25.7245541  63.4636635  26.1714214  25.7005124
  64.7592375  25.7439855  25.8355698  63.9959805  25.5966078  25.7372820
  70.0183211  24.2395905  28.3295355  69.5010153  23.8803320  27.7256663
  70.7157602  23.7158080  28.3401421  70.0448792  24.1093593  28.2425614
  73.6746803  24.6890720  34.2911528  73.7630149  24.5016860  35.1389738
  74.1036516  24.0428149  33.8916375  73.7508906  24.5653727  34.3583280
  71.2417263  23.9721879  33.2729190  70.6788098  23.5594489  33.7968851
  72.0038286  23.8974785  33.6922334  71.2711712  23.8999280  33.4122191
  66.8013254  25.9619901  25.8765820  67.5033834  25.4471890  25.9338577
  66.7210738  26.2894052  26.6812696  66.8937015  25.9334127  26.0038613
  67.8492161  16.1995488  35.0046236  68.0212665  16.0901382  35.8531517
  68.3861518  16.8449893  34.7677428  67.9537165  16.2787489  35.0951332
  66.5149598  10.3138330  17.9428441  66.3325171  10.5310211  17.1169433
  67.3775211  10.4277343  17.9987055  66.6154187  10.3628228  17.8282928
  66.1264030  22.1526253  25.3851428  66.9652929  22.3849185  25.4325190
  66.1575799  21.2830564  25.3158464  66.2545747  22.0583199  25.3816073
  66.7516733  22.5727128  29.6864734  67.2914958  22.4298259  30.3568106
  66.0686679  22.9723879  30.0548760  66.7308887  22.6106799  29.8399156
  76.1757618  18.2518128  24.8809758  76.9315133  18.6849643  24.9198667
  76.2819942  17.6022898  25.4544394  76.3027788  18.2195612  24.9707784
  73.7866862  24.1199739  36.9555312  74.5707279  24.2330586  37.3211054
  73.5863457  23.2940876  37.1513997  73.8732888  24.0146458  37.0389698
  62.1553878  18.7927419  29.8399156  61.8892293  17.9766535  29.9990146
  62.1692442  18.8380574  28.9694671  62.1178600  18.6784323  29.7352638
  66.0611625  13.5912503  16.4550914  65.3469802  13.3050683  16.8673346
  66.5455594  13.9309129  17.0957301  66.0270988  13.5994153  16.6106549
  66.9052484  12.3305797  32.4866163  66.2124281  11.8602777  32.7326895
  67.5212812  12.1044101  33.0607870  66.8937014  12.2272929  32.6075316
  73.9437256  26.0309841  30.6021767  73.1452502  25.7909341  30.8595636
  74.3923267  26.0824233  31.3488815  73.8911867  26.0032232  30.7506692
  73.2358943  22.0942457  16.8312722  73.6510091  21.7627481  16.1397218
  72.4050872  21.8611359  16.7032858  73.1746952  22.0113713  16.7103569
  62.5647292  19.5786198  27.1210900  62.3822865  19.5533084  26.2683192
  63.2996961  20.0485136  27.1599809  62.6461355  19.6447560  27.0008818
  65.6293043  16.2971201  33.6293008  66.3533016  16.2824232  34.1157903
  65.7309180  17.0066556  33.1314977  65.7511252  16.3995904  33.6271795
  73.0037993  19.7770285  38.4941955  72.2110973  20.0913797  38.6794575
  73.1186920  19.9921754  37.6562740  72.9033403  19.8554122  38.3980290
  75.6769312  16.5004277  22.7836971  75.7716166  17.2393571  23.2376597
  75.0528155  16.0721752  23.2171536  75.5978342  16.5465597  22.9145119
  73.9321785  19.6790489  33.4327252  74.5060647  19.0417733  33.5875816
  73.8536589  19.6794572  32.5636910  74.0055020  19.5855601  33.3273663
  62.5318202  16.4579699  27.2709966  63.1091705  16.3216149  27.9102212
  61.8332264  16.0015483  27.5255551  62.5139223  16.3701965  27.4032256
  69.2885504  18.1113754  25.4848450  69.0304748  17.2785489  25.4579749
  69.3433987  18.3371367  24.6440950  69.2585282  18.0211526  25.3568586
  68.2620216  15.6651517  25.9713344  67.6869808  15.8243685  26.6077305
  67.8855893  15.0286926  25.5081795  68.1223029  15.5949330  25.9967903
  71.9293505  14.1374866  30.8305723  71.5407938  13.7129084  30.1757914
  71.2648203  14.3857016  31.3382749  71.7740433  14.1113587  30.8093591
  58.0077035  15.3091592  23.9857785  58.0937287  14.9323460  24.7671315
  58.6352833  14.9352037  23.5077743  58.1133586  15.1977074  24.0303262
  73.0332443  18.3673471  19.0282530  73.8473082  18.6588363  18.9165301
  72.9691584  17.7133333  18.4540823  73.1435182  18.3138665  18.9271367
  68.9040351  21.8394988  24.1554842  69.5414298  21.6006736  24.7006635
  69.3295423  22.0432147  23.4208002  69.0616518  21.8345998  24.1271999
  63.5952994  24.0783325  28.0389146  63.6357139  24.3498176  27.2108925
  64.1547518  24.6025233  28.4546933  63.6836340  24.1959080  27.9781034
  69.5443166  17.0597278  18.4929731  69.9288319  16.8404985  19.2446276
  69.2954787  17.8860223  18.6230808  69.5645239  17.1495424  18.6230808
  69.7111707  10.3403693  38.2092315  69.3965148  11.1103256  37.9461878
  69.3901639   9.7773949  37.6244542  69.6170626  10.3713962  38.0833665
  71.2861823  22.3167411  25.8348628  71.3600832  22.1542583  26.6890478
  72.1031330  22.5057600  25.5909110  71.4178182  22.3204153  25.9246654
  65.0467580  22.6625274  22.8643072  64.2205698  22.9087011  22.7377350
  65.1079571  22.5837354  23.7305130  64.9341747  22.6870223  22.9732016
  67.2643604   8.7294215  23.8238512  66.3966029   8.8016814  23.8896121
  67.5518808   9.5316294  24.0126487  67.1783352   8.8588362  23.8613278
  69.8266409  25.2802154  20.5662101  70.1164707  24.8891135  19.8421328
  70.5569890  25.4618859  21.0067377  69.9773293  25.2495968  20.5244908
  70.4161154  20.0819900  31.6515232  69.9172848  20.7935667  31.7300120
  71.2261379  20.4020566  31.6133394  70.4617261  20.2346748  31.6571800
  67.7672325  27.2569536  23.6322251  67.5472620  26.9666891  24.4248918
  67.5466847  26.5984491  23.1040164  67.7019919  27.1169245  23.6711160
  66.6789272  19.3442853  25.8977953  66.3902520  18.7180324  26.4323680
  67.5472620  19.2863140  25.9642633  66.7649524  19.2430397  25.9868907
  77.4667170  14.4877636  26.2159935  77.1231936  13.7667971  26.5667184
  77.5660212  14.2791487  25.3738293  77.4309212  14.3501839  26.1431615
  69.9340280  28.6298926  22.4152944  70.5864338  28.0975369  22.6443970
  69.2365889  28.2767579  22.8020818  69.9270998  28.4988449  22.5065111
  66.8821545  20.9838104  21.8220318  67.6367513  21.3651143  22.0355780
  66.2892158  21.4349247  22.2767014  66.9058259  21.1066931  21.9203196
  77.9280199  20.9503340  21.7583923  78.4938231  21.6096550  21.6742466
  77.2808102  21.2953038  22.2300325  77.9158955  21.0985282  21.8156679
  69.3428212  12.9400944  36.9477530  68.5327988  13.2458724  36.8367373
  69.8202899  13.6606527  37.0630114  69.2931691  13.0915545  36.9484601
  68.2019772  22.1546665  27.1960433  67.6800525  22.2946957  27.8812298
  68.5893792  21.3957329  27.3862551  68.1823473  22.0632189  27.3261510
  65.1910956  12.2052474  21.2655388  64.9035752  11.8353744  20.5287335
  65.8781424  12.6747329  21.0039093  65.2499853  12.2199443  21.1170464
  74.3986777  23.8942124  21.1821002  74.1573453  23.1609985  20.7748067
  74.5788110  24.4428981  20.5287335  74.3894401  23.8664516  21.0251225
  69.6286097  19.1850684  22.5941924  69.4328880  19.7925419  22.0002227
  69.8520443  18.4918628  22.1133598  69.6320738  19.1728210  22.4358005
  68.0264627  16.0705422  22.7122793  68.7487279  16.2346580  22.2526599
  67.5472620  16.7915087  22.6062132  68.0628358  16.2003652  22.6288407
  75.9858135  12.4069221  28.0919478  75.1469236  12.4330500  27.8557741
  76.0562502  13.0539956  28.6724824  75.8726529  12.5065347  28.1428595
  65.6772244  18.4763495  31.8176933  66.1893341  18.7547748  31.1685692
  65.3908587  19.2152789  32.1839746  65.7107107  18.6265848  31.7766811
  62.7639150  12.9833686  22.1140669  62.8655287  13.7859848  22.4421644
  63.5595037  12.7821022  21.8163750  62.8967056  13.0719585  22.1176024
  69.1955970  10.5689883  31.8777974  69.0039167  10.5845018  32.7277398
  70.0454566  10.7653557  31.8544629  69.2931691  10.6004234  32.0001269
  63.5802883  13.0980865  29.8561791  63.4388374  12.2464805  29.9806299
  63.8643446  13.1409525  29.0323997  63.6010729  12.9780615  29.7529415
  73.7341475  14.9347955  24.0006279  73.4876189  14.8543706  24.8343068
  74.0626598  14.1501423  23.8068806  73.7462719  14.8074220  24.0953802
  77.6289524  21.6431314  27.7893060  77.4903883  22.3412360  28.2941803
  76.8489522  21.4879971  27.4329242  77.4932751  21.7231481  27.8119334
  75.9667609  17.9427689  34.0415442  75.9615647  17.0707506  34.0457868
  76.6728603  18.1415859  33.5684898  76.0712613  17.8431564  33.9722477
  69.6938502  17.6704673  33.4129262  69.8381878  18.2505882  32.7772372
  70.0414151  18.0480970  34.1179117  69.7665964  17.8125377  33.4228257
  71.8658420  16.8694842  31.1954394  71.1181734  17.0625856  30.7902672
  72.0199945  16.0440061  30.9578515  71.7780847  16.7759953  31.0999799
  68.7666257  25.8607445  30.2790289  68.9155821  25.3010361  29.6263693
  69.5466259  25.9399447  30.6622808  68.9040351  25.7893011  30.2387238
  71.2919558  26.0322088  31.5574780  71.2163229  25.3630899  32.1125568
  71.2209417  26.7339876  32.0715446  71.2700165  26.0366995  31.7151628
  72.1060197  10.7645392  32.0849797  72.5632811  11.4969367  32.2122590
  72.1816525  10.3411858  32.8437053  72.1851166  10.8102631  32.2150874
  64.3493188  11.0111212  33.1739241  63.8135377  10.3991570  33.4900008
  64.4110953  11.5859348  33.8272908  64.2788820  11.0058140  33.3174668
  71.9489805  24.5523087  22.3898386  72.7139696  24.2832731  22.0681050
  71.8467895  24.0673097  23.1068448  72.0471300  24.4412652  22.4478213
  69.9842575  12.7547496  28.9291621  69.1938649  12.5738956  29.2508957
  70.3803197  11.9774449  28.9121916  69.9259451  12.6134957  28.9744170
  75.3686261  20.3889927  26.6551067  74.6931263  20.1575159  27.1564454
  75.3778637  19.7811109  26.0293172  75.2704765  20.2648852  26.6367219
  72.4980405  15.2307756  33.4115120  72.4339546  16.0917712  33.2835257
  72.6377593  14.9139749  32.6110672  72.5095875  15.3107922  33.2743333
  77.3702995  23.2455059  18.8861245  77.4522833  24.0522045  18.5622696
  77.8552738  23.2651018  19.6102019  77.4540153  23.3675721  18.9448144
  71.1799499  17.9239895  27.5531323  70.7561748  18.1244394  26.8170341
  71.0044354  17.0768743  27.6655623  71.0910379  17.8288676  27.4605013
  70.6811192  29.4390408  30.0152780  71.1707122  28.7401197  29.8328445
  70.1095424  29.1414278  30.6028838  70.6695722  29.2916631  30.0753821
  66.4681944  18.4191946  22.9859296  66.6246563  18.3538749  23.8415288
  66.8082537  19.1940499  22.7737975  66.5415179  18.5241144  23.0813890
  73.0061088  17.7949830  21.8552659  73.5476634  17.2920211  22.3191279
  73.3207647  17.7415025  21.0442144  73.1325485  17.7129251  21.8036471
  76.8778196  22.0052477  38.9679571  77.6913061  21.7337626  39.1284704
  76.7173162  21.7060017  38.1639767  76.9748144  21.9207403  38.8724977
  71.1747538  23.1867181  19.1392687  71.2440358  22.3281720  19.2785687
  71.9535993  23.4039062  18.8111711  71.3000388  23.0920045  19.1109844
  74.1550358  12.6886134  31.9074959  74.3692327  12.0497049  31.3538313
  73.5384257  13.1331958  31.4782821  74.0955687  12.6596278  31.7625390
  75.5655026  25.6104883  23.3529180  75.1734817  25.3071598  22.6352046
  75.7208098  26.4473973  23.1634134  75.5308615  25.6888719  23.2185677
  63.0416205  15.6026897  23.3020063  63.4215170  16.0211442  22.6380330
  62.4671570  16.1840352  23.6088906  63.0127530  15.7504756  23.2496804
  76.3189446  14.2975200  32.8458266  75.5066127  13.9901090  32.9271439
  76.7779380  13.8174200  33.4100979  76.2669830  14.1811692  32.9412861
  75.7294700  22.1754872  23.2935211  75.3709355  22.3469514  24.0699243
  75.2433411  22.6368077  22.7363209  75.6053397  22.2693843  23.3260480
  70.5183066  17.8554037  15.8335445  70.8075591  18.6318919  16.1079019
  70.6054865  17.3442768  16.5349944  70.5737322  17.8945955  15.9777943
  73.4142953  15.7035271  37.6286969  73.8842584  16.3277387  38.0154843
  73.4604833  15.0352247  38.1880183  73.4910829  15.6969951  37.7687040
  76.8899440  23.0658767  34.2402412  77.5279160  22.5718963  33.9064868
  76.2473531  22.9936168  33.6554638  76.8893666  22.9817776  34.1044767
  78.6156440  14.9147913  28.8068327  78.1884048  14.8274262  28.0516427
  77.9782493  15.0225689  29.3923171  78.4586047  14.9180573  28.7813769
  76.9453696  23.7578576  30.8807768  77.7346074  23.4067640  31.0009850
  77.1197294  24.5714964  30.6184402  77.0873978  23.8264433  30.8595636
  66.6847007  17.1687301  27.9335557  65.8435013  17.0691176  28.1414451
  66.8937015  17.9382782  28.2849878  66.5911699  17.2679345  28.0162872
  64.1622574  14.7906838  25.7620308  63.7679271  14.8649850  24.9870418
  63.6062691  15.1764785  26.3128670  64.0225386  14.8588613  25.7287968
  70.4963672  15.0968701  27.1833155  70.1926809  14.5424689  27.7843562
  69.7943092  15.2760911  26.6961189  70.3479881  15.0413483  27.2002860
  69.5529769  12.4069220  21.7477857  69.8289503  11.6888133  21.3355424
  70.1528438  13.0054140  21.5398963  69.6823033  12.3889591  21.6558618
  68.5582023  22.3118421  31.8905253  68.4502377  22.3220484  32.7567311
  68.7677804  23.1373202  31.7010206  68.5732134  22.4359496  31.9909344
  66.5755815  19.5631064  29.3527190  65.9843748  20.2040562  29.3230205
  67.3376838  19.9868681  29.3258490  66.6004075  19.7206902  29.3442337
  66.9716437  10.7233062  30.0195208  67.4317919  10.7971991  30.7570332
  67.0172544  11.5214316  29.6695029  67.0466993  10.8527209  30.0767964
  68.6199787  11.3899756  34.5867235  68.2285352  10.7433104  35.0223013
  68.7885650  11.9811192  35.2061490  68.5870697  11.3814024  34.7429941
  76.3345331  25.0140375  26.7859215  76.1365019  25.5031190  26.0915426
  75.7133042  25.2181617  27.3643348  76.2132895  25.1156914  26.7682438
  70.3953309  16.7825272  21.1269459  71.1395354  17.1699549  21.3652409
  70.5414005  15.9382698  21.2909947  70.5263894  16.7155745  21.1863429
  73.3831185  12.3550746  27.0263378  72.9091139  11.8292508  27.5368689
  73.7549321  11.8080218  26.4578240  73.3681074  12.1966742  27.0178525
  63.7604215  14.3522252  32.3946924  64.6229828  14.2517961  32.3084254
  63.4295998  13.7716962  31.8332496  63.8389412  14.2513879  32.2992330
  67.1206001  13.1764701  29.0557342  66.4959071  13.1883093  28.4483295
  66.7851596  13.6524876  29.7048582  66.9791493  13.2483218  29.0613911
  67.3047750  11.5189820  15.1130027  66.9560554  12.1709545  15.5761577
  66.8244196  11.5046933  14.3853898  67.1817994  11.6132873  15.0741118
  63.8331677  21.2365161  30.4961106  63.3031601  20.5457600  30.5456081
  64.1056770  21.2275347  29.6673815  63.7956399  21.1332293  30.3808522
  74.8651767  21.8190864  19.2198789  75.5885966  22.2848977  19.0763362
  74.4252358  21.8864473  18.4696386  74.9067459  21.8974700  19.0883570
  74.0337922  18.6788406  30.4699478  73.4194915  18.1346456  30.7648113
  74.5505207  18.1652642  29.9905294  74.0193585  18.5224815  30.4423706
  73.2734219  19.7492676  28.2043777  72.8461827  19.1242395  27.7709212
  73.2659164  19.4667598  29.0302784  73.2093361  19.6145457  28.2623604
  66.3896747  14.7857849  31.2732211  66.5490233  14.0301173  31.6783933
  66.2089640  15.3348789  31.9272948  66.3862105  14.7551663  31.4294917
  71.6019929  10.6261431  28.4186311  71.6262416  10.0921543  27.7299091
  71.8531403  10.1178739  29.0811901  71.6429848  10.4722334  28.4150955
  59.1127519  17.9092925  27.8529455  59.0070968  17.8639770  26.9881539
  58.3627739  18.2546706  28.1343740  58.9863122  17.9533834  27.7666784
  67.8821251   9.3532249  27.7992055  67.9219623   9.8541455  28.5126762
  67.0570916   9.4442642  27.5297978  67.7660777   9.4414065  27.8642593
  70.0650864  18.9192989  35.9012350  69.2146495  19.0564703  36.0369994
  70.2278992  18.1856767  36.3460051  69.9634728  18.8307090  35.9867949
  69.3035615  15.8692759  30.0965954  68.4727544  16.0366577  29.8901202
  69.2487132  15.4928709  30.8814839  69.1725030  15.8382490  30.1814482
  67.1119398   9.3601652  35.7322365  67.7372101   8.8163784  36.0051797
  66.6569878   8.8796569  35.1630155  67.1367659   9.2091133  35.6883959
  67.6771659  14.1448350  20.6256072  67.8174620  14.6420814  21.3284713
  68.1754191  13.4434645  20.7670285  67.7712739  14.1150329  20.7507651
  67.7071881  15.0115461  17.9548649  68.3416960  15.6075886  17.8898110
  67.7897492  14.7118919  18.7694519  67.8128432  15.0556369  18.0651735
  69.2850864  10.9429437  17.9294091  69.6066705  10.4632519  17.2753353
  69.5477808  11.7529083  17.7384902  69.3716889  10.9919334  17.8049583
  72.5147837  21.9648311  31.4492907  72.0072928  22.5184158  31.8933537
  72.2174483  22.0256601  30.6311681  72.3952722  22.0554622  31.3941363
  64.2124869  17.2083302  21.2238195  64.7217098  17.8047809  21.6049500
  64.6859141  16.9409276  20.5414614  64.3568244  17.2569117  21.1792717
  75.1255617  25.8811569  19.3796850  74.4084927  25.7072431  18.9144087
  75.7762354  25.6464141  18.8472336  75.1157467  25.8207361  19.2326068
  77.7103588  14.7576157  23.1238155  77.0394778  15.3005859  22.9951221
  78.4043338  15.2271012  22.8819850  77.7132456  14.9074428  23.0693683
  71.7590322  26.8972869  28.3549913  71.5355976  26.1391698  28.7233940
  71.2700165  26.9270890  27.6330353  71.6533771  26.7895094  28.3026654
  66.5715401  13.8439560  24.0911375  65.8527390  14.2603693  24.3584239
  66.9427763  14.4093799  23.5403013  66.5207332  13.9888842  24.0494182
  75.8714981  14.4767409  29.9813371  75.8512909  14.2950705  30.8348150
  75.9194182  15.3479428  29.9572954  75.8749622  14.5783948  30.1036665
  73.8161311  21.0654601  35.9061847  73.7757166  20.4204278  35.3207003
  74.6284629  21.0091219  36.2187259  73.9304465  20.9613568  35.8658796
  70.4068779  27.1173327  25.8086998  69.9929177  26.4547457  25.4190840
  71.0916153  27.2651186  25.2882692  70.4467150  27.0413985  25.6743495
  73.7734073  26.2763413  26.5610615  73.3750356  26.3865683  25.7931435
  73.1585292  26.4845479  27.1437174  73.6232962  26.3236981  26.5341914
  72.3461975  12.8837560  19.4284754  71.7526814  13.2054557  18.8769321
  72.3837253  12.0378656  19.2205861  72.2636364  12.8061889  19.3167526
  75.2219791  12.8417065  22.8586505  74.9933485  12.8649766  22.0164863
  75.4817868  12.0174532  22.9781515  75.2265980  12.7233145  22.7511702
  69.5039020  14.6951538  32.4611605  68.9917923  14.0872721  32.8196636
  69.3318516  15.4108130  32.9285581  69.4028657  14.7114837  32.5827829
  64.3504735  13.1389113  35.1113967  64.1807325  13.7990488  34.5662173
  63.9070685  13.3495674  35.8326456  64.2604068  13.2675095  35.1375596
  68.2764554  11.3793611  24.1540700  68.7521920  11.7410691  23.5190881
  67.7753154  12.0350079  24.4340843  68.2729913  11.5287800  24.1017441
  73.3808090  12.6175783  34.9013860  73.9379520  12.3889592  34.2692326
  73.0569155  13.3781448  34.6249073  73.4154500  12.6959619  34.7670358
  61.2506799  16.0435979  30.3702456  60.7033519  15.3736624  30.4883325
  62.0399177  15.6765827  30.4345924  61.2858983  15.8900965  30.3971157
  71.0991208  15.7043436  35.8665868  71.8502535  16.0195113  36.1805422
  71.2913784  15.5022607  35.0399789  71.2382622  15.7210818  35.7909263
  70.3191207  13.5234811  17.5214084  70.6990172  13.5414440  16.7365199
  69.5783803  13.9688800  17.4004932  70.2660045  13.5916586  17.3877652
  60.0093769  15.2556787  27.5248480  59.8315530  14.8033396  28.2503395
  59.7212791  16.0582948  27.7086957  59.9406722  15.3079344  27.6591982
  75.6717350  16.5114504  26.7625870  76.1671015  15.7937499  26.7229890
  74.8617125  16.2085302  26.6480357  75.6261243  16.3612150  26.7399596
  71.1175961  20.3612317  18.9122874  70.3087284  20.0378991  18.8656184
  71.6250870  19.6545539  18.8451123  71.0725628  20.2093634  18.8953169
  61.7466239  17.7884510  24.6370239  60.8811758  17.7770201  24.5253010
  61.8465054  17.6014733  25.4841378  61.6340405  17.7590572  24.7459183
  77.7369169  19.2618191  29.4502999  78.1624240  18.7392613  28.8973424
  77.3726088  19.8599029  28.9291622  77.7455771  19.2728418  29.2912008
  67.3723248  27.5582409  28.2100344  67.6869807  28.3718797  28.2178126
  67.7816662  27.1732628  28.8782503  67.4791346  27.6211111  28.3104436
  74.3247768  22.9752456  25.7804156  74.7958946  23.6892718  25.9494141
  74.6607947  22.3751206  26.3164026  74.4442883  22.9923920  25.8836532
  76.4124753  24.5853769  37.9596228  76.5221718  23.7962330  38.3152975
  76.7415649  24.4959705  37.1570566  76.4777158  24.4559622  37.8938619
  74.9621714  22.7670390  32.5431849  74.4142660  22.1428274  32.2751914
  75.4234743  22.9564662  31.8275928  74.9488924  22.7029440  32.3982280
  70.3110378   9.7496339  20.2041716  71.1326072   9.9194652  19.9623411
  69.8480029   9.9043600  19.4808013  70.3641540   9.7978072  20.0613360
  64.7136269  21.5055517  27.8578953  65.3181126  21.4651352  27.2292773
  64.5063581  22.3526669  27.8883008  64.7725166  21.6243520  27.7695069
  74.5280041  23.7721463  29.0741190  75.3478414  23.6284429  29.3357485
  74.2474118  24.3967661  29.6157628  74.6076784  23.8431815  29.1929129
  59.9487551  20.4890135  27.7277876  59.8511829  19.6786406  28.0367932
  60.7316421  20.4681928  27.3424144  60.0503687  20.3657225  27.7164739
  73.3584316  36.0863362  24.4489334  73.1234500  35.2531014  24.3421603
  73.4969957  36.3668028  23.6350535  73.3439979  36.0046865  24.3131689
  75.6574404  28.2549092  27.3473642  75.0379435  27.6641740  27.1783657
  75.5558267  28.8460528  26.7137965  75.5512079  28.2553175  27.2278632
  75.3843537  31.8001374  29.5917211  75.2602233  32.3863820  30.2267030
  76.0361821  31.3061570  29.8929486  75.4617186  31.8140179  29.7303140
  74.9201641  40.9649033  25.7245541  74.4369219  41.6899522  25.7005124
  75.7324959  41.2625163  25.8355698  74.9692388  41.1151386  25.7372820
  77.7745838  41.4805209  25.8765820  78.4766417  40.9657198  25.9338577
  77.6943321  41.8079360  26.6812696  77.8669598  41.4519435  26.0038613
  77.4882181  25.8323638  17.9428441  77.3057755  26.0495519  17.1169433
  78.3507794  25.9462651  17.9987055  77.5886771  25.8813536  17.8282928
  77.0996613  37.6711561  25.3851428  77.9385513  37.9034493  25.4325190
  77.1308383  36.8015872  25.3158464  77.2278331  37.5768507  25.3816073
  77.7249316  38.0912436  29.6864734  78.2647541  37.9483567  30.3568106
  77.0419263  38.4909187  30.0548760  77.7041470  38.1292107  29.8399156
  73.1286461  34.3112727  29.8399156  72.8624877  33.4951843  29.9990146
  73.1425026  34.3565882  28.9694671  73.0911184  34.1969631  29.7352638
  77.0344208  29.1097811  16.4550914  76.3202386  28.8235990  16.8673346
  77.5188177  29.4494437  17.0957301  77.0003572  29.1179461  16.6106549
  77.8785068  27.8491105  32.4866163  77.1856865  27.3788085  32.7326895
  78.4945395  27.6229409  33.0607870  77.8669598  27.7458237  32.6075316
  73.5379875  35.0971506  27.1210900  73.3555448  35.0718392  26.2683192
  74.2729544  35.5670444  27.1599809  73.6193939  35.1632868  27.0008818
  76.6025627  31.8156509  33.6293008  77.3265599  31.8009539  34.1157903
  76.7041763  32.5251864  33.1314977  76.7243836  31.9181212  33.6271795
  73.5050785  31.9765007  27.2709966  74.0824288  31.8401457  27.9102212
  72.8064847  31.5200791  27.5255551  73.4871807  31.8887273  27.4032256
  68.9809619  30.8276900  23.9857785  69.0669871  30.4508768  24.7671315
  69.6085416  30.4537345  23.5077743  69.0866170  30.7162382  24.0303262
  74.5685577  39.5968633  28.0389146  74.6089723  39.8683484  27.2108925
  75.1280101  40.1210541  28.4546933  74.6568923  39.7144388  27.9781034
  76.0200164  38.1810582  22.8643072  75.1938281  38.4272319  22.7377350
  76.0812155  38.1022662  23.7305130  75.9074331  38.2055531  22.9732016
  78.2376187  24.2479523  23.8238512  77.3698613  24.3202122  23.8896121
  78.5251392  25.0501601  24.0126487  78.1515935  24.3773670  23.8613278
  78.7404908  42.7754844  23.6322251  78.5205204  42.4852199  24.4248918
  78.5199430  42.1169799  23.1040164  78.6752502  42.6354553  23.6711160
  77.6521855  34.8628161  25.8977953  77.3635104  34.2365632  26.4323680
  78.5205203  34.8048448  25.9642633  77.7382107  34.7615705  25.9868907
  77.8554129  36.5023412  21.8220318  78.6100097  36.8836451  22.0355780
  77.2624741  36.9534555  22.2767014  77.8790842  36.6252239  21.9203196
  76.1643539  27.7237782  21.2655388  75.8768335  27.3539052  20.5287335
  76.8514008  28.1932637  21.0039093  76.2232437  27.7384751  21.1170464
  76.6504828  33.9948802  31.8176933  77.1625925  34.2733056  31.1685692
  76.3641170  34.7338097  32.1839746  76.6839691  34.1451156  31.7766811
  73.7371734  28.5018994  22.1140669  73.8387871  29.3045156  22.4421644
  74.5327621  28.3006330  21.8163750  73.8699640  28.5904893  22.1176024
  74.5535466  28.6166173  29.8561791  74.4120958  27.7650113  29.9806299
  74.8376030  28.6594833  29.0323997  74.5743312  28.4965923  29.7529415
  75.3225771  26.5296520  33.1739241  74.7867961  25.9176878  33.4900008
  75.3843536  27.1044656  33.8272908  75.2521404  26.5243448  33.3174668
  77.4414527  33.9377254  22.9859296  77.5979146  33.8724057  23.8415288
  77.7815120  34.7125807  22.7737975  77.5147762  34.0426452  23.0813890
  74.0148789  31.1212205  23.3020063  74.3947754  31.5396750  22.6380330
  73.4404154  31.7025660  23.6088906  73.9860114  31.2690064  23.2496804
  77.6579590  32.6872609  27.9335557  76.8167597  32.5876484  28.1414451
  77.8669598  33.4568090  28.2849878  77.5644283  32.7864653  28.0162872
  75.1355157  30.3092146  25.7620308  74.7411855  30.3835158  24.9870418
  74.5795274  30.6950093  26.3128670  74.9957970  30.3773921  25.7287968
  77.5488398  35.0816372  29.3527190  76.9576331  35.7225870  29.3230205
  78.3109422  35.5053989  29.3258490  77.5736659  35.2392210  29.3442337
  77.9449021  26.2418369  30.0195208  78.4050503  26.3157299  30.7570332
  77.9905128  27.0399624  29.6695029  78.0199576  26.3712517  30.0767964
  74.7336799  29.8707560  32.3946924  75.5962412  29.7703269  32.3084254
  74.4028582  29.2902269  31.8332496  74.8121995  29.7699187  32.2992330
  78.0938585  28.6950009  29.0557342  77.4691655  28.7068401  28.4483295
  77.7584180  29.1710184  29.7048582  77.9524077  28.7668526  29.0613911
  78.2780333  27.0375128  15.1130027  77.9293138  27.6894853  15.5761577
  77.7976779  27.0232241  14.3853898  78.1550577  27.1318181  15.0741118
  74.8064260  36.7550469  30.4961106  74.2764185  36.0642908  30.5456081
  75.0789354  36.7460655  29.6673815  74.7688983  36.6517601  30.3808522
  77.3629330  30.3043157  31.2732211  77.5222817  29.5486481  31.6783933
  77.1822224  30.8534096  31.9272948  77.3594689  30.2736971  31.4294917
  70.0860102  33.4278233  27.8529455  69.9803552  33.3825078  26.9881539
  69.3360322  33.7732014  28.1343740  69.9595705  33.4719142  27.7666784
  78.0851982  24.8786959  35.7322365  78.7104685  24.3349092  36.0051797
  77.6302461  24.3981877  35.1630155  78.1100242  24.7276441  35.6883959
  75.1857452  32.7268610  21.2238195  75.6949682  33.3233117  21.6049500
  75.6591725  32.4594583  20.5414614  75.3300828  32.7754425  21.1792717
  77.5447984  29.3624868  24.0911375  76.8259973  29.7789001  24.3584239
  77.9160346  29.9279107  23.5403013  77.4939916  29.5074150  24.0494182
  75.3237318  28.6574421  35.1113967  75.1539908  29.3175796  34.5662173
  74.8803268  28.8680982  35.8326456  75.2336652  28.7860403  35.1375596
  72.2239383  31.5621287  30.3702456  71.6766102  30.8921932  30.4883325
  73.0131761  31.1951135  30.4345924  72.2591566  31.4086273  30.3971157
  70.9826352  30.7742095  27.5248480  70.8048113  30.3218703  28.2503395
  70.6945374  31.5768256  27.7086957  70.9139305  30.8264652  27.6591982
  72.7198822  33.3069818  24.6370239  71.8544342  33.2955509  24.5253010
  72.8197638  33.1200041  25.4841378  72.6072989  33.2775879  24.7459183
  78.3455832  43.0767717  28.2100344  78.6602391  43.8904105  28.2178126
  78.7549245  42.6917936  28.8782503  78.4523930  43.1396419  28.3104436
  75.6868852  37.0240825  27.8578953  76.2913709  36.9836659  27.2292773
  75.4796165  37.8711977  27.8883008  75.7457749  37.1428828  27.7695069
  70.9220134  36.0075443  27.7277876  70.8244412  35.1971714  28.0367932
  71.7049004  35.9867236  27.3424144  71.0236271  35.8842533  27.7164739
   4.5146084  22.7492036  60.9629286   4.4840088  23.6036673  61.1347556
   5.1127433  22.4487329  61.5215430   4.5983242  22.8308533  61.0704089
   2.3362658  25.3244338  59.2347596   2.2202184  26.0752024  59.6639734
   3.1318545  25.0668292  59.4843683   2.4367248  25.3979185  59.3351688
   0.9910397  22.6736777  59.0459621   0.4621869  22.8896410  59.7056927
   1.5135417  23.3672915  58.9660590   0.9898850  22.8079914  59.1315220
   6.4458450  28.2483081  64.4192666   5.6156153  28.4593725  64.5826082
   6.3967702  27.4220136  64.1434949   6.3165185  28.1572688  64.4030031
   3.7022765  28.9182436  64.5557381   3.2657997  28.9219178  65.3116353
   3.3685681  29.5987935  64.1236959   3.5885385  29.0194891  64.6038214
   6.8367111  25.6363356  63.4477019   7.4983546  25.0754024  63.3472927
   6.1958523  25.1415386  63.7729710   6.8395979  25.4799765  63.4809359
   3.1231942  26.6528738  63.1889007   3.3587531  26.7973937  62.3615858
   3.2721506  27.4171146  63.5820521   3.1797745  26.7867792  63.1252611
   4.9522399  25.4930404  61.0258611   5.2830616  26.0258044  60.4198706
   5.5255487  25.5469292  61.6820562   5.0856078  25.5799973  61.0336393
   2.4165175  27.7894370  60.6829143   2.9823208  28.4487580  60.5987686
   1.7693079  28.1344068  61.1545545   2.4043932  27.9376311  60.7401899
   3.6127873  27.8400598  57.4754779   3.2334682  27.0537736  57.4684069
   2.9494118  28.3887455  57.3326424   3.4586348  27.8045422  57.4535576
   1.8587972  30.0846089  57.8106465   1.9407809  30.8913075  57.4867916
   2.3437714  30.1042048  58.5347239   1.9425130  30.2066751  57.8693364
   5.9960892  27.6906409  58.8698925   6.3794498  28.4397765  59.0997022
   5.2005005  27.9372229  58.6110914   5.9354674  27.8376103  58.8656499
  15.4878667  38.2677344  60.9629286  15.4572672  39.1221981  61.1347556
  16.0860016  37.9672637  61.5215430  15.5715825  38.3493841  61.0704089
   8.6878352  37.3552995  65.7182217   7.8316248  37.5161493  65.7691334
   8.7346006  36.4845059  65.7387278   8.5677464  37.2503797  65.7288283
   3.0719492  46.8915713  61.4819448   2.3202392  46.5131251  61.2535493
   3.5205504  46.9234147  60.7338259   3.0269159  46.8401320  61.3376950
  11.9972069  43.6239521  75.3242673  12.7038836  43.1291552  75.4529607
  12.1860004  44.0648602  74.5945331  12.1299974  43.6157871  75.2351718
   8.5244452  47.3141083  56.9104995   8.1895820  47.9918004  56.4749218
   9.0371322  46.9246394  56.3221867   8.5510033  47.3565661  56.7591787
   8.0648743  49.2655351  62.8516107   8.4488123  49.8342250  62.3120882
   8.0007884  48.5404862  62.3721923   8.1122170  49.2430815  62.7009970
  11.5330173  39.4145039  68.3613868  12.0786133  40.0930126  68.4207838
  11.4747050  39.2732500  67.5015450  11.6046088  39.4937041  68.2425929
   4.6504248  46.9034105  63.7482221   4.7514611  46.0934459  64.0579349
   4.0545993  46.8091052  63.1181899   4.5776787  46.7699133  63.7008459
   4.4904988  51.8211694  65.1497077   5.1342443  52.2624858  65.5393235
   4.8161243  51.0165121  65.0627336   4.6336816  51.7676889  65.1942554
   5.1925568  44.8323669  60.5216939   5.5141409  45.3728877  59.9178247
   5.8397664  44.2620441  60.6539228   5.3351623  44.8282844  60.4523974
   7.2427276  36.8339664  60.6051325   7.9407440  37.0127792  61.0972789
   7.5579608  36.3110004  59.9821715   7.3922613  36.7833436  60.5853335
   7.4315211  43.2210109  60.5931117   7.8708846  42.6127210  61.0385890
   7.2819874  42.8417483  59.8216582   7.4736677  43.0748580  60.5450284
   4.8986854  41.8154121  67.7949942   5.5435856  41.3226564  67.4760891
   5.1388631  41.9578908  68.6216021   5.0297439  41.7631563  67.8699475
   7.4372945  44.6609027  67.4456835   7.7196188  43.8660433  67.2243591
   8.1659106  45.1389614  67.4661896   7.5862509  44.6143624  67.4159850
   5.4154139  32.2032061  64.6872600   5.0857469  32.6543204  64.0176299
   4.7399141  32.1248224  65.2345606   5.2664575  32.2583196  64.6695823
  11.0324548  41.5737291  57.5461886  10.9475843  42.4298257  57.6911455
  11.5208931  41.2981615  58.2144045  11.0913445  41.6594612  57.6663967
  12.6230547  28.1917584  62.9322211  12.3083988  28.8821062  63.3642633
  12.1057489  28.1362366  62.2307711  12.4995017  28.2852472  62.8919160
  11.9642981  38.1922085  59.0459621  11.4354452  38.4081718  59.7056927
  12.4868001  38.8858223  58.9660590  11.9631434  38.3265222  59.1315220
  17.4191034  43.7668389  64.4192666  16.5888737  43.9779033  64.5826082
  17.3700286  42.9405444  64.1434949  17.2897769  43.6757995  64.4030031
   3.8542589  42.0885301  57.8467089   3.2699804  42.5935333  58.2532953
   3.4512684  41.8627688  57.1063681   3.7081892  42.1293550  57.7972114
   5.4800771  46.5972243  67.2540575   4.9627713  46.2379658  66.6501883
   6.1775162  46.0734418  67.2646641   5.5066352  46.4669931  67.1670834
   9.1364363  47.0467057  73.2156748   9.2247709  46.8593198  74.0634958
   9.5654076  46.4004487  72.8161595   9.2126466  46.9230065  73.2828500
   8.3119803  38.3350954  56.3236010   8.5515807  38.5428937  55.5111353
   8.6335644  37.5308462  56.4324954   8.3956961  38.2465055  56.2196563
   3.6210093  30.2644349  60.1695548   4.3756061  30.6322666  59.9312598
   3.4437628  30.6383904  60.9374727   3.7064572  30.3742537  60.2480436
   2.2630814  48.3196239  64.8011040   2.9651394  47.8048228  64.8583797
   2.1828298  48.6470390  65.6057916   2.3554575  48.2910465  64.9283833
  16.9144992  36.4138790  68.2143087  16.0773413  36.4840977  68.4490681
  16.8833223  36.4163285  67.3417389  16.7863274  36.4249017  68.1202635
   1.9767158  32.6714668  56.8673661   1.7942731  32.8886549  56.0414653
   2.8392771  32.7853681  56.9232275   2.0771747  32.7204566  56.7528148
   1.5881590  44.5102591  64.3096648   2.4270489  44.7425523  64.3570410
   1.6193359  43.6406902  64.2403684   1.7163307  44.4159537  64.3061293
   2.2134293  44.9303466  68.6109954   2.7532518  44.7874597  69.2813326
   1.5304239  45.3300217  68.9793980   2.1926447  44.9683137  68.7644376
   7.6566877  29.6741079  59.9022684   8.3853038  29.4957034  59.4560841
   7.7461770  30.5159159  60.1129863   7.7773539  29.7724957  59.8676202
  11.6375178  40.6094466  63.8054978  12.3932693  41.0425981  63.8443887
  11.7437502  39.9599236  64.3789614  11.7645348  40.5771950  63.8953004
  14.6755349  44.4367744  64.5557381  14.2390581  44.4404486  65.3116353
  14.3418264  45.1173243  64.1236959  14.5617969  44.5380199  64.6038214
  14.5952832  31.4781571  66.7986809  15.2378740  31.5479676  67.3848725
  14.8475852  30.8110794  66.2966351  14.7274964  31.3907920  66.8114089
   1.5229185  35.9488841  55.3796134   0.8087362  35.6627020  55.7918566
   2.0073154  36.2885467  56.0202521   1.4888548  35.9570491  55.5351769
   9.4054816  48.3886178  69.5266987   8.6070062  48.1485679  69.7840856
   9.8540827  48.4400571  70.2734035   9.3529427  48.3608570  69.6751912
  17.8099695  41.1548663  63.4477019  18.4716129  40.5939332  63.3472927
  17.1691107  40.6600694  63.7729710  17.8128563  40.9985073  63.4809359
   8.6976503  44.4518795  55.7557942   9.1127651  44.1203819  55.0642438
   7.8668432  44.2187697  55.6278079   8.6364512  44.3690051  55.6348789
  14.0964526  42.1714046  63.1889007  14.3320115  42.3159245  62.3615858
  14.2454089  42.9356454  63.5820521  14.1530329  42.3053100  63.1252611
  15.9254983  41.0115712  61.0258611  16.2563200  41.5443352  60.4198706
  16.4988071  41.0654600  61.6820562  16.0588662  41.0985281  61.0336393
  11.1386872  38.8580615  61.7082191  11.2333726  39.5969909  62.1621817
  10.5145715  38.4298090  62.1416756  11.0595902  38.9041935  61.8390339
   9.3939345  42.0366827  72.3572472   9.9678207  41.3994071  72.5121036
   9.3154149  42.0370910  71.4882130   9.4672580  41.9431939  72.2518883
  11.3909893  40.7029354  54.9419143  11.3090055  40.7731541  55.8074130
  12.0289613  41.2659098  54.7502884  11.4729730  40.7968325  55.0409093
   4.7503064  40.4690092  64.4093670   4.4922308  39.6361827  64.3824969
   4.8051547  40.6947705  63.5686170   4.7202842  40.3787864  64.2813806
   9.8304114  32.5718543  64.5097762   9.1260441  32.0827728  64.6681681
   9.8789089  32.5841017  63.6386207   9.7334166  32.5008191  64.4037102
   3.7237776  38.0227855  64.8958564   3.1487368  38.1820023  65.5322525
   3.3473453  37.3863264  64.4327015   3.5840589  37.9525668  64.9213123
   7.3911065  36.4951204  69.7550943   7.0025498  36.0705422  69.1003134
   6.7265763  36.7433354  70.2627969   7.2357993  36.4689925  69.7338811
  17.0334334  36.2526209  62.5298773  16.7770899  35.4406150  62.3396656
  17.8763648  36.2603776  62.3028960  17.1200359  36.1338206  62.4683590
  11.2137426  30.1925833  67.2674927  11.5947938  29.5104004  67.6542801
  10.4100711  29.9035435  67.0850591  11.1513888  30.0492881  67.2978983
   8.4950003  40.7249809  57.9527750   9.3090642  41.0164701  57.8410521
   8.4309144  40.0709671  57.3786043   8.6052742  40.6715003  57.8516587
  14.7159493  43.4075805  72.3657325  14.4798131  42.5763870  72.2469386
  15.3602722  43.3561412  72.9512170  14.7754164  43.2773493  72.4343219
   4.3657911  44.1971326  63.0800062   5.0031858  43.9583074  63.6251855
   4.7912983  44.4008485  62.3453222   4.5234078  44.1922336  63.0517219
   5.0060726  39.4173616  57.4174951   5.3905879  39.1981323  58.1691496
   4.7572347  40.2436561  57.5476028   5.0262799  39.5071762  57.5476028
  15.7395914  43.1920253  68.4285620  15.4341731  43.9248310  68.7898935
  15.0202130  42.7858183  68.1478406  15.5883256  43.2401986  68.4398757
   6.7479383  44.6743749  64.7593848   6.8218392  44.5118921  65.6135698
   7.5648890  44.8633938  64.5154330   6.8795742  44.6780491  64.8491874
  21.4397706  39.8313254  67.7553964  21.3722206  39.8509213  66.8856551
  21.4253368  40.6743581  67.9809635  21.4276463  39.9586989  67.6606441
   2.7261164  31.0870553  62.7483732   1.8583589  31.1593152  62.8141341
   3.0136368  31.8892631  62.9371707   2.6400912  31.2164700  62.7858498
  11.8494053  31.2348412  71.0795054  12.5947645  31.0458222  70.6658479
  11.4331357  31.7606650  70.5208910  11.8979027  31.2850557  70.9359627
   5.2883969  47.6378492  59.4907321   5.5782267  47.2467473  58.7666548
   6.0187450  47.8195197  59.9312597   5.4390853  47.6072306  59.4490129
   5.8778714  42.4396238  70.5760452   5.3790408  43.1512005  70.6545340
   6.6878939  42.7596904  70.5378614   5.9234821  42.5923086  70.5817021
   3.2289885  49.6145874  62.5567471   3.0090180  49.3243229  63.3494138
   3.0084407  48.9560829  62.0285384   3.1637479  49.4745583  62.5956380
   2.1406832  41.7019191  64.8223173   1.8520080  41.0756662  65.3568900
   3.0090180  41.6439478  64.8887853   2.2267084  41.6006735  64.9114127
  12.9284730  36.8453974  65.1405155  12.5849496  36.1244309  65.4912404
  13.0277772  36.6367825  64.2983513  12.8926772  36.7078177  65.0676835
   5.3957840  50.9875264  61.3398164   6.0481898  50.4551706  61.5689190
   4.6983449  50.6343916  61.7266038   5.3888558  50.8564787  61.4310331
   2.3439105  43.3414442  60.7465538   3.0985073  43.7227481  60.9601000
   1.7509718  43.7925585  61.2012234   2.3675819  43.4643269  60.8448416
  13.3897759  43.3079678  60.6829143  13.9555791  43.9672888  60.5987686
  12.7425662  43.6529376  61.1545545  13.3776515  43.4561619  60.7401899
   3.6637332  44.5123003  66.1205653   3.1418085  44.6523295  66.8057518
   4.0511352  43.7533667  66.3107771   3.6441033  44.4208527  66.2506730
   9.8604337  46.2518462  60.1066222   9.6191013  45.5186323  59.6993287
  10.0405670  46.8005319  59.4532555   9.8511961  46.2240853  59.9496445
   5.0903657  41.5427022  61.5187144   4.8946440  42.1501757  60.9247447
   5.3138003  40.8494966  61.0378818   5.0938298  41.5304548  61.3603225
   3.4882187  38.4281760  61.6368013   4.2104839  38.5922918  61.1771819
   3.0090180  39.1491425  61.5307352   3.5245918  38.5579990  61.5533627
  11.4475695  34.7645559  67.0164698  10.6086796  34.7906838  66.7802961
  11.5180062  35.4116294  67.5970044  11.3344089  34.8641685  67.0673815
   9.8944973  31.6630936  61.7492314  10.5971326  31.4638684  61.2712272
   9.6289162  30.8906878  62.0561157   9.9591606  31.5193902  61.7237755
  15.3233219  39.9713546  64.3025939  15.2367193  40.1268972  65.1560718
  14.8683699  40.6151621  63.9285344  15.2436476  40.0889301  64.3733046
   9.1959035  37.2924293  62.9251499   8.9493749  37.2120044  63.7588288
   9.5244158  36.5077761  62.7314026   9.2080279  37.1650558  63.0199022
  13.0907084  44.0007652  66.7138280  12.9521443  44.6988698  67.2187023
  12.3107082  43.8456308  66.3574462  12.9550311  44.0807819  66.7364554
  11.4285169  40.3004027  72.9660662  11.4233207  39.4283844  72.9703088
  12.1346163  40.4992197  72.4930118  11.5330173  40.2007902  72.8967697
   5.1556062  40.0281011  72.3374482   5.2999438  40.6082219  71.7017592
   5.5031711  40.4057308  73.0424337   5.2283524  40.1701715  72.3473477
   7.3275980  39.2271180  70.1199614   6.5799294  39.4202194  69.7147892
   7.4817505  38.4016399  69.8823735   7.2398407  39.1336291  70.0245019
   4.2283817  48.2183783  69.2035509   4.3773381  47.6586699  68.5508913
   5.0083819  48.2975785  69.5868028   4.3657911  48.1469349  69.1632458
  14.5860457  43.3585906  57.4754779  14.2067265  42.5723044  57.4684069
  13.9226702  43.9072763  57.3326424  14.4318931  43.3230730  57.4535576
   6.7537118  48.3898426  70.4820000   6.6780789  47.7207237  71.0370788
   6.6826977  49.0916214  70.9960666   6.7317725  48.3943333  70.6396848
  12.0405083  26.3011606  64.8788860  12.1588651  26.7588069  64.1456163
  11.8667258  25.4956867  64.5925078  12.0324254  26.2505378  64.7289794
   7.4107365  46.9099425  61.3143606   8.1757256  46.6409069  60.9926270
   7.3085455  46.4249435  62.0313668   7.5088860  46.7988989  61.3723433
   5.4460135  35.1123834  67.8536841   4.6556209  34.9315294  68.1754177
   5.8420757  34.3350787  67.8367136   5.3877011  34.9711295  67.8989390
   9.9326025  43.9411609  53.2943555  10.6999010  44.0011734  52.8849407
   9.4857334  43.3692050  52.8099873   9.9799453  43.8648184  53.1621265
  10.8303821  42.7466264  65.5796287  10.1548823  42.5151497  66.0809674
  10.8396197  42.1387447  64.9538392  10.7322325  42.6225190  65.5612440
   7.9597965  37.5884093  72.3360340   7.8957106  38.4494050  72.2080477
   8.0995153  37.2716087  71.5355892   7.9713435  37.6684260  72.1988553
  12.8320555  45.6031397  57.8106465  12.9140393  46.4098383  57.4867916
  13.3170298  45.6227356  58.5347239  12.9157713  45.7252059  57.8693364
   6.6417059  40.2816233  66.4776543   6.2179308  40.4820732  65.7415562
   6.4661914  39.4345081  66.5900843   6.5527939  40.1865014  66.3850233
   1.9299504  40.7768284  61.9104516   2.0864123  40.7115087  62.7660508
   2.2700097  41.5516837  61.6983195   2.0032739  40.8817482  62.0059110
   8.4678648  40.1526168  60.7797879   9.0094194  39.6496549  61.2436499
   8.7825207  40.0991362  59.9687364   8.5943045  40.0705589  60.7281691
  12.3395756  44.3628815  77.8924791  13.1530621  44.0913964  78.0529924
  12.1790722  44.0636355  77.0884987  12.4365704  44.2783741  77.7970197
   6.6365098  45.5443519  58.0637907   6.7057918  44.6858058  58.2030907
   7.4153553  45.7615400  57.7356932   6.7617948  45.4496383  58.0355064
   9.6167918  35.0462472  70.8320179   9.8309887  34.4073386  70.2783533
   9.0001817  35.4908296  70.4028041   9.5573247  35.0172616  70.6870610
  11.0272586  47.9681221  62.2774400  10.6352377  47.6647936  61.5597266
  11.1825658  48.8050311  62.0879354  10.9926175  48.0465057  62.1430897
  11.7807006  36.6551537  71.7703486  10.9683687  36.3477428  71.8516659
  12.2396940  36.1750538  72.3346199  11.7287390  36.5388030  71.8658081
  11.1912260  44.5331209  62.2180431  10.8326915  44.7045852  62.9944463
  10.7050971  44.9944415  61.6608429  11.0670957  44.6270180  62.2505700
   9.0082646  28.1562408  65.8207522   8.1376204  28.1301129  65.7740832
   9.2622988  27.9839600  65.0033368   8.9176206  28.1272552  65.6927659
   5.9800626  40.2130375  54.7580665   6.2693151  40.9895257  55.0324239
   6.0672425  39.7019106  55.4595164   6.0354882  40.2522293  54.9023163
   6.0331787  30.1668636  67.2780993   5.5170275  29.4748828  67.4032572
   5.4725716  30.8339413  67.2243591   5.8738300  30.1631894  67.2887059
  12.3517000  45.4235105  73.1647632  12.9896720  44.9295301  72.8310088
  11.7091091  45.3512506  72.5799859  12.3511226  45.3394114  73.0289987
  14.0774000  37.2724251  67.7313547  13.6501608  37.1850600  66.9761647
  13.4400053  37.3802027  68.3168391  13.9203607  37.2756911  67.7058989
  12.4071256  46.1154914  69.8052988  13.1963634  45.7643978  69.9255070
  12.5814854  46.9291302  69.5429622  12.5491538  46.1840771  69.7840856
   2.1464567  39.5263639  66.8580777   1.3052573  39.4267514  67.0659671
   2.3554575  40.2959120  67.2095098   2.0529259  39.6255683  66.9408092
  11.2605080  30.1264470  64.3669407  11.4654674  30.0586778  65.2126404
  10.9331504  30.9323292  64.2990584  11.2420328  30.2350411  64.4829062
   5.9581232  37.4545039  66.1078375   5.6544369  36.9001027  66.7088782
   5.2560652  37.6337249  65.6206409   5.8097441  37.3989821  66.1248080
   5.0147329  34.7645558  60.6723077   5.2907063  34.0464471  60.2600644
   5.6145998  35.3630478  60.4644183   5.1440593  34.7465929  60.5803838
  14.5138768  30.6796235  63.8472172  13.9013082  31.1666637  64.2325904
  14.6102943  30.0039725  64.3909823  14.4376666  30.6514543  63.9851031
   8.5157849  32.4359076  58.9469672   8.9701596  32.6069636  59.6717516
   8.9897895  31.8227186  58.5467447   8.6526169  32.3709961  58.9943433
   2.0373375  41.9207402  68.2772410   1.4461308  42.5616900  68.2475425
   2.7994398  42.3445019  68.2503710   2.0621635  42.0783240  68.2687557
  18.1563796  41.7513171  69.2749688  18.2146920  42.1999820  70.0209665
  17.5230264  42.1611984  68.8379768  18.0715091  41.8786906  69.3202237
  11.7962891  47.3716713  65.7104435  11.5982579  47.8607528  65.0160646
  11.1750602  47.5757955  66.2888568  11.6750455  47.4733252  65.6927658
   5.8570869  39.1401610  60.0514679   6.6012914  39.5275886  60.2897629
   6.0031565  38.2959035  60.2155167   5.9881454  39.0732083  60.1108649
   7.7750445  30.9351869  65.0846540   6.9286490  31.1074677  64.9587890
   7.7721577  30.1301213  65.4212369   7.6497595  30.8412898  65.1157667
   8.8448745  34.7127083  65.9508598   8.3708699  34.1868845  66.4613909
   9.2166881  34.1656556  65.3823460   8.8298634  34.5543080  65.9423745
  15.1085476  39.7729459  67.3615379  14.8683698  38.9335874  67.3657805
  15.5877483  39.8529626  68.0856152  15.1437659  39.6610859  67.4690181
  17.1090663  36.5530916  65.3144638  16.8700433  36.5126750  64.4765422
  17.2724564  37.4002068  65.4410359  17.0980966  36.6723001  65.2098120
  13.7136693  40.9380866  71.2449683  14.4370892  40.4853392  71.0660703
  13.4486655  41.2185531  70.4622011  13.7817966  40.9131834  71.1028398
   2.5823561  35.5341039  67.9802562   1.9576631  35.5459431  67.3728515
   2.2469156  36.0101214  68.6293802   2.4409053  35.6059556  67.9859131
   2.7665310  33.8766158  54.0375247   2.4178114  34.5285883  54.5006797
   2.2861756  33.8623271  53.3099118   2.6435554  33.9709211  53.9986338
  10.3269327  44.1767202  58.1444009  11.0503526  44.6425315  58.0008582
   9.8869918  44.2440811  57.3941606  10.3685019  44.2551038  58.0128790
   9.4955482  41.0364744  69.3944698   8.8812475  40.4922794  69.6893333
  10.0122767  40.5228980  68.9150514   9.4811145  40.8801153  69.3668926
   8.7351779  42.1069014  67.1288997   8.3079387  41.4818732  66.6954432
   8.7276724  41.8243936  67.9548004   8.6710921  41.9721794  67.1868824
   7.0637489  32.9837768  67.3431531   7.0879976  32.4497881  66.6544311
   7.3148963  32.4755077  68.0057121   7.1047408  32.8298672  67.3396175
   3.3438811  31.7108587  66.7237275   3.3837183  32.2117793  67.4371982
   2.5188476  31.8018980  66.4543198   3.2278337  31.7990403  66.7887813
   4.7653175  38.2269096  69.0211174   3.9345104  38.3942914  68.8146422
   4.7104692  37.8505047  69.8060059   4.6342590  38.1958828  69.1059702
   3.1389219  36.5024688  59.5501292   3.2792180  36.9997152  60.2529933
   3.6371751  35.8010982  59.6915505   3.2330299  36.4726667  59.6752871
   3.1689441  37.3691799  56.8793869   3.8034520  37.9652224  56.8143330
   3.2515052  37.0695257  57.6939739   3.2745992  37.4132707  56.9896955
  16.1472007  39.9007276  69.7480233  16.7389847  40.5404527  69.7798431
  16.5831001  39.2030313  70.0372300  16.2990438  39.8925627  69.7961065
   4.7468424  33.3005774  56.8539311   5.0684265  32.8208857  56.1998573
   5.0095368  34.1105420  56.6630122   4.8334449  33.3495672  56.7294803
   7.9765397  44.3224649  70.3738127   7.4690488  44.8760496  70.8178757
   7.6792043  44.3832939  69.5556901   7.8570282  44.4130960  70.3186583
  10.1427579  32.6877968  69.2162790  10.5682650  32.2350495  68.6046316
   9.5284572  32.1338039  69.4927577  10.1156224  32.5391945  69.1667815
  10.5873177  48.2387906  58.3042070   9.8702487  48.0648769  57.8389307
  11.2379914  48.0040479  57.7717556  10.5775027  48.1783699  58.1571288
   8.5821802  29.1593068  62.6253367   7.9390120  29.0090715  63.1938505
   8.2421209  28.9135413  61.8602471   8.4366879  29.1005191  62.5956382
  13.1721148  37.1152495  62.0483375  12.5012338  37.6582197  61.9196441
  13.8660898  37.5847350  61.8065070  13.1750016  37.2650766  61.9938903
   7.2207882  49.2549207  67.2795134   6.9973536  48.4968036  67.6479160
   6.7317725  49.2847228  66.5575573   7.1151331  49.1471432  67.2271874
  13.3349276  33.5708379  64.9573748  13.6876886  33.1438102  65.6319547
  12.4764077  33.4859222  65.0874825  13.2598720  33.4953119  65.0768759
   2.0332961  36.2015898  63.0156595   1.3144950  36.6180031  63.2829459
   2.4045323  36.7670137  62.4648233   1.9824892  36.3465180  62.9739402
  11.3332541  36.8343747  68.9058591  11.3130469  36.6527042  69.7593370
  11.3811742  37.7055766  68.8818174  11.3367182  36.9360286  69.0281885
   9.2778871  43.4230939  74.8307067   9.2374726  42.7780616  74.2452223
  10.0902189  43.3667557  75.1432479   9.3922025  43.3189906  74.7904016
   5.8686339  49.4749665  64.7332218   5.4546737  48.8123795  64.3436060
   6.5533713  49.6227524  64.2127912   5.9084710  49.3990323  64.5988715
   9.2351633  48.6339750  65.4855835   8.8367916  48.7442021  64.7176655
   8.6202852  48.8421817  66.0682395   9.0850522  48.6813318  65.4587134
   7.8079535  35.2413898  58.3529974   7.2144374  35.5630895  57.8014541
   7.8454813  34.3954994  58.1451081   7.7253924  35.1638226  58.2412746
  14.7673336  28.6926790  65.8858061  14.2604200  27.9855930  65.8179238
  15.5640769  28.3619979  66.0159138  14.8100575  28.5399942  65.8957056
  10.6837352  35.1993403  61.7831725  10.4551045  35.2226104  60.9410083
  10.9435428  34.3750870  61.9026735  10.6883540  35.0809483  61.6756922
   3.7382114  33.7369949  63.0785920   4.2139480  34.0987029  62.4436101
   3.2370714  34.3926417  63.3586063   3.7347473  33.8864138  63.0262661
  16.9693476  43.2091717  58.8698925  17.3527081  43.9583073  59.0997022
  16.1737589  43.4557537  58.6110914  16.9087258  43.3561411  58.8656499
   5.7808767  35.8811149  56.4459304   6.1607732  35.8990778  55.6610419
   5.0401363  36.3265138  56.3250152   5.7277605  35.9492923  56.3122872
  13.4094058  34.1893340  62.0334883  13.4088284  34.0341997  62.8919159
  13.2050238  35.0356327  61.9776269  13.3793836  34.2913961  62.1522822
  11.1334910  38.8690842  65.6871090  11.6288575  38.1513837  65.6475110
  10.3234685  38.5661640  65.5725577  11.0878803  38.7188488  65.6644816
   6.5793521  42.7188655  57.8368094   5.7704844  42.3955329  57.7901404
   7.0868430  42.0121877  57.7696343   6.5343188  42.5669971  57.8198389
  13.1986729  41.6194529  68.3748219  13.6241800  41.0968951  67.8218644
  12.8343648  42.2175367  67.8536842  13.2073331  41.6304756  68.2157228
   2.8340808  49.9158747  67.1345564   3.1487367  50.7295135  67.1423346
   3.2434222  49.5308966  67.8027723   2.9408906  49.9787449  67.2349656
   9.7865328  45.3328794  64.7049376  10.2576506  46.0469056  64.8739361
  10.1225507  44.7327544  65.2409246   9.9060443  45.3500258  64.8081752
  10.4239274  45.1246728  71.4677069   9.8760220  44.5004611  71.1997134
  10.8852303  45.3141000  70.7521148  10.4106484  45.0605778  71.3227500
  13.2333139  33.1932082  68.8528261  12.6496128  33.6941289  68.4405828
  13.5537433  32.6861638  68.2192584  13.1946314  33.1923917  68.6986768
   5.7727938  32.1072677  59.1286936   6.5943632  32.2770990  58.8868631
   5.3097589  32.2619938  58.4053233   5.8259100  32.1554410  58.9858580
   9.9897601  46.1297800  67.9986410  10.8095974  45.9860766  68.2602705
   9.7091678  46.7543999  68.5402848  10.0694344  46.2008152  68.1174349
  26.4611251  53.7862652  60.9629286  26.4305255  54.6407289  61.1347556
  27.0592600  53.4857945  61.5215430  26.5448409  53.8679149  61.0704089
  19.6610936  52.8738303  65.7182217  18.8048831  53.0346801  65.7691334
  19.7078590  52.0030367  65.7387278  19.5410047  52.7689105  65.7288283
  14.0452076  62.4101021  61.4819448  13.2934975  62.0316559  61.2535493
  14.4938087  62.4419455  60.7338259  14.0001742  62.3586628  61.3376950
  22.9704652  59.1424829  75.3242673  23.6771420  58.6476860  75.4529607
  23.1592588  59.5833910  74.5945331  23.1032558  59.1343179  75.2351718
  19.4977035  62.8326391  56.9104995  19.1628404  63.5103312  56.4749218
  20.0103906  62.4431702  56.3221867  19.5242617  62.8750969  56.7591787
  19.0381327  64.7840659  62.8516107  19.4220706  65.3527558  62.3120882
  18.9740468  64.0590170  62.3721923  19.0854754  64.7616123  62.7009970
  22.5062757  54.9330347  68.3613868  23.0518717  55.6115434  68.4207838
  22.4479633  54.7917808  67.5015450  22.5778671  55.0122349  68.2425929
  15.6236832  62.4219413  63.7482221  15.7247195  61.6119767  64.0579349
  15.0278577  62.3276360  63.1181899  15.5509370  62.2884441  63.7008459
  24.2827826  56.3614954  59.2347596  24.1667351  57.1122640  59.6639734
  25.0783712  56.1038907  59.4843683  24.3832415  56.4349801  59.3351688
  15.4637571  67.3397002  65.1497077  16.1075027  67.7810166  65.5393235
  15.7893827  66.5350429  65.0627336  15.6069400  67.2862197  65.1942554
   8.8201876  58.4439700  63.3734554   8.5852060  57.6107352  63.2666823
   8.9587517  58.7244365  62.5595755   8.8057539  58.3623203  63.2376909
  11.1191964  50.6125430  66.2718862  10.4996995  50.0218078  66.1028877
  11.0175827  51.2036866  65.6383185  11.0129639  50.6129513  66.1523852
  16.1658151  60.3508977  60.5216939  16.4873992  60.8914185  59.9178247
  16.8130248  59.7805749  60.6539228  16.3084206  60.3468152  60.4523974
  18.2159859  52.3524972  60.6051325  18.9140024  52.5313100  61.0972789
  18.5312192  51.8295311  59.9821715  18.3655196  52.3018744  60.5853335
  10.8461097  54.1577712  68.5162431  10.7219793  54.7440158  69.1512250
  11.4979381  53.6637908  68.8174706  10.9234746  54.1716517  68.6548360
  18.4047795  58.7395417  60.5931117  18.8441430  58.1312518  61.0385890
  18.2552457  58.3602791  59.8216582  18.4469260  58.5933888  60.5450284
  15.8719438  57.3339429  67.7949942  16.5168440  56.8411872  67.4760891
  16.1121215  57.4764216  68.6216021  16.0030023  57.2816871  67.8699475
  18.4105529  60.1794335  67.4456835  18.6928772  59.3845741  67.2243591
  19.1391689  60.6574922  67.4661896  18.5595093  60.1328932  67.4159850
  16.3886723  47.7217369  64.6872600  16.0590053  48.1728512  64.0176299
  15.7131725  47.6433532  65.2345606  16.2397159  47.7768504  64.6695823
  22.0057131  57.0922598  57.5461886  21.9208426  57.9483565  57.6911455
  22.4941514  56.8166923  58.2144045  22.0646028  57.1779920  57.6663967
  23.5963131  43.7102892  62.9322211  23.2816572  44.4006370  63.3642633
  23.0790072  43.6547674  62.2307711  23.4727601  43.8037780  62.8919160
  22.9375564  53.7107393  59.0459621  22.4087036  53.9267026  59.7056927
  23.4600584  54.4043531  58.9660590  22.9364017  53.8450530  59.1315220
  28.3923617  59.2853697  64.4192666  27.5621320  59.4964341  64.5826082
  28.3432870  58.4590752  64.1434949  28.2630353  59.1943303  64.4030031
  14.8275172  57.6070609  57.8467089  14.2432387  58.1120641  58.2532953
  14.4245267  57.3812996  57.1063681  14.6814476  57.6478858  57.7972114
  10.3819201  63.3225371  64.6490761   9.8986779  64.0475860  64.6250344
  11.1942519  63.6201501  64.7600918  10.4309948  63.4727724  64.6618040
  16.4533355  62.1157551  67.2540575  15.9360296  61.7564966  66.6501883
  17.1507746  61.5919726  67.2646641  16.4798936  61.9855239  67.1670834
  20.1096947  62.5652365  73.2156748  20.1980293  62.3778506  74.0634958
  20.5386659  61.9189795  72.8161595  20.1859049  62.4415373  73.2828500
  19.2852387  53.8536261  56.3236010  19.5248390  54.0614245  55.5111353
  19.6068228  53.0493770  56.4324954  19.3689544  53.7650363  56.2196563
  14.5942677  45.7829657  60.1695548  15.3488645  46.1507974  59.9312598
  14.4170211  46.1569212  60.9374727  14.6797155  45.8927845  60.2480436
  13.2363398  63.8381546  64.8011040  13.9383977  63.3233536  64.8583797
  13.1560881  64.1655698  65.6057916  13.3287158  63.8095773  64.9283833
  27.8877576  51.9324098  68.2143087  27.0505997  52.0026285  68.4490681
  27.8565806  51.9348593  67.3417389  27.7595858  51.9434325  68.1202635
  14.2842305  54.0757133  73.9291456  14.4562808  53.9663028  74.7776737
  14.8211662  54.7211539  73.6922648  14.3887309  54.1549135  74.0196552
  12.9499741  48.1899976  56.8673661  12.7675315  48.4071857  56.0414653
  13.8125354  48.3038989  56.9232275  13.0504331  48.2389874  56.7528148
  12.5614173  60.0287898  64.3096648  13.4003073  60.2610831  64.3570410
  12.5925943  59.1592210  64.2403684  12.6895891  59.9344845  64.3061293
  13.1866876  60.4488774  68.6109954  13.7265101  60.3059905  69.2813326
  12.5036823  60.8485524  68.9793980  13.1659030  60.4868445  68.7644376
  18.6299461  45.1926387  59.9022684  19.3585621  45.0142342  59.4560841
  18.7194354  46.0344467  60.1129863  18.7506123  45.2910265  59.8676202
  22.6107761  56.1279774  63.8054978  23.3665276  56.5611289  63.8443887
  22.7170086  55.4784544  64.3789614  22.7377932  56.0957258  63.8953004
  25.6487932  59.9553052  64.5557381  25.2123164  59.9589794  65.3116353
  25.3150848  60.6358551  64.1236959  25.5350552  60.0565507  64.6038214
  25.5685415  46.9966879  66.7986809  26.2111324  47.0664984  67.3848725
  25.8208436  46.3296102  66.2966351  25.7007547  46.9093228  66.8114089
  12.4961768  51.4674149  55.3796134  11.7819946  51.1812328  55.7918566
  12.9805737  51.8070775  56.0202521  12.4621132  51.4755799  55.5351769
  13.3402628  50.2067443  71.4111383  12.6474425  49.7364422  71.6572115
  13.9562955  49.9805747  71.9853090  13.3287158  50.1034575  71.5320536
  20.3787399  63.9071486  69.5266987  19.5802645  63.6670986  69.7840856
  20.8273411  63.9585879  70.2734035  20.3262011  63.8793878  69.6751912
  28.7832279  56.6733971  63.4477019  29.4448713  56.1124640  63.3472927
  28.1423691  56.1786002  63.7729710  28.7861146  56.5170380  63.4809359
  19.6709086  59.9704103  55.7557942  20.0860235  59.6389127  55.0642438
  18.8401016  59.7373005  55.6278079  19.6097095  59.8875359  55.6348789
   8.9997435  57.4547844  66.0456120   8.8173008  57.4294730  65.1928412
   9.7347104  57.9246782  66.0845029   9.0811499  57.5209206  65.9254038
  25.0697109  57.6899354  63.1889007  25.3052699  57.8344553  62.3615858
  25.2186673  58.4541762  63.5820521  25.1262913  57.8238408  63.1252611
  12.0643187  54.1732847  72.5538228  12.7883159  54.1585877  73.0403123
  12.1659323  54.8828202  72.0560197  12.1861396  54.2757550  72.5517015
  26.8987566  56.5301020  61.0258611  27.2295783  57.0628660  60.4198706
  27.4720654  56.5839908  61.6820562  27.0321245  56.6170589  61.0336393
  22.1119455  54.3765922  61.7082191  22.2066310  55.1155217  62.1621817
  21.4878299  53.9483398  62.1416756  22.0328485  54.4227243  61.8390339
  20.3671929  57.5552135  72.3572472  20.9410791  56.9179379  72.5121036
  20.2886733  57.5556217  71.4882130  20.4405164  57.4617246  72.2518883
   8.9668345  54.3341345  66.1955186   9.5441848  54.1977795  66.8347432
   8.2682407  53.8777129  66.4500771   8.9489367  54.2463611  66.3277476
  22.3642477  56.2214662  54.9419143  22.2822639  56.2916849  55.8074130
  23.0022197  56.7844406  54.7502884  22.4462314  56.3153633  55.0409093
  15.7235648  55.9875400  64.4093670  15.4654892  55.1547135  64.3824969
  15.7784130  56.2133013  63.5686170  15.6935426  55.8973171  64.2813806
  20.8036698  48.0903851  64.5097762  20.0993025  47.6013036  64.6681681
  20.8521672  48.1026325  63.6386207  20.7066749  48.0193499  64.4037102
  14.6970360  53.5413163  64.8958564  14.1219951  53.7005331  65.5322525
  14.3206036  52.9048572  64.4327015  14.5573172  53.4710976  64.9213123
  18.3643648  52.0136512  69.7550943  17.9758081  51.5890730  69.1003134
  17.6998347  52.2618662  70.2627969  18.2090576  51.9875233  69.7338811
  28.0066918  51.7711517  62.5298773  27.7503482  50.9591458  62.3396656
  28.8496232  51.7789084  62.3028960  28.0932943  51.6523514  62.4683590
   4.4427179  53.1853237  62.9103005   4.5287431  52.8085106  63.6916535
   5.0702976  52.8113683  62.4322963   4.5483730  53.0738720  62.9548482
  22.1870010  45.7111141  67.2674927  22.5680522  45.0289312  67.6542801
  21.3833294  45.4220743  67.0850591  22.1246472  45.5678189  67.2978983
  19.4682587  56.2435117  57.9527750  20.2823226  56.5350009  57.8410521
  19.4041728  55.5894979  57.3786043  19.5785326  56.1900311  57.8516587
  25.6892077  58.9261113  72.3657325  25.4530714  58.0949177  72.2469386
  26.3335306  58.8746720  72.9512170  25.7486748  58.7958801  72.4343219
  15.3390495  59.7156634  63.0800062  15.9764442  59.4768382  63.6251855
  15.7645567  59.9193793  62.3453222  15.4966661  59.7107644  63.0517219
  15.9793310  54.9358924  57.4174951  16.3638463  54.7166630  58.1691496
  15.7304930  55.7621869  57.5476028  15.9995383  55.0257070  57.5476028
  16.1461850  48.2165339  77.1337535  15.8315291  48.9864902  76.8707098
  15.8251783  47.6535595  76.5489762  16.0520770  48.2475608  77.0078885
  26.7128498  58.7105561  68.4285620  26.4074315  59.4433618  68.7898935
  25.9934713  58.3043491  68.1478406  26.5615840  58.7587294  68.4398757
  17.7211967  60.1929057  64.7593848  17.7950975  60.0304228  65.6135698
  18.5381473  60.3819246  64.5154330  17.8528326  60.1965799  64.8491874
  32.4130290  55.3498562  67.7553964  32.3454790  55.3694521  66.8856551
  32.3985952  56.1928889  67.9809635  32.4009046  55.4772297  67.6606441
  11.4817724  60.5386919  61.7888292  10.6555841  60.7848657  61.6622570
  11.5429715  60.4599000  62.6550350  11.3691891  60.5631868  61.8977236
  13.6993747  46.6055860  62.7483732  12.8316173  46.6778460  62.8141341
  13.9868952  47.4077939  62.9371707  13.6133495  46.7350008  62.7858498
  22.8226636  46.7533720  71.0795054  23.5680228  46.5643530  70.6658479
  22.4063941  47.2791958  70.5208910  22.8711610  46.8035865  70.9359627
  16.2616553  63.1563800  59.4907321  16.5514851  62.7652781  58.7666548
  16.9920034  63.3380505  59.9312597  16.4123437  63.1257613  59.4490129
  30.1988907  54.1242948  66.0300559  30.7496829  53.4911017  66.2697651
  30.1833022  54.6558341  66.7216063  30.2774103  54.1091896  66.1679417
  16.8511298  57.9581546  70.5760452  16.3522992  58.6697313  70.6545340
  17.6611522  58.2782212  70.5378614  16.8967405  58.1108394  70.5817021
  14.2022468  65.1331182  62.5567471  13.9822764  64.8428537  63.3494138
  13.9816990  64.4746137  62.0285384  14.1370062  64.9930890  62.5956380
  13.1139415  57.2204499  64.8223173  12.8252664  56.5941970  65.3568900
  13.9822763  57.1624786  64.8887853  13.1999667  57.1192043  64.9114127
  23.9017313  52.3639282  65.1405155  23.5582079  51.6429617  65.4912404
  24.0010356  52.1553133  64.2983513  23.8659356  52.2263485  65.0676835
  16.3690424  66.5060572  61.3398164  17.0214482  65.9737014  61.5689190
  15.6716033  66.1529224  61.7266038  16.3621142  66.3750095  61.4310331
  13.3171689  58.8599750  60.7465538  14.0717657  59.2412789  60.9601000
  12.7242301  59.3110893  61.2012234  13.3408402  58.9828577  60.8448416
  24.3630342  58.8264986  60.6829143  24.9288375  59.4858196  60.5987686
  23.7158246  59.1714684  61.1545545  24.3509099  58.9746927  60.7401899
  15.7778356  50.8162590  75.8722750  14.9678132  51.1220370  75.7612593
  16.2553043  51.5368172  75.9875334  15.7281835  50.9677191  75.8729821
  14.6369915  60.0308311  66.1205653  14.1150669  60.1708603  66.8057518
  15.0243936  59.2718975  66.3107771  14.6173616  59.9393835  66.2506730
  11.6261099  50.0814120  60.1900608  11.3385895  49.7115390  59.4532555
  12.3131568  50.5508975  59.9284313  11.6849997  50.0961089  60.0415684
  20.8336920  61.7703770  60.1066222  20.5923596  61.0371631  59.6993287
  21.0138253  62.3190627  59.4532555  20.8244544  61.7426161  59.9496445
  16.0636241  57.0612330  61.5187144  15.8679024  57.6687065  60.9247447
  16.2870587  56.3680274  61.0378818  16.0670882  57.0489856  61.3603225
  14.4614771  53.9467068  61.6368013  15.1837423  54.1108226  61.1771819
  13.9822764  54.6676733  61.5307352  14.4978502  54.0765298  61.5533627
  22.4208279  50.2830867  67.0164698  21.5819379  50.3092146  66.7802961
  22.4912646  50.9301602  67.5970044  22.3076672  50.3826993  67.0673815
  20.8677557  47.1816244  61.7492314  21.5703910  46.9823992  61.2712272
  20.6021746  46.4092186  62.0561157  20.9324189  47.0379210  61.7237755
  26.2965802  55.4898854  64.3025939  26.2099777  55.6454280  65.1560718
  25.8416282  56.1336929  63.9285344  26.2169059  55.6074609  64.3733046
   9.1989294  50.8595332  61.0385889   9.3005431  51.6621494  61.3666865
   9.9945181  50.6582668  60.7408970   9.3317200  50.9481231  61.0421244
  15.6306113  48.4451529  70.8023194  15.4389310  48.4606663  71.6522618
  16.4804709  48.6415203  70.7789849  15.7281835  48.4765880  70.9246489
  10.0153026  50.9742510  68.7807011   9.8738518  50.1226451  68.9051519
  10.2993590  51.0171171  67.9569217  10.0360872  50.8542260  68.6774635
  20.1691619  52.8109601  62.9251499  19.9226333  52.7305352  63.7588288
  20.4976742  52.0263068  62.7314026  20.1812862  52.6835866  63.0199022
  24.0639667  59.5192960  66.7138280  23.9254027  60.2174006  67.2187023
  23.2839665  59.3641616  66.3574462  23.9282894  59.5993127  66.7364554
  22.4017752  55.8189335  72.9660662  22.3965791  54.9469152  72.9703088
  23.1078746  56.0177504  72.4930118  22.5062756  55.7193209  72.8967697
  16.1288646  55.5466319  72.3374482  16.2732022  56.1267527  71.7017592
  16.4764294  55.9242616  73.0424337  16.2016107  55.6887023  72.3473477
  18.3008563  54.7456488  70.1199614  17.5531877  54.9387502  69.7147892
  18.4550088  53.9201707  69.8823735  18.2130991  54.6521599  70.0245019
  15.2016401  63.7369091  69.2035509  15.3505965  63.1772007  68.5508913
  15.9816403  63.8161093  69.5868028  15.3390494  63.6654656  69.1632458
  25.5593040  58.8771214  57.4754779  25.1799849  58.0908352  57.4684069
  24.8959286  59.4258071  57.3326424  25.4051515  58.8416038  57.4535576
  17.7269701  63.9083734  70.4820000  17.6513373  63.2392544  71.0370788
  17.6559561  64.6101522  70.9960666  17.7050308  63.9128641  70.6396848
  18.5410340  48.6407038  71.0095017  18.9982954  49.3731013  71.1367810
  18.6166669  48.2173504  71.7682273  18.6201310  48.6864276  71.1396094
  10.7843331  48.8872858  72.0984461  10.2485521  48.2753216  72.4145228
  10.8461096  49.4620994  72.7518128  10.7138964  48.8819786  72.2419888
  23.0137666  41.8196913  64.8788860  23.1321234  42.2773377  64.1456163
  22.8399842  41.0142175  64.5925078  23.0056837  41.7690686  64.7289794
  18.3839948  62.4284733  61.3143606  19.1489839  62.1594377  60.9926270
  18.2818038  61.9434743  62.0313668  18.4821444  62.3174297  61.3723433
  16.4192718  50.6309142  67.8536841  15.6288793  50.4500602  68.1754177
  16.8153341  49.8536095  67.8367136  16.3609594  50.4896603  67.8989390
  20.9058609  59.4596917  53.2943555  21.6731594  59.5197041  52.8849407
  20.4589918  58.8877358  52.8099873  20.9532036  59.3833492  53.1621265
  21.8036404  58.2651572  65.5796287  21.1281406  58.0336805  66.0809674
  21.8128781  57.6572755  64.9538392  21.7054909  58.1410498  65.5612440
  18.9330548  53.1069401  72.3360340  18.8689690  53.9679358  72.2080477
  19.0727736  52.7901395  71.5355892  18.9446018  53.1869568  72.1988553
  23.8053139  61.1216705  57.8106465  23.8872976  61.9283691  57.4867916
  24.2902881  61.1412664  58.5347239  23.8890297  61.2437367  57.8693364
  17.6149642  55.8001541  66.4776543  17.1911891  56.0006040  65.7415562
  17.4394497  54.9530389  66.5900843  17.5260523  55.7050322  66.3850233
  12.9032087  56.2953592  61.9104516  13.0596706  56.2300395  62.7660508
  13.2432680  57.0702145  61.6983195  12.9765322  56.4002790  62.0059110
  19.4411232  55.6711476  60.7797879  19.9826777  55.1681857  61.2436499
  19.7557791  55.6176670  59.9687364  19.5675629  55.5890897  60.7281691
  23.3128339  59.8814123  77.8924791  24.1263205  59.6099272  78.0529924
  23.1523306  59.5821663  77.0884987  23.4098288  59.7969049  77.7970197
  17.6097682  61.0628827  58.0637907  17.6790502  60.2043366  58.2030907
  18.3886137  61.2800708  57.7356932  17.7350532  60.9681691  58.0355064
  20.5900501  50.5647780  70.8320179  20.8042471  49.9258694  70.2783533
  19.9734400  51.0093604  70.4028041  20.5305830  50.5357924  70.6870610
  22.0005169  63.4866529  62.2774400  21.6084961  63.1833244  61.5597266
  22.1558241  64.3235618  62.0879354  21.9658759  63.5650365  62.1430897
   9.4766349  53.4788543  62.2265283   9.8565314  53.8973088  61.5625550
   8.9021714  54.0601998  62.5334126   9.4477674  53.6266401  62.1742024
  22.7539589  52.1736845  71.7703486  21.9416271  51.8662736  71.8516659
  23.2129524  51.6935846  72.3346199  22.7019974  52.0573338  71.8658081
  22.1644844  60.0516517  62.2180431  21.8059499  60.2231160  62.9944463
  21.6783555  60.5129723  61.6608429  22.0403541  60.1455488  62.2505700
  19.9815230  43.6747716  65.8207522  19.1108788  43.6486437  65.7740832
  20.2355571  43.5024908  65.0033368  19.8908790  43.6457860  65.6927659
  16.9533209  55.7315683  54.7580665  17.2425734  56.5080565  55.0324239
  17.0405008  55.2204414  55.4595164  17.0087466  55.7707601  54.9023163
  19.8493097  53.5796917  76.5532189  20.3192728  54.2039033  76.9400063
  19.8954977  52.9113892  77.1125403  19.9260973  53.5731597  76.6932260
  17.0064370  45.6853944  67.2780993  16.4902859  44.9934136  67.4032572
  16.4458299  46.3524721  67.2243591  16.8470884  45.6817202  67.2887059
  19.0756604  46.2246904  69.1073845  18.6888357  46.2495936  69.8887375
  18.5889541  45.6588583  68.6548362  18.9469113  46.1442655  69.1561749
  23.3249583  60.9420413  73.1647632  23.9629304  60.4480609  72.8310088
  22.6823675  60.8697814  72.5799859  23.3243810  60.8579422  73.0289987
  25.0506583  52.7909559  67.7313547  24.6234191  52.7035908  66.9761647
  24.4132636  52.8987335  68.3168391  24.8936191  52.7942219  67.7058989
  18.7413746  43.1113890  71.3984105  19.3706864  43.6474190  71.1205175
  18.9099608  43.0191249  72.2497671  18.8591540  43.1775252  71.4832633
  18.5427660  47.8985085  73.6710517  19.3701090  47.6270233  73.7269131
  18.5635506  48.6945926  74.0274335  18.6680511  47.9764839  73.7325700
  23.3803840  61.6340222  69.8052988  24.1696218  61.2829286  69.9255070
  23.5547438  62.4476610  69.5429622  23.5224122  61.7026079  69.7840856
  13.1197150  55.0448947  66.8580777  12.2785157  54.9452822  67.0659671
  13.3287158  55.8144428  67.2095098  13.0261843  55.1440991  66.9408092
  10.5972717  52.6668484  64.6865528  10.2029415  52.7411496  63.9115638
  10.0412834  53.0526431  65.2373890  10.4575530  52.7350259  64.6533188
  22.2337664  45.6449778  64.3669407  22.4387257  45.5772086  65.2126404
  21.9064088  46.4508600  64.2990584  22.2152912  45.7535719  64.4829062
  16.9313815  52.9730347  66.1078375  16.6276953  52.4186335  66.7088782
  16.2293236  53.1522556  65.6206409  16.7830025  52.9175129  66.1248080
  15.9879912  50.2830866  60.6723077  16.2639647  49.5649779  60.2600644
  16.5878582  50.8815786  60.4644183  16.1173177  50.2651237  60.5803838
  25.4871352  46.1981543  63.8472172  24.8745665  46.6851945  64.2325904
  25.5835527  45.5225033  64.3909823  25.4109249  46.1699851  63.9851031
  19.4890433  47.9544384  58.9469672  19.9434179  48.1254944  59.6717516
  19.9630478  47.3412494  58.5467447  19.6258753  47.8895269  58.9943433
  13.0105958  57.4392710  68.2772410  12.4193891  58.0802208  68.2475425
  13.7726982  57.8630327  68.2503710  13.0354219  57.5968548  68.2687557
  13.4066581  48.5994707  68.9440428  13.8668063  48.6733637  69.6815552
  13.4522688  49.3975961  68.5940249  13.4817136  48.7288854  69.0013184
  15.0549931  49.2661402  73.5112455  14.6635496  48.6194749  73.9468233
  15.2235793  49.8572838  74.1306710  15.0220841  49.2575670  73.6675161
  29.1296380  57.2698479  69.2749688  29.1879503  57.7185128  70.0209665
  28.4962847  57.6797292  68.8379768  29.0447675  57.3972214  69.3202237
  22.7695474  62.8902021  65.7104435  22.5715163  63.3792836  65.0160646
  22.1483185  63.0943263  66.2888568  22.6483039  62.9918559  65.6927658
  16.8303453  54.6586918  60.0514679  17.5745498  55.0461194  60.2897629
  16.9764149  53.8144343  60.2155167  16.9614038  54.5917391  60.1108649
  18.7483028  46.4537177  65.0846540  17.9019073  46.6259985  64.9587890
  18.7454161  45.6486521  65.4212369  18.6230178  46.3598206  65.1157667
  19.8181329  50.2312391  65.9508598  19.3441283  49.7054153  66.4613909
  20.1899464  49.6841864  65.3823460  19.8031218  50.0728388  65.9423745
  10.1954359  52.2283898  71.3192144  11.0579972  52.1279607  71.2329474
   9.8646142  51.6478607  70.7577716  10.2739555  52.1275525  71.2237550
  26.0818059  55.2914767  67.3615379  25.8416282  54.4521182  67.3657805
  26.5610066  55.3714934  68.0856152  26.1170243  55.1796167  67.4690181
  21.7464828  51.1248946  59.0134352  21.2187847  51.2077690  58.3240061
  22.2060536  51.8666817  59.0098997  21.7366679  51.2469608  58.9109047
  28.0823246  52.0716224  65.3144638  27.8433016  52.0312058  64.4765422
  28.2457147  52.9187376  65.4410359  28.0713550  52.1908309  65.2098120
  24.6869276  56.4566173  71.2449683  25.4103475  56.0038700  71.0660703
  24.4219239  56.7370839  70.4622011  24.7550550  56.4317142  71.1028398
  13.5556145  51.0526347  67.9802562  12.9309215  51.0644739  67.3728515
  13.2201740  51.5286522  68.6293802  13.4141637  51.1244864  67.9859131
  13.7397893  49.3951466  54.0375247  13.3910698  50.0471191  54.5006797
  13.2594339  49.3808579  53.3099118  13.6168137  49.4894519  53.9986338
  21.3001911  59.6952509  58.1444009  22.0236110  60.1610622  58.0008582
  20.8602502  59.7626119  57.3941606  21.3417603  59.7736346  58.0128790
  20.4688066  56.5550052  69.3944698  19.8545059  56.0108102  69.6893333
  20.9855351  56.0414288  68.9150514  20.4543728  56.3986461  69.3668926
  19.7084363  57.6254322  67.1288997  19.2811971  57.0004040  66.6954432
  19.7009307  57.3429244  67.9548004  19.6443504  57.4907102  67.1868824
  12.8246890  52.6619495  70.1977431  12.9840377  51.9062819  70.6029153
  12.6439784  53.2110434  70.8518168  12.8212249  52.6313309  70.3540137
  20.7667193  44.8280730  70.7528220  20.2707754  45.0244405  70.0619787
  21.5236255  45.2273399  70.5817022  20.8054018  44.9158464  70.6248357
  18.0370073  48.5023076  67.3431531  18.0612560  47.9683189  66.6544311
  18.2881546  47.9940385  68.0057121  18.0779991  48.3483980  67.3396175
  14.3171395  47.2293895  66.7237275  14.3569767  47.7303101  67.4371982
  13.4921060  47.3204288  66.4543198  14.2010921  47.3175711  66.7887813
  15.7385758  53.7454404  69.0211174  14.9077688  53.9128222  68.8146422
  15.6837275  53.3690355  69.8060059  15.6075173  53.7144136  69.1059702
  13.5469542  47.2363297  74.6567585  14.1722245  46.6925430  74.9297017
  13.0920021  46.7558215  74.0875375  13.5717802  47.0852779  74.6129179
  14.1121802  52.0209996  59.5501292  14.2524763  52.5182460  60.2529933
  14.6104335  51.3196290  59.6915505  14.2062883  51.9911975  59.6752871
  14.1422025  52.8877107  56.8793869  14.7767104  53.4837532  56.8143330
  14.2247635  52.5880565  57.6939739  14.2478575  52.9318015  56.9896955
  27.1204590  55.4192584  69.7480233  27.7122431  56.0589835  69.7798431
  27.5563585  54.7215621  70.0372300  27.2723021  55.4110935  69.7961065
  15.7201007  48.8191082  56.8539311  16.0416848  48.3394165  56.1998573
  15.9827951  49.6290728  56.6630122  15.8067033  48.8680980  56.7294803
  18.9497980  59.8409957  70.3738127  18.4423071  60.3945804  70.8178757
  18.6524626  59.9018247  69.5556901  18.8302865  59.9316268  70.3186583
  21.1160162  48.2063276  69.2162790  21.5415234  47.7535803  68.6046316
  20.5017155  47.6523347  69.4927577  21.0888808  48.0577253  69.1667815
  10.6475012  55.0844948  60.1483415  11.1567242  55.6809455  60.5294720
  11.1209285  54.8170921  59.4659834  10.7918388  55.1330763  60.1037937
  21.5605760  63.7573214  58.3042070  20.8435070  63.5834077  57.8389307
  22.2112498  63.5225787  57.7717556  21.5507611  63.6969007  58.1571288
  19.5554385  44.6778376  62.6253367  18.9122703  44.5276022  63.1938505
  19.2153792  44.4320721  61.8602471  19.4099463  44.6190499  62.5956382
  24.1453732  52.6337803  62.0483375  23.4744922  53.1767505  61.9196441
  24.8393482  53.1032658  61.8065070  24.1482599  52.7836074  61.9938903
  18.1940465  64.7734515  67.2795134  17.9706120  64.0153344  67.6479160
  17.7050309  64.8032536  66.5575573  18.0883914  64.6656739  67.2271874
  24.3081859  49.0893687  64.9573748  24.6609469  48.6623410  65.6319547
  23.4496661  49.0044530  65.0874825  24.2331304  49.0138427  65.0768759
  13.0065544  51.7201206  63.0156595  12.2877533  52.1365339  63.2829459
  13.3777906  52.2855445  62.4648233  12.9557476  51.8650488  62.9739402
  22.3065125  52.3529055  68.9058591  22.2863052  52.1712350  69.7593370
  22.3544326  53.2241074  68.8818174  22.3099766  52.4545593  69.0281885
  20.2511455  58.9416247  74.8307067  20.2107310  58.2965924  74.2452223
  21.0634773  58.8852865  75.1432479  20.3654608  58.8375214  74.7904016
  16.8418922  64.9934973  64.7332218  16.4279321  64.3309103  64.3436060
  17.5266297  65.1412832  64.2127912  16.8817294  64.9175631  64.5988715
  20.2084216  64.1525058  65.4855835  19.8100500  64.2627329  64.7176655
  19.5935436  64.3607125  66.0682395  20.0583106  64.1998626  65.4587134
  18.7812118  50.7599206  58.3529974  18.1876958  51.0816203  57.8014541
  18.8187396  49.9140302  58.1451081  18.6986508  50.6823534  58.2412746
  21.6569935  50.7178711  61.7831725  21.4283628  50.7411412  60.9410083
  21.9168011  49.8936178  61.9026735  21.6616123  50.5994791  61.6756922
  15.9389164  52.5713184  71.3856825  15.4268067  51.9634367  71.7441856
  15.7668660  53.2869776  71.8530801  15.8378801  52.5876483  71.5073049
  14.7114698  49.2555257  63.0785920  15.1872064  49.6172337  62.4436101
  14.2103297  49.9111725  63.3586063  14.7080057  49.4049446  63.0262661
  27.9426059  58.7277025  58.8698925  28.3259665  59.4768381  59.0997022
  27.1470172  58.9742845  58.6110914  27.8819841  58.8746719  58.8656499
  19.8158234  50.4937428  73.8259080  20.3729664  50.2651238  73.1937546
  19.4919299  51.2543094  73.5494293  19.8504644  50.5721265  73.6915578
  17.5341351  53.5805082  74.7911088  18.2852678  53.8956758  75.1050642
  17.7263928  53.3784253  73.9645009  17.6732765  53.5972463  74.7154483
  16.7541351  51.3996457  56.4459304  17.1340316  51.4176086  55.6610419
  16.0133947  51.8450446  56.3250152  16.7010188  51.4678231  56.3122872
  24.3826641  49.7078648  62.0334883  24.3820868  49.5527305  62.8919159
  24.1782821  50.5541635  61.9776269  24.3526419  49.8099269  62.1522822
   6.4443912  53.1318432  66.4493700   6.2665673  52.6795041  67.1748615
   6.1562934  53.9344594  66.6332177   6.3756865  53.1840990  66.5837202
  22.1067493  54.3876150  65.6871090  22.6021159  53.6699145  65.6475110
  21.2967269  54.0846947  65.5725577  22.0611387  54.2373796  65.6644816
  17.5526105  58.2373963  57.8368094  16.7437428  57.9140637  57.7901404
  18.0601014  57.5307185  57.7696343  17.5075772  58.0855279  57.8198389
   8.1816382  55.6646156  63.5615459   7.3161902  55.6531847  63.4498230
   8.2815198  55.4776379  64.4086598   8.0690549  55.6352217  63.6704403
  24.1719312  57.1379837  68.3748219  24.5974384  56.6154259  67.8218644
  23.8076232  57.7360675  67.8536842  24.1805915  57.1490064  68.2157228
  13.8073392  65.4344055  67.1345564  14.1219951  66.2480443  67.1423346
  14.2166805  65.0494273  67.8027723  13.9141490  65.4972757  67.2349656
  20.7597912  60.8514102  64.7049376  21.2309090  61.5654364  64.8739361
  21.0958090  60.2512852  65.2409246  20.8793027  60.8685566  64.8081752
  17.6767407  45.6241572  71.6607471  17.8095312  44.8272566  71.9888446
  18.0612559  46.1507975  72.2405747  17.7523735  45.5841489  71.7950974
  21.3971858  60.6432036  71.4677069  20.8492804  60.0189919  71.1997134
  21.8584887  60.8326308  70.7521148  21.3839067  60.5791086  71.3227500
  20.7499762  42.5471898  68.2588564  19.9445725  42.4369628  68.5756402
  20.6206497  42.6484354  67.4018430  20.6119895  42.5455568  68.1796605
  24.2065722  48.7117390  68.8528261  23.6228711  49.2126597  68.4405828
  24.5270016  48.2046946  68.2192584  24.1678898  48.7109225  68.6986768
  16.7460521  47.6257985  59.1286936  17.5676216  47.7956298  58.8868631
  16.2830172  47.7805246  58.4053233  16.7991684  47.6739718  58.9858580
  15.3355853  45.6200747  69.9085365  15.8800266  45.2791874  70.4989706
  15.3892789  46.4786209  70.0506649  15.4244973  45.6956007  70.0167238
  11.1486412  59.3817163  66.7824173  11.7531269  59.3412997  66.1537993
  10.9413725  60.2288315  66.8128228  11.2075309  59.5005166  66.6940289
  20.9630184  61.6483108  67.9986410  21.7828558  61.5046074  68.2602705
  20.6824262  62.2729307  68.5402848  21.0426928  61.7193460  68.1174349
  37.4343835  69.3047960  60.9629286  37.4037839  70.1592597  61.1347556
  38.0325183  69.0043253  61.5215430  37.5180993  69.3864457  61.0704089
  30.6343519  68.3923611  65.7182217  29.7781415  68.5532109  65.7691334
  30.6811173  67.5215675  65.7387278  30.5142631  68.2874413  65.7288283
  33.4795340  70.4515655  68.3613868  34.0251301  71.1300742  68.4207838
  33.4212217  70.3103116  67.5015450  33.5511255  70.5307657  68.2425929
  35.2560409  71.8800262  59.2347596  35.1399935  72.6307948  59.6639734
  36.0516296  71.6224215  59.4843683  35.3564999  71.9535109  59.3351688
  19.7934460  73.9625008  63.3734554  19.5584644  73.1292660  63.2666823
  19.9320100  74.2429673  62.5595755  19.7790122  73.8808511  63.2376909
  22.0924547  66.1310738  66.2718862  21.4729579  65.5403386  66.1028877
  21.9908411  66.7222174  65.6383185  21.9862223  66.1314821  66.1523852
  27.1390735  75.8694285  60.5216939  27.4606576  76.4099492  59.9178247
  27.7862831  75.2991057  60.6539228  27.2816790  75.8653460  60.4523974
  29.1892443  67.8710280  60.6051325  29.8872607  68.0498408  61.0972789
  29.5044775  67.3480619  59.9821715  29.3387780  67.8204052  60.5853335
  21.8193680  69.6763020  68.5162431  21.6952377  70.2625465  69.1512250
  22.4711965  69.1823216  68.8174706  21.8967329  69.6901824  68.6548360
  29.3780378  74.2580725  60.5931117  29.8174014  73.6497826  61.0385890
  29.2285041  73.8788098  59.8216582  29.4201844  74.1119196  60.5450284
  26.8452021  72.8524737  67.7949942  27.4901024  72.3597180  67.4760891
  27.0853798  72.9949524  68.6216021  26.9762606  72.8002179  67.8699475
  29.3838112  75.6979643  67.4456835  29.6661355  74.9031049  67.2243591
  30.1124273  76.1760230  67.4661896  29.5327676  75.6514240  67.4159850
  27.3619306  63.2402677  64.6872600  27.0322636  63.6913820  64.0176299
  26.6864308  63.1618840  65.2345606  27.2129743  63.2953812  64.6695823
  32.9789715  72.6107906  57.5461886  32.8941010  73.4668873  57.6911455
  33.4674098  72.3352230  58.2144045  33.0378612  72.6965228  57.6663967
  34.5695714  59.2288200  62.9322211  34.2549155  59.9191678  63.3642633
  34.0522656  59.1732982  62.2307711  34.4460185  59.3223088  62.8919160
  33.9108148  69.2292701  59.0459621  33.3819619  69.4452334  59.7056927
  34.4333168  69.9228839  58.9660590  33.9096601  69.3635837  59.1315220
  39.3656201  74.8039005  64.4192666  38.5353904  75.0149649  64.5826082
  39.3165453  73.9776060  64.1434949  39.2362936  74.7128611  64.4030031
  25.8007756  73.1255917  57.8467089  25.2164971  73.6305949  58.2532953
  25.3977851  72.8998304  57.1063681  25.6547060  73.1664166  57.7972114
  30.2584970  69.3721569  56.3236010  30.4980974  69.5799553  55.5111353
  30.5800811  68.5679078  56.4324954  30.3422128  69.2835671  56.2196563
  25.5675260  61.3014965  60.1695548  26.3221228  61.6693282  59.9312598
  25.3902795  61.6754520  60.9374727  25.6529739  61.4113153  60.2480436
  38.8610159  67.4509406  68.2143087  38.0238580  67.5211593  68.4490681
  38.8298390  67.4533901  67.3417389  38.7328442  67.4619633  68.1202635
  25.2574888  69.5942441  73.9291456  25.4295392  69.4848336  74.7776737
  25.7944246  70.2396847  73.6922648  25.3619892  69.6734443  74.0196552
  23.9232325  63.7085284  56.8673661  23.7407898  63.9257165  56.0414653
  24.7857938  63.8224297  56.9232275  24.0236915  63.7575182  56.7528148
  23.5346757  75.5473206  64.3096648  24.3735656  75.7796139  64.3570410
  23.5658526  74.6777518  64.2403684  23.6628475  75.4530153  64.3061293
  29.6032044  60.7111695  59.9022684  30.3318205  60.5327650  59.4560841
  29.6926937  61.5529775  60.1129863  29.7238706  60.8095573  59.8676202
  33.5840345  71.6465082  63.8054978  34.3397860  72.0796597  63.8443887
  33.6902669  70.9969852  64.3789614  33.7110515  71.6142566  63.8953004
  36.6220516  75.4738359  64.5557381  36.1855748  75.4775102  65.3116353
  36.2883431  76.1543858  64.1236959  36.5083136  75.5750815  64.6038214
  36.5417999  62.5152187  66.7986809  37.1843907  62.5850292  67.3848725
  36.7941020  61.8481410  66.2966351  36.6740131  62.4278536  66.8114089
  23.4694352  66.9859457  55.3796134  22.7552529  66.6997636  55.7918566
  23.9538321  67.3256083  56.0202521  23.4353715  66.9941106  55.5351769
  24.3135211  65.7252751  71.4111383  23.6207008  65.2549730  71.6572115
  24.9295539  65.4991055  71.9853090  24.3019741  65.6219882  71.5320536
  39.7564862  72.1919279  63.4477019  40.4181296  71.6309948  63.3472927
  39.1156274  71.6971310  63.7729710  39.7593730  72.0355688  63.4809359
  30.6441670  75.4889411  55.7557942  31.0592818  75.1574435  55.0642438
  29.8133600  75.2558313  55.6278079  30.5829679  75.4060667  55.6348789
  19.9730019  72.9733152  66.0456120  19.7905592  72.9480038  65.1928412
  20.7079688  73.4432090  66.0845029  20.0544083  73.0394514  65.9254038
  36.0429693  73.2084662  63.1889007  36.2785282  73.3529861  62.3615858
  36.1919257  73.9727070  63.5820521  36.0995496  73.3423716  63.1252611
  23.0375770  69.6918155  72.5538228  23.7615743  69.6771185  73.0403123
  23.1391907  70.4013510  72.0560197  23.1593979  69.7942858  72.5517015
  37.8720150  72.0486328  61.0258611  38.2028367  72.5813968  60.4198706
  38.4453238  72.1025215  61.6820562  38.0053829  72.1355897  61.0336393
  33.0852039  69.8951230  61.7082191  33.1798893  70.6340524  62.1621817
  32.4610882  69.4668706  62.1416756  33.0061069  69.9412551  61.8390339
  19.9400929  69.8526652  66.1955186  20.5174432  69.7163103  66.8347432
  19.2414991  69.3962437  66.4500771  19.9221950  69.7648919  66.3277476
  33.3375060  71.7399970  54.9419143  33.2555223  71.8102157  55.8074130
  33.9754781  72.3029714  54.7502884  33.4194897  71.8338941  55.0409093
  26.6968231  71.5060708  64.4093670  26.4387476  70.6732443  64.3824969
  26.7516714  71.7318321  63.5686170  26.6668009  71.4158479  64.2813806
  31.7769281  63.6089159  64.5097762  31.0725608  63.1198344  64.6681681
  31.8254256  63.6211633  63.6386207  31.6799333  63.5378807  64.4037102
  25.6702943  69.0598471  64.8958564  25.0952535  69.2190639  65.5322525
  25.2938620  68.4233880  64.4327015  25.5305756  68.9896284  64.9213123
  29.3376232  67.5321820  69.7550943  28.9490665  67.1076038  69.1003134
  28.6730930  67.7803970  70.2627969  29.1823160  67.5060541  69.7338811
  38.9799501  67.2896825  62.5298773  38.7236066  66.4776766  62.3396656
  39.8228815  67.2974392  62.3028960  39.0665527  67.1708822  62.4683590
  15.4159762  68.7038545  62.9103005  15.5020014  68.3270414  63.6916535
  16.0435560  68.3298991  62.4322963  15.5216313  68.5924028  62.9548482
  33.1602594  61.2296449  67.2674927  33.5413105  60.5474620  67.6542801
  32.3565878  60.9406051  67.0850591  33.0979055  61.0863497  67.2978983
  30.4415170  71.7620424  57.9527750  31.2555809  72.0535317  57.8410521
  30.3774312  71.1080287  57.3786043  30.5517909  71.7085619  57.8516587
  26.3123079  75.2341942  63.0800062  26.9497025  74.9953689  63.6251855
  26.7378150  75.4379101  62.3453222  26.4699245  75.2292952  63.0517219
  26.9525894  70.4544232  57.4174951  27.3371046  70.2351938  58.1691496
  26.7037514  71.2807177  57.5476028  26.9727966  70.5442378  57.5476028
  27.1194434  63.7350647  77.1337535  26.8047875  64.5050210  76.8707098
  26.7984367  63.1720903  76.5489762  27.0253353  63.7660916  77.0078885
  28.6944551  75.7114365  64.7593848  28.7683559  75.5489536  65.6135698
  29.5114057  75.9004554  64.5154330  28.8260909  75.7151107  64.8491874
  24.6726331  62.1241168  62.7483732  23.8048756  62.1963768  62.8141341
  24.9601535  62.9263247  62.9371707  24.5866079  62.2535315  62.7858498
  33.7959220  62.2719028  71.0795054  34.5412812  62.0828838  70.6658479
  33.3796524  62.7977266  70.5208910  33.8444194  62.3221173  70.9359627
  41.1721491  69.6428256  66.0300559  41.7229412  69.0096325  66.2697651
  41.1565606  70.1743649  66.7216063  41.2506687  69.6277204  66.1679417
  27.8243881  73.4766854  70.5760452  27.3255575  74.1882621  70.6545340
  28.6344106  73.7967520  70.5378614  27.8699988  73.6293702  70.5817021
  24.0871999  72.7389807  64.8223173  23.7985248  72.1127278  65.3568900
  24.9555347  72.6810094  64.8887853  24.1732251  72.6377351  64.9114127
  34.8749897  67.8824590  65.1405155  34.5314663  67.1614925  65.4912404
  34.9742939  67.6738441  64.2983513  34.8391940  67.7448793  65.0676835
  24.2904272  74.3785058  60.7465538  25.0450240  74.7598097  60.9601000
  23.6974885  74.8296201  61.2012234  24.3140986  74.5013885  60.8448416
  35.3362926  74.3450294  60.6829143  35.9020959  75.0043504  60.5987686
  34.6890829  74.6899992  61.1545545  35.3241682  74.4932235  60.7401899
  26.7510939  66.3347898  75.8722750  25.9410715  66.6405678  75.7612593
  27.2285626  67.0553480  75.9875334  26.7014418  66.4862499  75.8729821
  25.6102499  75.5493619  66.1205653  25.0883253  75.6893911  66.8057518
  25.9976519  74.7904283  66.3107771  25.5906200  75.4579143  66.2506730
  22.5993683  65.5999428  60.1900608  22.3118479  65.2300698  59.4532555
  23.2864151  66.0694283  59.9284313  22.6582580  65.6146397  60.0415684
  31.8069504  77.2889078  60.1066222  31.5656180  76.5556939  59.6993287
  31.9870837  77.8375935  59.4532555  31.7977128  77.2611469  59.9496445
  27.0368825  72.5797638  61.5187144  26.8411607  73.1872372  60.9247447
  27.2603170  71.8865582  61.0378818  27.0403466  72.5675163  61.3603225
  25.4347355  69.4652376  61.6368013  26.1570007  69.6293534  61.1771819
  24.9555347  70.1862041  61.5307352  25.4711085  69.5950605  61.5533627
  33.3940862  65.8016175  67.0164698  32.5551963  65.8277454  66.7802961
  33.4645229  66.4486910  67.5970044  33.2809256  65.9012300  67.0673815
  31.8410140  62.7001552  61.7492314  32.5436493  62.5009300  61.2712272
  31.5754329  61.9277494  62.0561157  31.9056773  62.5564518  61.7237755
  37.2698386  71.0084161  64.3025939  37.1832361  71.1639587  65.1560718
  36.8148866  71.6522237  63.9285344  37.1901643  71.1259917  64.3733046
  20.1721878  66.3780640  61.0385889  20.2738014  67.1806802  61.3666865
  20.9677764  66.1767976  60.7408970  20.3049783  66.4666539  61.0421244
  26.6038697  63.9636837  70.8023194  26.4121894  63.9791971  71.6522618
  27.4537293  64.1600511  70.7789849  26.7014419  63.9951188  70.9246489
  20.9885610  66.4927818  68.7807011  20.8471102  65.6411759  68.9051519
  21.2726173  66.5356479  67.9569217  21.0093456  66.3727568  68.6774635
  31.1424202  68.3294909  62.9251499  30.8958916  68.2490659  63.7588288
  31.4709325  67.5448376  62.7314026  31.1545446  68.2021174  63.0199022
  27.1021229  71.0651627  72.3374482  27.2464605  71.6452835  71.7017592
  27.4496878  71.4427924  73.0424337  27.1748691  71.2072331  72.3473477
  29.2741147  70.2641795  70.1199614  28.5264461  70.4572810  69.7147892
  29.4282672  69.4387015  69.8823735  29.1863574  70.1706907  70.0245019
  36.5325624  74.3956522  57.4754779  36.1532432  73.6093660  57.4684069
  35.8691869  74.9443379  57.3326424  36.3784099  74.3601346  57.4535576
  29.5142924  64.1592346  71.0095017  29.9715538  64.8916321  71.1367810
  29.5899253  63.7358811  71.7682273  29.5933894  64.2049584  71.1396094
  21.7575915  64.4058166  72.0984461  21.2218104  63.7938524  72.4145228
  21.8193680  64.9806302  72.7518128  21.6871548  64.4005094  72.2419888
  33.9870250  57.3382221  64.8788860  34.1053818  57.7958685  64.1456163
  33.8132425  56.5327483  64.5925078  33.9789421  57.2875994  64.7289794
  27.3925302  66.1494450  67.8536841  26.6021376  65.9685910  68.1754177
  27.7885925  65.3721403  67.8367136  27.3342178  66.0081911  67.8989390
  31.8791192  74.9782224  53.2943555  32.6464178  75.0382349  52.8849407
  31.4322501  74.4062666  52.8099873  31.9264620  74.9018800  53.1621265
  32.7768988  73.7836880  65.5796287  32.1013990  73.5522113  66.0809674
  32.7861364  73.1758063  64.9538392  32.6787493  73.6595806  65.5612440
  29.9063132  68.6254709  72.3360340  29.8422273  69.4864666  72.2080477
  30.0460320  68.3086702  71.5355892  29.9178602  68.7054876  72.1988553
  34.7785723  76.6402013  57.8106465  34.8605560  77.4468999  57.4867916
  35.2635465  76.6597972  58.5347239  34.8622880  76.7622675  57.8693364
  28.5882226  71.3186849  66.4776543  28.1644475  71.5191348  65.7415562
  28.4127081  70.4715697  66.5900843  28.4993106  71.2235630  66.3850233
  23.8764671  71.8138900  61.9104516  24.0329290  71.7485703  62.7660508
  24.2165264  72.5887453  61.6983195  23.9497906  71.9188098  62.0059110
  30.4143815  71.1896784  60.7797879  30.9559361  70.6867165  61.2436499
  30.7290374  71.1361978  59.9687364  30.5408213  71.1076205  60.7281691
  28.5830265  76.5814135  58.0637907  28.6523085  75.7228674  58.2030907
  29.3618720  76.7986016  57.7356932  28.7083115  76.4866999  58.0355064
  31.5633085  66.0833088  70.8320179  31.7775054  65.4444002  70.2783533
  30.9466984  66.5278912  70.4028041  31.5038414  66.0543232  70.6870610
  20.4498932  68.9973851  62.2265283  20.8297897  69.4158395  61.5625550
  19.8754297  69.5787306  62.5334126  20.4210257  69.1451709  62.1742024
  33.7272173  67.6922153  71.7703486  32.9148855  67.3848044  71.8516659
  34.1862107  67.2121153  72.3346199  33.6752558  67.5758646  71.8658081
  33.1377427  75.5701825  62.2180431  32.7792082  75.7416468  62.9944463
  32.6516138  76.0315031  61.6608429  33.0136124  75.6640796  62.2505700
  30.9547813  59.1933024  65.8207522  30.0841371  59.1671745  65.7740832
  31.2088155  59.0210216  65.0033368  30.8641374  59.1643168  65.6927659
  27.9265793  71.2500991  54.7580665  28.2158318  72.0265873  55.0324239
  28.0137592  70.7389722  55.4595164  27.9820049  71.2892909  54.9023163
  27.9796954  61.2039252  67.2780993  27.4635443  60.5119444  67.4032572
  27.4190883  61.8710029  67.2243591  27.8203467  61.2002510  67.2887059
  30.0489187  61.7432212  69.1073845  29.6620941  61.7681244  69.8887375
  29.5622125  61.1773891  68.6548362  29.9201696  61.6627963  69.1561749
  36.0239167  68.3094867  67.7313547  35.5966775  68.2221216  66.9761647
  35.3865220  68.4172643  68.3168391  35.8668774  68.3127527  67.7058989
  29.7146329  58.6299198  71.3984105  30.3439447  59.1659498  71.1205175
  29.8832192  58.5376557  72.2497671  29.8324124  58.6960560  71.4832633
  29.5160244  63.4170392  73.6710517  30.3433673  63.1455541  73.7269131
  29.5368090  64.2131234  74.0274335  29.6413094  63.4950147  73.7325700
  24.0929734  70.5634255  66.8580777  23.2517740  70.4638129  67.0659671
  24.3019742  71.3329736  67.2095098  23.9994426  70.6626299  66.9408092
  21.5705301  68.1853792  64.6865528  21.1761999  68.2596804  63.9115638
  21.0145418  68.5711739  65.2373890  21.4308113  68.2535567  64.6533188
  33.2070248  61.1635086  64.3669407  33.4119841  61.0957394  65.2126404
  32.8796672  61.9693907  64.2990584  33.1885496  61.2721027  64.4829062
  27.9046399  68.4915654  66.1078375  27.6009536  67.9371643  66.7088782
  27.2025819  68.6707864  65.6206409  27.7562609  68.4360437  66.1248080
  26.9612496  65.8016174  60.6723077  27.2372230  65.0835087  60.2600644
  27.5611165  66.4001094  60.4644183  27.0905760  65.7836545  60.5803838
  36.4603935  61.7166850  63.8472172  35.8478249  62.2037253  64.2325904
  36.5568110  61.0410341  64.3909823  36.3841833  61.6885159  63.9851031
  30.4623016  63.4729692  58.9469672  30.9166763  63.6440252  59.6717516
  30.9363062  62.8597802  58.5467447  30.5991336  63.4080577  58.9943433
  23.9838542  72.9578018  68.2772410  23.3926475  73.5987516  68.2475425
  24.7459565  73.3815635  68.2503710  24.0086802  73.1153856  68.2687557
  24.3799165  64.1180015  68.9440428  24.8400646  64.1918945  69.6815552
  24.4255271  64.9161269  68.5940249  24.4549720  64.2474162  69.0013184
  26.0282514  64.7846710  73.5112455  25.6368079  64.1380057  73.9468233
  26.1968377  65.3758145  74.1306710  25.9953425  64.7760978  73.6675161
  33.7428058  78.4087329  65.7104435  33.5447747  78.8978144  65.0160646
  33.1215769  78.6128571  66.2888568  33.6215622  78.5103867  65.6927658
  27.8036036  70.1772226  60.0514679  28.5478081  70.5646502  60.2897629
  27.9496732  69.3329651  60.2155167  27.9346621  70.1102699  60.1108649
  29.7215612  61.9722485  65.0846540  28.8751657  62.1445293  64.9587890
  29.7186744  61.1671829  65.4212369  29.5962762  61.8783514  65.1157667
  30.7913912  65.7497699  65.9508598  30.3173866  65.2239461  66.4613909
  31.1632048  65.2027172  65.3823460  30.7763801  65.5913696  65.9423745
  21.1686942  67.7469206  71.3192144  22.0312555  67.6464915  71.2329474
  20.8378725  67.1663915  70.7577716  21.2472139  67.6460833  71.2237550
  37.0550643  70.8100075  67.3615379  36.8148866  69.9706490  67.3657805
  37.5342650  70.8900242  68.0856152  37.0902826  70.6981475  67.4690181
  32.7197412  66.6434254  59.0134352  32.1920430  66.7262998  58.3240061
  33.1793120  67.3852125  59.0098997  32.7099262  66.7654916  58.9109047
  39.0555830  67.5901532  65.3144638  38.8165600  67.5497366  64.4765422
  39.2189731  68.4372684  65.4410359  39.0446133  67.7093617  65.2098120
  24.5288728  66.5711655  67.9802562  23.9041798  66.5830047  67.3728515
  24.1934323  67.0471830  68.6293802  24.3874220  66.6430172  67.9859131
  24.7130477  64.9136773  54.0375247  24.3643281  65.5656499  54.5006797
  24.2326923  64.8993887  53.3099118  24.5900721  65.0079827  53.9986338
  32.2734494  75.2137817  58.1444009  32.9968693  75.6795930  58.0008582
  31.8335085  75.2811427  57.3941606  32.3150187  75.2921654  58.0128790
  31.4420649  72.0735360  69.3944698  30.8277643  71.5293410  69.6893333
  31.9587934  71.5599596  68.9150514  31.4276312  71.9171769  69.3668926
  30.6816947  73.1439630  67.1288997  30.2544555  72.5189348  66.6954432
  30.6741891  72.8614552  67.9548004  30.6176088  73.0092410  67.1868824
  23.7979474  68.1804803  70.1977431  23.9572960  67.4248127  70.6029153
  23.6172367  68.7295742  70.8518168  23.7944833  68.1498617  70.3540137
  31.7399777  60.3466038  70.7528220  31.2440338  60.5429713  70.0619787
  32.4968839  60.7458707  70.5817022  31.7786601  60.4343772  70.6248357
  29.0102656  64.0208384  67.3431531  29.0345143  63.4868497  66.6544311
  29.2614130  63.5125693  68.0057121  29.0512575  63.8669288  67.3396175
  25.2903978  62.7479203  66.7237275  25.3302350  63.2488409  67.4371982
  24.4653643  62.8389596  66.4543198  25.1743504  62.8361019  66.7887813
  26.7118342  69.2639712  69.0211174  25.8810272  69.4313530  68.8146422
  26.6569859  68.8875663  69.8060059  26.5807757  69.2329444  69.1059702
  24.5202125  62.7548605  74.6567585  25.1454829  62.2110738  74.9297017
  24.0652605  62.2743523  74.0875375  24.5450386  62.6038087  74.6129179
  25.0854386  67.5395304  59.5501292  25.2257347  68.0367768  60.2529933
  25.5836918  66.8381598  59.6915505  25.1795467  67.5097283  59.6752871
  25.1154608  68.4062415  56.8793869  25.7499688  69.0022840  56.8143330
  25.1980219  68.1065873  57.6939739  25.2211159  68.4503323  56.9896955
  26.6933591  64.3376390  56.8539311  27.0149432  63.8579473  56.1998573
  26.9560535  65.1476036  56.6630122  26.7799616  64.3866288  56.7294803
  29.9230564  75.3595265  70.3738127  29.4155655  75.9131111  70.8178757
  29.6257210  75.4203555  69.5556901  29.8035449  75.4501576  70.3186583
  32.0892746  63.7248584  69.2162790  32.5147817  63.2721111  68.6046316
  31.4749739  63.1708655  69.4927577  32.0621391  63.5762560  69.1667815
  21.6207596  70.6030256  60.1483415  22.1299825  71.1994763  60.5294720
  22.0941868  70.3356229  59.4659834  21.7650972  70.6516071  60.1037937
  30.5286969  60.1963684  62.6253367  29.8855287  60.0461330  63.1938505
  30.1886376  59.9506029  61.8602471  30.3832046  60.1375807  62.5956382
  35.1186315  68.1523111  62.0483375  34.4477505  68.6952813  61.9196441
  35.8126065  68.6217966  61.8065070  35.1215183  68.3021382  61.9938903
  23.9798128  67.2386514  63.0156595  23.2610117  67.6550647  63.2829459
  24.3510490  67.8040753  62.4648233  23.9290059  67.3835796  62.9739402
  33.2797709  67.8714363  68.9058591  33.2595636  67.6897658  69.7593370
  33.3276909  68.7426382  68.8818174  33.2832350  67.9730901  69.0281885
  29.7544702  66.2784514  58.3529974  29.1609541  66.6001511  57.8014541
  29.7919980  65.4325610  58.1451081  29.6719091  66.2008842  58.2412746
  36.7138503  59.7297406  65.8858061  36.2069367  59.0226546  65.8179238
  37.5105937  59.3990595  66.0159138  36.7565742  59.5770558  65.8957056
  32.6302519  66.2364019  61.7831725  32.4016212  66.2596720  60.9410083
  32.8900595  65.4121486  61.9026735  32.6348707  66.1180099  61.6756922
  26.9121747  68.0898492  71.3856825  26.4000650  67.4819675  71.7441856
  26.7401243  68.8055084  71.8530801  26.8111384  68.1061791  71.5073049
  25.6847281  64.7740565  63.0785920  26.1604647  65.1357645  62.4436101
  25.1835881  65.4297032  63.3586063  25.6812640  64.9234754  63.0262661
  38.9158643  74.2462333  58.8698925  39.2992249  74.9953689  59.0997022
  38.1202756  74.4928153  58.6110914  38.8552425  74.3932027  58.8656499
  30.7890817  66.0122736  73.8259080  31.3462248  65.7836546  73.1937546
  30.4651882  66.7728402  73.5494293  30.8237228  66.0906573  73.6915578
  27.7273934  66.9181765  56.4459304  28.1072899  66.9361394  55.6610419
  26.9866530  67.3635754  56.3250152  27.6742772  66.9863539  56.3122872
  35.3559225  65.2263956  62.0334883  35.3553451  65.0712612  62.8919159
  35.1515405  66.0726943  61.9776269  35.3259003  65.3284577  62.1522822
  17.4176496  68.6503740  66.4493700  17.2398257  68.1980349  67.1748615
  17.1295518  69.4529902  66.6332177  17.3489449  68.7026298  66.5837202
  33.0800077  69.9061458  65.6871090  33.5753742  69.1884453  65.6475110
  32.2699853  69.6032255  65.5725577  33.0343970  69.7559104  65.6644816
  28.5258688  73.7559271  57.8368094  27.7170011  73.4325944  57.7901404
  29.0333597  73.0492493  57.7696343  28.4808355  73.6040587  57.8198389
  19.1548966  71.1831464  63.5615459  18.2894485  71.1717155  63.4498230
  19.2547782  70.9961687  64.4086598  19.0423133  71.1537525  63.6704403
  35.1451896  72.6565145  68.3748219  35.5706967  72.1339567  67.8218644
  34.7808816  73.2545983  67.8536842  35.1538498  72.6675372  68.2157228
  31.7330495  76.3699409  64.7049376  32.2041673  77.0839672  64.8739361
  32.0690674  75.7698160  65.2409246  31.8525610  76.3870874  64.8081752
  28.6499990  61.1426880  71.6607471  28.7827896  60.3457873  71.9888446
  29.0345143  61.6693283  72.2405747  28.7256319  61.1026797  71.7950974
  31.7232345  58.0657206  68.2588564  30.9178309  57.9554936  68.5756402
  31.5939081  58.1669662  67.4018430  31.5852478  58.0640876  68.1796605
  35.1798306  64.2302698  68.8528261  34.5961295  64.7311905  68.4405828
  35.5002600  63.7232254  68.2192584  35.1411481  64.2294533  68.6986768
  27.7193105  63.1443293  59.1286936  28.5408799  63.3141606  58.8868631
  27.2562756  63.2990554  58.4053233  27.7724267  63.1925026  58.9858580
  26.3088437  61.1386055  69.9085365  26.8532850  60.7977182  70.4989706
  26.3625373  61.9971517  70.0506649  26.3977556  61.2141314  70.0167238
  31.9362768  77.1668416  67.9986410  32.7561142  77.0231382  68.2602705
  31.6556845  77.7914615  68.5402848  32.0159511  77.2378768  68.1174349
  38.3351890  78.7587985  64.6872600  38.0055220  79.2099128  64.0176299
  37.6596892  78.6804148  65.2345606  38.1862326  78.8139120  64.6695823
  45.5428298  74.7473508  62.9322211  45.2281739  75.4376986  63.3642633
  45.0255239  74.6918290  62.2307711  45.4192768  74.8408396  62.8919160
  36.5407844  76.8200273  60.1695548  37.2953812  77.1878590  59.9312598
  36.3635379  77.1939827  60.9374727  36.6262322  76.9298461  60.2480436
  34.8964909  79.2270592  56.8673661  34.7140482  79.4442473  56.0414653
  35.7590522  79.3409605  56.9232275  34.9969498  79.2760490  56.7528148
  40.5764628  76.2297003  59.9022684  41.3050788  76.0512958  59.4560841
  40.6659521  77.0715083  60.1129863  40.6971290  76.3280881  59.8676202
  35.6458915  77.6426476  62.7483732  34.7781340  77.7149076  62.8141341
  35.9334119  78.4448555  62.9371707  35.5598663  77.7720623  62.7858498
  44.9602833  72.8567529  64.8788860  45.0786401  73.3143993  64.1456163
  44.7865009  72.0512791  64.5925078  44.9522004  72.8061301  64.7289794
  41.9280397  74.7118332  65.8207522  41.0573955  74.6857053  65.7740832
  42.1820738  74.5395524  65.0033368  41.8373957  74.6828475  65.6927659
  41.4355600  78.9915000  58.9469672  41.8899346  79.1625560  59.6717516
  41.9095646  78.3783110  58.5467447  41.5723920  78.9265885  58.9943433
  40.6948195  77.4907793  65.0846540  39.8484240  77.6630601  64.9587890
  40.6919328  76.6857137  65.4212369  40.5695345  77.3968822  65.1157667
  43.6929995  82.1619562  59.0134352  43.1653014  82.2448306  58.3240061
  44.1525704  82.9037433  59.0098997  43.6831846  82.2840224  58.9109047
  37.6666175  79.8561698  56.8539311  37.9882016  79.3764781  56.1998573
  37.9293118  80.6661344  56.6630122  37.7532200  79.9051596  56.7294803
  41.5019552  75.7148992  62.6253367  40.8587870  75.5646638  63.1938505
  41.1618959  75.4691337  61.8602471  41.3564630  75.6561114  62.5956382
  38.6925689  78.6628601  59.1286936  39.5141383  78.8326914  58.8868631
  38.2295339  78.8175862  58.4053233  38.7456851  78.7110334  58.9858580
  15.1829491  15.2055475  47.8969333  15.1523496  16.0600112  48.0687602
  15.7810840  14.9050768  48.4555477  15.2666649  15.2871972  48.0044135
   8.3829176  14.2931126  52.6522264   7.5267072  14.4539625  52.7031380
   8.4296830  13.4223190  52.6727325   8.2628288  14.1881928  52.6628330
   2.7670316  23.8293844  48.4159495   2.0153215  23.4509383  48.1875540
   3.2156328  23.8612278  47.6678305   2.7219983  23.7779451  48.2716997
  11.6922893  20.5617652  62.2582720  12.3989660  20.0669683  62.3869654
  11.8810828  21.0026734  61.5285378  11.8250798  20.5536002  62.1691765
   8.2195276  24.2519214  43.8445042   7.8846644  24.9296135  43.4089264
   8.7322146  23.8624525  43.2561914   8.2460857  24.2943792  43.6931834
   7.7599567  26.2033482  49.7856154   8.1438946  26.7720381  49.2460929
   7.6958708  25.4782993  49.3061970   7.8072994  26.1808946  49.6350016
  11.2280997  16.3523170  55.2953915  11.7736957  17.0308257  55.3547885
  11.1697874  16.2110631  54.4355497  11.2996912  16.4315172  55.1765976
   4.3455072  23.8412236  50.6822268   4.4465435  23.0312590  50.9919395
   3.7496817  23.7469183  50.0521946   4.2727611  23.7077265  50.6348506
  13.0046066  17.7807777  46.1687643  12.8885592  18.5315464  46.5979781
  13.8001953  17.5231731  46.4183730  13.1050655  17.8542624  46.2691735
   4.1855812  28.7589826  52.0837124   4.8293267  29.2002990  52.4733282
   4.5112067  27.9543252  51.9967382   4.3287640  28.7055020  52.1282601
   4.8876391  21.7701800  47.4556985   5.2092233  22.3107008  46.8518293
   5.5348488  21.1998572  47.5879275   5.0302447  21.7660976  47.3864021
   6.9378100  13.7717795  47.5391372   7.6358264  13.9505923  48.0312835
   7.2530432  13.2488135  46.9161761   7.0873437  13.7211568  47.5193382
   7.1266035  20.1588240  47.5271164   7.5659670  19.5505341  47.9725936
   6.9770698  19.7795614  46.7556629   7.1687501  20.0126712  47.4790331
   4.5937678  18.7532252  54.7289989   5.2386680  18.2604695  54.4100938
   4.8339455  18.8957039  55.5556067   4.7248263  18.7009694  54.8039522
   7.1323769  21.5987158  54.3796882   7.4147012  20.8038564  54.1583637
   7.8609930  22.0767746  54.4001943   7.2813333  21.5521755  54.3499897
  10.7275371  18.5115422  44.4801933  10.6426667  19.3676388  44.6251502
  11.2159755  18.2359746  45.1484092  10.7864269  18.5972743  44.6004014
  12.3181371   5.1295715  49.8662257  12.0034812   5.8199194  50.2982680
  11.8008313   5.0740497  49.1647758  12.1945841   5.2230604  49.8259206
  11.6593805  15.1300216  45.9799668  11.1305276  15.3459849  46.6396974
  12.1818825  15.8236354  45.9000637  11.6582258  15.2643353  46.0655267
  17.1141858  20.7046520  51.3532712  16.2839561  20.9157164  51.5166129
  17.0651110  19.8783575  51.0774996  16.9848593  20.6136127  51.3370078
   3.5493412  19.0263433  44.7807136   2.9650628  19.5313464  45.1873000
   3.1463508  18.8005820  44.0403728   3.4032716  19.0671681  44.7312161
   5.1751595  23.5350374  54.1880622   4.6578537  23.1757790  53.5841930
   5.8725986  23.0112549  54.1986688   5.2017176  23.4048062  54.1010881
   8.8315187  23.9845189  60.1496795   8.9198533  23.7971329  60.9975005
   9.2604900  23.3382618  59.7501642   8.9077289  23.8608196  60.2168546
   6.3985647  23.2676349  59.1314457   5.8356482  22.8548958  59.6554118
   7.1606670  23.1929254  59.5507600   6.4280096  23.1953749  59.2707457
   8.0070627  15.2729085  43.2576056   8.2466631  15.4807068  42.4451400
   8.3286468  14.4686593  43.3665001   8.0907785  15.1843186  43.1536610
  16.6095816  13.3516921  55.1483134  15.7724237  13.4219108  55.3830728
  16.5784047  13.3541416  54.2757436  16.4814098  13.3627148  55.0542682
   1.2832414  21.4480722  51.2436695   2.1221313  21.6803654  51.2910457
   1.3144183  20.5785033  51.1743731   1.4114131  21.3537668  51.2401340
   1.9085117  21.8681597  55.5450001   2.4483342  21.7252728  56.2153373
   1.2255063  22.2678348  55.9134027   1.8877271  21.9061268  55.6984423
  11.3326002  17.5472598  50.7395025  12.0883517  17.9804112  50.7783934
  11.4388326  16.8977367  51.3129661  11.4596172  17.5150081  50.8293051
  14.3706173  21.3745875  51.4897428  13.9341405  21.3782617  52.2456400
  14.0369088  22.0551374  51.0577006  14.2568793  21.4758331  51.5378261
   8.9435246  23.4154208  62.8140578   9.7275663  23.5285055  63.1796321
   8.7431841  22.5895345  63.0099264   9.0301272  23.3100927  62.8974965
  14.2903656   8.4159703  53.7326856  14.9329564   8.4857807  54.3188771
  14.5426676   7.7488925  53.2306398  14.4225788   8.3286051  53.7454135
   1.2180009  12.8866972  42.3136180   0.5038186  12.6005152  42.7258613
   1.7023978  13.2263598  42.9542568   1.1839372  12.8948622  42.4691815
   9.1005640  25.3264310  56.4607034   8.3020886  25.0863810  56.7180903
   9.5491651  25.3778703  57.2074082   9.0480251  25.2986701  56.6091958
  17.5050519  18.0926795  50.3817065  18.1666953  17.5317463  50.2812974
  16.8641931  17.5978825  50.7069757  17.5079387  17.9363204  50.4149406
   8.3927327  21.3896926  42.6897989   8.8078475  21.0581950  41.9982484
   7.5619256  21.1565828  42.5618125   8.3315335  21.3068182  42.5688836
  13.7915350  19.1092177  50.1229054  14.0270939  19.2537376  49.2955905
  13.9404913  19.8734585  50.5160568  13.8481153  19.2431231  50.0592658
  15.6205806  17.9493843  47.9598658  15.9514024  18.4821483  47.3538753
  16.1938895  18.0032731  48.6160609  15.7539486  18.0363412  47.9676440
  10.8337696  15.7958746  48.6422238  10.9284550  16.5348040  49.0961864
  10.2096539  15.3676221  49.0756803  10.7546726  15.8420066  48.7730386
   9.0890169  18.9744958  59.2912519   9.6629031  18.3372203  59.4461083
   9.0104973  18.9749041  58.4222177   9.1623404  18.8810070  59.1858930
  11.0860717  17.6407485  41.8759190  11.0040879  17.7109673  42.7414177
  11.7240437  18.2037229  41.6842931  11.1680554  17.7346457  41.9749140
   4.4453888  17.4068223  51.3433716   4.1873132  16.5739958  51.3165016
   4.5002371  17.6325836  50.5026217   4.4153666  17.3165995  51.2153853
   9.5254938   9.5096674  51.4437809   8.8211265   9.0205860  51.6021728
   9.5739913   9.5219149  50.5726254   9.4284990   9.4386322  51.3377149
   3.4188600  14.9605986  51.8298611   2.8438191  15.1198154  52.4662572
   3.0424276  14.3241395  51.3667062   3.2791413  14.8903799  51.8553170
   7.0861889  13.4329335  56.6890990   6.6976322  13.0083553  56.0343181
   6.4216587  13.6811485  57.1968016   6.9308817  13.4068056  56.6678858
  16.7285158  13.1904340  49.4638820  16.4721723  12.3784281  49.2736702
  17.5714472  13.1981907  49.2369007  16.8151183  13.0716337  49.4023637
  10.9088250   7.1303964  54.2014974  11.2898762   6.4482135  54.5882848
  10.1051535   6.8413566  54.0190638  10.8464712   6.9871012  54.2319030
   8.1900827  17.6627940  44.8867797   9.0041466  17.9542833  44.7750568
   8.1259968  17.0087802  44.3126090   8.3003566  17.6093135  44.7856634
  14.4110317  20.3453936  59.2997372  14.1748955  19.5142001  59.1809433
  15.0553546  20.2939543  59.8852216  14.4704988  20.2151624  59.3683266
   4.0608735  21.1349457  50.0140109   4.6982682  20.8961205  50.5591902
   4.4863807  21.3386616  49.2793269   4.2184902  21.1300467  49.9857266
   4.7011550  16.3551747  44.3514998   5.0856703  16.1359454  45.1031543
   4.4523171  17.1814692  44.4816074   4.7213623  16.4449893  44.4816074
  15.4346738  20.1298385  55.3625667  15.1292555  20.8626442  55.7238982
  14.7152954  19.7236314  55.0818453  15.2834080  20.1780118  55.3738804
   6.4430207  21.6121880  51.6933895   6.5169216  21.4497052  52.5475745
   7.2599714  21.8012069  51.4494377   6.5746566  21.6158622  51.7831921
  21.1348530  16.7691385  54.6894011  21.0673030  16.7887344  53.8196598
  21.1204192  17.6121713  54.9149682  21.1227286  16.8965120  54.5946488
   4.9834793  24.5756623  46.4247368   5.2733091  24.1845604  45.7006595
   5.7138274  24.7573328  46.8652644   5.1341677  24.5450437  46.3830175
  18.9207147  15.5435772  52.9640605  19.4715069  14.9103841  53.2037697
  18.9051263  16.0751164  53.6556110  18.9992344  15.5284720  53.1019464
   5.5729538  19.3774369  57.5100499   5.0741232  20.0890137  57.5885387
   6.3829762  19.6975035  57.4718661   5.6185645  19.5301217  57.5157067
   2.9240709  26.5524005  49.4907518   2.7041004  26.2621360  50.2834185
   2.7035231  25.8938960  48.9625430   2.8588303  26.4123714  49.5296427
   1.8357656  18.6397322  51.7563220   1.5470904  18.0134793  52.2908947
   2.7041004  18.5817609  51.8227900   1.9217908  18.5384866  51.8454174
  12.6235554  13.7832105  52.0745202  12.2800319  13.0622440  52.4252451
  12.7228596  13.5745956  51.2323560  12.5877596  13.6456308  52.0016882
   5.0908664  27.9253395  48.2738210   5.7432722  27.3929838  48.5029236
   4.3934273  27.5722048  48.6606084   5.0839382  27.7942918  48.3650378
   2.0389929  20.2792573  47.6805585   2.7935897  20.6605612  47.8941047
   1.4460542  20.7303717  48.1352281   2.0626643  20.4021400  47.7788463
  13.0848583  20.2457809  47.6169190  13.6506615  20.9051019  47.5327733
  12.4376486  20.5907507  48.0885592  13.0727339  20.3939751  47.6741946
   3.3588156  21.4501134  53.0545700   2.8368909  21.5901426  53.7397565
   3.7462176  20.6911799  53.2447817   3.3391857  21.3586658  53.1846777
   9.5555161  23.1896593  47.0406269   9.3141837  22.4564454  46.6333334
   9.7356494  23.7383450  46.3872602   9.5462785  23.1618985  46.8836492
   4.7854481  18.4805153  48.4527191   4.5897264  19.0879888  47.8587494
   5.0088827  17.7873097  47.9718865   4.7889122  18.4682679  48.2943272
   3.1833011  15.3659891  48.5708060   3.9055663  15.5301049  48.1111866
   2.7041004  16.0869556  48.4647399   3.2196742  15.4958121  48.4873674
  11.1426519  11.7023690  53.9504744  10.3037620  11.7284969  53.7143008
  11.2130886  12.3494425  54.5310091  11.0294912  11.8019816  54.0013861
   0.8340628  17.7717964  57.6762199   1.3461725  18.0502217  57.0270959
   0.5476971  18.5107258  58.0425012   0.8675491  17.9220317  57.6352077
   9.5895797   8.6009067  48.6832360  10.2922150   8.4016815  48.2052319
   9.3239986   7.8285009  48.9901204   9.6542430   8.4572033  48.6577802
  15.0184043  16.9091677  51.2365986  14.9318017  17.0647103  52.0900765
  14.5634523  17.5529752  50.8625391  14.9387299  17.0267432  51.3073093
   8.8909859  14.2302424  49.8591546   8.6444573  14.1498175  50.6928335
   9.2194982  13.4455892  49.6654073   8.9031102  14.1028689  49.9539069
  12.7857908  20.9385783  53.6478327  12.6472267  21.6366829  54.1527069
  12.0057906  20.7834440  53.2914509  12.6501135  21.0185950  53.6704601
  11.1235993  17.2382159  59.9000709  11.1184031  16.3661975  59.9043135
  11.8296987  17.4370328  59.4270164  11.2280997  17.1386033  59.8307744
   4.8506886  16.9659142  59.2714529   4.9950262  17.5460351  58.6357639
   5.1982535  17.3435439  59.9764383   4.9234348  17.1079846  59.2813524
   7.0226804  16.1649311  57.0539660   6.2750118  16.3580325  56.6487938
   7.1768329  15.3394530  56.8163782   6.9349231  16.0714422  56.9585066
   3.9234641  25.1561914  56.1375556   4.0724205  24.5964830  55.4848960
   4.7034643  25.2353916  56.5208074   4.0608735  25.0847480  56.0972505
  14.2811281  20.2964037  44.4094826  13.9018089  19.5101175  44.4024116
  13.6177526  20.8450894  44.2666470  14.1269755  20.2608861  44.3875623
   6.4487942  25.3276557  57.4160046   6.3731613  24.6585368  57.9710835
   6.3777801  26.0294345  57.9300713   6.4268549  25.3321464  57.5736895
   7.1058189  23.8477556  48.2483652   7.8708080  23.5787200  47.9266317
   7.0036279  23.3627566  48.9653715   7.2039684  23.7367121  48.3063480
   5.1410958  12.0501965  54.7876888   4.3507033  11.8693426  55.1094224
   5.5371581  11.2728918  54.7707183   5.0827835  11.9089426  54.8329437
   9.6276849  20.8789740  40.2283602  10.3949834  20.9389865  39.8189454
   9.1808158  20.3070181  39.7439920   9.6750276  20.8026315  40.0961312
  10.5254645  19.6844396  52.5136334   9.8499647  19.4529628  53.0149721
  10.5347021  19.0765579  51.8878439  10.4273149  19.5603321  52.4952486
  12.5271379  22.5409528  44.7446512  12.6091217  23.3476514  44.4207963
  13.0121122  22.5605487  45.4687286  12.6108537  22.6630190  44.8033411
   6.3367883  17.2194364  53.4116590   5.9130132  17.4198863  52.6755608
   6.1612738  16.3723212  53.5240890   6.2478763  17.1243145  53.3190280
   5.8379576  28.7344877  55.8738047   6.3275506  28.0355666  55.6913712
   5.2663808  28.4368747  56.4614105   5.8264106  28.5871101  55.9339088
   1.6250328  17.7146415  48.8444562   1.7814947  17.6493218  49.7000555
   1.9650921  18.4894968  48.6323242   1.6983562  17.8195613  48.9399157
   8.1629472  17.0904299  47.7137926   8.7045018  16.5874680  48.1776546
   8.4776031  17.0369494  46.9027411   8.2893869  17.0083720  47.6621738
  12.0346580  21.3006946  64.8264838  12.8481445  21.0292095  64.9869970
  11.8741546  21.0014486  64.0225034  12.1316528  21.2161872  64.7310244
   6.3315922  22.4821650  44.9977954   6.4008742  21.6236189  45.1370954
   7.1104377  22.6993531  44.6696978   6.4568772  22.3874514  44.9695111
   9.3118742  11.9840603  57.7660226   9.5260711  11.3451518  57.2123580
   8.6952641  12.4286427  57.3368088   9.2524071  11.9550747  57.6210657
  10.7223409  24.9059352  49.2114447  10.3303201  24.6026067  48.4937313
  10.8776482  25.7428442  49.0219401  10.6876999  24.9843188  49.0770944
  11.4757830  13.5929669  58.7043533  10.6634511  13.2855559  58.7856706
  11.9347764  13.1128669  59.2686245  11.4238214  13.4766161  58.7998127
  10.8863084  21.4709341  49.1520478  10.5277739  21.6423983  49.9284510
  10.4001795  21.9322546  48.5948476  10.7621781  21.5648312  49.1845747
   5.6751450  17.1508506  41.6920712   5.9643974  17.9273389  41.9664286
   5.7623249  16.6397237  42.3935211   5.7305706  17.1900424  41.8363210
  12.0467824  22.3613237  60.0987678  12.6847544  21.8673432  59.7650135
  11.4041915  22.2890637  59.5139905  12.0462050  22.2772245  59.9630033
  13.7724824  14.2102383  54.6653594  13.3452432  14.1228731  53.9101694
  13.1350877  14.3180158  55.2508438  13.6154431  14.2135042  54.6399036
  12.1022080  23.0533045  56.7393035  12.8914458  22.7022110  56.8595117
  12.2765678  23.8669433  56.4769669  12.2442362  23.1218902  56.7180903
   1.8415391  16.4641771  53.7920824   1.0003397  16.3645645  53.9999718
   2.0505399  17.2337251  54.1435145   1.7480083  16.5633814  53.8748139
  10.9555904   7.0642602  51.3009454  11.1605498   6.9964909  52.1466451
  10.6282328   7.8701423  51.2330631  10.9371152   7.1728542  51.4169109
   5.6532055  14.3923170  53.0418422   5.3495193  13.8379158  53.6428829
   4.9511476  14.5715380  52.5546456   5.5048265  14.3367952  53.0588127
   4.7098153  11.7023690  47.6063123   4.9857887  10.9842602  47.1940691
   5.3096822  12.3008609  47.3984230   4.8391417  11.6844060  47.5143885
   3.7150407  21.6072890  57.7490519   3.6070761  21.6174953  58.6152577
   3.9246188  22.4327671  57.5595473   3.7300518  21.7313965  57.8494611
  14.2089592   7.6174366  50.7812219  13.5963906   8.1044768  51.1665951
  14.3053767   6.9417857  51.3249870  14.1327490   7.5892675  50.9191077
   8.2108673   9.3737207  45.8809718   8.6652420   9.5447767  46.6057563
   8.6848719   8.7605318  45.4807494   8.3476993   9.3088092  45.9283480
   1.7324199  18.8585533  55.2112457   1.1412132  19.4995031  55.1815472
   2.4945222  19.2823150  55.1843756   1.7572459  19.0161371  55.2027604
  17.8514620  18.6891303  56.2089735  17.9097744  19.1377951  56.9549712
  17.2181088  19.0990115  55.7719815  17.7665915  18.8165037  56.2542284
  11.4913715  24.3094844  52.6444481  11.2933403  24.7985659  51.9500693
  10.8701426  24.5136086  53.2228615  11.3701279  24.4111383  52.6267705
   5.5521693  16.0779741  46.9854726   6.2963738  16.4654018  47.2237676
   5.6982389  15.2337167  47.1495214   5.6832278  16.0110214  47.0448695
   8.5399569  11.6505215  52.8848645   8.0659523  11.1246977  53.3953956
   8.9117705  11.1034687  52.3163507   8.5249458  11.4921211  52.8763792
  14.8036300  16.7107590  54.2955426  14.5634522  15.8714005  54.2997852
  15.2828307  16.7907757  55.0196199  14.8388483  16.5988990  54.4030228
  10.4683069  12.5441769  45.9474399   9.9406087  12.6270513  45.2580108
  10.9278777  13.2859641  45.9439044  10.4584919  12.6662432  45.8449094
  16.8041487  13.4909047  52.2484685  16.5651257  13.4504882  51.4105469
  16.9675388  14.3380200  52.3750406  16.7931790  13.6101132  52.1438167
  13.4087517  17.8758997  58.1789730  14.1321716  17.4231523  58.0000750
  13.1437479  18.1563662  57.3962058  13.4768790  17.8509965  58.0368445
   2.2774385  12.4719170  54.9142609   1.6527455  12.4837562  54.3068562
   1.9419980  12.9479345  55.5633849   2.1359877  12.5437687  54.9199178
  10.0220151  21.1145333  45.0784056  10.7454350  21.5803446  44.9348629
   9.5820742  21.1818942  44.3281653  10.0635843  21.1929169  44.9468837
   9.1906306  17.9742875  56.3284745   8.5763299  17.4300925  56.6233380
   9.7073591  17.4607111  55.8490561   9.1761969  17.8179284  56.3008973
   8.4302603  19.0447145  54.0629044   8.0030211  18.4196864  53.6294479
   8.4227548  18.7622067  54.8888051   8.3661745  18.9099926  54.1208871
   6.7588313   9.9215900  54.2771578   6.7830800   9.3876012  53.5884357
   7.0099787   9.4133208  54.9397168   6.7998232   9.7676804  54.2736222
   4.4603999  15.1647228  55.9551221   3.6295928  15.3321046  55.7486469
   4.4055516  14.7883178  56.7400106   4.3293414  15.1336959  56.0399749
   2.8340042  13.4402819  46.4841339   2.9743004  13.9375283  47.1869980
   3.3322575  12.7389114  46.6255552   2.9281123  13.4104798  46.6092918
   2.8640265  14.3069930  43.8133915   3.4985344  14.9030355  43.7483377
   2.9465876  14.0073388  44.6279786   2.9696816  14.3510838  43.9237002
  15.8422831  16.8385408  56.6820280  16.4340671  17.4782658  56.7138478
  16.2781825  16.1408444  56.9712346  15.9941262  16.8303758  56.7301112
   4.4419248  10.2383906  43.7879357   4.7635089   9.7586988  43.1338620
   4.7046191  11.0483552  43.5970169   4.5285273  10.2873804  43.6634849
   7.6716221  21.2602780  57.3078173   7.1641312  21.8138627  57.7518804
   7.3742867  21.3211070  56.4896948   7.5521105  21.3509091  57.2526630
   9.8378403   9.6256100  56.1502836  10.2633474   9.1728626  55.5386363
   9.2235396   9.0716170  56.4267624   9.8107048   9.4770076  56.1007862
  10.2824001  25.1766038  45.2382117   9.5653311  25.0026900  44.7729354
  10.9330738  24.9418610  44.7057603  10.2725851  25.1161830  45.0911335
  12.8671972  14.0530626  48.9823422  12.1963162  14.5960328  48.8536488
  13.5611722  14.5225482  48.7405117  12.8700840  14.2028897  48.9278950
   6.9158706  26.1927338  54.2135180   6.6924360  25.4346167  54.5819207
   6.4268549  26.2225359  53.4915620   6.8102155  26.0849563  54.1611921
  13.0300100  10.5086510  51.8913795  13.3827710  10.0816233  52.5659594
  12.1714901  10.4237353  52.0214872  12.9549544  10.4331250  52.0108806
   1.7283784  13.1394030  49.9496642   1.0095774  13.5558162  50.2169505
   2.0996147  13.7048268  49.3988280   1.6775716  13.2843311  49.9079449
  11.0283365  13.7721878  55.8398638  11.0081293  13.5905174  56.6933416
  11.0762566  14.6433897  55.8158221  11.0318006  13.8738417  55.9621932
   8.9729695  20.3609070  61.7647114   8.9325550  19.7158747  61.1792270
   9.7853013  20.3045688  62.0772526   9.0872849  20.2568037  61.7244063
   5.5637163  26.4127796  51.6672265   5.1497561  25.7501927  51.2776107
   6.2484537  26.5605655  51.1467959   5.6035534  26.3368454  51.5328762
   8.9302457  25.5717882  52.4195882   8.5318740  25.6820152  51.6516702
   8.3153676  25.7799948  53.0022441   8.7801346  25.6191450  52.3927181
   7.5030359  12.1792029  45.2870021   6.9095198  12.5009026  44.7354588
   7.5405637  11.3333125  45.0791127   7.4204748  12.1016358  45.1752793
  14.4624160   5.6304922  52.8198108  13.9555024   4.9234061  52.7519285
  15.2591593   5.2998111  52.9499184  14.5051399   5.4778073  52.8297103
  10.3788175  12.1371534  48.7171771  10.1501868  12.1604235  47.8750130
  10.6386252  11.3129001  48.8366782  10.3834363  12.0187614  48.6096969
   3.4332938  10.6748080  50.0125967   3.9090304  11.0365160  49.3776148
   2.9321538  11.3304548  50.2926110   3.4298297  10.8242269  49.9602708
  16.6644300  20.1469848  45.8038972  17.0477905  20.8961204  46.0337069
  15.8688413  20.3935668  45.5450961  16.6038082  20.2939542  45.7996546
   5.4759591  12.8189280  43.3799351   5.8558556  12.8368909  42.5950466
   4.7352187  13.2643269  43.2590198   5.4228429  12.8871055  43.2462919
  13.1044882  11.1271471  48.9674930  13.1039108  10.9720128  49.8259206
  12.9001062  11.9734458  48.9116315  13.0744659  11.2292092  49.0862869
  10.8285734  15.8068973  52.6211137  11.3239399  15.0891968  52.5815157
  10.0185509  15.5039771  52.5065624  10.7829627  15.6566619  52.5984863
   6.2744345  19.6566786  44.7708141   5.4655668  19.3333460  44.7241451
   6.7819254  18.9500008  44.7036390   6.2294012  19.5048103  44.7538436
  12.8937553  18.5572661  55.3088265  13.3192624  18.0347082  54.7558690
  12.5294472  19.1553498  54.7876888  12.9024155  18.5682888  55.1497275
   2.5291632  26.8536878  54.0685611   2.8438191  27.6673266  54.0763393
   2.9385046  26.4687097  54.7367770   2.6359730  26.9165580  54.1689703
   9.4816152  22.2706925  51.6389423   9.9527330  22.9847187  51.8079408
   9.8176330  21.6705675  52.1749292   9.6011267  22.2878389  51.7421799
  11.5693137  23.8808238  63.8181495  11.6790102  23.0916799  64.1738242
  11.8984033  23.7914174  63.0155833  11.6345542  23.7514091  63.7523886
  10.1190098  22.0624859  58.4017116   9.5711044  21.4382743  58.1337181
  10.5803127  22.2519131  57.6861195  10.1057308  21.9983909  58.2567547
  12.9283963  10.1310213  55.7868308  12.3446951  10.6319420  55.3745875
  13.2488257   9.6239770  55.1532631  12.8897138  10.1302048  55.6326815
   5.4678762   9.0450808  46.0626983   6.2894456   9.2149121  45.8208678
   5.0048413   9.1998069  45.3393280   5.5209924   9.0932541  45.9198627
   9.6848425  23.0675932  54.9326457  10.5046798  22.9238898  55.1942752
   9.4042502  23.6922131  55.4742895   9.7645168  23.1386284  55.0514396
  26.1562075  30.7240783  47.8969333  26.1256079  31.5785420  48.0687602
  26.7543424  30.4236076  48.4555477  26.2399233  30.8057280  48.0044135
  19.3561760  29.8116434  52.6522264  18.4999655  29.9724933  52.7031380
  19.4029414  28.9408498  52.6727325  19.2360871  29.7067236  52.6628330
  13.7402900  39.3479152  48.4159495  12.9885799  38.9694691  48.1875540
  14.1888911  39.3797586  47.6678305  13.6952566  39.2964759  48.2716997
  22.6655476  36.0802960  62.2582720  23.3722244  35.5854991  62.3869654
  22.8543412  36.5212041  61.5285378  22.7983382  36.0721310  62.1691765
  19.1927859  39.7704522  43.8445042  18.8579228  40.4481443  43.4089264
  19.7054730  39.3809833  43.2561914  19.2193441  39.8129100  43.6931834
  18.7332151  41.7218790  49.7856154  19.1171530  42.2905689  49.2460929
  18.6691292  40.9968301  49.3061970  18.7805578  41.6994254  49.6350016
  22.2013581  31.8708478  55.2953915  22.7469541  32.5493565  55.3547885
  22.1430457  31.7295939  54.4355497  22.2729495  31.9500480  55.1765976
  15.3187656  39.3597544  50.6822268  15.4198019  38.5497898  50.9919395
  14.7229401  39.2654491  50.0521946  15.2460194  39.2262572  50.6348506
  23.9778650  33.2993085  46.1687643  23.8618175  34.0500771  46.5979781
  24.7734536  33.0417039  46.4183730  24.0783239  33.3727932  46.2691735
  15.1588395  44.2775134  52.0837124  15.8025851  44.7188298  52.4733282
  15.4844651  43.4728560  51.9967382  15.3020224  44.2240328  52.1282601
   8.5152700  35.3817831  50.3074601   8.2802884  34.5485483  50.2006870
   8.6538341  35.6622497  49.4935802   8.5008362  35.3001334  50.1716956
  10.8142787  27.5503562  53.2058909  10.1947819  26.9596209  53.0368924
  10.7126651  28.1414997  52.5723232  10.7080463  27.5507644  53.0863899
  15.8608975  37.2887108  47.4556985  16.1824816  37.8292316  46.8518293
  16.5081072  36.7183880  47.5879275  16.0035030  37.2846284  47.3864021
  17.9110683  29.2903103  47.5391372  18.6090848  29.4691231  48.0312835
  18.2263016  28.7673443  46.9161761  18.0606020  29.2396875  47.5193382
  10.5411920  31.0955843  55.4502478  10.4170617  31.6818289  56.0852297
  11.1930205  30.6016039  55.7514753  10.6185570  31.1094648  55.5888407
  18.0998618  35.6773548  47.5271164  18.5392254  35.0690649  47.9725936
  17.9503281  35.2980922  46.7556629  18.1420084  35.5312019  47.4790331
  15.5670261  34.2717560  54.7289989  16.2119264  33.7790003  54.4100938
  15.8072039  34.4142347  55.5556067  15.6980847  34.2195002  54.8039522
  18.1056353  37.1172466  54.3796882  18.3879596  36.3223872  54.1583637
  18.8342513  37.5953054  54.4001943  18.2545917  37.0707063  54.3499897
  16.0837547  24.6595500  51.6212647  15.7540877  25.1106644  50.9516345
  15.4082548  24.5811663  52.1685653  15.9347983  24.7146635  51.6035870
  21.7007955  34.0300730  44.4801933  21.6159250  34.8861696  44.6251502
  22.1892338  33.7545054  45.1484092  21.7596852  34.1158051  44.6004014
  23.2913954  20.6481023  49.8662257  22.9767395  21.3384501  50.2982680
  22.7740896  20.5925805  49.1647758  23.1678425  20.7415911  49.8259206
  22.6326388  30.6485524  45.9799668  22.1037860  30.8645157  46.6396974
  23.1551408  31.3421662  45.9000637  22.6314841  30.7828661  46.0655267
  14.5225996  34.5448741  44.7807136  13.9383211  35.0498772  45.1873000
  14.1196091  34.3191128  44.0403728  14.3765300  34.5856989  44.7312161
  10.0770025  40.2603502  51.5830807   9.5937603  40.9853991  51.5590391
  10.8893343  40.5579632  51.6940965  10.1260772  40.4105855  51.5958087
  16.1484179  39.0535682  54.1880622  15.6311120  38.6943097  53.5841930
  16.8458570  38.5297857  54.1986688  16.1749760  38.9233370  54.1010881
  19.8047771  39.5030497  60.1496795  19.8931117  39.3156637  60.9975005
  20.2337483  38.8567926  59.7501642  19.8809873  39.3793504  60.2168546
  17.3718230  38.7861656  59.1314457  16.8089065  38.3734266  59.6554118
  18.1339254  38.7114562  59.5507600  17.4012679  38.7139057  59.2707457
  18.9803210  30.7914393  43.2576056  19.2199214  30.9992376  42.4451400
  19.3019051  29.9871901  43.3665001  19.0640368  30.7028494  43.1536610
  14.2893501  22.7207788  47.1035594  15.0439469  23.0886105  46.8652645
  14.1121035  23.0947343  47.8714774  14.3747979  22.8305976  47.1820483
  12.9314222  40.7759678  51.7351087  13.6334801  40.2611667  51.7923844
  12.8511705  41.1033829  52.5397962  13.0237982  40.7473904  51.8623879
  27.5828399  28.8702229  55.1483134  26.7456821  28.9404416  55.3830728
  27.5516630  28.8726724  54.2757436  27.4546682  28.8812456  55.0542682
  13.9793128  31.0135265  60.8631502  14.1513632  30.9041159  61.7116784
  14.5162486  31.6589670  60.6262695  14.0838132  31.0927266  60.9536599
  12.6450565  25.1278107  43.8013707  12.4626139  25.3449988  42.9754700
  13.5076178  25.2417120  43.8572322  12.7455155  25.1768005  43.6868194
  12.2564997  36.9666030  51.2436695  13.0953897  37.1988962  51.2910457
  12.2876767  36.0970341  51.1743731  12.3846715  36.8722976  51.2401340
  12.8817700  37.3866905  55.5450001  13.4215925  37.2438036  56.2153373
  12.1987647  37.7863656  55.9134027  12.8609854  37.4246576  55.6984423
  18.3250285  22.1304518  46.8362731  19.0536445  21.9520473  46.3900887
  18.4145177  22.9722598  47.0469909  18.4456947  22.2288396  46.8016249
  22.3058585  33.0657905  50.7395025  23.0616100  33.4989420  50.7783934
  22.4120910  32.4162675  51.3129661  22.4328756  33.0335389  50.8293051
  25.3438756  36.8931183  51.4897428  24.9073988  36.8967925  52.2456400
  25.0101672  37.5736682  51.0577006  25.2301376  36.9943638  51.5378261
  19.9167830  38.9339516  62.8140578  20.7008247  39.0470363  63.1796321
  19.7164425  38.1080653  63.0099264  20.0033855  38.8286235  62.8974965
   8.2854845  33.6067196  55.6984422   8.0193261  32.7906312  55.8575413
   8.2993410  33.6520351  54.8279938   8.2479568  33.4924100  55.5937904
  25.2636239  23.9345011  53.7326856  25.9062148  24.0043115  54.3188771
  25.5159260  23.2674233  53.2306398  25.3958371  23.8471359  53.7454135
  12.1912592  28.4052280  42.3136180  11.4770770  28.1190460  42.7258613
  12.6756561  28.7448906  42.9542568  12.1571956  28.4133930  42.4691815
  13.0353452  27.1445574  58.3451430  12.3425249  26.6742554  58.5912162
  13.6513779  26.9183878  58.9193137  13.0237982  27.0412706  58.4660583
  20.0738223  40.8449618  56.4607034  19.2753469  40.6049118  56.7180903
  20.5224235  40.8964010  57.2074082  20.0212835  40.8172009  56.6091958
  19.3659910  36.9082234  42.6897989  19.7811059  36.5767258  41.9982484
  18.5351840  36.6751136  42.5618125  19.3047919  36.8253490  42.5688836
   8.6948259  34.3925975  52.9796167   8.5123832  34.3672861  52.1268459
   9.4297928  34.8624913  53.0185075   8.7762323  34.4587337  52.8594085
  24.7647933  34.6277485  50.1229054  25.0003522  34.7722684  49.2955905
  24.9137497  35.3919893  50.5160568  24.8213737  34.7616539  50.0592658
  11.7594011  31.1110978  59.4878275  12.4833983  31.0964009  59.9743170
  11.8610147  31.8206333  58.9900243  11.8812220  31.2135681  59.4857062
  26.5938390  33.4679151  47.9598658  26.9246607  34.0006791  47.3538753
  27.1671478  33.5218039  48.6160609  26.7272069  33.5548720  47.9676440
  19.1338960  34.5910062  64.3527222  18.3411941  34.9053574  64.5379842
  19.2487887  34.8061531  63.5148007  19.0334371  34.6693899  64.2565557
  21.8070279  31.3144054  48.6422238  21.9017134  32.0533348  49.0961864
  21.1829123  30.8861529  49.0756803  21.7279309  31.3605374  48.7730386
  20.0622753  34.4930266  59.2912519  20.6361615  33.8557510  59.4461083
  19.9837557  34.4934349  58.4222177  20.1355988  34.3995378  59.1858930
   8.6619169  31.2719476  53.1295233   9.2392672  31.1355926  53.7687479
   7.9633231  30.8155260  53.3840818   8.6440191  31.1841742  53.2617523
  22.0593300  33.1592793  41.8759190  21.9773463  33.2294981  42.7414177
  22.6973021  33.7222537  41.6842931  22.1413138  33.2531765  41.9749140
  15.4186472  32.9253531  51.3433716  15.1605716  32.0925266  51.3165016
  15.4734954  33.1511144  50.5026217  15.3886249  32.8351303  51.2153853
  20.4987522  25.0281982  51.4437809  19.7943848  24.5391168  51.6021728
  20.5472496  25.0404456  50.5726254  20.4017573  24.9571630  51.3377149
  14.3921184  30.4791294  51.8298611  13.8170775  30.6383462  52.4662572
  14.0156860  29.8426703  51.3667062  14.2523996  30.4089107  51.8553170
  18.0594472  28.9514643  56.6890990  17.6708905  28.5268861  56.0343181
  17.3949171  29.1996793  57.1968016  17.9041400  28.9253364  56.6678858
  27.7017742  28.7089648  49.4638820  27.4454306  27.8969589  49.2736702
  28.5447056  28.7167215  49.2369007  27.7883767  28.5901645  49.4023637
   4.1378003  30.1231369  49.8443052   4.2238254  29.7463237  50.6256582
   4.7653800  29.7491814  49.3663010   4.2434554  30.0116851  49.8888529
  21.8820834  22.6489272  54.2014974  22.2631346  21.9667443  54.5882848
  21.0784118  22.3598874  54.0190638  21.8197296  22.5056320  54.2319030
  19.1633411  33.1813248  44.8867797  19.9774049  33.4728140  44.7750568
  19.0992552  32.5273110  44.3126090  19.2736150  33.1278442  44.7856634
  25.3842901  35.8639244  59.2997372  25.1481538  35.0327309  59.1809433
  26.0286130  35.8124851  59.8852216  25.4437572  35.7336932  59.3683266
  15.0341319  36.6534765  50.0140109  15.6715266  36.4146513  50.5591902
  15.4596390  36.8571924  49.2793269  15.1917485  36.6485775  49.9857266
   9.7253961  38.8923102  53.8974412   9.7658107  39.1637953  53.0694192
  10.2848485  39.4165010  54.3132200   9.8137307  39.0098857  53.8366301
  15.6744134  31.8737055  44.3514998  16.0589287  31.6544762  45.1031543
  15.4255754  32.7000000  44.4816074  15.6946207  31.9635201  44.4816074
  15.8412674  25.1543470  64.0677582  15.5266115  25.9243033  63.8047145
  15.5202607  24.5913726  63.4829809  15.7471593  25.1853739  63.9418932
  17.4162791  37.1307188  51.6933895  17.4901799  36.9682360  52.5475745
  18.2332297  37.3197377  51.4494377  17.5479149  37.1343930  51.7831921
  11.1768548  37.4765051  48.7228338  10.3506665  37.7226788  48.5962617
  11.2380539  37.3977131  49.5890396  11.0642715  37.5010000  48.8317283
  13.3944571  23.5433992  49.6823779  12.5266997  23.6156591  49.7481388
  13.6819776  24.3456071  49.8711754  13.3084319  23.6728139  49.7198545
  22.5177460  23.6911851  58.0135100  23.2631052  23.5021661  57.5998526
  22.1014765  24.2170089  57.4548957  22.5662434  23.7413996  57.8699674
  15.9567377  40.0941931  46.4247368  16.2465675  39.7030912  45.7006595
  16.6870857  40.2758636  46.8652644  16.1074261  40.0635745  46.3830175
  16.5462122  34.8959677  57.5100499  16.0473815  35.6075444  57.5885387
  17.3562346  35.2160343  57.4718661  16.5918228  35.0486525  57.5157067
  13.8973292  42.0709313  49.4907518  13.6773588  41.7806668  50.2834185
  13.6767814  41.4124268  48.9625430  13.8320886  41.9309022  49.5296427
  12.8090239  34.1582630  51.7563220  12.5203488  33.5320101  52.2908947
  13.6773587  34.1002917  51.8227900  12.8950491  34.0570174  51.8454174
  23.5968137  29.3017413  52.0745202  23.2532903  28.5807748  52.4252451
  23.6961180  29.0931264  51.2323560  23.5610180  29.1641616  52.0016882
  16.0641248  43.4438703  48.2738210  16.7165306  42.9115145  48.5029236
  15.3666857  43.0907356  48.6606084  16.0571966  43.3128226  48.3650378
  13.0122513  35.7977881  47.6805585  13.7668481  36.1790920  47.8941047
  12.4193125  36.2489024  48.1352281  13.0359226  35.9206708  47.7788463
  24.0581166  35.7643117  47.6169190  24.6239199  36.4236327  47.5327733
  23.4109070  36.1092815  48.0885592  24.0459923  35.9125059  47.6741946
  15.4729180  27.7540721  62.8062797  14.6628956  28.0598501  62.6952639
  15.9503866  28.4746304  62.9215381  15.4232659  27.9055322  62.8069868
  14.3320739  36.9686442  53.0545700  13.8101493  37.1086734  53.7397565
  14.7194760  36.2097106  53.2447817  14.3124440  36.8771966  53.1846777
  11.3211923  27.0192251  47.1240655  11.0336719  26.6493521  46.3872602
  12.0082392  27.4887106  46.8624360  11.3800821  27.0339220  46.9755731
  20.5287744  38.7081901  47.0406269  20.2874420  37.9749762  46.6333334
  20.7089077  39.2568758  46.3872602  20.5195368  38.6804293  46.8836492
  15.7587065  33.9990461  48.4527191  15.5629848  34.6065196  47.8587494
  15.9821411  33.3058405  47.9718865  15.7621706  33.9867987  48.2943272
  14.1565595  30.8845199  48.5708060  14.8788247  31.0486357  48.1111866
  13.6773588  31.6054864  48.4647399  14.1929326  31.0143429  48.4873674
  22.1159103  27.2208998  53.9504744  21.2770203  27.2470277  53.7143008
  22.1863470  27.8679733  54.5310091  22.0027496  27.3205124  54.0013861
  11.8073212  33.2903271  57.6762199  12.3194309  33.5687525  57.0270959
  11.5209554  34.0292566  58.0425012  11.8408075  33.4405625  57.6352077
  20.5628381  24.1194375  48.6832360  21.2654734  23.9202123  48.2052319
  20.2972570  23.3470317  48.9901204  20.6275013  23.9757341  48.6577802
   8.8940118  27.7973463  47.9725936   8.9956254  28.5999625  48.3006911
   9.6896005  27.5960799  47.6749016   9.0268024  27.8859362  47.9761291
  15.3256937  25.3829660  57.7363241  15.1340134  25.3984795  58.5862665
  16.1755533  25.5793334  57.7129896  15.4232659  25.4144011  57.8586536
   9.7103850  27.9120642  55.7147057   9.5689342  27.0604582  55.8391565
   9.9944413  27.9549302  54.8909263   9.7311696  27.7920392  55.6114682
  19.8642442  29.7487732  49.8591546  19.6177157  29.6683483  50.6928335
  20.1927566  28.9641200  49.6654073  19.8763686  29.6213997  49.9539069
  23.7590491  36.4571091  53.6478327  23.6204851  37.1552137  54.1527069
  22.9790489  36.3019748  53.2914509  23.6233718  36.5371258  53.6704601
  22.0968576  32.7567466  59.9000709  22.0916615  31.8847283  59.9043135
  22.8029570  32.9555636  59.4270164  22.2013580  32.6571341  59.8307744
  15.8239470  32.4844450  59.2714529  15.9682845  33.0645659  58.6357639
  16.1715118  32.8620747  59.9764383  15.8966931  32.6265154  59.2813524
  17.9959387  31.6834619  57.0539660  17.2482701  31.8765633  56.6487938
  18.1500912  30.8579838  56.8163782  17.9081815  31.5899730  56.9585066
  14.8967225  40.6747222  56.1375556  15.0456788  40.1150138  55.4848960
  15.6767227  40.7539224  56.5208074  15.0341318  40.6032788  56.0972505
  25.2543864  35.8149345  44.4094826  24.8750673  35.0286483  44.4024116
  24.5910110  36.3636202  44.2666470  25.1002339  35.7794169  44.3875623
  17.4220525  40.8461865  57.4160046  17.3464196  40.1770676  57.9710835
  17.3510384  41.5479653  57.9300713  17.4001132  40.8506772  57.5736895
  18.2361164  25.5785169  57.9435064  18.6933778  26.3109144  58.0707856
  18.3117493  25.1551635  58.7022320  18.3152134  25.6242408  58.0736141
  10.4794155  25.8250989  59.0324508   9.9436345  25.2131347  59.3485275
  10.5411920  26.3999125  59.6858174  10.4089788  25.8197917  59.1759935
  22.7088490  18.7575045  51.8128907  22.8272058  19.2151508  51.0796210
  22.5350666  17.9520306  51.5265125  22.7007661  18.7068817  51.6629841
  18.0790772  39.3662864  48.2483652  18.8440663  39.0972508  47.9266317
  17.9768862  38.8812874  48.9653715  18.1772268  39.2552429  48.3063480
  16.1143542  27.5687273  54.7876888  15.3239617  27.3878733  55.1094224
  16.5104165  26.7914226  54.7707183  16.0560418  27.4274734  54.8329437
  21.4987228  35.2029704  52.5136334  20.8232230  34.9714936  53.0149721
  21.5079604  34.5950886  51.8878439  21.4005733  35.0788629  52.4952486
  18.6281372  30.0447533  59.2700387  18.5640514  30.9057489  59.1420524
  18.7678560  29.7279526  58.4695938  18.6396842  30.1247699  59.1328600
  16.8112160  44.2530185  55.8738047  17.3008090  43.5540974  55.6913712
  16.2396392  43.9554055  56.4614105  16.7996690  44.1056408  55.9339088
  12.5982911  33.2331723  48.8444562  12.7547530  33.1678526  49.7000555
  12.9383504  34.0080276  48.6323242  12.6716146  33.3380921  48.9399157
  19.1362056  32.6089607  47.7137926  19.6777601  32.1059988  48.1776546
  19.4508615  32.5554802  46.9027411  19.2626453  32.5269028  47.6621738
  23.0079163  36.8192254  64.8264838  23.8214028  36.5477403  64.9869970
  22.8474130  36.5199794  64.0225034  23.1049112  36.7347180  64.7310244
  17.3048506  38.0006958  44.9977954  17.3741326  37.1421497  45.1370954
  18.0836961  38.2178839  44.6696978  17.4301356  37.9059822  44.9695111
  20.2851325  27.5025911  57.7660226  20.4993295  26.8636826  57.2123580
  19.6685224  27.9471735  57.3368088  20.2256654  27.4736055  57.6210657
  21.6955993  40.4244660  49.2114447  21.3035785  40.1211375  48.4937313
  21.8509065  41.2613750  49.0219401  21.6609583  40.5028496  49.0770944
   9.1717173  30.4166674  49.1605330   9.5516138  30.8351219  48.4965597
   8.5972537  30.9980129  49.4674173   9.1428498  30.5644533  49.1082071
  22.4490413  29.1114977  58.7043533  21.6367095  28.8040867  58.7856706
  22.9080348  28.6313977  59.2686245  22.3970798  28.9951469  58.7998127
  21.8595668  36.9894649  49.1520478  21.5010323  37.1609291  49.9284510
  21.3734379  37.4507854  48.5948476  21.7354365  37.0833620  49.1845747
  19.6766054  20.6125847  52.7547569  18.8059612  20.5864568  52.7080878
  19.9306395  20.4403039  51.9373415  19.5859614  20.5835991  52.6267706
  16.6484033  32.6693814  41.6920712  16.9376558  33.4458696  41.9664286
  16.7355832  32.1582545  42.3935211  16.7038289  32.7085732  41.8363210
  19.5443921  30.5175048  63.4872236  20.0143552  31.1417164  63.8740110
  19.5905801  29.8492024  64.0465450  19.6211797  30.5109728  63.6272307
  16.7015194  22.6232075  54.2121039  16.1853683  21.9312267  54.3372618
  16.1409123  23.2902853  54.1583638  16.5421708  22.6195333  54.2227105
  18.7707428  23.1625035  56.0413892  18.3839181  23.1874067  56.8227422
  18.2840365  22.5966714  55.5888409  18.6419937  23.0820786  56.0901796
  23.0200407  37.8798544  60.0987678  23.6580128  37.3858740  59.7650135
  22.3774499  37.8075945  59.5139905  23.0194634  37.7957553  59.9630033
  24.7457407  29.7287690  54.6653594  24.3185015  29.6414039  53.9101694
  24.1083460  29.8365466  55.2508438  24.5887015  29.7320350  54.6399036
  18.4364570  20.0492021  58.3324152  19.0657687  20.5852321  58.0545222
  18.6050432  19.9569380  59.1837717  18.5542364  20.1153383  58.4172680
  18.2378484  24.8363216  60.6050563  19.0651914  24.5648365  60.6609178
  18.2586330  25.6324057  60.9614382  18.3631334  24.9142970  60.6665746
  23.0754664  38.5718353  56.7393035  23.8647042  38.2207417  56.8595117
  23.2498262  39.3854741  56.4769669  23.2174945  38.6404210  56.7180903
  12.8147974  31.9827078  53.7920824  11.9735981  31.8830953  53.9999718
  13.0237982  32.7522559  54.1435145  12.7212667  32.0819122  53.8748139
  10.2923541  29.6046615  51.6205575   9.8980239  29.6789627  50.8455684
   9.7363658  29.9904562  52.1713936  10.1526354  29.6728390  51.5873235
  21.9288488  22.5827909  51.3009454  22.1338081  22.5150217  52.1466451
  21.6014912  23.3886731  51.2330631  21.9103736  22.6913850  51.4169109
  16.6264639  29.9108478  53.0418422  16.3227777  29.3564466  53.6428829
  15.9244060  30.0900688  52.5546456  16.4780849  29.8553260  53.0588127
  15.6830736  27.2208997  47.6063123  15.9590471  26.5027910  47.1940691
  16.2829406  27.8193917  47.3984230  15.8124001  27.2029368  47.5143885
  14.6882990  37.1258198  57.7490519  14.5803345  37.1360261  58.6152577
  14.8978772  37.9512979  57.5595473  14.7033101  37.2499273  57.8494611
  25.1822176  23.1359674  50.7812219  24.5696489  23.6230076  51.1665951
  25.2786351  22.4603165  51.3249870  25.1060073  23.1077982  50.9191077
  19.1841257  24.8922515  45.8809718  19.6385003  25.0633075  46.6057563
  19.6581302  24.2790626  45.4807494  19.3209577  24.8273400  45.9283480
  12.7056782  34.3770841  55.2112457  12.1144715  35.0180339  55.1815472
  13.4677806  34.8008458  55.1843756  12.7305043  34.5346679  55.2027604
  13.1017405  25.5372839  55.8780475  13.5618886  25.6111768  56.6155598
  13.1473512  26.3354093  55.5280296  13.1767960  25.6666986  55.9353231
  14.7500755  26.2039533  60.4452502  14.3586320  25.5572881  60.8808279
  14.9186617  26.7950969  61.0646757  14.7171665  26.1953801  60.6015208
  22.4646298  39.8280152  52.6444481  22.2665987  40.3170967  51.9500693
  21.8434009  40.0321394  53.2228615  22.3433863  39.9296691  52.6267705
  16.5254277  31.5965049  46.9854726  17.2696322  31.9839326  47.2237676
  16.6714973  30.7522475  47.1495214  16.6564862  31.5295522  47.0448695
  18.4433852  23.3915308  52.0186587  17.5969897  23.5638116  51.8927937
  18.4404985  22.5864652  52.3552415  18.3181002  23.2976337  52.0497714
  19.5132153  27.1690523  52.8848645  19.0392107  26.6432285  53.3953956
  19.8850288  26.6219995  52.3163507  19.4982041  27.0106519  52.8763792
   9.8905183  29.1662029  58.2532191  10.7530796  29.0657738  58.1669521
   9.5596966  28.5856739  57.6917763   9.9690379  29.0653656  58.1577597
  21.4415652  28.0627077  45.9474399  20.9138671  28.1455821  45.2580108
  21.9011360  28.8044949  45.9439044  21.4317503  28.1847739  45.8449094
  27.7774070  29.0094355  52.2484685  27.5383840  28.9690190  51.4105469
  27.9407971  29.8565507  52.3750406  27.7664374  29.1286440  52.1438167
  24.3820100  33.3944305  58.1789730  25.1054299  32.9416831  58.0000750
  24.1170063  33.6748970  57.3962058  24.4501374  33.3695273  58.0368445
  13.2506969  27.9904478  54.9142609  12.6260039  28.0022870  54.3068562
  12.9152564  28.4664653  55.5633849  13.1092460  28.0622995  54.9199178
  13.4348717  26.3329597  40.9715294  13.0861522  26.9849322  41.4346843
  12.9545163  26.3186710  40.2439165  13.3118961  26.4272650  40.9326385
   9.9632644  36.0504938  56.3546373   9.4332569  35.3597377  56.4041348
  10.2357738  36.0415124  55.5259082   9.9257367  35.9472070  56.2393789
  20.9952735  36.6330641  45.0784056  21.7186934  37.0988754  44.9348629
  20.5553326  36.7004250  44.3281653  21.0368427  36.7114477  44.9468837
  20.1638890  33.4928183  56.3284745  19.5495883  32.9486233  56.6233380
  20.6806175  32.9792419  55.8490561  20.1494552  33.3364592  56.3008973
  19.4035187  34.5632453  54.0629044  18.9762795  33.9382172  53.6294479
  19.3960131  34.2807375  54.8888051  19.3394328  34.4285234  54.1208871
  12.5197714  29.5997626  57.1317477  12.6791201  28.8440950  57.5369199
  12.3390608  30.1488566  57.7858215  12.5163073  29.5691440  57.2880183
  20.4618017  21.7658862  57.6868267  19.9658578  21.9622536  56.9959834
  21.2187079  22.1651530  57.5157069  20.5004842  21.8536595  57.5588404
  17.7320897  25.4401207  54.2771578  17.7563384  24.9061320  53.5884357
  17.9832370  24.9318516  54.9397168  17.7730815  25.2862111  54.2736222
   5.2428486  32.7232702  53.7114722   5.1371936  32.6779547  52.8466806
   4.4928706  33.0686483  53.9929006   5.1164089  32.7673611  53.6252051
  14.0122219  24.1672026  53.6577322  14.0520590  24.6681232  54.3712029
  13.1871884  24.2582419  53.3883245  13.8961745  24.2553842  53.7227860
  16.1951832  33.7332766  61.7597616  15.3447462  33.8704480  61.8955261
  16.3579959  32.9996544  62.2045318  16.0935695  33.6446867  61.8453216
  15.4336582  30.6832536  55.9551221  14.6028512  30.8506354  55.7486469
  15.3788099  30.3068486  56.7400106  15.3025997  30.6522267  56.0399749
  13.2420365  24.1741428  61.5907632  13.8673069  23.6303561  61.8637064
  12.7870845  23.6936346  61.0215422  13.2668626  24.0230910  61.5469225
  13.8072626  28.9588127  46.4841339  13.9475587  29.4560591  47.1869980
  14.3055159  28.2574422  46.6255552  13.9013707  28.9290106  46.6092918
  13.8372848  29.8255238  43.8133915  14.4717928  30.4215663  43.7483377
  13.9198459  29.5258696  44.6279786  13.9429399  29.8696146  43.9237002
  26.8155414  32.3570716  56.6820280  27.4073254  32.9967966  56.7138478
  27.2514409  31.6593752  56.9712346  26.9673845  32.3489066  56.7301112
  15.4151831  25.7569214  43.7879357  15.7367672  25.2772296  43.1338620
  15.6778775  26.5668860  43.5970169  15.5017857  25.8059111  43.6634849
  18.6448804  36.7788088  57.3078173  18.1373895  37.3323935  57.7518804
  18.3475450  36.8396378  56.4896948  18.5253689  36.8694399  57.2526630
  20.8110986  25.1441408  56.1502836  21.2366058  24.6913934  55.5386363
  20.1967979  24.5901478  56.4267624  20.7839632  24.9955384  56.1007862
  10.3425836  32.0223079  47.0823461  10.8518066  32.6187586  47.4634767
  10.8160109  31.7549053  46.3999881  10.4869212  32.0708894  47.0377984
  21.2556584  40.6951346  45.2382117  20.5385894  40.5212208  44.7729354
  21.9063322  40.4603918  44.7057603  21.2458435  40.6347138  45.0911335
  19.2505209  21.6156507  49.5593413  18.6073527  21.4654154  50.1278552
  18.9104616  21.3698853  48.7942518  19.1050286  21.5568630  49.5296429
  23.8404556  29.5715934  48.9823422  23.1695745  30.1145636  48.8536488
  24.5344306  30.0410789  48.7405117  23.8433423  29.7214205  48.9278950
  17.8891289  41.7112646  54.2135180  17.6656944  40.9531475  54.5819207
  17.4001133  41.7410667  53.4915620  17.7834738  41.6034871  54.1611921
  24.0032683  26.0271818  51.8913795  24.3560293  25.6001541  52.5659594
  23.1447485  25.9422661  52.0214872  23.9282128  25.9516558  52.0108806
  12.7016368  28.6579337  49.9496642  11.9828357  29.0743470  50.2169505
  13.0728730  29.2233576  49.3988280  12.6508300  28.8028619  49.9079449
  22.0015949  29.2907186  55.8398638  21.9813876  29.1090482  56.6933416
  22.0495150  30.1619205  55.8158221  22.0050590  29.3923725  55.9621932
  19.9462279  35.8794378  61.7647114  19.9058134  35.2344055  61.1792270
  20.7585597  35.8230996  62.0772526  20.0605432  35.7753345  61.7244063
  16.5369746  41.9313104  51.6672265  16.1230145  41.2687234  51.2776107
  17.2217121  42.0790963  51.1467959  16.5768118  41.8553762  51.5328762
  19.9035040  41.0903190  52.4195882  19.5051324  41.2005460  51.6516702
  19.2886260  41.2985256  53.0022441  19.7533930  41.1376758  52.3927181
  18.4762942  27.6977337  45.2870021  17.8827782  28.0194334  44.7354588
  18.5138220  26.8518433  45.0791127  18.3937332  27.6201666  45.1752793
  25.4356743  21.1490230  52.8198108  24.9287608  20.4419369  52.7519285
  26.2324177  20.8183418  52.9499184  25.4783982  20.9963381  52.8297103
  21.3520759  27.6556842  48.7171771  21.1234452  27.6789543  47.8750130
  21.6118835  26.8314309  48.8366782  21.3566947  27.5372922  48.6096969
  15.6339987  29.5091315  58.3196872  15.1218891  28.9012498  58.6781903
  15.4619484  30.2247907  58.7870847  15.5329624  29.5254614  58.4413095
  10.4805702  27.9528890  60.9699233  10.3108292  28.6130265  60.4247440
  10.0371652  28.1635451  61.6911723  10.3905036  28.0814872  60.9960863
  14.4065522  26.1933388  50.0125967  14.8822888  26.5550468  49.3776148
  13.9054121  26.8489856  50.2926110  14.4030881  26.3427577  49.9602708
  27.6376883  35.6655156  45.8038972  28.0210489  36.4146512  46.0337069
  26.8420996  35.9120976  45.5450961  27.5770665  35.8124850  45.7996546
  19.5109058  27.4315560  60.7599127  20.0680488  27.2029369  60.1277593
  19.1870123  28.1921225  60.4834340  19.5455468  27.5099396  60.6255624
   7.3807767  30.8575756  56.2287723   6.8334486  30.1876401  56.3468592
   8.1700145  30.4905604  56.2931191   7.4159950  30.7040742  56.2556424
  17.2292175  30.5183213  61.7251134  17.9803502  30.8334890  62.0390689
  17.4214752  30.3162384  60.8985056  17.3683589  30.5350595  61.6494530
  16.4492175  28.3374588  43.3799351  16.8291140  28.3554217  42.5950466
  15.7084771  28.7828577  43.2590198  16.3961012  28.4056363  43.2462919
  24.0777465  26.6456779  48.9674930  24.0771692  26.4905436  49.8259206
  23.8733645  27.4919766  48.9116315  24.0477243  26.7477400  49.0862869
   6.1394736  30.0696564  53.3833746   5.9616497  29.6173173  54.1088662
   5.8513758  30.8722725  53.5672224   6.0707689  30.1219121  53.5177249
  21.8018317  31.3254281  52.6211137  22.2971983  30.6077276  52.5815157
  20.9918093  31.0225079  52.5065624  21.7562211  31.1751927  52.5984863
  17.2476929  35.1752094  44.7708141  16.4388251  34.8518768  44.7241451
  17.7551838  34.4685316  44.7036390  17.2026596  35.0233411  44.7538436
   7.8767206  32.6024287  50.4955505   7.0112725  32.5909978  50.3838277
   7.9766022  32.4154510  51.3426645   7.7641373  32.5730349  50.6044450
  23.8670136  34.0757968  55.3088265  24.2925208  33.5532390  54.7558690
  23.5027056  34.6738806  54.7876888  23.8756739  34.0868195  55.1497275
  13.5024216  42.3722186  54.0685611  13.8170775  43.1858574  54.0763393
  13.9117629  41.9872405  54.7367770  13.6092314  42.4350888  54.1689703
  20.4548736  37.7892233  51.6389423  20.9259914  38.5032495  51.8079408
  20.7908914  37.1890983  52.1749292  20.5743851  37.8063697  51.7421799
  22.5425720  39.3993546  63.8181495  22.6522686  38.6102107  64.1738242
  22.8716617  39.3099482  63.0155833  22.6078126  39.2699399  63.7523886
  17.3718231  22.5619703  58.5947518  17.5046136  21.7650697  58.9228493
  17.7563383  23.0886106  59.1745793  17.4474559  22.5219620  58.7291021
  21.0922682  37.5810167  58.4017116  20.5443628  36.9568050  58.1337181
  21.5535711  37.7704439  57.6861195  21.0789891  37.5169217  58.2567547
  20.4450586  19.4850029  55.1928611  19.6396549  19.3747759  55.5096449
  20.3157321  19.5862485  54.3358477  20.3070719  19.4833699  55.1136651
  23.9016546  25.6495521  55.7868308  23.3179535  26.1504728  55.3745875
  24.2220840  25.1425078  55.1532631  23.8629722  25.6487356  55.6326815
  16.4411345  24.5636116  46.0626983  17.2627040  24.7334429  45.8208678
  15.9780996  24.7183377  45.3393280  16.4942508  24.6117849  45.9198627
  15.0306677  22.5578878  56.8425411  15.5751090  22.2170005  57.4329753
  15.0843613  23.4164340  56.9846696  15.1195797  22.6334138  56.9507285
  10.8437236  36.3195294  53.7164219  11.4482093  36.2791129  53.0878040
  10.6364549  37.1666446  53.7468275  10.9026133  36.4383297  53.6280336
  20.6581008  38.5861240  54.9326457  21.4779382  38.4424206  55.1942752
  20.3775086  39.2107438  55.4742895  20.7377752  38.6571592  55.0514396
   6.0788518  35.3029912  53.5863142   5.9812796  34.4926183  53.8953199
   6.8617388  35.2821705  53.2009411   6.1804655  35.1797002  53.5750005
  30.3294343  45.3301742  52.6522264  29.4732239  45.4910241  52.7031380
  30.3761997  44.4593806  52.6727325  30.2093455  45.2252544  52.6628330
  24.7135483  54.8664460  48.4159495  23.9618383  54.4879998  48.1875540
  25.1621495  54.8982894  47.6678305  24.6685150  54.8150067  48.2716997
  33.6388060  51.5988268  62.2582720  34.3454827  51.1040299  62.3869654
  33.8275995  52.0397349  61.5285378  33.7715966  51.5906618  62.1691765
  30.1660443  55.2889830  43.8445042  29.8311811  55.9666751  43.4089264
  30.6787313  54.8995141  43.2561914  30.1926024  55.3314408  43.6931834
  29.7064734  57.2404098  49.7856154  30.0904114  57.8090997  49.2460929
  29.6423876  56.5153609  49.3061970  29.7538162  57.2179562  49.6350016
  33.1746164  47.3893786  55.2953915  33.7202124  48.0678873  55.3547885
  33.1163041  47.2481247  54.4355497  33.2462079  47.4685788  55.1765976
  26.2920239  54.8782852  50.6822268  26.3930602  54.0683206  50.9919395
  25.6961985  54.7839799  50.0521946  26.2192778  54.7447880  50.6348506
  26.1320979  59.7960441  52.0837124  26.7758434  60.2373606  52.4733282
  26.4577234  58.9913868  51.9967382  26.2752808  59.7425636  52.1282601
  19.4885284  50.9003139  50.3074601  19.2535468  50.0670791  50.2006870
  19.6270924  51.1807805  49.4935802  19.4740946  50.8186642  50.1716956
  21.7875371  43.0688869  53.2058909  21.1680403  42.4781517  53.0368924
  21.6859235  43.6600305  52.5723232  21.6813047  43.0692952  53.0863899
  26.8341559  52.8072416  47.4556985  27.1557400  53.3477624  46.8518293
  27.4813655  52.2369188  47.5879275  26.9767614  52.8031591  47.3864021
  21.5144504  46.6141151  55.4502478  21.3903201  47.2003597  56.0852297
  22.1662789  46.1201347  55.7514753  21.5918153  46.6279956  55.5888407
  29.0731202  51.1958856  47.5271164  29.5124838  50.5875957  47.9725936
  28.9235865  50.8166230  46.7556629  29.1152668  51.0497327  47.4790331
  26.5402845  49.7902868  54.7289989  27.1851848  49.2975311  54.4100938
  26.7804622  49.9327655  55.5556067  26.6713430  49.7380310  54.8039522
  29.0788936  52.6357774  54.3796882  29.3612179  51.8409180  54.1583637
  29.8075097  53.1138361  54.4001943  29.2278500  52.5892371  54.3499897
  32.6740539  49.5486038  44.4801933  32.5891834  50.4047004  44.6251502
  33.1624922  49.2730362  45.1484092  32.7329436  49.6343359  44.6004014
  25.4958580  50.0634049  44.7807136  24.9115795  50.5684080  45.1873000
  25.0928675  49.8376435  44.0403728  25.3497883  50.1042297  44.7312161
  21.0502608  55.7788810  51.5830807  20.5670187  56.5039299  51.5590391
  21.8625927  56.0764940  51.6940965  21.0993356  55.9291163  51.5958087
  27.1216762  54.5720990  54.1880622  26.6043704  54.2128405  53.5841930
  27.8191154  54.0483165  54.1986688  27.1482343  54.4418678  54.1010881
  30.7780354  55.0215804  60.1496795  30.8663700  54.8341945  60.9975005
  31.2070067  54.3753234  59.7501642  30.8542457  54.8978812  60.2168546
  28.3450814  54.3046964  59.1314457  27.7821649  53.8919574  59.6554118
  29.1071838  54.2299870  59.5507600  28.3745263  54.2324365  59.2707457
  23.9046806  56.2944986  51.7351087  24.6067385  55.7796975  51.7923844
  23.8244289  56.6219137  52.5397962  23.9970566  56.2659212  51.8623879
  24.9525712  46.5320572  60.8631502  25.1246216  46.4226467  61.7116784
  25.4895070  47.1774978  60.6262695  25.0570716  46.6112574  60.9536599
  23.2297581  52.4851338  51.2436695  24.0686480  52.7174270  51.2910457
  23.2609350  51.6155649  51.1743731  23.3579299  52.3908284  51.2401340
  23.8550284  52.9052213  55.5450001  24.3948509  52.7623344  56.2153373
  23.1720230  53.3048964  55.9134027  23.8342438  52.9431884  55.6984423
  33.2791169  48.5843213  50.7395025  34.0348684  49.0174728  50.7783934
  33.3853493  47.9347983  51.3129661  33.4061339  48.5520697  50.8293051
  36.3171340  52.4116491  51.4897428  35.8806572  52.4153233  52.2456400
  35.9834255  53.0921990  51.0577006  36.2033960  52.5128946  51.5378261
  30.8900414  54.4524823  62.8140578  31.6740830  54.5655671  63.1796321
  30.6897008  53.6265961  63.0099264  30.9766439  54.3471543  62.8974965
  19.2587429  49.1252504  55.6984422  18.9925844  48.3091620  55.8575413
  19.2725993  49.1705659  54.8279938  19.2212151  49.0109408  55.5937904
  24.0086035  42.6630882  58.3451430  23.3157832  42.1927862  58.5912162
  24.6246363  42.4369186  58.9193137  23.9970565  42.5598014  58.4660583
  31.0470807  56.3634925  56.4607034  30.2486053  56.1234426  56.7180903
  31.4956818  56.4149318  57.2074082  30.9945418  56.3357317  56.6091958
  30.3392494  52.4267542  42.6897989  30.7543642  52.0952566  41.9982484
  29.5084424  52.1936444  42.5618125  30.2780503  52.3438798  42.5688836
  19.6680843  49.9111283  52.9796167  19.4856416  49.8858169  52.1268459
  20.4030512  50.3810221  53.0185075  19.7494907  49.9772645  52.8594085
  22.7326594  46.6296286  59.4878275  23.4566567  46.6149316  59.9743170
  22.8342731  47.3391641  58.9900243  22.8544803  46.7320989  59.4857062
  30.1071544  50.1095370  64.3527222  29.3144525  50.4238882  64.5379842
  30.2220471  50.3246839  63.5148007  30.0066954  50.1879207  64.2565557
  31.0355337  50.0115574  59.2912519  31.6094198  49.3742818  59.4461083
  30.9570140  50.0119657  58.4222177  31.1088571  49.9180686  59.1858930
  19.6351753  46.7904784  53.1295233  20.2125256  46.6541234  53.7687479
  18.9365815  46.3340568  53.3840818  19.6172774  46.7027050  53.2617523
  26.3919055  48.4438839  51.3433716  26.1338299  47.6110574  51.3165016
  26.4467538  48.6696452  50.5026217  26.3618833  48.3536611  51.2153853
  25.3653767  45.9976602  51.8298611  24.7903359  46.1568770  52.4662572
  24.9889444  45.3612011  51.3667062  25.2256580  45.9274415  51.8553170
  29.0327056  44.4699951  56.6890990  28.6441489  44.0454169  56.0343181
  28.3681754  44.7182101  57.1968016  28.8773984  44.4438672  56.6678858
  15.1110586  45.6416677  49.8443052  15.1970838  45.2648545  50.6256582
  15.7386384  45.2677122  49.3663010  15.2167137  45.5302159  49.8888529
  30.1365994  48.6998556  44.8867797  30.9506633  48.9913448  44.7750568
  30.0725136  48.0458418  44.3126090  30.2468733  48.6463750  44.7856634
  36.3575484  51.3824552  59.2997372  36.1214122  50.5512617  59.1809433
  37.0018713  51.3310159  59.8852216  36.4170155  51.2522240  59.3683266
  26.0073903  52.1720073  50.0140109  26.6447849  51.9331821  50.5591902
  26.4328974  52.3757232  49.2793269  26.1650069  52.1671083  49.9857266
  20.6986545  54.4108410  53.8974412  20.7390690  54.6823261  53.0694192
  21.2581069  54.9350318  54.3132200  20.7869891  54.5284165  53.8366301
  26.8145258  40.6728778  64.0677582  26.4998699  41.4428341  63.8047145
  26.4935191  40.1099034  63.4829809  26.7204177  40.7039047  63.9418932
  37.3811905  51.1669001  55.3625667  37.0757722  51.8997057  55.7238982
  36.6618121  50.7606930  55.0818453  37.2299247  51.2150734  55.3738804
  28.3895374  52.6492496  51.6933895  28.4634383  52.4867668  52.5475745
  29.2064881  52.8382685  51.4494377  28.5211733  52.6529238  51.7831921
  22.1501131  52.9950359  48.7228338  21.3239249  53.2412096  48.5962617
  22.2113122  52.9162439  49.5890396  22.0375298  53.0195308  48.8317283
  24.3677155  39.0619300  49.6823779  23.4999580  39.1341899  49.7481388
  24.6552359  39.8641378  49.8711754  24.2816903  39.1913447  49.7198545
  33.4910044  39.2097159  58.0135100  34.2363636  39.0206969  57.5998526
  33.0747348  39.7355397  57.4548957  33.5395018  39.2599304  57.8699674
  26.9299960  55.6127239  46.4247368  27.2198259  55.2216220  45.7006595
  27.6603441  55.7943944  46.8652644  27.0806844  55.5821053  46.3830175
  27.5194705  50.4144985  57.5100499  27.0206399  51.1260752  57.5885387
  28.3294930  50.7345651  57.4718661  27.5650812  50.5671833  57.5157067
  24.8705876  57.5894621  49.4907518  24.6506171  57.2991976  50.2834185
  24.6500398  56.9309576  48.9625430  24.8053470  57.4494330  49.5296427
  23.7822823  49.6767938  51.7563220  23.4936072  49.0505409  52.2908947
  24.6506171  49.6188225  51.8227900  23.8683075  49.5755482  51.8454174
  27.0373831  58.9624011  48.2738210  27.6897890  58.4300453  48.5029236
  26.3399440  58.6092663  48.6606084  27.0304549  58.8313534  48.3650378
  23.9855096  51.3163189  47.6805585  24.7401064  51.6976228  47.8941047
  23.3925709  51.7674332  48.1352281  24.0091810  51.4392016  47.7788463
  35.0313750  51.2828425  47.6169190  35.5971782  51.9421635  47.5327733
  34.3841653  51.6278123  48.0885592  35.0192506  51.4310366  47.6741946
  26.4461763  43.2726029  62.8062797  25.6361539  43.5783809  62.6952639
  26.9236450  43.9931611  62.9215381  26.3965242  43.4240630  62.8069868
  25.3053323  52.4871750  53.0545700  24.7834076  52.6272042  53.7397565
  25.6927343  51.7282414  53.2447817  25.2857024  52.3957274  53.1846777
  22.2944507  42.5377559  47.1240655  22.0069303  42.1678829  46.3872602
  22.9814975  43.0072414  46.8624360  22.3533404  42.5524528  46.9755731
  31.5020328  54.2267209  47.0406269  31.2607004  53.4935070  46.6333334
  31.6821661  54.7754066  46.3872602  31.4927952  54.1989600  46.8836492
  26.7319649  49.5175769  48.4527191  26.5362431  50.1250504  47.8587494
  26.9553994  48.8243713  47.9718865  26.7354290  49.5053295  48.2943272
  25.1298179  46.4030507  48.5708060  25.8520830  46.5671665  48.1111866
  24.6506171  47.1240172  48.4647399  25.1661909  46.5328737  48.4873674
  33.0891686  42.7394306  53.9504744  32.2502787  42.7655585  53.7143008
  33.1596053  43.3865041  54.5310091  32.9760080  42.8390432  54.0013861
  22.7805795  48.8088579  57.6762199  23.2926892  49.0872833  57.0270959
  22.4942138  49.5477874  58.0425012  22.8140658  48.9590933  57.6352077
  19.8672702  43.3158771  47.9725936  19.9688838  44.1184933  48.3006911
  20.6628588  43.1146107  47.6749016  20.0000607  43.4044670  47.9761291
  26.2989521  40.9014968  57.7363241  26.1072718  40.9170102  58.5862665
  27.1488117  41.0978642  57.7129896  26.3965243  40.9329319  57.8586536
  20.6836434  43.4305950  55.7147057  20.5421925  42.5789890  55.8391565
  20.9676997  43.4734610  54.8909263  20.7044280  43.3105700  55.6114682
  34.7323075  51.9756399  53.6478327  34.5937434  52.6737445  54.1527069
  33.9523073  51.8205056  53.2914509  34.5966302  52.0556566  53.6704601
  33.0701160  48.2752774  59.9000709  33.0649198  47.4032591  59.9043135
  33.7762154  48.4740944  59.4270164  33.1746164  48.1756649  59.8307744
  26.7972053  48.0029758  59.2714529  26.9415429  48.5830966  58.6357639
  27.1447702  48.3806055  59.9764383  26.8699515  48.1450462  59.2813524
  28.9691971  47.2019927  57.0539660  28.2215285  47.3950941  56.6487938
  29.1233496  46.3765146  56.8163782  28.8814398  47.1085038  56.9585066
  25.8699808  56.1932530  56.1375556  26.0189372  55.6335446  55.4848960
  26.6499810  56.2724532  56.5208074  26.0073902  56.1218096  56.0972505
  28.3953109  56.3647173  57.4160046  28.3196780  55.6955984  57.9710835
  28.3242968  57.0664961  57.9300713  28.3733716  56.3692080  57.5736895
  29.2093748  41.0970477  57.9435064  29.6666362  41.8294452  58.0707856
  29.2850076  40.6736943  58.7022320  29.2884718  41.1427715  58.0736141
  21.4526739  41.3436297  59.0324508  20.9168928  40.7316655  59.3485275
  21.5144504  41.9184433  59.6858174  21.3822372  41.3383225  59.1759935
  29.0523356  54.8848172  48.2483652  29.8173247  54.6157816  47.9266317
  28.9501446  54.3998182  48.9653715  29.1504851  54.7737737  48.3063480
  27.0876126  43.0872581  54.7876888  26.2972200  42.9064041  55.1094224
  27.4836748  42.3099534  54.7707183  27.0293002  42.9460042  54.8329437
  32.4719812  50.7215011  52.5136334  31.7964814  50.4900244  53.0149721
  32.4812188  50.1136194  51.8878439  32.3738316  50.5973937  52.4952486
  29.6013956  45.5632840  59.2700387  29.5373097  46.4242797  59.1420524
  29.7411144  45.2464834  58.4695938  29.6129426  45.6433007  59.1328600
  34.4736546  53.5780144  44.7446512  34.5556384  54.3847130  44.4207963
  34.9586289  53.5976103  45.4687286  34.5573704  53.7000806  44.8033411
  28.2833050  48.2564980  53.4116590  27.8595299  48.4569479  52.6755608
  28.1077905  47.4093828  53.5240890  28.1943930  48.1613761  53.3190280
  27.7844743  59.7715493  55.8738047  28.2740674  59.0726282  55.6913712
  27.2128976  59.4739363  56.4614105  27.7729273  59.6241716  55.9339088
  23.5715495  48.7517031  48.8444562  23.7280114  48.6863834  49.7000555
  23.9116088  49.5265584  48.6323242  23.6448730  48.8566229  48.9399157
  30.1094639  48.1274915  47.7137926  30.6510185  47.6245296  48.1776546
  30.4241198  48.0740109  46.9027411  30.2359036  48.0454336  47.6621738
  28.2781089  53.5192266  44.9977954  28.3473909  52.6606805  45.1370954
  29.0569544  53.7364147  44.6696978  28.4033939  53.4245130  44.9695111
  31.2583909  43.0211219  57.7660226  31.4725878  42.3822134  57.2123580
  30.6417808  43.4657043  57.3368088  31.1989238  42.9921363  57.6210657
  32.6688577  55.9429968  49.2114447  32.2768368  55.6396683  48.4937313
  32.8241649  56.7799058  49.0219401  32.6342167  56.0213804  49.0770944
  20.1449756  45.9351982  49.1605330  20.5248721  46.3536527  48.4965597
  19.5705121  46.5165437  49.4674173  20.1161081  46.0829840  49.1082071
  33.4222997  44.6300284  58.7043533  32.6099678  44.3226175  58.7856706
  33.8812931  44.1499285  59.2686245  33.3703382  44.5136777  58.7998127
  32.8328251  52.5079956  49.1520478  32.4742906  52.6794599  49.9284510
  32.3466962  52.9693162  48.5948476  32.7086948  52.6018928  49.1845747
  30.5176504  46.0360356  63.4872236  30.9876135  46.6602472  63.8740110
  30.5638384  45.3677331  64.0465450  30.5944380  46.0295036  63.6272307
  29.7440011  38.6810343  56.0413892  29.3571764  38.7059375  56.8227422
  29.2572949  38.1152022  55.5888409  29.6152520  38.6006094  56.0901796
  33.9932991  53.3983852  60.0987678  34.6312711  52.9044048  59.7650135
  33.3507082  53.3261253  59.5139905  33.9927217  53.3142861  59.9630033
  29.4097153  35.5677329  58.3324152  30.0390271  36.1037629  58.0545222
  29.5783016  35.4754688  59.1837717  29.5274948  35.6338691  58.4172680
  29.2111068  40.3548524  60.6050563  30.0384497  40.0833673  60.6609178
  29.2318914  41.1509365  60.9614382  29.3363918  40.4328278  60.6665746
  34.0487247  54.0903661  56.7393035  34.8379626  53.7392725  56.8595117
  34.2230845  54.9040049  56.4769669  34.1907529  54.1589518  56.7180903
  23.7880558  47.5012386  53.7920824  22.9468564  47.4016261  53.9999718
  23.9970566  48.2707867  54.1435145  23.6945250  47.6004430  53.8748139
  21.2656125  45.1231923  51.6205575  20.8712822  45.1974935  50.8455684
  20.7096242  45.5089870  52.1713936  21.1258937  45.1913698  51.5873235
  27.5997223  45.4293786  53.0418422  27.2960360  44.8749774  53.6428829
  26.8976643  45.6085996  52.5546456  27.4513432  45.3738568  53.0588127
  25.6615574  52.6443506  57.7490519  25.5535929  52.6545568  58.6152577
  25.8711355  53.4698287  57.5595473  25.6765685  52.7684581  57.8494611
  23.6789366  49.8956149  55.2112457  23.0877299  50.5365647  55.1815472
  24.4410389  50.3193766  55.1843756  23.7037626  50.0531987  55.2027604
  24.0749988  41.0558146  55.8780475  24.5351470  41.1297076  56.6155598
  24.1206095  41.8539401  55.5280296  24.1500544  41.1852294  55.9353231
  25.7233338  41.7224841  60.4452502  25.3318903  41.0758188  60.8808279
  25.8919201  42.3136277  61.0646757  25.6904249  41.7139109  60.6015208
  33.4378882  55.3465460  52.6444481  33.2398571  55.8356275  51.9500693
  32.8166593  55.5506702  53.2228615  33.3166446  55.4481999  52.6267705
  27.4986860  47.1150357  46.9854726  28.2428905  47.5024633  47.2237676
  27.6447556  46.2707783  47.1495214  27.6297445  47.0480830  47.0448695
  20.8637766  44.6847337  58.2532191  21.7263379  44.5843046  58.1669521
  20.5329549  44.1042046  57.6917763  20.9422963  44.5838964  58.1577597
  24.2239552  43.5089786  54.9142609  23.5992622  43.5208178  54.3068562
  23.8885147  43.9849961  55.5633849  24.0825044  43.5808303  54.9199178
  20.9365228  51.5690246  56.3546373  20.4065152  50.8782685  56.4041348
  21.2090321  51.5600432  55.5259082  20.8989950  51.4657378  56.2393789
  31.9685318  52.1515949  45.0784056  32.6919517  52.6174062  44.9348629
  31.5285909  52.2189558  44.3281653  32.0101010  52.2299785  44.9468837
  31.1371473  49.0113491  56.3284745  30.5228466  48.4671541  56.6233380
  31.6538758  48.4977727  55.8490561  31.1227136  48.8549900  56.3008973
  30.3767771  50.0817761  54.0629044  29.9495379  49.4567480  53.6294479
  30.3692715  49.7992683  54.8888051  30.3126912  49.9470542  54.1208871
  23.4930298  45.1182934  57.1317477  23.6523784  44.3626258  57.5369199
  23.3123191  45.6673873  57.7858215  23.4895657  45.0876748  57.2880183
  31.4350601  37.2844170  57.6868267  30.9391162  37.4807844  56.9959834
  32.1919663  37.6836838  57.5157069  31.4737425  37.3721903  57.5588404
  28.7053480  40.9586515  54.2771578  28.7295967  40.4246628  53.5884357
  28.9564954  40.4503824  54.9397168  28.7463399  40.8047419  54.2736222
  16.2161070  48.2418010  53.7114722  16.1104519  48.1964855  52.8466806
  15.4661290  48.5871791  53.9929006  16.0896673  48.2858919  53.6252051
  24.9854802  39.6857334  53.6577322  25.0253174  40.1866540  54.3712029
  24.1604467  39.7767727  53.3883245  24.8694328  39.7739150  53.7227860
  27.1684415  49.2518074  61.7597616  26.3180046  49.3889788  61.8955261
  27.3312543  48.5181852  62.2045318  27.0668279  49.1632175  61.8453216
  26.4069166  46.2017843  55.9551221  25.5761095  46.3691661  55.7486469
  26.3520683  45.8253794  56.7400106  26.2758581  46.1707575  56.0399749
  24.2152949  39.6926736  61.5907632  24.8405652  39.1488869  61.8637064
  23.7603429  39.2121654  61.0215422  24.2401210  39.5416218  61.5469225
  29.6181388  52.2973396  57.3078173  29.1106479  52.8509243  57.7518804
  29.3208034  52.3581686  56.4896948  29.4986273  52.3879707  57.2526630
  31.7843570  40.6626715  56.1502836  32.2098641  40.2099242  55.5386363
  31.1700563  40.1086786  56.4267624  31.7572215  40.5140692  56.1007862
  21.3158420  47.5408387  47.0823461  21.8250649  48.1372894  47.4634767
  21.7892692  47.2734360  46.3999881  21.4601796  47.5894202  47.0377984
  32.2289168  56.2136654  45.2382117  31.5118478  56.0397516  44.7729354
  32.8795906  55.9789226  44.7057603  32.2191018  56.1532446  45.0911335
  28.8623873  57.2297954  54.2135180  28.6389527  56.4716783  54.5819207
  28.3733716  57.2595975  53.4915620  28.7567322  57.1220179  54.1611921
  23.6748952  44.1764645  49.9496642  22.9560941  44.5928778  50.2169505
  24.0461314  44.7418884  49.3988280  23.6240883  44.3213927  49.9079449
  32.9748532  44.8092494  55.8398638  32.9546460  44.6275789  56.6933416
  33.0227733  45.6804513  55.8158221  32.9783173  44.9109033  55.9621932
  30.9194862  51.3979686  61.7647114  30.8790717  50.7529363  61.1792270
  31.7318181  51.3416304  62.0772526  31.0338016  51.2938653  61.7244063
  27.5102330  57.4498412  51.6672265  27.0962728  56.7872542  51.2776107
  28.1949704  57.5976271  51.1467959  27.5500702  57.3739070  51.5328762
  30.8767624  56.6088497  52.4195882  30.4783907  56.7190768  51.6516702
  30.2618844  56.8170564  53.0022441  30.7266513  56.6562065  52.3927181
  26.6072571  45.0276623  58.3196872  26.0951474  44.4197806  58.6781903
  26.4352067  45.7433215  58.7870847  26.5062208  45.0439922  58.4413095
  21.4538286  43.4714198  60.9699233  21.2840876  44.1315573  60.4247440
  21.0104236  43.6820759  61.6911723  21.3637619  43.6000180  60.9960863
  30.4841641  42.9500867  60.7599127  31.0413072  42.7214677  60.1277593
  30.1602706  43.7106533  60.4834340  30.5188052  43.0284704  60.6255624
  18.3540350  46.3761064  56.2287723  17.8067070  45.7061709  56.3468592
  19.1432728  46.0090912  56.2931191  18.3892534  46.2226050  56.2556424
  28.2024759  46.0368521  61.7251134  28.9536086  46.3520198  62.0390689
  28.3947335  45.8347692  60.8985056  28.3416173  46.0535903  61.6494530
  17.1127320  45.5881872  53.3833746  16.9349081  45.1358480  54.1088662
  16.8246342  46.3908033  53.5672224  17.0440273  45.6404429  53.5177249
  32.7750901  46.8439589  52.6211137  33.2704566  46.1262584  52.5815157
  31.9650677  46.5410387  52.5065624  32.7294794  46.6937235  52.5984863
  28.2209512  50.6937402  44.7708141  27.4120835  50.3704076  44.7241451
  28.7284421  49.9870624  44.7036390  28.1759179  50.5418718  44.7538436
  18.8499790  48.1209595  50.4955505  17.9845309  48.1095286  50.3838277
  18.9498605  47.9339818  51.3426645  18.7373957  48.0915656  50.6044450
  34.8402720  49.5943276  55.3088265  35.2657791  49.0717698  54.7558690
  34.4759640  50.1924114  54.7876888  34.8489322  49.6053503  55.1497275
  24.4756799  57.8907494  54.0685611  24.7903358  58.7043882  54.0763393
  24.8850213  57.5057713  54.7367770  24.5824897  57.9536196  54.1689703
  31.4281319  53.3077541  51.6389423  31.8992497  54.0217803  51.8079408
  31.7641498  52.7076291  52.1749292  31.5476434  53.3249005  51.7421799
  33.5158304  54.9178854  63.8181495  33.6255269  54.1287415  64.1738242
  33.8449200  54.8284790  63.0155833  33.5810710  54.7884707  63.7523886
  28.3450814  38.0805011  58.5947518  28.4778720  37.2836005  58.9228493
  28.7295967  38.6071414  59.1745793  28.4207143  38.0404928  58.7291021
  32.0655265  53.0995475  58.4017116  31.5176211  52.4753358  58.1337181
  32.5268294  53.2889747  57.6861195  32.0522475  53.0354525  58.2567547
  34.8749130  41.1680829  55.7868308  34.2912119  41.6690036  55.3745875
  35.1953424  40.6610385  55.1532631  34.8362305  41.1672664  55.6326815
  26.0039261  38.0764186  56.8425411  26.5483674  37.7355313  57.4329753
  26.0576197  38.9349648  56.9846696  26.0928380  38.1519446  56.9507285
  21.8169820  51.8380602  53.7164219  22.4214677  51.7976436  53.0878040
  21.6097132  52.6851754  53.7468275  21.8758717  51.9568605  53.6280336
  31.6313592  54.1046547  54.9326457  32.4511966  53.9609514  55.1942752
  31.3507669  54.7292746  55.4742895  31.7110335  54.1756900  55.0514396
  17.0521102  50.8215220  53.5863142  16.9545380  50.0111491  53.8953199
  17.8349972  50.8007013  53.2009411  17.1537238  50.6982310  53.5750005
  48.1027242  61.7611399  47.8969333  48.0721246  62.6156036  48.0687602
  48.7008591  61.4606692  48.4555477  48.1864400  61.8427896  48.0044135
  41.3026927  60.8487050  52.6522264  40.4464822  61.0095548  52.7031380
  41.3494581  59.9779114  52.6727325  41.1826038  60.7437852  52.6628330
  35.6868067  70.3849768  48.4159495  34.9350966  70.0065306  48.1875540
  36.1354078  70.4168202  47.6678305  35.6417734  70.3335375  48.2716997
  44.6120644  67.1173576  62.2582720  45.3187411  66.6225607  62.3869654
  44.8008579  67.5582657  61.5285378  44.7448549  67.1091926  62.1691765
  41.1393027  70.8075138  43.8445042  40.8044395  71.4852059  43.4089264
  41.6519897  70.4180449  43.2561914  41.1658608  70.8499716  43.6931834
  40.6797318  72.7589406  49.7856154  41.0636697  73.3276305  49.2460929
  40.6156459  72.0338917  49.3061970  40.7270745  72.7364870  49.6350016
  44.1478748  62.9079094  55.2953915  44.6934708  63.5864181  55.3547885
  44.0895624  62.7666555  54.4355497  44.2194662  62.9871096  55.1765976
  37.2652823  70.3968160  50.6822268  37.3663186  69.5868514  50.9919395
  36.6694568  70.3025107  50.0521946  37.1925362  70.2633188  50.6348506
  45.9243817  64.3363701  46.1687643  45.8083343  65.0871387  46.5979781
  46.7199703  64.0787655  46.4183730  46.0248406  64.4098548  46.2691735
  37.1053562  75.3145749  52.0837124  37.7491018  75.7558913  52.4733282
  37.4309818  74.5099176  51.9967382  37.2485391  75.2610944  52.1282601
  30.4617867  66.4188447  50.3074601  30.2268052  65.5856099  50.2006870
  30.6003508  66.6993112  49.4935802  30.4473530  66.3371950  50.1716956
  32.7607955  58.5874177  53.2058909  32.1412986  57.9966825  53.0368924
  32.6591818  59.1785613  52.5723232  32.6545630  58.5878260  53.0863899
  37.8074142  68.3257724  47.4556985  38.1289983  68.8662932  46.8518293
  38.4546239  67.7554496  47.5879275  37.9500197  68.3216899  47.3864021
  39.8575850  60.3273719  47.5391372  40.5556015  60.5061847  48.0312835
  40.1728183  59.8044059  46.9161761  40.0071187  60.2767491  47.5193382
  32.4877088  62.1326459  55.4502478  32.3635784  62.7188905  56.0852297
  33.1395372  61.6386655  55.7514753  32.5650737  62.1465264  55.5888407
  40.0463786  66.7144164  47.5271164  40.4857421  66.1061265  47.9725936
  39.8968448  66.3351538  46.7556629  40.0885251  66.5682635  47.4790331
  37.5135429  65.3088176  54.7289989  38.1584431  64.8160619  54.4100938
  37.7537206  65.4512963  55.5556067  37.6446014  65.2565618  54.8039522
  40.0521520  68.1543082  54.3796882  40.3344763  67.3594488  54.1583637
  40.7807680  68.6323669  54.4001943  40.2011084  68.1077679  54.3499897
  38.0302714  55.6966116  51.6212647  37.7006044  56.1477259  50.9516345
  37.3547716  55.6182279  52.1685653  37.8813150  55.7517251  51.6035870
  43.6473122  65.0671345  44.4801933  43.5624417  65.9232312  44.6251502
  44.1357505  64.7915670  45.1484092  43.7062019  65.1528667  44.6004014
  44.5791555  61.6856140  45.9799668  44.0503027  61.9015773  46.6396974
  45.1016575  62.3792278  45.9000637  44.5780008  61.8199277  46.0655267
  50.0339608  67.2602444  51.3532712  49.2037311  67.4713088  51.5166129
  49.9848861  66.4339499  51.0774996  49.9046344  67.1692050  51.3370078
  36.4691163  65.5819356  44.7807136  35.8848378  66.0869388  45.1873000
  36.0661258  65.3561743  44.0403728  36.3230467  65.6227605  44.7312161
  32.0235192  71.2974118  51.5830807  31.5402770  72.0224607  51.5590391
  32.8358510  71.5950248  51.6940965  32.0725940  71.4476471  51.5958087
  38.0949346  70.0906298  54.1880622  37.5776288  69.7313713  53.5841930
  38.7923737  69.5668473  54.1986688  38.1214927  69.9603986  54.1010881
  41.7512938  70.5401112  60.1496795  41.8396284  70.3527253  60.9975005
  42.1802650  69.8938542  59.7501642  41.8275040  70.4164120  60.2168546
  39.3183398  69.8232272  59.1314457  38.7554232  69.4104882  59.6554118
  40.0804421  69.7485178  59.5507600  39.3477846  69.7509673  59.2707457
  40.9268378  61.8285009  43.2576056  41.1664381  62.0362992  42.4451400
  41.2484219  61.0242517  43.3665001  41.0105536  61.7399110  43.1536610
  36.2358668  53.7578404  47.1035594  36.9904636  54.1256721  46.8652645
  36.0586202  54.1317959  47.8714774  36.3213146  53.8676592  47.1820483
  34.8779389  71.8130293  51.7351087  35.5799968  71.2982283  51.7923844
  34.7976872  72.1404445  52.5397962  34.9703150  71.7844520  51.8623879
  49.5293567  59.9072845  55.1483134  48.6921988  59.9775032  55.3830728
  49.4981798  59.9097340  54.2757436  49.4011849  59.9183072  55.0542682
  35.9258296  62.0505880  60.8631502  36.0978799  61.9411775  61.7116784
  36.4627653  62.6960286  60.6262695  36.0303300  62.1297882  60.9536599
  34.5915733  56.1648723  43.8013707  34.4091306  56.3820604  42.9754700
  35.4541346  56.2787736  43.8572322  34.6920322  56.2138621  43.6868194
  34.2030165  68.0036645  51.2436695  35.0419064  68.2359578  51.2910457
  34.2341934  67.1340957  51.1743731  34.3311882  67.9093592  51.2401340
  34.8282868  68.4237521  55.5450001  35.3681092  68.2808652  56.2153373
  34.1452814  68.8234271  55.9134027  34.8075021  68.4617192  55.6984423
  44.2523752  64.1028521  50.7395025  45.0081267  64.5360036  50.7783934
  44.3586077  63.4533291  51.3129661  44.3793923  64.0706005  50.8293051
  47.2903924  67.9301799  51.4897428  46.8539155  67.9338541  52.2456400
  46.9566839  68.6107298  51.0577006  47.1766543  68.0314254  51.5378261
  41.8632997  69.9710131  62.8140578  42.6473414  70.0840979  63.1796321
  41.6629592  69.1451268  63.0099264  41.9499023  69.8656851  62.8974965
  30.2320013  64.6437811  55.6984422  29.9658428  63.8276928  55.8575413
  30.2458577  64.6890967  54.8279938  30.1944735  64.5294716  55.5937904
  47.2101406  54.9715626  53.7326856  47.8527315  55.0413731  54.3188771
  47.4624427  54.3044849  53.2306398  47.3423539  54.8841975  53.7454135
  34.1377760  59.4422896  42.3136180  33.4235937  59.1561075  42.7258613
  34.6221728  59.7819522  42.9542568  34.1037123  59.4504546  42.4691815
  34.9818619  58.1816190  58.3451430  34.2890416  57.7113169  58.5912162
  35.5978946  57.9554494  58.9193137  34.9703149  58.0783322  58.4660583
  42.0203390  71.8820233  56.4607034  41.2218636  71.6419733  56.7180903
  42.4689402  71.9334626  57.2074082  41.9678002  71.8542625  56.6091958
  50.4248270  64.6482718  50.3817065  51.0864704  64.0873387  50.2812974
  49.7839682  64.1534749  50.7069757  50.4277137  64.4919127  50.4149406
  41.3125077  67.9452850  42.6897989  41.7276226  67.6137874  41.9982484
  40.4817007  67.7121752  42.5618125  41.2513086  67.8624106  42.5688836
  30.6413426  65.4296591  52.9796167  30.4588999  65.4043477  52.1268459
  31.3763095  65.8995529  53.0185075  30.7227490  65.4957953  52.8594085
  46.7113100  65.6648101  50.1229054  46.9468690  65.8093300  49.2955905
  46.8602664  66.4290509  50.5160568  46.7678904  65.7987155  50.0592658
  33.7059178  62.1481594  59.4878275  34.4299150  62.1334624  59.9743170
  33.8075314  62.8576949  58.9900243  33.8277387  62.2506297  59.4857062
  48.5403557  64.5049767  47.9598658  48.8711774  65.0377407  47.3538753
  49.1136645  64.5588655  48.6160609  48.6737236  64.5919336  47.9676440
  41.0804127  65.6280678  64.3527222  40.2877108  65.9424190  64.5379842
  41.1953054  65.8432147  63.5148007  40.9799538  65.7064515  64.2565557
  43.7535446  62.3514669  48.6422238  43.8482301  63.0903964  49.0961864
  43.1294290  61.9232145  49.0756803  43.6744476  62.3975990  48.7730386
  42.0087920  65.5300882  59.2912519  42.5826782  64.8928126  59.4461083
  41.9302724  65.5304965  58.4222177  42.0821155  65.4365994  59.1858930
  30.6084337  62.3090092  53.1295233  31.1857839  62.1726542  53.7687479
  29.9098398  61.8525876  53.3840818  30.5905358  62.2212358  53.2617523
  44.0058468  64.1963409  41.8759190  43.9238630  64.2665596  42.7414177
  44.6438188  64.7593153  41.6842931  44.0878305  64.2902380  41.9749140
  37.3651639  63.9624147  51.3433716  37.1070883  63.1295882  51.3165016
  37.4200122  64.1881760  50.5026217  37.3351417  63.8721918  51.2153853
  42.4452689  56.0652598  51.4437809  41.7409016  55.5761783  51.6021728
  42.4937663  56.0775072  50.5726254  42.3482740  55.9942246  51.3377149
  36.3386351  61.5161910  51.8298611  35.7635942  61.6754078  52.4662572
  35.9622027  60.8797319  51.3667062  36.1989163  61.4459723  51.8553170
  40.0059640  59.9885259  56.6890990  39.6174072  59.5639477  56.0343181
  39.3414338  60.2367409  57.1968016  39.8506567  59.9623980  56.6678858
  49.6482909  59.7460264  49.4638820  49.3919474  58.9340205  49.2736702
  50.4912223  59.7537831  49.2369007  49.7348934  59.6272261  49.4023637
  26.0843170  61.1601984  49.8443052  26.1703422  60.7833853  50.6256582
  26.7118967  60.7862430  49.3663010  26.1899721  61.0487467  49.8888529
  43.8286001  53.6859888  54.2014974  44.2096513  53.0038059  54.5882848
  43.0249285  53.3969490  54.0190638  43.7662463  53.5426936  54.2319030
  41.1098578  64.2183864  44.8867797  41.9239217  64.5098756  44.7750568
  41.0457719  63.5643726  44.3126090  41.2201317  64.1649058  44.7856634
  47.3308068  66.9009860  59.2997372  47.0946705  66.0697924  59.1809433
  47.9751297  66.8495467  59.8852216  47.3902739  66.7707548  59.3683266
  36.9806486  67.6905381  50.0140109  37.6180433  67.4517129  50.5591902
  37.4061558  67.8942540  49.2793269  37.1382652  67.6856391  49.9857266
  31.6719128  69.9293718  53.8974412  31.7123274  70.2008569  53.0694192
  32.2313653  70.4535626  54.3132200  31.7602474  70.0469473  53.8366301
  37.6209301  62.9107671  44.3514998  38.0054454  62.6915378  45.1031543
  37.3720921  63.7370616  44.4816074  37.6411374  63.0005817  44.4816074
  37.7877842  56.1914086  64.0677582  37.4731283  56.9613649  63.8047145
  37.4667774  55.6284342  63.4829809  37.6936761  56.2224355  63.9418932
  48.3544489  66.6854308  55.3625667  48.0490306  67.4182365  55.7238982
  47.6350704  66.2792238  55.0818453  48.2031831  66.7336041  55.3738804
  39.3627958  68.1677804  51.6933895  39.4366966  68.0052975  52.5475745
  40.1797464  68.3567993  51.4494377  39.4944317  68.1714546  51.7831921
  54.0546281  63.3247309  54.6894011  53.9870781  63.3443268  53.8196598
  54.0401943  64.1677636  54.9149682  54.0425037  63.4521044  54.5946488
  33.1233715  68.5135666  48.7228338  32.2971832  68.7597404  48.5962617
  33.1845706  68.4347747  49.5890396  33.0107882  68.5380615  48.8317283
  35.3409738  54.5804607  49.6823779  34.4732164  54.6527207  49.7481388
  35.6284943  55.3826686  49.8711754  35.2549487  54.7098755  49.7198545
  44.4642627  54.7282467  58.0135100  45.2096219  54.5392277  57.5998526
  44.0479932  55.2540705  57.4548957  44.5127601  54.7784612  57.8699674
  37.9032544  71.1312547  46.4247368  38.1930842  70.7401528  45.7006595
  38.6336025  71.3129252  46.8652644  38.0539428  71.1006360  46.3830175
  51.8404898  62.0991695  52.9640605  52.3912820  61.4659764  53.2037697
  51.8249013  62.6307088  53.6556110  51.9190094  62.0840643  53.1019464
  38.4927289  65.9330293  57.5100499  37.9938983  66.6446060  57.5885387
  39.3027513  66.2530959  57.4718661  38.5383396  66.0857141  57.5157067
  35.8438459  73.1079929  49.4907518  35.6238755  72.8177284  50.2834185
  35.6232981  72.4494884  48.9625430  35.7786054  72.9679637  49.5296427
  34.7555407  65.1953246  51.7563220  34.4668655  64.5690717  52.2908947
  35.6238755  65.1373533  51.8227900  34.8415658  65.0940790  51.8454174
  45.5433304  60.3388029  52.0745202  45.1998070  59.6178364  52.4252451
  45.6426347  60.1301880  51.2323560  45.5075347  60.2012232  52.0016882
  38.0106415  74.4809319  48.2738210  38.6630473  73.9485761  48.5029236
  37.3132024  74.1277971  48.6606084  38.0037133  74.3498842  48.3650378
  34.9587680  66.8348497  47.6805585  35.7133648  67.2161536  47.8941047
  34.3658293  67.2859640  48.1352281  34.9824393  66.9577324  47.7788463
  46.0046333  66.8013733  47.6169190  46.5704366  67.4606943  47.5327733
  45.3574237  67.1463431  48.0885592  45.9925090  66.9495674  47.6741946
  37.4194347  58.7911337  62.8062797  36.6094123  59.0969117  62.6952639
  37.8969034  59.5116919  62.9215381  37.3697826  58.9425938  62.8069868
  36.2785907  68.0057058  53.0545700  35.7566660  68.1457350  53.7397565
  36.6659927  67.2467722  53.2447817  36.2589607  67.9142582  53.1846777
  33.2677091  58.0562867  47.1240655  32.9801886  57.6864137  46.3872602
  33.9547559  58.5257722  46.8624360  33.3265988  58.0709836  46.9755731
  42.4752911  69.7452517  47.0406269  42.2339587  69.0120378  46.6333334
  42.6554244  70.2939374  46.3872602  42.4660535  69.7174908  46.8836492
  37.7052232  65.0361077  48.4527191  37.5095015  65.6435812  47.8587494
  37.9286578  64.3429021  47.9718865  37.7086873  65.0238603  48.2943272
  36.1030762  61.9215815  48.5708060  36.8253414  62.0856973  48.1111866
  35.6238755  62.6425480  48.4647399  36.1394493  62.0514045  48.4873674
  44.0624270  58.2579614  53.9504744  43.2235370  58.2840893  53.7143008
  44.1328637  58.9050349  54.5310091  43.9492663  58.3575740  54.0013861
  33.7538379  64.3273887  57.6762199  34.2659476  64.6058141  57.0270959
  33.4674721  65.0663181  58.0425012  33.7873242  64.4776241  57.6352077
  47.9381794  63.4647601  51.2365986  47.8515768  63.6203027  52.0900765
  47.4832273  64.1085676  50.8625391  47.8585050  63.5823356  51.3073093
  30.8405285  58.8344079  47.9725936  30.9421422  59.6370241  48.3006911
  31.6361172  58.6331415  47.6749016  30.9733191  58.9229978  47.9761291
  37.2722104  56.4200276  57.7363241  37.0805301  56.4355410  58.5862665
  38.1220700  56.6163950  57.7129896  37.3697826  56.4514627  57.8586536
  31.6569017  58.9491257  55.7147057  31.5154509  58.0975198  55.8391565
  31.9409581  58.9919918  54.8909263  31.6776863  58.8291007  55.6114682
  41.8107610  60.7858348  49.8591546  41.5642324  60.7054099  50.6928335
  42.1392733  60.0011815  49.6654073  41.8228853  60.6584613  49.9539069
  45.7055658  67.4941707  53.6478327  45.5670018  68.1922753  54.1527069
  44.9255656  67.3390363  53.2914509  45.5698885  67.5741874  53.6704601
  44.0433744  63.7938082  59.9000709  44.0381782  62.9217899  59.9043135
  44.7494737  63.9926251  59.4270164  44.1478748  63.6941957  59.8307744
  37.7704637  63.5215066  59.2714529  37.9148013  64.1016274  58.6357639
  38.1180285  63.8991363  59.9764383  37.8432098  63.6635770  59.2813524
  39.9424554  62.7205235  57.0539660  39.1947868  62.9136249  56.6487938
  40.0966079  61.8950454  56.8163782  39.8546982  62.6270346  56.9585066
  36.8432392  71.7117838  56.1375556  36.9921956  71.1520754  55.4848960
  37.6232394  71.7909840  56.5208074  36.9806486  71.6403404  56.0972505
  47.2009031  66.8519961  44.4094826  46.8215840  66.0657099  44.4024116
  46.5375277  67.4006818  44.2666470  47.0467506  66.8164785  44.3875623
  39.3685693  71.8832481  57.4160046  39.2929364  71.2141291  57.9710835
  39.2975552  72.5850269  57.9300713  39.3466299  71.8877388  57.5736895
  40.1826331  56.6155785  57.9435064  40.6398945  57.3479760  58.0707856
  40.2582660  56.1922251  58.7022320  40.2617301  56.6613023  58.0736141
  32.4259322  56.8621605  59.0324508  31.8901512  56.2501963  59.3485275
  32.4877087  57.4369741  59.6858174  32.3554955  56.8568533  59.1759935
  40.0255939  70.4033480  48.2483652  40.7905831  70.1343124  47.9266317
  39.9234029  69.9183490  48.9653715  40.1237435  70.2923044  48.3063480
  38.0608709  58.6057889  54.7876888  37.2704784  58.4249349  55.1094224
  38.4569332  57.8284842  54.7707183  38.0025585  58.4645350  54.8329437
  42.5474600  67.4345664  40.2283602  43.3147585  67.4945789  39.8189454
  42.1005909  66.8626105  39.7439920  42.5948027  67.3582239  40.0961312
  43.4452395  66.2400319  52.5136334  42.7697397  66.0085552  53.0149721
  43.4544772  65.6321502  51.8878439  43.3470900  66.1159245  52.4952486
  40.5746539  61.0818148  59.2700387  40.5105681  61.9428105  59.1420524
  40.7143727  60.7650142  58.4695938  40.5862010  61.1618315  59.1328600
  45.4469130  69.0965452  44.7446512  45.5288967  69.9032438  44.4207963
  45.9318872  69.1161411  45.4687286  45.5306288  69.2186114  44.8033411
  39.2565633  63.7750288  53.4116590  38.8327882  63.9754787  52.6755608
  39.0810489  62.9279136  53.5240890  39.1676514  63.6799069  53.3190280
  38.7577327  75.2900801  55.8738047  39.2473257  74.5911590  55.6913712
  38.1861559  74.9924671  56.4614105  38.7461857  75.1427024  55.9339088
  34.5448078  64.2702339  48.8444562  34.7012697  64.2049142  49.7000555
  34.8848671  65.0450892  48.6323242  34.6181313  64.3751537  48.9399157
  41.0827223  63.6460223  47.7137926  41.6242768  63.1430604  48.1776546
  41.3973782  63.5925417  46.9027411  41.2091620  63.5639644  47.6621738
  44.9544330  67.8562870  64.8264838  45.7679196  67.5848019  64.9869970
  44.7939297  67.5570410  64.0225034  45.0514279  67.7717796  64.7310244
  39.2513673  69.0377574  44.9977954  39.3206493  68.1792113  45.1370954
  40.0302128  69.2549455  44.6696978  39.3766523  68.9430438  44.9695111
  42.2316492  58.5396527  57.7660226  42.4458462  57.9007441  57.2123580
  41.6150392  58.9842351  57.3368088  42.1721822  58.5106671  57.6210657
  43.6421160  71.4615276  49.2114447  43.2500952  71.1581991  48.4937313
  43.7974232  72.2984365  49.0219401  43.6074750  71.5399112  49.0770944
  31.1182340  61.4537290  49.1605330  31.4981305  61.8721835  48.4965597
  30.5437705  62.0350745  49.4674173  31.0893665  61.6015148  49.1082071
  44.3955580  60.1485592  58.7043533  43.5832262  59.8411483  58.7856706
  44.8545515  59.6684593  59.2686245  44.3435965  60.0322085  58.7998127
  43.8060835  68.0265264  49.1520478  43.4475490  68.1979907  49.9284510
  43.3199546  68.4878470  48.5948476  43.6819532  68.1204235  49.1845747
  38.5949200  63.7064430  41.6920712  38.8841725  64.4829312  41.9664286
  38.6820999  63.1953161  42.3935211  38.6503457  63.7456348  41.8363210
  41.4909088  61.5545664  63.4872236  41.9608719  62.1787780  63.8740110
  41.5370968  60.8862639  64.0465450  41.5676964  61.5480344  63.6272307
  40.7172595  54.1995651  56.0413892  40.3304348  54.2244683  56.8227422
  40.2305532  53.6337330  55.5888409  40.5885104  54.1191402  56.0901796
  44.9665574  68.9169160  60.0987678  45.6045295  68.4229356  59.7650135
  44.3239666  68.8446561  59.5139905  44.9659801  68.8328169  59.9630033
  46.6922574  60.7658306  54.6653594  46.2650183  60.6784655  53.9101694
  46.0548627  60.8736082  55.2508438  46.5352182  60.7690966  54.6399036
  40.3829737  51.0862637  58.3324152  41.0122855  51.6222937  58.0545222
  40.5515599  50.9939996  59.1837717  40.5007531  51.1523999  58.4172680
  40.1843652  55.8733832  60.6050563  41.0117081  55.6018980  60.6609178
  40.2051498  56.6694673  60.9614382  40.3096502  55.9513586  60.6665746
  45.0219831  69.6088969  56.7393035  45.8112209  69.2578033  56.8595117
  45.1963429  70.4225357  56.4769669  45.1640113  69.6774826  56.7180903
  34.7613141  63.0197694  53.7920824  33.9201148  62.9201569  53.9999718
  34.9703149  63.7893175  54.1435145  34.6677834  63.1189738  53.8748139
  32.2388708  60.6417231  51.6205575  31.8445406  60.7160243  50.8455684
  31.6828825  61.0275178  52.1713936  32.0991521  60.7099006  51.5873235
  38.5729806  60.9479094  53.0418422  38.2692944  60.3935082  53.6428829
  37.8709227  61.1271304  52.5546456  38.4246016  60.8923876  53.0588127
  37.6295903  58.2579613  47.6063123  37.9055638  57.5398526  47.1940691
  38.2294573  58.8564533  47.3984230  37.7589168  58.2399984  47.5143885
  36.6348157  68.1628814  57.7490519  36.5268512  68.1730876  58.6152577
  36.8443939  68.9883595  57.5595473  36.6498268  68.2869889  57.8494611
  41.1306424  55.9293131  45.8809718  41.5850170  56.1003691  46.6057563
  41.6046470  55.3161241  45.4807494  41.2674744  55.8644016  45.9283480
  34.6521949  65.4141457  55.2112457  34.0609882  66.0550955  55.1815472
  35.4142973  65.8379074  55.1843756  34.6770210  65.5717295  55.2027604
  35.0482572  56.5743454  55.8780475  35.5084054  56.6482384  56.6155598
  35.0938679  57.3724708  55.5280296  35.1233127  56.7037601  55.9353231
  36.6965922  57.2410149  60.4452502  36.3051487  56.5943496  60.8808279
  36.8651785  57.8321585  61.0646757  36.6636832  57.2324417  60.6015208
  50.7712371  65.2447226  56.2089735  50.8295495  65.6933875  56.9549712
  50.1378838  65.6546039  55.7719815  50.6863666  65.3720961  56.2542284
  44.4111465  70.8650768  52.6444481  44.2131154  71.3541583  51.9500693
  43.7899177  71.0692010  53.2228615  44.2899030  70.9667306  52.6267705
  38.4719444  62.6335665  46.9854726  39.2161489  63.0209941  47.2237676
  38.6180140  61.7893090  47.1495214  38.6030029  62.5666138  47.0448695
  41.4597320  58.2061138  52.8848645  40.9857274  57.6802900  53.3953956
  41.8315455  57.6590611  52.3163507  41.4447209  58.0477135  52.8763792
  31.8370350  60.2032645  58.2532191  32.6995963  60.1028354  58.1669521
  31.5062133  59.6227354  57.6917763  31.9155546  60.1024272  58.1577597
  47.7234050  63.2663514  54.2955426  47.4832273  62.4269929  54.2997852
  48.2026057  63.3463681  55.0196199  47.7586234  63.1544914  54.4030228
  49.7239237  60.0464971  52.2484685  49.4849007  60.0060805  51.4105469
  49.8873139  60.8936123  52.3750406  49.7129541  60.1657056  52.1438167
  46.3285267  64.4314921  58.1789730  47.0519466  63.9787447  58.0000750
  46.0635230  64.7119586  57.3962058  46.3966541  64.4065889  58.0368445
  35.1972136  59.0275094  54.9142609  34.5725206  59.0393486  54.3068562
  34.8617731  59.5035269  55.5633849  35.0557628  59.0993611  54.9199178
  35.3813884  57.3700213  40.9715294  35.0326689  58.0219938  41.4346843
  34.9010330  57.3557326  40.2439165  35.2584128  57.4643266  40.9326385
  31.9097811  67.0875554  56.3546373  31.3797736  66.3967993  56.4041348
  32.1822905  67.0785740  55.5259082  31.8722534  66.9842686  56.2393789
  42.9417902  67.6701257  45.0784056  43.6652101  68.1359370  44.9348629
  42.5018493  67.7374866  44.3281653  42.9833594  67.7485093  44.9468837
  42.1104057  64.5298799  56.3284745  41.4961050  63.9856849  56.6233380
  42.6271342  64.0163035  55.8490561  42.0959719  64.3735208  56.3008973
  41.3500354  65.6003069  54.0629044  40.9227962  64.9752787  53.6294479
  41.3425298  65.3177991  54.8888051  41.2859495  65.4655849  54.1208871
  34.4662881  60.6368242  57.1317477  34.6256368  59.8811566  57.5369199
  34.2855775  61.1859181  57.7858215  34.4628240  60.6062056  57.2880183
  42.4083184  52.8029477  57.6868267  41.9123745  52.9993152  56.9959834
  43.1652246  53.2022146  57.5157069  42.4470009  52.8907211  57.5588404
  39.6786064  56.4771823  54.2771578  39.7028551  55.9431936  53.5884357
  39.9297537  55.9689132  54.9397168  39.7195982  56.3232727  54.2736222
  27.1893654  63.7603318  53.7114722  27.0837103  63.7150163  52.8466806
  26.4393874  64.1057099  53.9929006  27.0629257  63.8044226  53.6252051
  35.9587386  55.2042642  53.6577322  35.9985758  55.7051848  54.3712029
  35.1337051  55.2953035  53.3883245  35.8426912  55.2924458  53.7227860
  38.1416999  64.7703382  61.7597616  37.2912629  64.9075096  61.8955261
  38.3045127  64.0367160  62.2045318  38.0400862  64.6817483  61.8453216
  37.3801749  61.7203151  55.9551221  36.5493679  61.8876969  55.7486469
  37.3253267  61.3439102  56.7400106  37.2491164  61.6892883  56.0399749
  35.1885533  55.2112044  61.5907632  35.8138236  54.6674177  61.8637064
  34.7336013  54.7306962  61.0215422  35.2133793  55.0601526  61.5469225
  35.7537793  59.9958743  46.4841339  35.8940754  60.4931207  47.1869980
  36.2520326  59.2945037  46.6255552  35.8478874  59.9660722  46.6092918
  35.7838016  60.8625854  43.8133915  36.4183095  61.4586279  43.7483377
  35.8663626  60.5629312  44.6279786  35.8894567  60.9066762  43.9237002
  48.7620581  63.3941331  56.6820280  49.3538422  64.0338582  56.7138478
  49.1979576  62.6964368  56.9712346  48.9139013  63.3859682  56.7301112
  37.3616998  56.7939829  43.7879357  37.6832840  56.3142912  43.1338620
  37.6243942  57.6039475  43.5970169  37.4483024  56.8429727  43.6634849
  40.5913971  67.8158704  57.3078173  40.0839062  68.3694551  57.7518804
  40.2940617  67.8766994  56.4896948  40.4718856  67.9065015  57.2526630
  42.7576153  56.1812023  56.1502836  43.1831225  55.7284550  55.5386363
  42.1433147  55.6272094  56.4267624  42.7304799  56.0326000  56.1007862
  32.2891003  63.0593695  47.0823461  32.7983233  63.6558202  47.4634767
  32.7625276  62.7919668  46.3999881  32.4334379  63.1079510  47.0377984
  43.2021752  71.7321961  45.2382117  42.4851061  71.5582824  44.7729354
  43.8528489  71.4974534  44.7057603  43.1923602  71.6717754  45.0911335
  45.7869723  60.6086550  48.9823422  45.1160913  61.1516252  48.8536488
  46.4809473  61.0781405  48.7405117  45.7898590  60.7584821  48.9278950
  39.8356457  72.7483262  54.2135180  39.6122111  71.9902091  54.5819207
  39.3466300  72.7781283  53.4915620  39.7299906  72.6405487  54.1611921
  45.9497850  57.0642434  51.8913795  46.3025460  56.6372157  52.5659594
  45.0912652  56.9793277  52.0214872  45.8747295  56.9887174  52.0108806
  34.6481535  59.6949953  49.9496642  33.9293524  60.1114086  50.2169505
  35.0193898  60.2604192  49.3988280  34.5973467  59.8399235  49.9079449
  43.9481116  60.3277802  55.8398638  43.9279043  60.1461097  56.6933416
  43.9960317  61.1989821  55.8158221  43.9515757  60.4294340  55.9621932
  41.8927446  66.9164994  61.7647114  41.8523301  66.2714671  61.1792270
  42.7050764  66.8601612  62.0772526  42.0070599  66.8123961  61.7244063
  38.4834913  72.9683720  51.6672265  38.0695312  72.3057850  51.2776107
  39.1682288  73.1161579  51.1467959  38.5233285  72.8924378  51.5328762
  41.8500208  72.1273805  52.4195882  41.4516491  72.2376076  51.6516702
  41.2351427  72.3355872  53.0022441  41.6999097  72.1747373  52.3927181
  40.4228110  58.7347953  45.2870021  39.8292949  59.0564950  44.7354588
  40.4603387  57.8889049  45.0791127  40.3402499  58.6572281  45.1752793
  43.2985926  58.6927458  48.7171771  43.0699619  58.7160159  47.8750130
  43.5584002  57.8684925  48.8366782  43.3032114  58.5743538  48.6096969
  37.5805155  60.5461931  58.3196872  37.0684058  59.9383114  58.6781903
  37.4084651  61.2618523  58.7870847  37.4794792  60.5625230  58.4413095
  32.4270869  58.9899506  60.9699233  32.2573460  59.6500881  60.4247440
  31.9836819  59.2006067  61.6911723  32.3370203  59.1185488  60.9960863
  36.3530689  57.2304004  50.0125967  36.8288055  57.5921084  49.3776148
  35.8519288  57.8860472  50.2926110  36.3496048  57.3798193  49.9602708
  49.5842050  66.7025772  45.8038972  49.9675656  67.4517128  46.0337069
  48.7886164  66.9491592  45.5450961  49.5235832  66.8495466  45.7996546
  41.4574225  58.4686175  60.7599127  42.0145655  58.2399985  60.1277593
  41.1335290  59.2291841  60.4834340  41.4920635  58.5470012  60.6255624
  29.3272934  61.8946372  56.2287723  28.7799653  61.2247017  56.3468592
  30.1165312  61.5276219  56.2931191  29.3625117  61.7411358  56.2556424
  39.1757342  61.5553829  61.7251134  39.9268669  61.8705506  62.0390689
  39.3679919  61.3533000  60.8985056  39.3148756  61.5721210  61.6494530
  38.3957342  59.3745204  43.3799351  38.7756307  59.3924833  42.5950466
  37.6549938  59.8199193  43.2590198  38.3426180  59.4426978  43.2462919
  28.0859903  61.1067179  53.3833746  27.9081664  60.6543788  54.1088662
  27.7978925  61.9093341  53.5672224  28.0172856  61.1589737  53.5177249
  43.7483484  62.3624897  52.6211137  44.2437150  61.6447892  52.5815157
  42.9383260  62.0595694  52.5065624  43.7027378  62.2122543  52.5984863
  39.1942096  66.2122710  44.7708141  38.3853419  65.8889384  44.7241451
  39.7017005  65.5055932  44.7036390  39.1491763  66.0604026  44.7538436
  29.8232373  63.6394903  50.4955505  28.9577893  63.6280594  50.3838277
  29.9231189  63.4525126  51.3426645  29.7106540  63.6100964  50.6044450
  45.8135303  65.1128584  55.3088265  46.2390375  64.5903006  54.7558690
  45.4492223  65.7109422  54.7876888  45.8221906  65.1238811  55.1497275
  35.4489383  73.4092802  54.0685611  35.7635942  74.2229190  54.0763393
  35.8582796  73.0243020  54.7367770  35.5557481  73.4721504  54.1689703
  42.4013903  68.8262849  51.6389423  42.8725081  69.5403111  51.8079408
  42.7374081  68.2261599  52.1749292  42.5209018  68.8434313  51.7421799
  44.4890887  70.4364162  63.8181495  44.5987853  69.6472723  64.1738242
  44.8181784  70.3470098  63.0155833  44.5543293  70.3070015  63.7523886
  39.3183398  53.5990319  58.5947518  39.4511303  52.8021313  58.9228493
  39.7028550  54.1256722  59.1745793  39.3939727  53.5590236  58.7291021
  43.0387849  68.6180783  58.4017116  42.4908795  67.9938666  58.1337181
  43.5000878  68.8075055  57.6861195  43.0255058  68.5539833  58.2567547
  45.8481713  56.6866137  55.7868308  45.2644702  57.1875344  55.3745875
  46.1686007  56.1795693  55.1532631  45.8094889  56.6857972  55.6326815
  38.3876513  55.6006732  46.0626983  39.2092207  55.7705045  45.8208678
  37.9246163  55.7553993  45.3393280  38.4407675  55.6488465  45.9198627
  36.9771844  53.5949494  56.8425411  37.5216257  53.2540621  57.4329753
  37.0308780  54.4534956  56.9846696  37.0660964  53.6704754  56.9507285
  32.7902403  67.3565910  53.7164219  33.3947261  67.3161744  53.0878040
  32.5829716  68.2037062  53.7468275  32.8491300  67.4753913  53.6280336
  42.6046175  69.6231855  54.9326457  43.4244549  69.4794821  55.1942752
  42.3240253  70.2478054  55.4742895  42.6842919  69.6942207  55.0514396
  28.0253685  66.3400528  53.5863142  27.9277964  65.5296799  53.8953199
  28.8082555  66.3192321  53.2009411  28.1269822  66.2167618  53.5750005
  59.0759826  77.2796707  47.8969333  59.0453830  78.1341344  48.0687602
  59.6741174  76.9792000  48.4555477  59.1596984  77.3613204  48.0044135
  52.2759511  76.3672358  52.6522264  51.4197406  76.5280856  52.7031380
  52.3227164  75.4964422  52.6727325  52.1558622  76.2623160  52.6628330
  55.1211332  78.4264402  55.2953915  55.6667292  79.1049489  55.3547885
  55.0628208  78.2851863  54.4355497  55.1927246  78.5056404  55.1765976
  56.8976400  79.8549009  46.1687643  56.7815926  80.6056695  46.5979781
  57.6932287  79.5972962  46.4183730  56.9980990  79.9283856  46.2691735
  43.7340538  74.1059485  53.2058909  43.1145570  73.5152133  53.0368924
  43.6324402  74.6970921  52.5723232  43.6278214  74.1063568  53.0863899
  48.7806726  83.8443032  47.4556985  49.1022567  84.3848239  46.8518293
  49.4278822  83.2739804  47.5879275  48.9232781  83.8402207  47.3864021
  50.8308434  75.8459027  47.5391372  51.5288599  76.0247155  48.0312835
  51.1460766  75.3229366  46.9161761  50.9803771  75.7952799  47.5193382
  43.4609671  77.6511767  55.4502478  43.3368368  78.2374213  56.0852297
  44.1127956  77.1571963  55.7514753  43.5383321  77.6650571  55.5888407
  51.0196369  82.2329472  47.5271164  51.4590005  81.6246573  47.9725936
  50.8701032  81.8536845  46.7556629  51.0617835  82.0867943  47.4790331
  48.4868012  80.8273484  54.7289989  49.1317015  80.3345927  54.4100938
  48.7269789  80.9698271  55.5556067  48.6178597  80.7750926  54.8039522
  51.0254104  83.6728390  54.3796882  51.3077346  82.8779796  54.1583637
  51.7540264  84.1508977  54.4001943  51.1743667  83.6262987  54.3499897
  49.0035297  71.2151424  51.6212647  48.6738627  71.6662567  50.9516345
  48.3280299  71.1367587  52.1685653  48.8545734  71.2702559  51.6035870
  54.6205706  80.5856653  44.4801933  54.5357001  81.4417620  44.6251502
  55.1090089  80.3100978  45.1484092  54.6794603  80.6713975  44.6004014
  56.2111705  67.2036947  49.8662257  55.8965146  67.8940425  50.2982680
  55.6938647  67.1481729  49.1647758  56.0876176  67.2971835  49.8259206
  55.5524139  77.2041448  45.9799668  55.0235610  77.4201081  46.6396974
  56.0749159  77.8977586  45.9000637  55.5512592  77.3384585  46.0655267
  47.4423747  81.1004664  44.7807136  46.8580962  81.6054696  45.1873000
  47.0393842  80.8747051  44.0403728  47.2963051  81.1412913  44.7312161
  51.9000961  77.3470316  43.2576056  52.1396965  77.5548300  42.4451400
  52.2216802  76.5427825  43.3665001  51.9838119  77.2584418  43.1536610
  47.2091251  69.2763712  47.1035594  47.9637220  69.6442029  46.8652645
  47.0318786  69.6503267  47.8714774  47.2945730  69.3861900  47.1820483
  60.5026150  75.4258153  55.1483134  59.6654571  75.4960340  55.3830728
  60.4714381  75.4282648  54.2757436  60.3744433  75.4368380  55.0542682
  46.8990879  77.5691188  60.8631502  47.0711383  77.4597083  61.7116784
  47.4360237  78.2145594  60.6262695  47.0035883  77.6483190  60.9536599
  45.5648316  71.6834031  43.8013707  45.3823889  71.9005912  42.9754700
  46.4273929  71.7973044  43.8572322  45.6652906  71.7323929  43.6868194
  51.2448035  68.6860442  46.8362731  51.9734196  68.5076397  46.3900887
  51.3342928  69.5278522  47.0469909  51.3654697  68.7844320  46.8016249
  55.2256336  79.6213829  50.7395025  55.9813851  80.0545344  50.7783934
  55.3318660  78.9718599  51.3129661  55.3526507  79.5891313  50.8293051
  41.2052596  80.1623119  55.6984422  40.9391011  79.3462236  55.8575413
  41.2191160  80.2076275  54.8279938  41.1677318  80.0480024  55.5937904
  58.1833990  70.4900934  53.7326856  58.8259898  70.5599039  54.3188771
  58.4357011  69.8230157  53.2306398  58.3156122  70.4027283  53.7454135
  45.1110343  74.9608204  42.3136180  44.3968520  74.6746383  42.7258613
  45.5954312  75.3004830  42.9542568  45.0769706  74.9689853  42.4691815
  45.9551203  73.7001498  58.3451430  45.2622999  73.2298477  58.5912162
  46.5711530  73.4739802  58.9193137  45.9435732  73.5968630  58.4660583
  52.2857661  83.4638158  42.6897989  52.7008810  83.1323182  41.9982484
  51.4549591  83.2307060  42.5618125  52.2245670  83.3809414  42.5688836
  41.6146010  80.9481899  52.9796167  41.4321583  80.9228785  52.1268459
  42.3495679  81.4180837  53.0185075  41.6960074  81.0143261  52.8594085
  57.6845684  81.1833409  50.1229054  57.9201273  81.3278608  49.2955905
  57.8335248  81.9475817  50.5160568  57.7411487  81.3172463  50.0592658
  44.6791762  77.6666902  59.4878275  45.4031734  77.6519932  59.9743170
  44.7807898  78.3762257  58.9900243  44.8009971  77.7691605  59.4857062
  59.5136141  80.0235075  47.9598658  59.8444358  80.5562715  47.3538753
  60.0869229  80.0773962  48.6160609  59.6469820  80.1104644  47.9676440
  54.7268030  77.8699977  48.6422238  54.8214884  78.6089272  49.0961864
  54.1026873  77.4417453  49.0756803  54.6477060  77.9161298  48.7730386
  41.5816920  77.8275399  53.1295233  42.1590423  77.6911850  53.7687479
  40.8830982  77.3711184  53.3840818  41.5637942  77.7397666  53.2617523
  54.9791051  79.7148717  41.8759190  54.8971214  79.7850904  42.7414177
  55.6170772  80.2778461  41.6842931  55.0610889  79.8087688  41.9749140
  48.3384222  79.4809455  51.3433716  48.0803467  78.6481190  51.3165016
  48.3932705  79.7067068  50.5026217  48.3084000  79.3907226  51.2153853
  53.4185273  71.5837906  51.4437809  52.7141599  71.0947091  51.6021728
  53.4670247  71.5960380  50.5726254  53.3215324  71.5127554  51.3377149
  47.3118935  77.0347218  51.8298611  46.7368526  77.1939386  52.4662572
  46.9354611  76.3982627  51.3667062  47.1721747  76.9645031  51.8553170
  50.9792223  75.5070567  56.6890990  50.5906656  75.0824785  56.0343181
  50.3146921  75.7552717  57.1968016  50.8239151  75.4809288  56.6678858
  60.6215492  75.2645572  49.4638820  60.3652057  74.4525513  49.2736702
  61.4644806  75.2723139  49.2369007  60.7081518  75.1457569  49.4023637
  37.0575753  76.6787292  49.8443052  37.1436005  76.3019161  50.6256582
  37.6851551  76.3047738  49.3663010  37.1632304  76.5672775  49.8888529
  54.8018585  69.2045196  54.2014974  55.1829096  68.5223367  54.5882848
  53.9981869  68.9154798  54.0190638  54.7395046  69.0612244  54.2319030
  52.0831161  79.7369171  44.8867797  52.8971800  80.0284064  44.7750568
  52.0190303  79.0829034  44.3126090  52.1933900  79.6834366  44.7856634
  47.9539070  83.2090689  50.0140109  48.5913017  82.9702436  50.5591902
  48.3794141  83.4127848  49.2793269  48.1115236  83.2041699  49.9857266
  48.5941885  78.4292979  44.3514998  48.9787037  78.2100685  45.1031543
  48.3453505  79.2555924  44.4816074  48.6143957  78.5191125  44.4816074
  48.7610425  71.7099394  64.0677582  48.4463866  72.4798957  63.8047145
  48.4400358  71.1469650  63.4829809  48.6669344  71.7409663  63.9418932
  50.3360542  83.6863112  51.6933895  50.4099550  83.5238283  52.5475745
  51.1530048  83.8753301  51.4494377  50.4676900  83.6899854  51.7831921
  46.3142322  70.0989915  49.6823779  45.4464748  70.1712515  49.7481388
  46.6017526  70.9011994  49.8711754  46.2282070  70.2284062  49.7198545
  55.4375211  70.2467775  58.0135100  56.1828803  70.0577585  57.5998526
  55.0212515  70.7726013  57.4548957  55.4860185  70.2969920  57.8699674
  62.8137482  77.6177003  52.9640605  63.3645403  76.9845072  53.2037697
  62.7981597  78.1492396  53.6556110  62.8922678  77.6025951  53.1019464
  49.4659873  81.4515601  57.5100499  48.9671566  82.1631368  57.5885387
  50.2760097  81.7716267  57.4718661  49.5115979  81.6042449  57.5157067
  45.7287990  80.7138554  51.7563220  45.4401239  80.0876025  52.2908947
  46.5971338  80.6558841  51.8227900  45.8148242  80.6126098  51.8454174
  56.5165888  75.8573337  52.0745202  56.1730654  75.1363672  52.4252451
  56.6158930  75.6487188  51.2323560  56.4807931  75.7197540  52.0016882
  45.9320263  82.3533805  47.6805585  46.6866231  82.7346844  47.8941047
  45.3390876  82.8044948  48.1352281  45.9556977  82.4762632  47.7788463
  48.3926931  74.3096645  62.8062797  47.5826706  74.6154425  62.6952639
  48.8701617  75.0302227  62.9215381  48.3430409  74.4611246  62.8069868
  47.2518490  83.5242366  53.0545700  46.7299244  83.6642658  53.7397565
  47.6392510  82.7653030  53.2447817  47.2322191  83.4327890  53.1846777
  44.2409674  73.5748175  47.1240655  43.9534470  73.2049445  46.3872602
  44.9280142  74.0443030  46.8624360  44.2998571  73.5895144  46.9755731
  48.6784816  80.5546385  48.4527191  48.4827598  81.1621120  47.8587494
  48.9019161  79.8614329  47.9718865  48.6819457  80.5423910  48.2943272
  47.0763346  77.4401123  48.5708060  47.7985998  77.6042281  48.1111866
  46.5971338  78.1610788  48.4647399  47.1127076  77.5699352  48.4873674
  55.0356853  73.7764922  53.9504744  54.1967954  73.8026201  53.7143008
  55.1061221  74.4235657  54.5310091  54.9225247  73.8761048  54.0013861
  44.7270962  79.8459195  57.6762199  45.2392059  80.1243449  57.0270959
  44.4407305  80.5848489  58.0425012  44.7605826  79.9961549  57.6352077
  53.4826132  70.6750299  48.6832360  54.1852484  70.4758047  48.2052319
  53.2170320  69.9026241  48.9901204  53.5472764  70.5313265  48.6577802
  58.9114377  78.9832908  51.2365986  58.8248352  79.1388335  52.0900765
  58.4564857  79.6270984  50.8625391  58.8317634  79.1008664  51.3073093
  41.8137869  74.3529387  47.9725936  41.9154005  75.1555549  48.3006911
  42.6093755  74.1516723  47.6749016  41.9465774  74.4415286  47.9761291
  48.2454688  71.9385584  57.7363241  48.0537885  71.9540718  58.5862665
  49.0953284  72.1349258  57.7129896  48.3430410  71.9699935  57.8586536
  42.6301601  74.4676565  55.7147057  42.4887093  73.6160506  55.8391565
  42.9142164  74.5105226  54.8909263  42.6509447  74.3476315  55.6114682
  52.7840193  76.3043656  49.8591546  52.5374907  76.2239406  50.6928335
  53.1125316  75.5197123  49.6654073  52.7961437  76.1769921  49.9539069
  48.7437220  79.0400374  59.2714529  48.8880596  79.6201582  58.6357639
  49.0912869  79.4176671  59.9764383  48.8164682  79.1821078  59.2813524
  50.9157138  78.2390543  57.0539660  50.1680452  78.4321557  56.6487938
  51.0698663  77.4135762  56.8163782  50.8279565  78.1455654  56.9585066
  43.3991906  72.3806913  59.0324508  42.8634096  71.7687271  59.3485275
  43.4609671  72.9555049  59.6858174  43.3287539  72.3753841  59.1759935
  55.6286241  65.3130968  51.8128907  55.7469809  65.7707432  51.0796210
  55.4548416  64.5076230  51.5265125  55.6205412  65.2624741  51.6629841
  49.0341293  74.1243197  54.7876888  48.2437368  73.9434657  55.1094224
  49.4301916  73.3470150  54.7707183  48.9758169  73.9830658  54.8329437
  53.5207184  82.9530971  40.2283602  54.2880169  83.0131096  39.8189454
  53.0738493  82.3811413  39.7439920  53.5680611  82.8767547  40.0961312
  54.4184979  81.7585627  52.5136334  53.7429981  81.5270860  53.0149721
  54.4277355  81.1506810  51.8878439  54.3203484  81.6344553  52.4952486
  51.5479123  76.6003456  59.2700387  51.4838264  77.4613413  59.1420524
  51.6876311  76.2835450  58.4695938  51.5594593  76.6803623  59.1328600
  50.2298217  79.2935596  53.4116590  49.8060466  79.4940095  52.6755608
  50.0543072  78.4464444  53.5240890  50.1409098  79.1984377  53.3190280
  45.5180662  79.7887647  48.8444562  45.6745281  79.7234450  49.7000555
  45.8581255  80.5636200  48.6323242  45.5913897  79.8936845  48.9399157
  52.0559807  79.1645531  47.7137926  52.5975352  78.6615912  48.1776546
  52.3706366  79.1110725  46.9027411  52.1824204  79.0824952  47.6621738
  50.2246256  84.5562882  44.9977954  50.2939077  83.6977421  45.1370954
  51.0034711  84.7734763  44.6696978  50.3499106  84.4615746  44.9695111
  53.2049076  74.0581835  57.7660226  53.4191045  73.4192749  57.2123580
  52.5882975  74.5027659  57.3368088  53.1454405  74.0291979  57.6210657
  42.0914923  76.9722598  49.1605330  42.4713888  77.3907142  48.4965597
  41.5170288  77.5536053  49.4674173  42.0626248  77.1200456  49.1082071
  55.3688164  75.6670900  58.7043533  54.5564846  75.3596791  58.7856706
  55.8278099  75.1869900  59.2686245  55.3168549  75.5507393  58.7998127
  54.7793419  83.5450572  49.1520478  54.4208073  83.7165215  49.9284510
  54.2932129  84.0063778  48.5948476  54.6552115  83.6389543  49.1845747
  52.5963805  67.1681771  52.7547569  51.7257362  67.1420492  52.7080878
  52.8504146  66.9958963  51.9373415  52.5057365  67.1391915  52.6267706
  49.5681784  79.2249738  41.6920712  49.8574309  80.0014620  41.9664286
  49.6553583  78.7138469  42.3935211  49.6236040  79.2641656  41.8363210
  49.6212945  69.1787999  54.2121039  49.1051434  68.4868191  54.3372618
  49.0606874  69.8458776  54.1583638  49.4619458  69.1751257  54.2227105
  51.6905179  69.7180959  56.0413892  51.3036932  69.7429991  56.8227422
  51.2038116  69.1522638  55.5888409  51.5617687  69.6376710  56.0901796
  57.6655158  76.2843614  54.6653594  57.2382766  76.1969963  53.9101694
  57.0281211  76.3921390  55.2508438  57.5084765  76.2876274  54.6399036
  51.3562320  66.6047945  58.3324152  51.9855438  67.1408245  58.0545222
  51.5248183  66.5125304  59.1837717  51.4740115  66.6709307  58.4172680
  51.1576235  71.3919139  60.6050563  51.9849664  71.1204288  60.6609178
  51.1784081  72.1879981  60.9614382  51.2829085  71.4698894  60.6665746
  45.7345725  78.5383002  53.7920824  44.8933732  78.4386876  53.9999718
  45.9435733  79.3078483  54.1435145  45.6410418  78.6375046  53.8748139
  43.2121292  76.1602539  51.6205575  42.8177990  76.2345551  50.8455684
  42.6561409  76.5460486  52.1713936  43.0724104  76.2284314  51.5873235
  54.8486239  69.1383833  51.3009454  55.0535832  69.0706141  52.1466451
  54.5212663  69.9442654  51.2330631  54.8301487  69.2469774  51.4169109
  49.5462390  76.4664401  53.0418422  49.2425527  75.9120390  53.6428829
  48.8441811  76.6456611  52.5546456  49.3978600  76.4109184  53.0588127
  48.6028487  73.7764921  47.6063123  48.8788221  73.0583834  47.1940691
  49.2027156  74.3749841  47.3984230  48.7321752  73.7585292  47.5143885
  58.1019926  69.6915598  50.7812219  57.4894240  70.1786000  51.1665951
  58.1984101  69.0159088  51.3249870  58.0257824  69.6633906  50.9191077
  52.1039007  71.4478439  45.8809718  52.5582754  71.6188999  46.6057563
  52.5779053  70.8346549  45.4807494  52.2407328  71.3829324  45.9283480
  45.6254533  80.9326765  55.2112457  45.0342466  81.5736263  55.1815472
  46.3875556  81.3564382  55.1843756  45.6502793  81.0902603  55.2027604
  46.0215156  72.0928762  55.8780475  46.4816637  72.1667692  56.6155598
  46.0671262  72.8910016  55.5280296  46.0965711  72.2222909  55.9353231
  47.6698505  72.7595457  60.4452502  47.2784070  72.1128804  60.8808279
  47.8384368  73.3506892  61.0646757  47.6369416  72.7509725  60.6015208
  49.4452027  78.1520973  46.9854726  50.1894072  78.5395249  47.2237676
  49.5912724  77.3078398  47.1495214  49.5762613  78.0851446  47.0448695
  51.3631603  69.9471232  52.0186587  50.5167648  70.1194040  51.8927937
  51.3602735  69.1420576  52.3552415  51.2378753  69.8532261  52.0497714
  52.4329903  73.7246446  52.8848645  51.9589858  73.1988208  53.3953956
  52.8048039  73.1775919  52.3163507  52.4179792  73.5662443  52.8763792
  42.8102933  75.7217953  58.2532191  43.6728546  75.6213662  58.1669521
  42.4794716  75.1412662  57.6917763  42.8888130  75.6209580  58.1577597
  58.6966634  78.7848822  54.2955426  58.4564857  77.9455237  54.2997852
  59.1758641  78.8648989  55.0196199  58.7318818  78.6730222  54.4030228
  54.3613403  74.6183001  45.9474399  53.8336422  74.7011745  45.2580108
  54.8209111  75.3600872  45.9439044  54.3515253  74.7403663  45.8449094
  60.6971821  75.5650279  52.2484685  60.4581591  75.5246113  51.4105469
  60.8605722  76.4121431  52.3750406  60.6862124  75.6842364  52.1438167
  46.1704719  74.5460402  54.9142609  45.5457790  74.5578794  54.3068562
  45.8350314  75.0220577  55.5633849  46.0290211  74.6178919  54.9199178
  46.3546468  72.8885521  40.9715294  46.0059272  73.5405246  41.4346843
  45.8742914  72.8742634  40.2439165  46.2316712  72.9828574  40.9326385
  53.9150485  83.1886564  45.0784056  54.6384684  83.6544677  44.9348629
  53.4751076  83.2560174  44.3281653  53.9566178  83.2670401  44.9468837
  53.0836640  80.0484107  56.3284745  52.4693634  79.5042157  56.6233380
  53.6003925  79.5348343  55.8490561  53.0692303  79.8920516  56.3008973
  52.3232938  81.1188377  54.0629044  51.8960546  80.4938095  53.6294479
  52.3157882  80.8363299  54.8888051  52.2592079  80.9841157  54.1208871
  45.4395465  76.1553550  57.1317477  45.5988951  75.3996874  57.5369199
  45.2588358  76.7044489  57.7858215  45.4360824  76.1247364  57.2880183
  53.3815768  68.3214785  57.6868267  52.8856329  68.5178460  56.9959834
  54.1384830  68.7207454  57.5157069  53.4202592  68.4092519  57.5588404
  50.6518647  71.9957131  54.2771578  50.6761135  71.4617244  53.5884357
  50.9030121  71.4874440  54.9397168  50.6928566  71.8418035  54.2736222
  38.1626237  79.2788626  53.7114722  38.0569686  79.2335471  52.8466806
  37.4126457  79.6242407  53.9929006  38.0361840  79.3229534  53.6252051
  46.9319970  70.7227950  53.6577322  46.9718341  71.2237156  54.3712029
  46.1069634  70.8138343  53.3883245  46.8159496  70.8109766  53.7227860
  48.3534333  77.2388459  55.9551221  47.5226263  77.4062277  55.7486469
  48.2985850  76.8624410  56.7400106  48.2223748  77.2078191  56.0399749
  46.1618116  70.7297352  61.5907632  46.7870820  70.1859485  61.8637064
  45.7068596  70.2492270  61.0215422  46.1866377  70.5786834  61.5469225
  46.7270377  75.5144051  46.4841339  46.8673338  76.0116515  47.1869980
  47.2252910  74.8130345  46.6255552  46.8211458  75.4846030  46.6092918
  46.7570599  76.3811162  43.8133915  47.3915679  76.9771587  43.7483377
  46.8396210  76.0814620  44.6279786  46.8627150  76.4252070  43.9237002
  48.3349582  72.3125137  43.7879357  48.6565423  71.8328220  43.1338620
  48.5976526  73.1224783  43.5970169  48.4215607  72.3615035  43.6634849
  53.7308737  71.6997331  56.1502836  54.1563809  71.2469858  55.5386363
  53.1165730  71.1457402  56.4267624  53.7037382  71.5511308  56.1007862
  43.2623587  78.5779003  47.0823461  43.7715816  79.1743510  47.4634767
  43.7357859  78.3104976  46.3999881  43.4066963  78.6264818  47.0377984
  52.1702960  68.1712431  49.5593413  51.5271278  68.0210077  50.1278552
  51.8302367  67.9254776  48.7942518  52.0248037  68.1124554  49.5296429
  56.7602306  76.1271858  48.9823422  56.0893496  76.6701560  48.8536488
  57.4542057  76.5966713  48.7405117  56.7631174  76.2770129  48.9278950
  56.9230434  72.5827742  51.8913795  57.2758044  72.1557464  52.5659594
  56.0645235  72.4978585  52.0214872  56.8479878  72.5072482  52.0108806
  45.6214119  75.2135261  49.9496642  44.9026108  75.6299394  50.2169505
  45.9926481  75.7789500  49.3988280  45.5706051  75.3584543  49.9079449
  54.9213700  75.8463110  55.8398638  54.9011627  75.6646405  56.6933416
  54.9692900  76.7175129  55.8158221  54.9248341  75.9479648  55.9621932
  51.3960693  74.2533261  45.2870021  50.8025532  74.5750258  44.7354588
  51.4335971  73.4074357  45.0791127  51.3135082  74.1757589  45.1752793
  58.3554494  67.7046153  52.8198108  57.8485359  66.9975293  52.7519285
  59.1521928  67.3739342  52.9499184  58.3981733  67.5519305  52.8297103
  54.2718510  74.2112766  48.7171771  54.0432203  74.2345467  47.8750130
  54.5316586  73.3870233  48.8366782  54.2764698  74.0928846  48.6096969
  48.5537738  76.0647239  58.3196872  48.0416641  75.4568422  58.6781903
  48.3817234  76.7803831  58.7870847  48.4527375  76.0810538  58.4413095
  43.4003453  74.5084814  60.9699233  43.2306043  75.1686189  60.4247440
  42.9569403  74.7191375  61.6911723  43.3102786  74.6370796  60.9960863
  47.3263272  72.7489312  50.0125967  47.8020639  73.1106392  49.3776148
  46.8251872  73.4045780  50.2926110  47.3228631  72.8983501  49.9602708
  52.4306809  73.9871483  60.7599127  52.9878239  73.7585293  60.1277593
  52.1067874  74.7477149  60.4834340  52.4653219  74.0655320  60.6255624
  40.3005517  77.4131680  56.2287723  39.7532237  76.7432325  56.3468592
  41.0897896  77.0461527  56.2931191  40.3357701  77.2596666  56.2556424
  49.3689925  74.8930512  43.3799351  49.7488890  74.9110141  42.5950466
  48.6282521  75.3384501  43.2590198  49.3158763  74.9612286  43.2462919
  56.9975216  73.2012703  48.9674930  56.9969442  73.0461359  49.8259206
  56.7931396  74.0475690  48.9116315  56.9674994  73.3033324  49.0862869
  39.0592487  76.6252487  53.3833746  38.8814248  76.1729096  54.1088662
  38.7711509  77.4278649  53.5672224  38.9905440  76.6775045  53.5177249
  54.7216068  77.8810205  52.6211137  55.2169733  77.1633200  52.5815157
  53.9115844  77.5781002  52.5065624  54.6759961  77.7307851  52.5984863
  50.1674679  81.7308018  44.7708141  49.3586002  81.4074692  44.7241451
  50.6749588  81.0241240  44.7036390  50.1224346  81.5789334  44.7538436
  40.7964957  79.1580211  50.4955505  39.9310476  79.1465902  50.3838277
  40.8963773  78.9710434  51.3426645  40.6839124  79.1286272  50.6044450
  56.7867887  80.6313892  55.3088265  57.2122958  80.1088314  54.7558690
  56.4224807  81.2294730  54.7876888  56.7954489  80.6424119  55.1497275
  53.3746486  84.3448156  51.6389423  53.8457664  85.0588419  51.8079408
  53.7106665  83.7446907  52.1749292  53.4941601  84.3619621  51.7421799
  50.2915981  69.1175627  58.5947518  50.4243887  68.3206620  58.9228493
  50.6761134  69.6442030  59.1745793  50.3672310  69.0775544  58.7291021
  53.3648336  66.0405953  55.1928611  52.5594300  65.9303683  55.5096449
  53.2355072  66.1418409  54.3358477  53.2268469  66.0389623  55.1136651
  56.8214297  72.2051445  55.7868308  56.2377286  72.7060652  55.3745875
  57.1418591  71.6981001  55.1532631  56.7827472  72.2043280  55.6326815
  49.3609096  71.1192040  46.0626983  50.1824790  71.2890353  45.8208678
  48.8978747  71.2739301  45.3393280  49.4140258  71.1673773  45.9198627
  47.9504428  69.1134802  56.8425411  48.4948841  68.7725929  57.4329753
  48.0041364  69.9720264  56.9846696  48.0393547  69.1890061  56.9507285
  25.8512899   7.6618914  34.8309380  25.8206903   8.5163551  35.0027649
  26.4494248   7.3614207  35.3895524  25.9350057   7.7435411  34.9384182
  19.0512584   6.7494566  39.5862310  18.1950479   6.9103064  39.6371427
  19.0980237   5.8786629  39.6067371  18.9311695   6.6445367  39.5968376
  13.4353723  16.2857283  35.3499542  12.6836623  15.9072822  35.1215587
  13.8839735  16.3175717  34.6018352  13.3903390  16.2342891  35.2057044
  22.3606300  13.0181091  49.1922766  23.0673068  12.5233122  49.3209701
  22.5494236  13.4590173  48.4625424  22.4934206  13.0099441  49.1031812
  18.8878683  16.7082653  30.7785089  18.5530052  17.3859574  30.3429311
  19.4005554  16.3187964  30.1901961  18.9144264  16.7507231  30.6271880
  18.4282975  18.6596922  36.7196201  18.8122354  19.2283820  36.1800976
  18.3642116  17.9346432  36.2402017  18.4756402  18.6372385  36.5690063
  21.8964405   8.8086609  42.2293962  22.4420365   9.4871696  42.2887932
  21.8381281   8.6674070  41.3695544  21.9680319   8.8878611  42.1106023
  15.0138480  16.2975676  37.6162314  15.1148843  15.4876029  37.9259442
  14.4180225  16.2032622  36.9861993  14.9411018  16.1640704  37.5688553
  23.6729473  10.2371217  33.1027690  23.5568999  10.9878903  33.5319828
  24.4685360   9.9795170  33.3523777  23.7734063  10.3106063  33.2031781
  14.8539219  21.2153265  39.0177170  15.4976675  21.6566429  39.4073329
  15.1795475  20.4106691  38.9307429  14.9971048  21.1618459  39.0622648
   8.2103524  12.3195962  37.2414648   7.9753708  11.4863614  37.1346917
   8.3489165  12.6000628  36.4275849   8.1959186  12.2379466  37.1057003
  15.5559799  14.2265240  34.3897032  15.8775640  14.7670447  33.7858340
  16.2031895  13.6562011  34.5219322  15.6985854  14.2224415  34.3204068
  17.6061507   6.2281234  34.4731419  18.3041672   6.4069362  34.9652882
  17.9213840   5.7051574  33.8501808  17.7556844   6.1775007  34.4533429
  10.2362744   8.0333974  42.3842525  10.1121441   8.6196420  43.0192344
  10.8881029   7.5394170  42.6854800  10.3136394   8.0472779  42.5228454
  17.7949442  12.6151680  34.4611210  18.2343078  12.0068780  34.9065983
  17.6454105  12.2359053  33.6896675  17.8370908  12.4690151  34.4130378
  15.2621085  11.2095691  41.6630036  15.9070088  10.7168134  41.3440984
  15.5022862  11.3520478  42.4896114  15.3931671  11.1573134  41.7379569
  17.8007177  14.0550597  41.3136928  18.0830420  13.2602003  41.0923684
  18.5293337  14.5331185  41.3341989  17.9496740  14.0085194  41.2839944
  21.3958779  10.9678861  31.4141980  21.3110074  11.8239827  31.5591548
  21.8843162  10.6923185  32.0824139  21.4547676  11.0536182  31.5344061
  22.9864778  -2.4140846  36.8002304  22.6718219  -1.7237367  37.2322727
  22.4691720  -2.4696064  36.0987805  22.8629249  -2.3205957  36.7599253
  22.3277212   7.5863655  32.9139715  21.7988684   7.8023289  33.5737021
  22.8502232   8.2799793  32.8340684  22.3265665   7.7206792  32.9995314
  14.2176820  11.4826872  31.7147183  13.6334035  11.9876903  32.1213047
  13.8146915  11.2569259  30.9743775  14.0716124  11.5235120  31.6652208
   9.7720849  17.1981633  38.5170854   9.2888427  17.9232123  38.4930438
  10.5844167  17.4957763  38.6281012   9.8211596  17.3483987  38.5298133
  15.8435003  15.9913814  41.1220669  15.3261944  15.6321229  40.5181977
  16.5409394  15.4675988  41.1326735  15.8700584  15.8611502  41.0350927
  19.4998595  16.4408628  47.0836842  19.5881940  16.2534768  47.9315052
  19.9288307  15.7946057  46.6841689  19.5760697  16.3171635  47.1508593
  17.0669054  15.7239788  46.0654504  16.5039889  15.3112397  46.5894165
  17.8290078  15.6492693  46.4847647  17.0963503  15.6517188  46.2047504
  18.6754034   7.7292524  30.1916103  18.9150038   7.9370508  29.3791446
  18.9969875   6.9250033  30.3005048  18.7591192   7.6406625  30.0876656
  12.6265046  17.7137809  38.6691134  13.3285625  17.1989798  38.7263891
  12.5462529  18.0411960  39.4738009  12.7188806  17.6852035  38.7963926
  27.2779223   5.8080360  42.0823181  26.4407644   5.8782547  42.3170775
  27.2467454   5.8104855  41.2097483  27.1497506   5.8190587  41.9882729
  13.6743952   7.9513396  47.7971549  13.8464456   7.8419290  48.6456831
  14.2113310   8.5967801  47.5602741  13.7788956   8.0305397  47.8876646
  11.9515821  13.9044161  38.1776742  12.7904721  14.1367094  38.2250504
  11.9827590  13.0348472  38.1083778  12.0797539  13.8101107  38.1741387
  12.5768524  14.3245036  42.4790048  13.1166749  14.1816167  43.1493420
  11.8938471  14.7241787  42.8474074  12.5560678  14.3624707  42.6324469
  22.0009409  10.0036037  37.6735072  22.7566924  10.4367551  37.7123981
  22.1071734   9.3540806  38.2469708  22.1279580   9.9713520  37.7633098
  19.6118654  15.8717647  49.7480625  20.3959071  15.9848494  50.1136367
  19.4115248  15.0458784  49.9439311  19.6984679  15.7664366  49.8315011
   7.9805669  10.5445327  42.6324469   7.7144085   9.7284443  42.7915459
   7.9944234  10.5898482  41.7619985   7.9430392  10.4302232  42.5277951
  24.9587063   0.8723142  40.6666903  25.6012972   0.9421246  41.2528818
  25.2110084   0.2052365  40.1646445  25.0909195   0.7849490  40.6794182
  11.8863416   5.3430411  29.2476227  11.1721593   5.0568591  29.6598660
  12.3707385   5.6827037  29.8882615  11.8522780   5.3512061  29.4031862
  19.7689047  17.7827749  43.3947081  18.9704293  17.5427249  43.6520950
  20.2175059  17.8342142  44.1414129  19.7163659  17.7550140  43.5432005
  28.1733927  10.5490234  37.3157112  28.8350361   9.9880902  37.2153021
  27.5325339  10.0542264  37.6409803  28.1762794  10.3926643  37.3489452
  19.0610734  13.8460365  29.6238035  19.4761883  13.5145389  28.9322531
  18.2302664  13.6129267  29.4958172  18.9998743  13.7631621  29.5028883
   8.3899083  11.3304106  39.9136213   8.2074656  11.3050992  39.0608506
   9.1248752  11.8003044  39.9525122   8.4713147  11.3965468  39.7934132
  24.4598757  11.5655616  37.0569101  24.6954346  11.7100815  36.2295952
  24.6088321  12.3298024  37.4500615  24.5164561  11.6994671  36.9932705
  11.4544835   8.0489109  46.4218322  12.1784807   8.0342140  46.9083217
  11.5560971   8.7584464  45.9240290  11.5763044   8.1513812  46.4197109
  26.2889214  10.4057282  34.8938705  26.6197431  10.9384922  34.2878800
  26.8622302  10.4596170  35.5500656  26.4222893  10.4926851  34.9016487
  18.8289784  11.5288194  51.2867269  18.0362765  11.8431706  51.4719889
  18.9438711  11.7439662  50.4488054  18.7285195  11.6072030  51.1905604
  21.5021103   8.2522185  35.5762285  21.5967957   8.9911479  36.0301910
  20.8779947   7.8239660  36.0096849  21.4230133   8.2983505  35.7070432
  19.7573577  11.4308397  46.2252566  20.3312439  10.7935642  46.3801130
  19.6788381  11.4312480  45.3562223  19.8306812  11.3373509  46.1198977
   8.3569993   8.2097607  40.0635280   8.9343496   8.0734058  40.7027525
   7.6584055   7.7533391  40.3180864   8.3391015   8.1219873  40.1957570
  21.7544124  10.0970925  28.8099237  21.6724287  10.1673112  29.6754224
  22.3923845  10.6600669  28.6182978  21.8363962  10.1909896  28.9089186
  15.1137296   9.8631663  38.2773763  14.8556540   9.0303397  38.2505063
  15.1685778  10.0889276  37.4366264  15.0837073   9.7729434  38.1493900
  20.1938346   1.9660113  38.3777856  19.4894672   1.4769299  38.5361775
  20.2423320   1.9782588  37.5066300  20.0968397   1.8949761  38.2717196
  14.0872008   7.4169425  38.7638658  13.5121599   7.5761593  39.4002619
  13.7107684   6.7804834  38.3007109  13.9474820   7.3467238  38.7893216
  17.7545296   5.8892774  43.6231036  17.3659729   5.4646992  42.9683228
  17.0899995   6.1374924  44.1308063  17.5992224   5.8631495  43.6018904
  27.3968565   5.6467779  36.3978866  27.1405130   4.8347720  36.2076749
  28.2397879   5.6545346  36.1709054  27.4834591   5.5279776  36.3363684
  21.5771658  -0.4132597  41.1355021  21.9582170  -1.0954426  41.5222895
  20.7734942  -0.7022995  40.9530685  21.5148120  -0.5565548  41.1659077
  18.8584235  10.1191379  31.8207843  19.6724873  10.4106272  31.7090615
  18.7943376   9.4651241  31.2466136  18.9686974  10.0656574  31.7196681
  25.0793725  12.8017375  46.2337419  24.8432362  11.9705440  46.1149480
  25.7236954  12.7502982  46.8192263  25.1388396  12.6715063  46.3023313
  14.7292143  13.5912896  36.9480155  15.3666090  13.3524644  37.4931949
  15.1547214  13.7950055  36.2133316  14.8868309  13.5863907  36.9197313
   9.4204785  15.8301233  40.8314459   9.4608931  16.1016084  40.0034239
   9.9799309  16.3543141  41.2472247   9.5088131  15.9476988  40.7706347
  15.3694958   8.8115186  31.2855045  15.7540111   8.5922893  32.0371590
  15.1206578   9.6378132  31.4156121  15.3897030   8.9013332  31.4156121
  26.1030145  12.5861824  42.2965714  25.7975962  13.3189881  42.6579029
  25.3836361  12.1799753  42.0158500  25.9517488  12.6343557  42.3078851
  17.1113615  14.0685319  38.6273942  17.1852623  13.9060491  39.4815792
  17.9283121  14.2575509  38.3834423  17.2429973  14.0722061  38.7171967
  31.8031938   9.2254824  41.6234058  31.7356438   9.2450784  40.7536644
  31.7887600  10.0685152  41.8489728  31.7910694   9.3528559  41.5286535
  10.8719372  14.4143182  35.6568385  10.0457489  14.6604919  35.5302664
  10.9331363  14.3355263  36.5230443  10.7593538  14.4388131  35.7657330
  22.2128284   0.6289982  44.9475147  22.9581876   0.4399793  44.5338573
  21.7965589   1.1548220  44.3889004  22.2613258   0.6792128  44.8039720
  15.6518201  17.0320062  33.3587415  15.9416499  16.6409043  32.6346642
  16.3821681  17.2136767  33.7992690  15.8025085  17.0013876  33.3170222
  29.5890555   7.9999211  39.8980652  30.1398476   7.3667280  40.1377744
  29.5734670   8.5314603  40.5896156  29.6675751   7.9848159  40.0359510
  16.2412946  11.8337808  44.4440546  15.7424639  12.5453576  44.5225434
  17.0513170  12.1538475  44.4058708  16.2869052  11.9864657  44.4497114
  13.5924116  19.0087444  36.4247565  13.3724412  18.7184799  37.2174232
  13.3718638  18.3502399  35.8965477  13.5271710  18.8687153  36.4636474
  12.5041063  11.0960761  38.6903267  12.2154312  10.4698232  39.2248994
  13.3724411  11.0381048  38.7567947  12.5901315  10.9948305  38.7794221
  23.2918961   6.2395544  39.0085248  22.9483727   5.5185880  39.3592498
  23.3912004   6.0309395  38.1663607  23.2561004   6.1019748  38.9356928
  15.7592072  20.3816834  35.2078257  16.4116130  19.8493277  35.4369283
  15.0617681  20.0285487  35.5946131  15.7522790  20.2506357  35.2990425
  12.7073337  12.7356012  34.6145632  13.4619305  13.1169051  34.8281094
  12.1143949  13.1867156  35.0692328  12.7310050  12.8584839  34.7128510
  23.7531990  12.7021248  34.5509237  24.3190023  13.3614458  34.4667779
  23.1059894  13.0470946  35.0225639  23.7410747  12.8503190  34.6081993
  15.1680004   4.6918852  49.7402844  14.3579779   4.9976632  49.6292686
  15.6454690   5.4124435  49.8555428  15.1183482   4.8433454  49.7409915
  14.0271563  13.9064573  39.9885747  13.5052317  14.0464865  40.6737612
  14.4145584  13.1475238  40.1787864  14.0075264  13.8150097  40.1186823
  20.2238568  15.6460033  33.9746316  19.9825244  14.9127893  33.5673381
  20.4039901  16.1946890  33.3212649  20.2146192  15.6182424  33.8176539
  15.4537889  10.9368592  35.3867238  15.2580672  11.5443327  34.7927541
  15.6772234  10.2436536  34.9058912  15.4572530  10.9246118  35.2283319
  13.8516419   7.8223330  35.5048106  14.5739071   7.9864488  35.0451912
  13.3724412   8.5432995  35.3987446  13.8880150   7.9521560  35.4213720
  21.8109927   4.1587129  40.8844791  20.9721027   4.1848408  40.6483055
  21.8814294   4.8057865  41.4650138  21.6978320   4.2583255  40.9353908
  11.5024036  10.2281403  44.6102246  12.0145133  10.5065656  43.9611006
  11.2160378  10.9670697  44.9765059  11.5358899  10.3783756  44.5692124
  20.2579205   1.0572506  35.6172407  20.9605558   0.8580254  35.1392365
  19.9923394   0.2848448  35.9241251  20.3225837   0.9135472  35.5917849
  25.6867450   9.3655116  38.1706033  25.6001425   9.5210542  39.0240812
  25.2317930  10.0093191  37.7965438  25.6070707   9.4830871  38.2413140
  15.0207761   2.3207791  44.6703288  14.8290958   2.3362926  45.5202711
  15.8706357   2.5171466  44.6469943  15.1183483   2.3522142  44.7926583
  19.5593266   6.6865863  36.7931593  19.3127981   6.6061614  37.6268381
  19.8878389   5.9019331  36.5994120  19.5714510   6.5592128  36.8879116
  23.4541315  13.3949222  40.5818374  23.3155675  14.0930268  41.0867116
  22.6741313  13.2397879  40.2254556  23.3184542  13.4749389  40.6044648
  21.7919400   9.6945598  46.8340755  21.7867439   8.8225414  46.8383182
  22.4980394   9.8933767  46.3610211  21.8964404   9.5949472  46.7647791
  15.5190294   9.4222582  46.2054576  15.6633669  10.0023790  45.5697686
  15.8665942   9.7998878  46.9104430  15.5917755   9.5643286  46.2153571
  17.6910211   8.6212750  43.9879707  16.9433525   8.8143764  43.5827985
  17.8451736   7.7957969  43.7503829  17.6032639   8.5277861  43.8925113
  14.5918049  17.6125353  43.0715602  14.7407612  17.0528269  42.4189007
  15.3718051  17.6917355  43.4548121  14.7292142  17.5410919  43.0312552
  17.1171349  17.7839996  44.3500093  17.0415020  17.1148807  44.9050882
  17.0461208  18.4857784  44.8640760  17.0951956  17.7884904  44.5076941
  17.7741596  16.3040995  35.1823699  18.5391487  16.0350639  34.8606363
  17.6719686  15.8191005  35.8993762  17.8723092  16.1930560  35.2403527
  15.8094366   4.5065405  41.7216935  15.0190441   4.3256865  42.0434271
  16.2054989   3.7292357  41.7047229  15.7511242   4.3652865  41.7669483
  20.2960257  13.3353179  27.1623649  21.0633242  13.3953304  26.7529500
  19.8491566  12.7633620  26.6779967  20.3433684  13.2589755  27.0301359
  21.1938052  12.1407835  39.4476381  20.5183054  11.9093067  39.9489768
  21.2030428  11.5329018  38.8218486  21.0956557  12.0166760  39.4292533
  18.3232196   6.9825664  46.2040434  18.2591337   7.8435620  46.0760571
  18.4629384   6.6657657  45.4035985  18.3347666   7.0625830  46.0668647
  23.1954787  14.9972967  31.6786559  23.2774624  15.8039953  31.3548010
  23.6804529  15.0168926  32.4027332  23.2791945  15.1193629  31.7373457
  17.0051290   9.6757803  40.3456637  16.5813539   9.8762302  39.6095655
  16.8296145   8.8286651  40.4580937  16.9162171   9.5806584  40.2530327
  16.5062984  21.1908316  42.8078094  16.9958914  20.4919105  42.6253759
  15.9347216  20.8932186  43.3954151  16.4947514  21.0434540  42.8679135
  12.2933735  10.1709854  35.7784609  12.4498354  10.1056657  36.6340601
  12.6334328  10.9458407  35.5663289  12.3666970  10.2759053  35.8739203
  18.8312880   9.5467738  34.6477973  19.3728425   9.0438119  35.1116593
  19.1459439   9.4932933  33.8367458  18.9577277   9.4647159  34.5961785
  22.7029987  13.7570385  51.7604885  23.5164852  13.4855534  51.9210017
  22.5424953  13.4577925  50.9565081  22.7999936  13.6725311  51.6650291
  16.9999329  14.9385090  31.9318001  17.0692150  14.0799628  32.0711001
  17.7787785  15.1556970  31.6037025  17.1252180  14.8437954  31.9035158
  19.9802149   4.4404043  44.7000273  20.1944119   3.8014957  44.1463627
  19.3636048   4.8849866  44.2708135  19.9207478   4.4114186  44.5550704
  21.3906817  17.3622791  36.1454494  20.9986609  17.0589506  35.4277360
  21.5459889  18.1991881  35.9559448  21.3560407  17.4406628  36.0110991
   8.8667997   7.3544805  36.0945376   9.2466961   7.7729350  35.4305644
   8.2923361   7.9358261  36.4014220   8.8379321   7.5022664  36.0422117
  22.1441237   6.0493108  45.6383580  21.3317919   5.7418998  45.7196753
  22.6031172   5.5692108  46.2026292  22.0921622   5.9329600  45.7338174
  21.5546492  13.9272780  36.0860524  21.1961147  14.0987423  36.8624557
  21.0685203  14.3885985  35.5288523  21.4305189  14.0211751  36.1185794
  16.3434857   9.6071945  28.6260759  16.6327382  10.3836828  28.9004333
  16.4306656   9.0960677  29.3275258  16.3989113   9.6463863  28.7703257
  19.2394745   7.4553179  50.4212282  19.7094376   8.0795296  50.8080156
  19.2856625   6.7870155  50.9805497  19.3162620   7.4487859  50.5612354
  22.7151231  14.8176676  47.0327725  23.3530952  14.3236871  46.6990181
  22.0725323  14.7454076  46.4479952  22.7145458  14.7335684  46.8970080
  24.4408231   6.6665822  41.5993641  24.0135839   6.5792170  40.8441740
  23.8034284   6.7743597  42.1848485  24.2837838   6.6698481  41.5739082
  17.9329308   1.7741347  47.5390610  18.7602738   1.5026496  47.5949225
  17.9537154   2.5702189  47.8954428  18.0582158   1.8521101  47.6005793
  22.7705488  15.5096484  43.6733082  23.5597866  15.1585549  43.7935164
  22.9449086  16.3232872  43.4109716  22.9125769  15.5782341  43.6520950
  12.5098798   8.9205210  40.7260871  11.6686805   8.8209084  40.9339765
  12.7188806   9.6900690  41.0775192  12.4163491   9.0197253  40.8088186
   9.9874365   6.5424747  38.5545622   9.5931063   6.6167758  37.7795731
   9.4314482   6.9282693  39.1053983   9.8477177   6.6106521  38.5213281
  21.6239312  -0.4793959  38.2349500  21.8288905  -0.5471651  39.0806498
  21.2965736   0.3264862  38.1670678  21.6054560  -0.3708019  38.3509156
  16.3215463   6.8486609  39.9758468  16.0178601   6.2942597  40.5768876
  15.6194884   7.0278819  39.4886503  16.1731673   6.7931391  39.9928174
  15.3781560   4.1587129  34.5403170  15.6541294   3.4406041  34.1280738
  15.9780229   4.7572049  34.3324276  15.5074825   4.1407499  34.4483931
  14.3833814  14.0636330  44.6830566  14.2754169  14.0738392  45.5492624
  14.5929596  14.8891110  44.4935520  14.3983925  14.1877404  44.7834658
  24.8773000   0.0737805  37.7152266  24.2647313   0.5608207  38.1005998
  24.9737175  -0.6018704  38.2589917  24.8010897   0.0456114  37.8531124
  18.8792081   1.8300646  32.8149765  19.3335827   2.0011206  33.5397610
  19.3532126   1.2168757  32.4147541  19.0160401   1.7651531  32.8623527
  12.4007606  11.3148972  42.1452504  11.8095539  11.9558470  42.1155519
  13.1628630  11.7386589  42.1183803  12.4255867  11.4724810  42.1367651
  14.4451579   3.1417665  47.3792549  14.0537144   2.4951012  47.8148326
  14.6137441   3.7329100  47.9986804  14.4122489   3.1331932  47.5355254
  22.1597122  16.7658284  39.5784528  21.9616811  17.2549098  38.8840740
  21.5384833  16.9699525  40.1568662  22.0384687  16.8674822  39.5607752
  16.2205101   8.5343180  33.9194773  16.9647146   8.9217457  34.1577722
  16.3665797   7.6900606  34.0835260  16.3515686   8.4673653  33.9788742
  19.2082976   4.1068654  39.8188692  18.7342931   3.5810416  40.3294003
  19.5801112   3.5598127  39.2503553  19.1932865   3.9484650  39.8103839
  25.4719707   9.1671029  41.2295472  25.2317930   8.3277445  41.2337899
  25.9511714   9.2471196  41.9536246  25.5071891   9.0552429  41.3370275
  21.1366476   5.0005208  32.8814446  20.6089495   5.0833952  32.1920154
  21.5962184   5.7423080  32.8779090  21.1268327   5.1225871  32.7789141
  27.4724894   5.9472487  39.1824731  27.2334664   5.9068321  38.3445516
  27.6358795   6.7943639  39.3090453  27.4615198   6.0664572  39.0778213
  24.0770924  10.3322436  45.1129777  24.8005123   9.8794962  44.9340797
  23.8120887  10.6127102  44.3302104  24.1452198  10.3073404  44.9708492
  12.9457793   4.9282609  41.8482656  12.3210863   4.9401001  41.2408609
  12.6103387   5.4042785  42.4973896  12.8043284   5.0001126  41.8539224
   9.6583468  12.9883070  43.2886420   9.1283393  12.2975508  43.3381395
   9.9308561  12.9793255  42.4599129   9.6208190  12.8850201  43.1733836
  20.6903559  13.5708772  32.0124103  21.4137758  14.0366885  31.8688676
  20.2504150  13.6382381  31.2621700  20.7319251  13.6492609  31.8808884
  19.8589714  10.4306314  43.2624792  19.2446707   9.8864364  43.5573427
  20.3756999   9.9170551  42.7830608  19.8445376  10.2742723  43.2349020
  19.0986011  11.5010584  40.9969090  18.6713619  10.8760303  40.5634526
  19.0910955  11.2185506  41.8228098  19.0345152  11.3663365  41.0548918
  12.2148538   6.5375757  44.0657524  12.3742025   5.7819081  44.4709246
  12.0341432   7.0866697  44.7198262  12.2113897   6.5069571  44.2220230
  20.1568841  -1.2963007  44.6208314  19.6609402  -1.0999333  43.9299880
  20.9137903  -0.8970339  44.4497115  20.1955666  -1.2085273  44.4928451
  17.4271721   2.3779339  41.2111624  17.4514208   1.8439451  40.5224404
  17.6783194   1.8696648  41.8737215  17.4681639   2.2240243  41.2076269
   4.9379310   9.6610834  40.6454768   4.8322759   9.6157678  39.7806852
   4.1879530  10.0064614  40.9269053   4.8114913   9.7051742  40.5592098
  15.8902656  10.6710897  48.6937663  15.0398286  10.8082611  48.8295308
  16.0530783   9.9374675  49.1385365  15.7886519  10.5824998  48.7793262
  15.1287406   7.6210667  42.8891268  14.2979336   7.7884485  42.6826516
  15.0738923   7.2446618  43.6740153  14.9976821   7.5900398  42.9739796
  13.5023450   5.8966258  33.4181385  13.6426411   6.3938723  34.1210027
  14.0005983   5.1952553  33.5595599  13.5964531   5.8668237  33.5432964
  13.5323672   6.7633369  30.7473962  14.1668752   7.3593794  30.6823424
  13.6149283   6.4636827  31.5619832  13.6380223   6.8074277  30.8577049
  26.5106238   9.2948847  43.6160326  27.1024078   9.9346097  43.6478524
  26.9465233   8.5971883  43.9052393  26.6624669   9.2867197  43.6641159
  15.1102655   2.6947345  30.7219404  15.4318496   2.2150427  30.0678666
  15.3729599   3.5046991  30.5310216  15.1968681   2.7437243  30.5974896
  18.3399628  13.7166219  44.2418220  17.8324719  14.2702066  44.6858851
  18.0426274  13.7774509  43.4236995  18.2204513  13.8072530  44.1866677
  20.5061810   2.0819539  43.0842883  20.9316882   1.6292065  42.4726410
  19.8918803   1.5279609  43.3607671  20.4790456   1.9333515  43.0347909
  10.0376660   8.9601210  34.0163508  10.5468890   9.5565718  34.3974814
  10.5110933   8.6927184  33.3339928  10.1820036   9.0087026  33.9718031
  20.9507408  17.6329477  32.1722164  20.2336718  17.4590339  31.7069401
  21.6014146  17.3982049  31.6397650  20.9409259  17.5725269  32.0251382
  23.5355380   6.5094065  35.9163469  22.8646569   7.0523768  35.7876534
  24.2295130   6.9788921  35.6745164  23.5384247   6.6592337  35.8618997
  17.5842113  18.6490777  41.1475227  17.3607768  17.8909607  41.5159253
  17.0951957  18.6788799  40.4255667  17.4785562  18.5413002  41.0951968
  23.6983507   2.9649949  38.8253842  24.0511117   2.5379672  39.4999641
  22.8398309   2.8800792  38.9554918  23.6232952   2.8894690  38.9448853
  12.3967192   5.5957469  36.8836689  11.6779181   6.0121601  37.1509552
  12.7679554   6.1611707  36.3328327  12.3459124   5.7406750  36.8419496
  21.6966773   6.2285318  42.7738684  21.6764700   6.0468613  43.6273463
  21.7445974   7.0997336  42.7498268  21.7001414   6.3301856  42.8961979
  19.6413103  12.8172510  48.6987161  19.6008958  12.1722186  48.1132317
  20.4536421  12.7609127  49.0112573  19.7556256  12.7131476  48.6584110
  16.2320570  18.8691235  38.6012312  15.8180969  18.2065366  38.2116153
  16.9167944  19.0169094  38.0808006  16.2718942  18.7931894  38.4668809
  19.5985864  18.0281321  39.3535928  19.2002148  18.1383591  38.5856749
  18.9837084  18.2363387  39.9362488  19.4484754  18.0754889  39.3267228
  18.1713766   4.6355469  32.2210068  17.5778606   4.9572465  31.6694635
  18.2089044   3.7896564  32.0131174  18.0888156   4.5579797  32.1092839
  25.1307567  -1.9131639  39.7538155  24.6238432  -2.6202500  39.6859332
  25.9275001  -2.2438450  39.8839231  25.1734806  -2.0658488  39.7637150
  21.0471583   4.5934973  35.6511818  20.8185276   4.6167674  34.8090177
  21.3069659   3.7692440  35.7706829  21.0517771   4.4751053  35.5437016
  15.3290811   6.4469446  45.2536919  14.8169714   5.8390629  45.6121950
  15.1570308   7.1626039  45.7210894  15.2280448   6.4632745  45.3753142
  14.1016345   3.1311519  36.9466014  14.5773712   3.4928599  36.3116195
  13.6004945   3.7867987  37.2266157  14.0981704   3.2805708  36.8942755
  19.2059882   4.3693691  47.6939174  19.7631312   4.1407500  47.0617639
  18.8820947   5.1299356  47.4174386  19.2406292   4.4477527  47.5595671
  16.9242999   7.4561344  48.6591181  17.6754326   7.7713021  48.9730735
  17.1165575   7.2540515  47.8325103  17.0634413   7.4728726  48.5834577
  16.1442999   5.2752719  30.3139398  16.5241963   5.2932348  29.5290513
  15.4035595   5.7206708  30.1930245  16.0911836   5.3434494  30.1802966
  23.7728289   3.5834910  35.9014977  23.7722516   3.4283567  36.7599253
  23.5684469   4.4297897  35.8456362  23.7428067   3.6855531  36.0202916
  21.4969141   8.2632412  39.5551183  21.9922806   7.5455407  39.5155204
  20.6868917   7.9603210  39.4405670  21.4513034   8.1130058  39.5324909
  16.9427753  12.1130225  31.7048188  16.1339075  11.7896899  31.6581497
  17.4502662  11.4063447  31.6376437  16.8977419  11.9611542  31.6878482
   7.5718030   9.5402418  37.4295552   6.7063549   9.5288109  37.3178323
   7.6716846   9.3532641  38.2766692   7.4592197   9.5108480  37.5384497
  23.5620960  11.0136100  42.2428312  23.9876032  10.4910521  41.6898737
  23.1977880  11.6116937  41.7216935  23.5707563  11.0246327  42.0837322
  13.1975040  19.3100317  41.0025658  13.5121599  20.1236706  41.0103439
  13.6068453  18.9250536  41.6707817  13.3043138  19.3729020  41.1029749
  20.1499559  14.7270364  38.5729470  20.6210738  15.4410626  38.7419455
  20.4859738  14.1269114  39.1089339  20.2694675  14.7441828  38.6761846
  22.2376544  16.3371677  50.7521542  22.3473510  15.5480238  51.1078289
  22.5667441  16.2477613  49.9495880  22.3028950  16.2077530  50.6863933
  20.7873506  14.5188298  45.3357162  20.2394452  13.8946182  45.0677228
  21.2486535  14.7082570  44.6201242  20.7740715  14.4547348  45.1907593
  23.5967370   2.5873653  42.7208355  23.0130359   3.0882859  42.3085922
  23.9171664   2.0803209  42.0872678  23.5580546   2.5865488  42.5666862
  16.1362169   1.5014247  32.9967029  16.9577864   1.6712560  32.7548724
  15.6731820   1.6561508  32.2733327  16.1893332   1.5495980  32.8538674
  10.5388060  13.2573426  40.6504266  11.1432917  13.2169260  40.0218087
  10.3315373  14.1044578  40.6808322  10.5976957  13.3761428  40.5620383
  20.3531832  15.5239371  41.8666504  21.1730206  15.3802337  42.1282799
  20.0725910  16.1485570  42.4082941  20.4328575  15.5949723  41.9854443
   5.7739342  12.2408043  40.5203189   5.6763620  11.4304315  40.8293246
   6.5568212  12.2199836  40.1349457   5.8755479  12.1175133  40.5090052
  19.1836108  27.8381270  37.2414648  18.9486292  27.0048922  37.1346917
  19.3221748  28.1185936  36.4275849  19.1691770  27.7564773  37.1057003
  21.4826195  20.0067001  40.1398956  20.8631227  19.4159648  39.9708971
  21.3810059  20.5978436  39.5063279  21.3763870  20.0071083  40.0203945
  21.2095328  23.5519282  42.3842525  21.0854025  24.1381728  43.0192344
  21.8613613  23.0579478  42.6854800  21.2868977  23.5658087  42.5228454
  33.9597362  13.1044462  36.8002304  33.6450803  13.7947941  37.2322727
  33.4424304  13.0489244  36.0987805  33.8361832  13.1979351  36.7599253
  28.0401638  31.2425096  46.0654504  27.4772473  30.8297705  46.5894165
  28.8022662  31.1678001  46.4847647  28.0696087  31.1702496  46.2047504
  29.6486618  23.2477832  30.1916103  29.8882622  23.4555816  29.3791446
  29.9702459  22.4435340  30.3005048  29.7323776  23.1591933  30.0876656
  24.6476536  23.4698704  47.7971549  24.8197040  23.3604598  48.6456831
  25.1845894  24.1153109  47.5602741  24.7521540  23.5490705  47.8876646
  23.5501108  29.8430344  42.4790048  24.0899333  29.7001475  43.1493420
  22.8671054  30.2427095  42.8474074  23.5293262  29.8810015  42.6324469
  18.9538253  26.0630635  42.6324469  18.6876668  25.2469751  42.7915459
  18.9676817  26.1083790  41.7619985  18.9162975  25.9487539  42.5277951
  35.9319647  16.3908450  40.6666903  36.5745555  16.4606554  41.2528818
  36.1842668  15.7237673  40.1646445  36.0641779  16.3034798  40.6794182
  23.7036859  19.6009013  45.2791477  23.0108656  19.1305993  45.5252208
  24.3197187  19.3747318  45.8533184  23.6921389  19.4976145  45.4000629
  19.3631667  26.8489414  39.9136213  19.1807240  26.8236300  39.0608506
  20.0981336  27.3188352  39.9525122  19.4445731  26.9150776  39.7934132
  22.4277418  23.5674417  46.4218322  23.1517391  23.5527448  46.9083217
  22.5293555  24.2769772  45.9240290  22.5495627  23.6699120  46.4197109
  29.8022368  27.0473502  51.2867269  29.0095348  27.3617013  51.4719889
  29.9171295  27.2624970  50.4488054  29.7017778  27.1257338  51.1905604
  19.3302577  23.7282915  40.0635280  19.9076080  23.5919366  40.7027525
  18.6316639  23.2718699  40.3180864  19.3123598  23.6405181  40.1957570
  14.8061410  22.5794808  36.7783099  14.8921662  22.2026676  37.5596629
  15.4337208  22.2055253  36.3003057  14.9117961  22.4680290  36.8228576
  20.3937369  31.3486541  40.8314459  20.4341514  31.6201392  40.0034239
  20.9531893  31.8728449  41.2472247  20.4820715  31.4662296  40.7706347
  26.5096082  17.6106909  51.0017629  26.1949523  18.3806472  50.7387192
  26.1886014  17.0477165  50.4169856  26.4155001  17.6417178  50.8758979
  33.1860868  16.1475290  44.9475147  33.9314460  15.9585100  44.5338573
  32.7698172  16.6733528  44.3889004  33.2345842  16.1977435  44.8039720
  23.4773647  26.6146069  38.6903267  23.1886896  25.9883540  39.2248994
  24.3456995  26.5566356  38.7567947  23.5633899  26.5133613  38.7794221
  26.1412587  20.2104160  49.7402844  25.3312363  20.5161940  49.6292686
  26.6187274  20.9309743  49.8555428  26.0916066  20.3618761  49.7409915
  22.4756619  25.7466711  44.6102246  22.9877716  26.0250964  43.9611006
  22.1892962  26.4856005  44.9765059  22.5091482  25.8969064  44.5692124
  19.5623526  20.2536902  34.9065983  19.6639662  21.0563064  35.2346958
  20.3579412  20.0524238  34.6089063  19.6951431  20.3422801  34.9101338
  20.3787258  20.3684081  42.6487104  20.2372749  19.5168021  42.7731612
  20.6627821  20.4112741  41.8249310  20.3995104  20.2483831  42.5454728
  25.5650632  33.1310661  43.0715602  25.7140196  32.5713577  42.4189007
  26.3450634  33.2102663  43.4548121  25.7024726  33.0596227  43.0312552
  28.0903933  33.3025304  44.3500093  28.0147604  32.6334115  44.9050882
  28.0193792  34.0043092  44.8640760  28.0684540  33.3070212  44.5076941
  21.1477563  18.2814428  45.9664555  20.6119752  17.6694786  46.2825322
  21.2095328  18.8562564  46.6198221  21.0773196  18.2761356  46.1099981
  33.3771898  11.2138484  38.7468954  33.4955466  11.6714947  38.0136257
  33.2034073  10.4083745  38.4605171  33.3691069  11.1632256  38.5969888
  23.2666319  25.6895162  35.7784609  23.4230938  25.6241965  36.6340601
  23.6066912  26.4643715  35.5663289  23.3399554  25.7944361  35.8739203
  33.6762571  29.2755693  51.7604885  34.4897436  29.0040842  51.9210017
  33.5157537  28.9763233  50.9565081  33.7732519  29.1910619  51.6650291
  19.8400580  22.8730113  36.0945376  20.2199545  23.2914658  35.4305644
  19.2655945  23.4543569  36.4014220  19.8111905  23.0207972  36.0422117
  30.2127328  22.9738487  50.4212282  30.6826959  23.5980603  50.8080156
  30.2589208  22.3055463  50.9805497  30.2895204  22.9673167  50.5612354
  29.1047977  12.5055460  45.2664199  29.7341095  13.0415760  44.9885269
  29.2733840  12.4132819  46.1177764  29.2225772  12.5716822  45.3512727
  28.9061892  17.2926655  47.5390610  29.7335321  17.0211804  47.5949225
  28.9269738  18.0887496  47.8954428  29.0314742  17.3706409  47.6005793
  23.4831382  24.4390518  40.7260871  22.6419388  24.3394392  40.9339765
  23.6921390  25.2085998  41.0775192  23.3896074  24.5382561  40.8088186
  20.9606949  22.0610055  38.5545622  20.5663646  22.1353066  37.7795731
  20.4047066  22.4468001  39.1053983  20.8209761  22.1291829  38.5213281
  25.3566398  29.5821637  44.6830566  25.2486753  29.5923700  45.5492624
  25.5662179  30.4076418  44.4935520  25.3716509  29.7062712  44.7834658
  35.8505583  15.5923113  37.7152266  35.2379897  16.0793515  38.1005998
  35.9469758  14.9166604  38.2589917  35.7743481  15.5641422  37.8531124
  23.3740190  26.8334280  42.1452504  22.7828123  27.4743778  42.1155519
  24.1361213  27.2571897  42.1183803  23.3988450  26.9910118  42.1367651
  23.7700812  17.9936278  42.8120521  24.2302294  18.0675207  43.5495645
  23.8156919  18.7917532  42.4620343  23.8451368  18.1230425  42.8693278
  25.4184162  18.6602973  47.3792549  25.0269727  18.0136320  47.8148326
  25.5870025  19.2514408  47.9986804  25.3855072  18.6517240  47.5355254
  20.5588590  21.6225468  45.1872238  21.4214203  21.5221178  45.1009567
  20.2280373  21.0420178  44.6257810  20.6373787  21.5217095  45.0917643
  24.1032125  18.7893036  27.9055341  23.7544929  19.4412761  28.3686890
  23.6228571  18.7750149  27.1779212  23.9802369  18.8836089  27.8666432
  20.6316052  28.5068377  43.2886420  20.1015976  27.8160816  43.3381395
  20.9041145  28.4978563  42.4599129  20.5940774  28.4035509  43.1733836
  23.1881122  22.0561065  44.0657524  23.3474608  21.3004389  44.4709246
  23.0074015  22.6052005  44.7198262  23.1846481  22.0254879  44.2220230
  31.1301425  14.2222301  44.6208314  30.6341986  14.4185975  43.9299880
  31.8870487  14.6214969  44.4497115  31.1688249  14.3100035  44.4928451
  15.9111894  25.1796142  40.6454768  15.8055343  25.1342986  39.7806852
  15.1612114  25.5249922  40.9269053  15.7847497  25.2237050  40.5592098
  26.8635239  26.1896205  48.6937663  26.0130870  26.3267919  48.8295308
  27.0263367  25.4559983  49.1385365  26.7619103  26.1010306  48.7793262
  23.9103773  16.6304868  48.5247678  24.5356476  16.0867000  48.7977111
  23.4554253  16.1499785  47.9555469  23.9352034  16.4794349  48.4809272
  21.0109244  24.4786518  34.0163508  21.5201473  25.0751026  34.3974814
  21.4843516  24.2112492  33.3339928  21.1552620  24.5272333  33.9718031
  36.1040151  13.6053669  39.7538155  35.5971015  12.8982808  39.6859332
  36.9007584  13.2746858  39.8839231  36.1467390  13.4526820  39.7637150
  21.1489110  20.4092329  47.9039280  20.9791700  21.0693704  47.3587487
  20.7055060  20.6198891  48.6251769  21.0588443  20.5378311  47.9300910
  30.1792465  19.8878999  47.6939174  30.7363895  19.6592808  47.0617639
  29.8553530  20.6484664  47.4174386  30.2138875  19.9662835  47.5595671
  18.0491174  23.3139195  43.1627770  17.5017894  22.6439840  43.2808638
  18.8383552  22.9469043  43.2271237  18.0843358  23.1604181  43.1896471
  27.8975583  22.9746652  48.6591181  28.6486910  23.2898329  48.9730735
  28.0898159  22.7725823  47.8325103  28.0366997  22.9914034  48.5834577
  16.8078144  22.5260003  40.3173793  16.6299905  22.0736612  41.0428709
  16.5197166  23.3286164  40.5012271  16.7391097  22.5782560  40.4517296
  18.5450614  25.0587726  37.4295552  17.6796133  25.0473417  37.3178323
  18.6449429  24.8717949  38.2766692  18.4324781  25.0293788  37.5384497
  24.1707623  34.8285625  41.0025658  24.4854182  35.6422013  41.0103439
  24.5801037  34.4435844  41.6707817  24.2775721  34.8914327  41.1029749
  28.0401638  15.0183142  45.5287565  28.1729544  14.2214136  45.8568540
  28.4246791  15.5449545  46.1085840  28.1157967  14.9783059  45.6631067
  25.6990085  15.0142317  43.7765458  26.2434498  14.6733444  44.3669800
  25.7527021  15.8727779  43.9186743  25.7879204  15.0897577  43.8847332
  21.5120644  28.7758733  40.6504266  22.1165501  28.7354568  40.0218087
  21.3047956  29.6229886  40.6808322  21.5709541  28.8946736  40.5620383
  16.7471926  27.7593351  40.5203189  16.6496204  26.9489623  40.8293246
  17.5300796  27.7385144  40.1349457  16.8488062  27.6360441  40.5090052
  55.2804051  59.5737015  49.1922766  55.9870818  59.0789046  49.3209701
  55.4691986  60.0146096  48.4625424  55.4131957  59.5655365  49.1031812
  51.3480725  65.2152845  36.7196201  51.7320105  65.7839744  36.1800976
  51.2839867  64.4902356  36.2402017  51.3954153  65.1928309  36.5690063
  47.7736970  67.7709188  39.0177170  48.4174425  68.2122353  39.4073329
  48.0993226  66.9662615  38.9307429  47.9168799  67.7174383  39.0622648
  50.7204928  60.6106521  41.3136928  51.0028170  59.8157927  41.0923684
  51.4491088  61.0887108  41.3341989  50.8694491  60.5641118  41.2839944
  60.7023016  59.7165883  38.2872759  59.8720719  59.9276527  38.4506176
  60.6532268  58.8902938  38.0115043  60.5729751  59.6255490  38.2710125
  42.6918599  63.7537557  38.5170854  42.2086178  64.4788046  38.4930438
  43.5041918  64.0513687  38.6281012  42.7409347  63.9039910  38.5298133
  48.7632753  62.5469737  41.1220669  48.2459695  62.1877152  40.5181977
  49.4607145  62.0231912  41.1326735  48.7898335  62.4167425  41.0350927
  52.4196345  62.9964551  47.0836842  52.5079691  62.8090692  47.9315052
  52.8486058  62.3501981  46.6841689  52.4958448  62.8727559  47.1508593
  49.9866805  62.2795711  46.0654504  49.4237640  61.8668321  46.5894165
  50.7487829  62.2048617  46.4847647  50.0161254  62.2073112  46.2047504
  45.5462797  64.2693733  38.6691134  46.2483376  63.7545722  38.7263891
  45.4660280  64.5967884  39.4738009  45.6386557  64.2407959  38.7963926
  45.4966275  60.8800960  42.4790048  46.0364500  60.7372091  43.1493420
  44.8136221  61.2797711  42.8474074  45.4758429  60.9180631  42.6324469
  57.9587331  60.3865238  38.4237475  57.5222563  60.3901980  39.1796446
  57.6250247  61.0670737  37.9917052  57.8449951  60.4877693  38.4718308
  52.5316405  62.4273570  49.7480625  53.3156821  62.5404418  50.1136367
  52.3312999  61.6014708  49.9439311  52.6182430  62.3220290  49.8315011
  52.6886798  64.3383673  43.3947081  51.8902044  64.0983173  43.6520950
  53.1372810  64.3898065  44.1414129  52.6361409  64.3106064  43.5432005
  59.2086965  56.9613206  34.8938705  59.5395182  57.4940846  34.2878800
  59.7820053  57.0152094  35.5500656  59.3420644  57.0482775  34.9016487
  51.7487535  58.0844117  51.2867269  50.9560516  58.3987629  51.4719889
  51.8636462  58.2995586  50.4488054  51.6482945  58.1627954  51.1905604
  52.6771328  57.9864321  46.2252566  53.2510189  57.3491565  46.3801130
  52.5986131  57.9868404  45.3562223  52.7504563  57.8929433  46.1198977
  57.9991475  59.3573299  46.2337419  57.7630113  58.5261364  46.1149480
  58.6434704  59.3058906  46.8192263  58.0586146  59.2270987  46.3023313
  59.0227896  59.1417748  42.2965714  58.7173713  59.8745804  42.6579029
  58.3034112  58.7355677  42.0158500  58.8715238  59.1899481  42.3078851
  48.5715951  63.5875986  33.3587415  48.8614250  63.1964967  32.6346642
  49.3019432  63.7692691  33.7992690  48.7222835  63.5569800  33.3170222
  46.5121867  65.5643368  36.4247565  46.2922162  65.2740723  37.2174232
  46.2916389  64.9058323  35.8965477  46.4469461  65.4243077  36.4636474
  48.6789823  66.9372758  35.2078257  49.3313881  66.4049200  35.4369283
  47.9815431  66.5841410  35.5946131  48.6720541  66.8062281  35.2990425
  56.6729741  59.2577172  34.5509237  57.2387774  59.9170382  34.4667779
  56.0257644  59.6026870  35.0225639  56.6608497  59.4059113  34.6081993
  53.1436319  62.2015956  33.9746316  52.9022995  61.4683817  33.5673381
  53.3237652  62.7502813  33.3212649  53.1343943  62.1738348  33.8176539
  56.3739066  59.9505146  40.5818374  56.2353425  60.6486192  41.0867116
  55.5939064  59.7953803  40.2254556  56.2382293  60.0305313  40.6044648
  54.7117151  56.2501521  46.8340755  54.7065190  55.3781338  46.8383182
  55.4178145  56.4489691  46.3610211  54.8162155  56.1505396  46.7647791
  47.5115799  64.1681277  43.0715602  47.6605363  63.6084193  42.4189007
  48.2915801  64.2473279  43.4548121  47.6489893  64.0966843  43.0312552
  57.8692439  59.3083400  31.3434873  57.4899248  58.5220538  31.3364162
  57.2058684  59.8570257  31.2006517  57.7150914  59.2728224  31.3215670
  50.0369100  64.3395920  44.3500093  49.9612771  63.6704731  44.9050882
  49.9658959  65.0413708  44.8640760  50.0149707  64.3440827  44.5076941
  50.6939347  62.8596919  35.1823699  51.4589238  62.5906563  34.8606363
  50.5917437  62.3746929  35.8993762  50.7920842  62.7486484  35.2403527
  56.1152538  61.5528891  31.6786559  56.1972375  62.3595877  31.3548010
  56.6002280  61.5724850  32.4027332  56.1989695  61.6749553  31.7373457
  49.4260734  67.7464240  42.8078094  49.9156665  67.0475029  42.6253759
  48.8544967  67.4488110  43.3954151  49.4145264  67.5990463  42.8679135
  55.6227738  60.3126309  51.7604885  56.4362603  60.0411458  51.9210017
  55.4622704  60.0133849  50.9565081  55.7197686  60.2281235  51.6650291
  54.3104568  63.9178715  36.1454494  53.9184359  63.6145430  35.4277360
  54.4657640  64.7547805  35.9559448  54.2758158  63.9962551  36.0110991
  54.4744243  60.4828703  36.0860524  54.1158897  60.6543346  36.8624557
  53.9882953  60.9441909  35.5288523  54.3502939  60.5767675  36.1185794
  55.6348982  61.3732599  47.0327725  56.2728702  60.8792795  46.6990181
  54.9923073  61.3010000  46.4479952  55.6343208  61.2891608  46.8970080
  55.6903238  62.0652408  43.6733082  56.4795617  61.7141472  43.7935164
  55.8646836  62.8788796  43.4109716  55.8323520  62.1338265  43.6520950
  47.3031565  60.6192253  44.6830566  47.1951920  60.6294315  45.5492624
  47.5127346  61.4447034  44.4935520  47.3181676  60.7433328  44.7834658
  55.0794873  63.3214207  39.5784528  54.8814562  63.8105022  38.8840740
  54.4582584  63.5255449  40.1568662  54.9582437  63.4230746  39.5607752
  56.9968675  56.8878360  45.1129777  57.7202874  56.4350886  44.9340797
  56.7318637  57.1683025  44.3302104  57.0649948  56.8629328  44.9708492
  53.6101309  60.1264696  32.0124103  54.3335508  60.5922809  31.8688676
  53.1701900  60.1938305  31.2621700  53.6517002  60.2048532  31.8808884
  37.8577061  56.2166757  40.6454768  37.7520510  56.1713602  39.7806852
  37.1077281  56.5620538  40.9269053  37.7312664  56.2607666  40.5592098
  51.2597379  60.2722143  44.2418220  50.7522470  60.8257990  44.6858851
  50.9624025  60.3330433  43.4236995  51.1402264  60.3628454  44.1866677
  53.8705159  64.1885401  32.1722164  53.1534469  64.0146263  31.7069401
  54.5211897  63.9537973  31.6397650  53.8607010  64.1281193  32.0251382
  50.5039864  65.2046701  41.1475227  50.2805518  64.4465530  41.5159253
  50.0149707  65.2344722  40.4255667  50.3983313  65.0968926  41.0951968
  52.5610853  59.3728433  48.6987161  52.5206708  58.7278110  48.1132317
  53.3734172  59.3165051  49.0112573  52.6754007  59.2687400  48.6584110
  49.1518321  65.4247159  38.6012312  48.7378720  64.7621289  38.2116153
  49.8365695  65.5725018  38.0808006  49.1916693  65.3487817  38.4668809
  52.5183615  64.5837244  39.3535928  52.1199898  64.6939515  38.5856749
  51.9034835  64.7919311  39.9362488  52.3682504  64.6310812  39.3267228
  60.2525458  59.1589211  32.7379019  60.6359064  59.9080567  32.9677116
  59.4569571  59.4055031  32.4791008  60.1919240  59.3058905  32.7336593
  46.1172791  65.8656241  41.0025658  46.4319350  66.6792629  41.0103439
  46.5266204  65.4806460  41.6707817  46.2240889  65.9284943  41.1029749
  53.0697310  61.2826288  38.5729470  53.5408488  61.9966550  38.7419455
  53.4057489  60.6825038  39.1089339  53.1892425  61.2997752  38.6761846
  55.1574295  62.8927601  50.7521542  55.2671260  62.1036162  51.1078289
  55.4865191  62.8033537  49.9495880  55.2226701  62.7633454  50.6863933
  53.7071257  61.0744222  45.3357162  53.1592203  60.4502105  45.0677228
  54.1684285  61.2638494  44.6201242  53.6938466  61.0103272  45.1907593
  53.2729583  62.0795295  41.8666504  54.0927957  61.9358261  42.1282799
  52.9923661  62.7041493  42.4082941  53.3526326  62.1505647  41.9854443
  69.7443233  69.7360146  34.8309380  69.7137238  70.5904783  35.0027649
  70.3424582  69.4355439  35.3895524  69.8280391  69.8176643  34.9384182
  62.9442918  68.8235797  39.5862310  62.0880814  68.9844295  39.6371427
  62.9910572  67.9527861  39.6067371  62.8242030  68.7186599  39.5968376
  57.3284058  78.3598515  35.3499542  56.5766957  77.9814053  35.1215587
  57.7770069  78.3916949  34.6018352  57.2833725  78.3084122  35.2057044
  66.2536635  75.0922323  49.1922766  66.9603402  74.5974354  49.3209701
  66.4424570  75.5331404  48.4625424  66.3864540  75.0840673  49.1031812
  65.7894739  70.8827841  42.2293962  66.3350699  71.5612928  42.2887932
  65.7311615  70.7415302  41.3695544  65.8610653  70.9619843  42.1106023
  58.9068814  78.3716907  37.6162314  59.0079177  77.5617261  37.9259442
  58.3110559  78.2773854  36.9861993  58.8341353  78.2381935  37.5688553
  67.5659808  72.3112448  33.1027690  67.4499334  73.0620134  33.5319828
  68.3615694  72.0536402  33.3523777  67.6664397  72.3847295  33.2031781
  52.1033858  74.3937194  37.2414648  51.8684043  73.5604846  37.1346917
  52.2419499  74.6741860  36.4275849  52.0889521  74.3120697  37.1057003
  54.4023946  66.5622924  40.1398956  53.7828977  65.9715572  39.9708971
  54.3007809  67.1534360  39.5063279  54.2961621  66.5627007  40.0203945
  59.4490133  76.3006471  34.3897032  59.7705974  76.8411679  33.7858340
  60.0962230  75.7303243  34.5219322  59.5916188  76.2965646  34.3204068
  61.4991841  68.3022466  34.4731419  62.1972006  68.4810594  34.9652882
  61.8144174  67.7792806  33.8501808  61.6487179  68.2516238  34.4533429
  54.1293079  70.1075206  42.3842525  54.0051776  70.6937652  43.0192344
  54.7811363  69.6135402  42.6854800  54.2066728  70.1214011  42.5228454
  61.6879777  74.6892911  34.4611210  62.1273412  74.0810012  34.9065983
  61.5384440  74.3100285  33.6896675  61.7301242  74.5431382  34.4130378
  59.1551420  73.2836923  41.6630036  59.8000422  72.7909366  41.3440984
  59.3953197  73.4261710  42.4896114  59.2862005  73.2314365  41.7379569
  61.6937511  76.1291829  41.3136928  61.9760754  75.3343235  41.0923684
  62.4223671  76.6072416  41.3341989  61.8427075  76.0826426  41.2839944
  59.6718705  63.6714863  38.5552694  59.3422035  64.1226006  37.8856392
  58.9963707  63.5931026  39.1025700  59.5229141  63.7265998  38.5375917
  65.2889113  73.0420093  31.4141980  65.2040408  73.8981059  31.5591548
  65.7773497  72.7664417  32.0824139  65.3478011  73.1277414  31.5344061
  66.8795113  59.6600386  36.8002304  66.5648554  60.3503864  37.2322727
  66.3622054  59.6045168  36.0987805  66.7559583  59.7535274  36.7599253
  66.2207546  69.6604887  32.9139715  65.6919018  69.8764520  33.5737021
  66.7432566  70.3541025  32.8340684  66.2195999  69.7948024  32.9995314
  58.1107154  73.5568103  31.7147183  57.5264370  74.0618135  32.1213047
  57.7077249  73.3310490  30.9743775  57.9646458  73.5976352  31.6652208
  53.6651183  79.2722865  38.5170854  53.1818761  79.9973354  38.4930438
  54.4774501  79.5698995  38.6281012  53.7141931  79.4225218  38.5298133
  59.7365337  78.0655045  41.1220669  59.2192279  77.7062460  40.5181977
  60.4339728  77.5417220  41.1326735  59.7630918  77.9352733  41.0350927
  60.9599389  77.7981019  46.0654504  60.3970224  77.3853629  46.5894165
  61.7220412  77.7233925  46.4847647  60.9893837  77.7258420  46.2047504
  62.5684369  69.8033756  30.1916103  62.8080372  70.0111739  29.3791446
  62.8900210  68.9991264  30.3005048  62.6521527  69.7147857  30.0876656
  56.5195380  79.7879041  38.6691134  57.2215959  79.2731030  38.7263891
  56.4392863  80.1153192  39.4738009  56.6119141  79.7593267  38.7963926
  71.1709558  67.8821592  42.0823181  70.3337979  67.9523779  42.3170775
  71.1397789  67.8846087  41.2097483  71.0427840  67.8931819  41.9882729
  57.5674287  70.0254627  47.7971549  57.7394790  69.9160522  48.6456831
  58.1043644  70.6709033  47.5602741  57.6719291  70.1046629  47.8876646
  56.2331724  64.1397470  30.7353754  56.0507297  64.3569351  29.9094747
  57.0957337  64.2536483  30.7912369  56.3336313  64.1887368  30.6208241
  55.8446156  75.9785393  38.1776742  56.6835055  76.2108325  38.2250504
  55.8757925  75.1089704  38.1083778  55.9727873  75.8842339  38.1741387
  56.4698859  76.3986268  42.4790048  57.0097084  76.2557399  43.1493420
  55.7868805  76.7983018  42.8474074  56.4491013  76.4365939  42.6324469
  61.9131443  61.1423881  33.7702778  62.6417603  60.9639836  33.3240934
  62.0026336  61.9841961  33.9809956  62.0338105  61.2407759  33.7356296
  65.8939744  72.0777268  37.6735072  66.6497259  72.5108783  37.7123981
  66.0002068  71.4282038  38.2469708  66.0209914  72.0454752  37.7633098
  51.8736004  72.6186559  42.6324469  51.6074419  71.8025675  42.7915459
  51.8874568  72.6639714  41.7619985  51.8360726  72.5043463  42.5277951
  68.8517398  62.9464373  40.6666903  69.4943306  63.0162478  41.2528818
  69.1040418  62.2793596  40.1646445  68.9839530  62.8590722  40.6794182
  55.7793751  67.4171643  29.2476227  55.0651928  67.1309822  29.6598660
  56.2637719  67.7568269  29.8882615  55.7453114  67.4253293  29.4031862
  56.6234610  66.1564937  45.2791477  55.9306407  65.6861916  45.5252208
  57.2394937  65.9303241  45.8533184  56.6119140  66.0532069  45.4000629
  62.9541069  75.9201597  29.6238035  63.3692217  75.5886621  28.9322531
  62.1232998  75.6870499  29.4958172  62.8929077  75.8372853  29.5028883
  52.2829417  73.4045338  39.9136213  52.1004991  73.3792224  39.0608506
  53.0179086  73.8744276  39.9525122  52.3643481  73.4706700  39.7934132
  68.3529092  73.6396848  37.0569101  68.5884681  73.7842047  36.2295952
  68.5018655  74.4039256  37.4500615  68.4094895  73.7735902  36.9932705
  55.3475169  70.1230341  46.4218322  56.0715141  70.1083371  46.9083217
  55.4491306  70.8325696  45.9240290  55.4693378  70.2255044  46.4197109
  70.1819548  72.4798514  34.8938705  70.5127765  73.0126154  34.2878800
  70.7552636  72.5337402  35.5500656  70.3153227  72.5668083  34.9016487
  62.7220118  73.6029425  51.2867269  61.9293099  73.9172937  51.4719889
  62.8369046  73.8180894  50.4488054  62.6215529  73.6813262  51.1905604
  65.3951437  70.3263417  35.5762285  65.4898292  71.0652711  36.0301910
  64.7710281  69.8980892  36.0096849  65.3160468  70.3724737  35.7070432
  63.6503911  73.5049629  46.2252566  64.2242773  72.8676873  46.3801130
  63.5718715  73.5053712  45.3562223  63.7237146  73.4114741  46.1198977
  52.2500328  70.2838839  40.0635280  52.8273830  70.1475289  40.7027525
  51.5514389  69.8274623  40.3180864  52.2321349  70.1961105  40.1957570
  65.6474459  72.1712156  28.8099237  65.5654621  72.2414343  29.6754224
  66.2854179  72.7341900  28.6182978  65.7294296  72.2651127  28.9089186
  59.0067630  71.9372894  38.2773763  58.7486874  71.1044629  38.2505063
  59.0616113  72.1630507  37.4366264  58.9767408  71.8470666  38.1493900
  64.0868680  64.0401345  38.3777856  63.3825007  63.5510530  38.5361775
  64.1353654  64.0523819  37.5066300  63.9898732  63.9690993  38.2717196
  57.9802342  69.4910657  38.7638658  57.4051933  69.6502825  39.4002619
  57.6038018  68.8546066  38.3007109  57.8405154  69.4208470  38.7893216
  61.6475631  67.9634006  43.6231036  61.2590063  67.5388224  42.9683228
  60.9830329  68.2116156  44.1308063  61.4922558  67.9372727  43.6018904
  71.2898900  67.7209011  36.3978866  71.0335465  66.9088952  36.2076749
  72.1328214  67.7286578  36.1709054  71.3764925  67.6021008  36.3363684
  47.7259161  69.1350731  36.7783099  47.8119413  68.7582600  37.5596629
  48.3534958  68.7611177  36.3003057  47.8315712  69.0236214  36.8228576
  65.4701992  61.6608635  41.1355021  65.8512504  60.9786806  41.5222895
  64.6665276  61.3718237  40.9530685  65.4078454  61.5175683  41.1659077
  62.7514569  72.1932611  31.8207843  63.5655208  72.4847503  31.7090615
  62.6873710  71.5392473  31.2466136  62.8617308  72.1397805  31.7196681
  58.6222477  75.6654128  36.9480155  59.2596424  75.4265876  37.4931949
  59.0477549  75.8691287  36.2133316  58.7798643  75.6605138  36.9197313
  53.3135120  77.9042465  40.8314459  53.3539265  78.1757316  40.0034239
  53.8729644  78.4284373  41.2472247  53.4018465  78.0218220  40.7706347
  59.2625292  70.8856418  31.2855045  59.6470445  70.6664125  32.0371590
  59.0136913  71.7119363  31.4156121  59.2827365  70.9754564  31.4156121
  59.4293833  64.1662833  51.0017629  59.1147274  64.9362396  50.7387192
  59.1083765  63.6033089  50.4169856  59.3352752  64.1973102  50.8758979
  61.0043949  76.1426551  38.6273942  61.0782957  75.9801723  39.4815792
  61.8213455  76.3316740  38.3834423  61.1360308  76.1463293  38.7171967
  54.7649706  76.4884413  35.6568385  53.9387823  76.7346151  35.5302664
  54.8261697  76.4096494  36.5230443  54.6523873  76.5129362  35.7657330
  56.9825730  62.5553355  36.6163825  56.1148155  62.6275954  36.6821435
  57.2700934  63.3575433  36.8051800  56.8965478  62.6847502  36.6538592
  66.1058618  62.7031214  44.9475147  66.8512210  62.5141024  44.5338573
  65.6895923  63.2289452  44.3889004  66.1543593  62.7533359  44.8039720
  59.5448535  79.1061294  33.3587415  59.8346833  78.7150275  32.6346642
  60.2752016  79.2877999  33.7992690  59.6955419  79.0755107  33.3170222
  73.4820889  70.0740442  39.8980652  74.0328811  69.4408511  40.1377744
  73.4665005  70.6055835  40.5896156  73.5606086  70.0589391  40.0359510
  60.1343280  73.9079040  44.4440546  59.6354974  74.6194807  44.5225434
  60.9443504  74.2279706  44.4058708  60.1799387  74.0605888  44.4497114
  57.4854450  81.0828676  36.4247565  57.2654746  80.7926031  37.2174232
  57.2648972  80.4243631  35.8965477  57.4202045  80.9428385  36.4636474
  56.3971398  73.1701993  38.6903267  56.1084646  72.5439464  39.2248994
  57.2654746  73.1122280  38.7567947  56.4831650  73.0689537  38.7794221
  67.1849295  68.3136776  39.0085248  66.8414061  67.5927111  39.3592498
  67.2842338  68.1050627  38.1663607  67.1491338  68.1760979  38.9356928
  56.6003671  74.8097244  34.6145632  57.3549639  75.1910283  34.8281094
  56.0074284  75.2608387  35.0692328  56.6240385  74.9326071  34.7128510
  59.0610338  66.7660084  49.7402844  58.2510114  67.0717864  49.6292686
  59.5385025  67.4865666  49.8555428  59.0113817  66.9174685  49.7409915
  57.9201898  75.9805805  39.9885747  57.3982651  76.1206097  40.6737612
  58.3075918  75.2216469  40.1787864  57.9005599  75.8891329  40.1186823
  54.9093082  66.0311614  34.0580702  54.6217877  65.6612884  33.3212649
  55.5963550  66.5006469  33.7964407  54.9681979  66.0458583  33.9095777
  59.3468223  73.0109824  35.3867238  59.1511006  73.6184559  34.7927541
  59.5702569  72.3177768  34.9058912  59.3502864  72.9987350  35.2283319
  57.7446753  69.8964562  35.5048106  58.4669405  70.0605720  35.0451912
  57.2654746  70.6174227  35.3987446  57.7810484  70.0262792  35.4213720
  65.7040261  66.2328361  40.8844791  64.8651361  66.2589640  40.6483055
  65.7744628  66.8799096  41.4650138  65.5908654  66.3324487  40.9353908
  55.3954370  72.3022634  44.6102246  55.9075467  72.5806888  43.9611006
  55.1090713  73.0411928  44.9765059  55.4289233  72.4524988  44.5692124
  64.1509539  63.1313738  35.6172407  64.8535892  62.9321486  35.1392365
  63.8853728  62.3589680  35.9241251  64.2156171  62.9876704  35.5917849
  69.5797785  71.4396348  38.1706033  69.4931759  71.5951774  39.0240812
  69.1248265  72.0834423  37.7965438  69.5001041  71.5572103  38.2413140
  52.4821276  66.8092826  34.9065983  52.5837413  67.6118988  35.2346958
  53.2777163  66.6080162  34.6089063  52.6149182  66.8978725  34.9101338
  58.9138095  64.3949023  44.6703288  58.7221292  64.4104157  45.5202711
  59.7636691  64.5912697  44.6469943  59.0113817  64.4263374  44.7926583
  53.2985008  66.9240004  42.6487104  53.1570500  66.0723945  42.7731612
  53.5825572  66.9668665  41.8249310  53.3192854  66.8039754  42.5454728
  63.4523601  68.7607095  36.7931593  63.2058315  68.6802846  37.6268381
  63.7808724  67.9760563  36.5994120  63.4644844  68.6333360  36.8879116
  65.6849735  71.7686829  46.8340755  65.6797773  70.8966646  46.8383182
  66.3910729  71.9674999  46.3610211  65.7894739  71.6690704  46.7647791
  59.4120628  71.4963813  46.2054576  59.5564004  72.0765021  45.5697686
  59.7596277  71.8740110  46.9104430  59.4848089  71.6384517  46.2153571
  61.5840545  70.6953982  43.9879707  60.8363859  70.8884996  43.5827985
  61.7382071  69.8699201  43.7503829  61.4962973  70.6019093  43.8925113
  58.4848383  79.6866585  43.0715602  58.6337947  79.1269501  42.4189007
  59.2648385  79.7658587  43.4548121  58.6222477  79.6152151  43.0312552
  61.8242322  64.5904532  44.8775111  62.2814936  65.3228507  45.0047903
  61.8998651  64.1670998  45.6362367  61.9033292  64.6361770  45.0076187
  54.0675314  64.8370352  45.9664555  53.5317503  64.2250710  46.2825322
  54.1293078  65.4118488  46.6198221  53.9970946  64.8317280  46.1099981
  61.6671931  78.3782227  35.1823699  62.4321822  78.1091871  34.8606363
  61.5650021  77.8932237  35.8993762  61.7653426  78.2671791  35.2403527
  59.7024700  66.5806636  41.7216935  58.9120775  66.3998096  42.0434271
  60.0985323  65.8033589  41.7047229  59.6441576  66.4394097  41.7669483
  64.1890591  75.4094411  27.1623649  64.9563576  75.4694536  26.7529500
  63.7421900  74.8374852  26.6779967  64.2364018  75.3330986  27.0301359
  65.0868387  74.2149066  39.4476381  64.4113388  73.9834299  39.9489768
  65.0960763  73.6070249  38.8218486  64.9886891  74.0907992  39.4292533
  62.2162531  69.0566895  46.2040434  62.1521672  69.9176852  46.0760571
  62.3559718  68.7398889  45.4035985  62.2278001  69.1367062  46.0668647
  60.8981624  71.7499035  40.3456637  60.4743874  71.9503534  39.6095655
  60.7226480  70.9027883  40.4580937  60.8092505  71.6547816  40.2530327
  56.1864069  72.2451086  35.7784609  56.3428689  72.1797889  36.6340601
  56.5264663  73.0199639  35.5663289  56.2597304  72.3500284  35.8739203
  62.7243214  71.6208970  34.6477973  63.2658760  71.1179351  35.1116593
  63.0389773  71.5674164  33.8367458  62.8507611  71.5388391  34.5961785
  60.8929664  77.0126321  31.9318001  60.9622484  76.1540860  32.0711001
  61.6718119  77.2298202  31.6037025  61.0182514  76.9179185  31.9035158
  63.8732483  66.5145274  44.7000273  64.0874453  65.8756188  44.1463627
  63.2566383  66.9591098  44.2708135  63.8137813  66.4855418  44.5550704
  52.7598331  69.4286037  36.0945376  53.1397296  69.8470582  35.4305644
  52.1853696  70.0099492  36.4014220  52.7309656  69.5763895  36.0422117
  66.0371571  68.1234339  45.6383580  65.2248253  67.8160230  45.7196753
  66.4961506  67.6433340  46.2026292  65.9851956  68.0070832  45.7338174
  65.4476826  76.0014011  36.0860524  65.0891481  76.1728654  36.8624557
  64.9615537  76.4627217  35.5288523  65.3235523  76.0952982  36.1185794
  63.2647212  59.6245210  39.6887616  62.3940770  59.5983931  39.6420925
  63.5187553  59.4522402  38.8713461  63.1740772  59.5955354  39.5607753
  60.2365191  71.6813177  28.6260759  60.5257716  72.4578059  28.9004333
  60.3236990  71.1701908  29.3275258  60.2919448  71.7205095  28.7703257
  63.1325079  69.5294411  50.4212282  63.6024710  70.1536527  50.8080156
  63.1786959  68.8611386  50.9805497  63.2092955  69.5229091  50.5612354
  60.2896353  61.6351438  41.1461086  59.7734841  60.9431630  41.2712665
  59.7290281  62.3022215  41.0923685  60.1302866  61.6314696  41.1567152
  62.3588586  62.1744398  42.9753939  61.9720339  62.1993430  43.7567469
  61.8721523  61.6086077  42.5228455  62.2301095  62.0940149  43.0241842
  68.3338566  68.7407053  41.5993641  67.9066174  68.6533402  40.8441740
  67.6964618  68.8484829  42.1848485  68.1768173  68.7439713  41.5739082
  62.0245728  59.0611384  45.2664199  62.6538846  59.5971684  44.9885269
  62.1931590  58.9688743  46.1177764  62.1423522  59.1272746  45.3512727
  61.8259643  63.8482579  47.5390610  62.6533072  63.5767727  47.5949225
  61.8467489  64.6443420  47.8954428  61.9512493  63.9262333  47.6005793
  56.4029132  70.9946441  40.7260871  55.5617139  70.8950316  40.9339765
  56.6119140  71.7641922  41.0775192  56.3093825  71.0938485  40.8088186
  53.8804699  68.6165978  38.5545622  53.4861397  68.6908990  37.7795731
  53.3244816  69.0023925  39.1053983  53.7407512  68.6847753  38.5213281
  65.5169646  61.5947272  38.2349500  65.7219240  61.5269580  39.0806498
  65.1896070  62.4006094  38.1670678  65.4984894  61.7033213  38.3509156
  60.2145797  68.9227841  39.9758468  59.9108935  68.3683829  40.5768876
  59.5125218  69.1020051  39.4886503  60.0662007  68.8672623  39.9928174
  59.2711894  66.2328360  34.5403170  59.5471629  65.5147273  34.1280738
  59.8710564  66.8313280  34.3324276  59.4005159  66.2148731  34.4483931
  58.2764148  76.1377561  44.6830566  58.1684503  76.1479623  45.5492624
  58.4859930  76.9632342  44.4935520  58.2914259  76.2618636  44.7834658
  68.7703334  62.1479037  37.7152266  68.1577648  62.6349439  38.1005998
  68.8667509  61.4722527  38.2589917  68.6941232  62.1197345  37.8531124
  62.7722415  63.9041878  32.8149765  63.2266161  64.0752438  33.5397610
  63.2462461  63.2909988  32.4147541  62.9090735  63.8392763  32.8623527
  56.2937940  73.3890204  42.1452504  55.7025874  74.0299702  42.1155519
  57.0558964  73.8127821  42.1183803  56.3186201  73.5466042  42.1367651
  56.6898563  64.5492201  42.8120521  57.1500045  64.6231131  43.5495645
  56.7354670  65.3473455  42.4620343  56.7649118  64.6786349  42.8693278
  58.3381913  65.2158896  47.3792549  57.9467478  64.5692243  47.8148326
  58.5067776  65.8070332  47.9986804  58.3052823  65.2073164  47.5355254
  60.1135435  70.6084412  33.9194773  60.8577480  70.9958688  34.1577722
  60.2596131  69.7641837  34.0835260  60.2446020  70.5414885  33.9788742
  62.0315010  62.4034671  38.9526634  61.1851055  62.5757479  38.8267984
  62.0286143  61.5984015  39.2892462  61.9062160  62.3095700  38.9837761
  63.1013311  66.1809885  39.8188692  62.6273265  65.6551647  40.3294003
  63.4731447  65.6339358  39.2503553  63.0863200  66.0225882  39.8103839
  53.4786341  68.1781392  45.1872238  54.3411954  68.0777101  45.1009567
  53.1478124  67.5976101  44.6257810  53.5571537  68.0773019  45.0917643
  69.3650041  71.2412261  41.2295472  69.1248264  70.4018676  41.2337899
  69.8442049  71.3212428  41.9536246  69.4002225  71.1293661  41.3370275
  65.0296810  67.0746440  32.8814446  64.5019829  67.1575184  32.1920154
  65.4892519  67.8164311  32.8779090  65.0198661  67.1967102  32.7789141
  71.3655228  68.0213718  39.1824731  71.1264998  67.9809552  38.3445516
  71.5289130  68.8684870  39.3090453  71.3545532  68.1405803  39.0778213
  67.9701258  72.4063668  45.1129777  68.6935457  71.9536194  44.9340797
  67.7051221  72.6868333  44.3302104  68.0382532  72.3814636  44.9708492
  56.8388127  67.0023841  41.8482656  56.2141197  67.0142233  41.2408609
  56.5033722  67.4784016  42.4973896  56.6973619  67.0742358  41.8539224
  57.0229876  65.3448960  27.9055341  56.6742680  65.9968685  28.3686890
  56.5426321  65.3306073  27.1779212  56.9000120  65.4392013  27.8666432
  53.5513802  75.0624301  43.2886420  53.0213727  74.3716740  43.3381395
  53.8238896  75.0534487  42.4599129  53.5138525  74.9591433  43.1733836
  64.5833893  75.6450004  32.0124103  65.3068092  76.1108117  31.8688676
  64.1434484  75.7123613  31.2621700  64.6249585  75.7233840  31.8808884
  63.7520048  72.5047546  43.2624792  63.1377041  71.9605596  43.5573427
  64.2687333  71.9911782  42.7830608  63.7375710  72.3483955  43.2349020
  62.9916345  73.5751816  40.9969090  62.5643953  72.9501534  40.5634526
  62.9841290  73.2926738  41.8228098  62.9275486  73.4404596  41.0548918
  56.1078872  68.6116989  44.0657524  56.2672359  67.8560313  44.4709246
  55.9271766  69.1607928  44.7198262  56.1044231  68.5810803  44.2220230
  64.0499175  60.7778224  44.6208314  63.5539737  60.9741899  43.9299880
  64.8068237  61.1770893  44.4497115  64.0886000  60.8655958  44.4928451
  61.3202055  64.4520570  41.2111624  61.3444542  63.9180683  40.5224404
  61.5713528  63.9437879  41.8737215  61.3611974  64.2981474  41.2076269
  48.8309645  71.7352065  40.6454768  48.7253094  71.6898910  39.7806852
  48.0809865  72.0805846  40.9269053  48.7045248  71.7792974  40.5592098
  57.6003377  63.1791389  40.5917369  57.6401749  63.6800595  41.3052076
  56.7753042  63.2701782  40.3223292  57.4842903  63.2673205  40.6567907
  59.7832990  72.7452129  48.6937663  58.9328621  72.8823843  48.8295308
  59.9461118  72.0115907  49.1385365  59.6816854  72.6566230  48.7793262
  59.0217740  69.6951898  42.8891268  58.1909670  69.8625716  42.6826516
  58.9669258  69.3187849  43.6740153  58.8907155  69.6641630  42.9739796
  56.8301524  63.1860791  48.5247678  57.4554227  62.6422924  48.7977111
  56.3752004  62.7055709  47.9555469  56.8549784  63.0350273  48.4809272
  57.3953784  67.9707490  33.4181385  57.5356745  68.4679954  34.1210027
  57.8936317  67.2693784  33.5595599  57.4894865  67.9409469  33.5432964
  57.4254007  68.8374601  30.7473962  58.0599086  69.4335026  30.6823424
  57.5079617  68.5378059  31.5619832  57.5310558  68.8815509  30.8577049
  70.4036572  71.3690078  43.6160326  70.9954413  72.0087329  43.6478524
  70.8395567  70.6713115  43.9052393  70.5555004  71.3608429  43.6641159
  59.0032990  64.7688576  30.7219404  59.3248831  64.2891659  30.0678666
  59.2659933  65.5788222  30.5310216  59.0899015  64.8178474  30.5974896
  62.2329962  75.7907451  44.2418220  61.7255053  76.3443298  44.6858851
  61.9356609  75.8515741  43.4236995  62.1134847  75.8813762  44.1866677
  64.3992145  64.1560770  43.0842883  64.8247216  63.7033297  42.4726410
  63.7849138  63.6020841  43.3607671  64.3720790  64.0074747  43.0347909
  53.9306995  71.0342442  34.0163508  54.4399224  71.6306949  34.3974814
  54.4041267  70.7668415  33.3339928  54.0750370  71.0828257  33.9718031
  62.8386367  60.6275870  36.4933460  62.1954685  60.4773517  37.0618599
  62.4985774  60.3818215  35.7282565  62.6931445  60.5687993  36.4636475
  67.4285714  68.5835297  35.9163469  66.7576904  69.1264999  35.7876534
  68.1225464  69.0530152  35.6745164  67.4314581  68.7333568  35.8618997
  67.5913841  65.0391181  38.8253842  67.9441451  64.6120904  39.4999641
  66.7328643  64.9542024  38.9554918  67.5163286  64.9635921  38.9448853
  56.2897526  67.6698700  36.8836689  55.5709515  68.0862833  37.1509552
  56.6609889  68.2352939  36.3328327  56.2389458  67.8147982  36.8419496
  65.5897107  68.3026549  42.7738684  65.5695034  68.1209844  43.6273463
  65.6376308  69.1738568  42.7498268  65.5931748  68.4043087  42.8961979
  63.5343437  74.8913741  48.6987161  63.4939292  74.2463418  48.1132317
  64.3466755  74.8350359  49.0112573  63.6486591  74.7872708  48.6584110
  62.0644101  66.7096700  32.2210068  61.4708940  67.0313697  31.6694635
  62.1019378  65.8637796  32.0131174  61.9818490  66.6321028  32.1092839
  69.0237901  60.1609592  39.7538155  68.5168766  59.4538732  39.6859332
  69.8205335  59.8302781  39.8839231  69.0665141  60.0082744  39.7637150
  64.9401917  66.6676205  35.6511818  64.7115610  66.6908906  34.8090177
  65.1999993  65.8433672  35.7706829  64.9448105  66.5492285  35.5437016
  59.2221146  68.5210678  45.2536919  58.7100049  67.9131861  45.6121950
  59.0500642  69.2367270  45.7210894  59.1210783  68.5373977  45.3753142
  54.0686860  66.9648253  47.9039280  53.8989451  67.6249628  47.3587487
  53.6252810  67.1754814  48.6251769  53.9786194  67.0934235  47.9300910
  57.9946680  65.2052751  36.9466014  58.4704046  65.5669831  36.3116195
  57.4935279  65.8609219  37.2266157  57.9912039  65.3546940  36.8942755
  63.0990216  66.4434922  47.6939174  63.6561646  66.2148732  47.0617639
  62.7751281  67.2040588  47.4174386  63.1336626  66.5218759  47.5595671
  50.9688925  69.8695119  43.1627770  50.4215644  69.1995764  43.2808638
  51.7581303  69.5024967  43.2271237  51.0041109  69.7160105  43.1896471
  60.8173333  69.5302576  48.6591181  61.5684660  69.8454253  48.9730735
  61.0095910  69.3281747  47.8325103  60.9564747  69.5469958  48.5834577
  60.0373333  67.3493951  30.3139398  60.4172298  67.3673580  29.5290513
  59.2965929  67.7947940  30.1930245  59.9842171  67.4175725  30.1802966
  67.6658623  65.6576142  35.9014977  67.6652850  65.5024799  36.7599253
  67.4614804  66.5039129  35.8456362  67.6358401  65.7596763  36.0202916
  49.7275894  69.0815926  40.3173793  49.5497655  68.6292535  41.0428709
  49.4394917  69.8842088  40.5012271  49.6588848  69.1338484  40.4517296
  65.3899475  70.3373644  39.5551183  65.8853141  69.6196639  39.5155204
  64.5799251  70.0344442  39.4405670  65.3443369  70.1871290  39.5324909
  60.8358087  74.1871457  31.7048188  60.0269410  73.8638131  31.6581497
  61.3432996  73.4804679  31.6376437  60.7907754  74.0352773  31.6878482
  51.4648364  71.6143650  37.4295552  50.5993884  71.6029341  37.3178323
  51.5647180  71.4273873  38.2766692  51.3522531  71.5849711  37.5384497
  67.4551294  73.0877331  42.2428312  67.8806366  72.5651753  41.6898737
  67.0908214  73.6858169  41.7216935  67.4637897  73.0987558  42.0837322
  57.0905374  81.3841549  41.0025658  57.4051933  82.1977937  41.0103439
  57.4998788  80.9991768  41.6707817  57.1973472  81.4470251  41.1029749
  64.0429894  76.8011596  38.5729470  64.5141072  77.5151858  38.7419455
  64.3790072  76.2010346  39.1089339  64.1625009  76.8183060  38.6761846
  60.9599389  61.5739066  45.5287565  61.0927294  60.7770060  45.8568540
  61.3444542  62.1005469  46.1085840  61.0355718  61.5338983  45.6631067
  64.6803840  76.5929530  45.3357162  64.1324786  75.9687413  45.0677228
  65.1416869  76.7823802  44.6201242  64.6671050  76.5288580  45.1907593
  64.0331744  58.4969392  42.1268658  63.2277708  58.3867122  42.4436496
  63.9038479  58.5981848  41.2698524  63.8951877  58.4953062  42.0476698
  67.4897704  64.6614884  42.7208355  66.9060693  65.1624091  42.3085922
  67.8101999  64.1544440  42.0872678  67.4510880  64.6606719  42.5666862
  60.0292504  63.5755479  32.9967029  60.8508198  63.7453792  32.7548724
  59.5662155  63.7302740  32.2733327  60.0823666  63.6237212  32.8538674
  58.6187836  61.5698241  43.7765458  59.1632249  61.2289368  44.3669800
  58.6724771  62.4283703  43.9186743  58.7076955  61.6453501  43.8847332
  54.4318394  75.3314657  40.6504266  55.0363252  75.2910491  40.0218087
  54.2245707  76.1785809  40.6808322  54.4907292  75.4502660  40.5620383
  49.6669677  74.3149275  40.5203189  49.5693955  73.5045546  40.8293246
  50.4498546  74.2941068  40.1349457  49.7685813  74.1916365  40.5090052
  36.5196306   0.1182354  21.7649427  36.4890311   0.9726990  21.9367696
  37.1177655  -0.1822354  22.3235570  36.6033464   0.1998850  21.8724229
  29.7195991  -0.7941995  26.5202357  28.8633887  -0.6333497  26.5711474
  29.7663645  -1.6649931  26.5407418  29.5995103  -0.8991193  26.5308423
  24.1037131   8.7420722  22.2839589  23.3520031   8.3636261  22.0555634
  24.5523143   8.7739156  21.5358399  24.0586798   8.6906330  22.1397091
  33.0289708   5.4744530  36.1262813  33.7356475   4.9796561  36.2549748
  33.2177643   5.9153612  35.3965471  33.1617613   5.4662881  36.0371859
  29.5562091   9.1646092  17.7125136  29.2213459   9.8423014  17.2769358
  30.0688961   8.7751403  17.1242007  29.5827672   9.2070670  17.5611927
  29.0966382  11.1160361  23.6536247  29.4805762  11.6847259  23.1141023
  29.0325523  10.3909871  23.1742063  29.1439809  11.0935824  23.5030110
  32.5647812   1.2650049  29.1634009  33.1103772   1.9435135  29.2227978
  32.5064689   1.1237509  28.3035590  32.6363727   1.3442050  29.0446069
  25.6821887   8.7539115  24.5502361  25.7832250   7.9439469  24.8599489
  25.0863632   8.6596061  23.9202040  25.6094426   8.6204143  24.5028600
  34.3412881   2.6934656  20.0367737  34.2252407   3.4442342  20.4659875
  35.1368768   2.4358609  20.2863824  34.4417470   2.7669503  20.1371828
  25.5222627  13.6716704  25.9517217  26.1660082  14.1129868  26.3413376
  25.8478882  12.8670130  25.8647476  25.6654455  13.6181899  25.9962695
  18.8786931   4.7759401  24.1754695  18.6437116   3.9427054  24.0686964
  19.0172572   5.0564067  23.3615896  18.8642594   4.6942905  24.0397050
  26.2243206   6.6828679  21.3237079  26.5459048   7.2233886  20.7198387
  26.8715303   6.1125450  21.4559369  26.3669262   6.6787854  21.2544114
  28.2744915  -1.3155326  21.4071466  28.9725079  -1.1367199  21.8992929
  28.5897247  -1.8384987  20.7841855  28.4240252  -1.3661554  21.3873476
  20.9046152   0.4897414  29.3182572  20.7804849   1.0759859  29.9532390
  21.5564436  -0.0042391  29.6194847  20.9819801   0.5036218  29.4568501
  28.4632850   5.0715119  21.3951257  28.9026485   4.4632219  21.8406030
  28.3137513   4.6922492  20.6236722  28.5054316   4.9253590  21.3470425
  25.9304493   3.6659130  28.5970083  26.5753495   3.1731574  28.2781031
  26.1706270   3.8083917  29.4236161  26.0615078   3.6136573  28.6719616
  28.4690584   6.5114036  28.2476975  28.7513827   5.7165442  28.0263731
  29.1976745   6.9894624  28.2682036  28.6180148   6.4648633  28.2179990
  32.0642187   3.4242300  18.3482026  31.9793482   4.2803267  18.4931595
  32.5526570   3.1486624  19.0164186  32.1231084   3.5099621  18.4684108
  32.9960620   0.0427094  19.8479762  32.4672091   0.2586728  20.5077068
  33.5185640   0.7363233  19.7680731  32.9949073   0.1770231  19.9335361
  38.4508673   5.6173399  25.2212806  37.6206376   5.8284042  25.3846223
  38.4017925   4.7910453  24.9455090  38.3215408   5.5263005  25.2050171
  20.4404256   9.6545072  25.4510901  19.9571834  10.3795562  25.4270485
  21.2527574   9.9521202  25.5621059  20.4895004   9.8047426  25.4638180
  26.5118410   8.4477253  28.0560716  25.9945352   8.0884668  27.4522024
  27.2092801   7.9239427  28.0666782  26.5383991   8.3174941  27.9690974
  30.1682002   8.8972067  34.0176889  30.2565348   8.7098207  34.8655099
  30.5971715   8.2509496  33.6181735  30.2444105   8.7735074  34.0848640
  27.7352462   8.1803227  32.9994551  27.1723297   7.7675837  33.5234212
  28.4973485   8.1056132  33.4187694  27.7646911   8.1080627  33.1387551
  23.2948453  10.1701248  25.6031181  23.9969033   9.6553237  25.6603937
  23.2145936  10.4975399  26.4078056  23.3872214  10.1415474  25.7303973
  37.9462631  -1.7356201  29.0163227  37.1091052  -1.6654014  29.2510822
  37.9150862  -1.7331706  28.1437530  37.8180913  -1.7245974  28.9222775
  24.3427360   0.4076835  34.7311596  24.5147864   0.2982729  35.5796877
  24.8796717   1.0531240  34.4942788  24.4472364   0.4868837  34.8216693
  22.6199229   6.3607600  25.1116789  23.4588128   6.5930533  25.1590551
  22.6510998   5.4911911  25.0423824  22.7480946   6.2664546  25.1081434
  23.2451932   6.7808475  29.4130094  23.7850157   6.6379606  30.0833467
  22.5621878   7.1805226  29.7814121  23.2244086   6.8188146  29.5664516
  32.6692817   2.4599476  24.6075119  33.4250332   2.8930990  24.6464028
  32.7755141   1.8104245  25.1809755  32.7962987   2.4276960  24.6973144
  35.7072988   6.2872753  25.3577522  35.2708220   6.2909495  26.1136493
  35.3735903   6.9678252  24.9257099  35.5935608   6.3885209  25.4058354
  30.2802061   8.3281086  36.6820672  31.0642478   8.4411934  37.0476414
  30.0798656   7.5022223  36.8779358  30.3668087   8.2227805  36.7655058
  18.6489077   3.0008766  29.5664516  18.3827492   2.1847883  29.7255506
  18.6627641   3.0461921  28.6960032  18.6113799   2.8865671  29.4617998
  30.4372455  10.2391188  30.3287128  29.6387701   9.9990688  30.5860996
  30.8858466  10.2905581  31.0754175  30.3847066  10.2113579  30.4772052
  38.8417334   3.0053673  24.2497159  39.5033768   2.4444341  24.1493067
  38.2008746   2.5105704  24.5749850  38.8446202   2.8490082  24.2829499
  29.7294142   6.3023804  16.5578082  30.1445290   5.9708828  15.8662578
  28.8986071   6.0692707  16.4298219  29.6682151   6.2195060  16.4368930
  19.0582491   3.7867545  26.8476260  18.8758064   3.7614431  25.9948552
  19.7932159   4.2566483  26.8865169  19.1396554   3.8528908  26.7274179
  35.1282165   4.0219055  23.9909148  35.3637754   4.1664254  23.1635998
  35.2771728   4.7861463  24.3840661  35.1847968   4.1558110  23.9272752
  22.1228242   0.5052548  33.3558369  22.8468215   0.4905579  33.8423264
  22.2244379   1.2147903  32.8580337  22.2446451   0.6077251  33.3537156
  36.9572621   2.8620721  21.8278752  37.2880839   3.3948361  21.2218846
  37.5305710   2.9159609  22.4840703  37.0906301   2.9490290  21.8356533
  29.4973192   3.9851633  38.2207316  28.7046172   4.2995145  38.4059936
  29.6122119   4.2003101  37.3828101  29.3968602   4.0635469  38.1245651
  32.1704511   0.7085624  22.5102332  32.2651365   1.4474918  22.9641957
  31.5463354   0.2803099  22.9436896  32.0913541   0.7546944  22.6410479
  30.4256984   3.8871837  33.1592613  30.9995846   3.2499081  33.3141177
  30.3471788   3.8875919  32.2902270  30.4990219   3.7936948  33.0539024
  19.0253401   0.6661046  26.9975327  19.6026904   0.5297497  27.6367572
  18.3267463   0.2096830  27.2520911  19.0074422   0.5783312  27.1297617
  25.7820703   2.3195102  25.2113810  25.5239947   1.4866837  25.1845110
  25.8369186   2.5452715  24.3706310  25.7520481   2.2292873  25.0833947
  24.7555415  -0.1267136  25.6978705  24.1805006   0.0325032  26.3342666
  24.3791092  -0.7631727  25.2347155  24.6158228  -0.1969323  25.7233263
  28.4228704  -1.6543787  30.5571083  28.0343137  -2.0789569  29.9023274
  27.7583402  -1.4061637  31.0648110  28.2675632  -1.6805066  30.5358951
  29.5267642   2.5754818  18.7547890  30.3408281   2.8669711  18.6430662
  29.4626783   1.9214680  18.1806183  29.6370381   2.5220013  18.6536728
  35.7477132   5.2580814  33.1677466  35.5115770   4.4268879  33.0489526
  36.3920361   5.2066421  33.7532310  35.8071803   5.1278502  33.2363359
  25.3975550   6.0476335  23.8820202  26.0349497   5.8088083  24.4271996
  25.8230622   6.2513494  23.1473363  25.5551717   6.0427346  23.8537360
  20.0888193   8.2864672  27.7654506  20.1292338   8.5579523  26.9374286
  20.6482717   8.8106580  28.1812294  20.1771539   8.4040427  27.7046394
  36.7713553   5.0425263  29.2305760  36.4659370   5.7753320  29.5919076
  36.0519769   4.6363192  28.9498546  36.6200895   5.0906996  29.2418897
  27.7797022   6.5248758  25.5613989  27.8536031   6.3623930  26.4155838
  28.5966529   6.7138948  25.3174470  27.9113381   6.5285500  25.6512014
  42.4715345   1.6818264  28.5574105  42.4039845   1.7014223  27.6876691
  42.4571007   2.5248591  28.7829775  42.4594102   1.8091998  28.4626581
  21.5402779   6.8706621  22.5908432  20.7140897   7.1168358  22.4642711
  21.6014770   6.7918702  23.4570490  21.4276946   6.8951570  22.6997376
  26.3201608   9.4883501  20.2927462  26.6099906   9.0972482  19.5686689
  27.0505089   9.6700206  20.7332737  26.4708492   9.4577315  20.2510269
  40.2573962   0.4562650  26.8320699  40.8081884  -0.1769281  27.0717791
  40.2418078   0.9878043  27.5236203  40.3359159   0.4411598  26.9699557
  26.9096353   4.2901247  31.3780592  26.4108047   5.0017015  31.4565481
  27.7196578   4.6101914  31.3398755  26.9552460   4.4428096  31.3837161
  24.2607524  11.4650884  23.3587612  24.0407819  11.1748238  24.1514279
  24.0402046  10.8065839  22.8305524  24.1955118  11.3250592  23.3976520
  23.1724471   3.5524200  25.6243313  22.8837719   2.9261671  26.1589041
  24.0407819   3.4944487  25.6907994  23.2584723   3.4511744  25.7134268
  33.9602369  -1.3041017  25.9425295  33.6167134  -2.0250681  26.2932545
  34.0595411  -1.5127165  25.1003653  33.9244411  -1.4416813  25.8696975
  26.4275479  12.8380273  22.1418304  27.0799537  12.3056716  22.3709330
  25.7301088  12.4848926  22.5286178  26.4206197  12.7069796  22.2330472
  23.3756744   5.1919451  21.5485678  24.1302712   5.5732490  21.7621141
  22.7827357   5.6430595  22.0032375  23.3993458   5.3148278  21.6468557
  34.4215398   5.1584688  21.4849283  34.9873430   5.8177897  21.4007826
  33.7743301   5.5034386  21.9565685  34.4094154   5.3066629  21.5422040
  25.8363411  -2.8517709  36.6742891  25.0263187  -2.5459929  36.5632733
  26.3138098  -2.1312126  36.7895475  25.7866890  -2.7003107  36.6749962
  24.6954971   6.3628012  26.9225794  24.1735724   6.5028304  27.6077658
  25.0828991   5.6038677  27.1127911  24.6758672   6.2713536  27.0526870
  30.8921976   8.1023472  20.9086363  30.6508652   7.3691332  20.5013427
  31.0723309   8.6510329  20.2552696  30.8829600   8.0745863  20.7516585
  26.1221296   3.3932031  22.3207285  25.9264079   4.0006766  21.7267588
  26.3455642   2.6999975  21.8398959  26.1255937   3.3809557  22.1623366
  24.5199826   0.2786769  22.4388153  25.2422478   0.4427928  21.9791959
  24.0407819   0.9996434  22.3327493  24.5563557   0.4084999  22.3553767
  32.4793334  -3.3849432  27.8184838  31.6404435  -3.3588153  27.5823101
  32.5497701  -2.7378696  28.3990185  32.3661728  -3.2853306  27.8693955
  22.1707443   2.6844842  31.5442293  22.6828540   2.9629095  30.8951053
  21.8843786   3.4234136  31.9105106  22.2042306   2.8347195  31.5032171
  36.3550858   1.8218555  25.1046080  36.2684832   1.9773981  25.9580859
  35.9001338   2.4656630  24.7305485  36.2754114   1.9394310  25.1753187
  25.6891169  -5.2228770  31.6043335  25.4974366  -5.2073635  32.4542758
  26.5389764  -5.0265095  31.5809989  25.7866890  -5.1914418  31.7266629
  30.2276674  -0.8570698  23.7271639  29.9811388  -0.9374947  24.5608428
  30.5561797  -1.6417230  23.5334167  30.2397917  -0.9844433  23.8219162
  34.1224723   5.8512661  27.5158421  33.9839082   6.5493707  28.0207163
  33.3424721   5.6961318  27.1594602  33.9867950   5.9312828  27.5384695
  32.4602808   2.1509037  33.7680802  32.4550846   1.2788853  33.7723229
  33.1663802   2.3497206  33.2950258  32.5647812   2.0512911  33.6987838
  26.1873701   1.8786021  33.1394622  26.3317077   2.4587229  32.5037732
  26.5349350   2.2562317  33.8444477  26.2601163   2.0206725  33.1493617
  28.3593619   1.0776189  30.9219754  27.6116933   1.2707203  30.5168032
  28.5135144   0.2521409  30.6843875  28.2716046   0.9841300  30.8265160
  25.2601456  10.0688792  30.0055649  25.4091020   9.5091708  29.3529054
  26.0401458  10.1480794  30.3888168  25.3975550   9.9974358  29.9652598
  35.6178096   5.2090915  18.2774920  35.2384904   4.4228053  18.2704209
  34.9544341   5.7577772  18.1346564  35.4636570   5.1735739  18.2555717
  27.7854757  10.2403435  31.2840140  27.7098428   9.5712246  31.8390928
  27.7144616  10.9421224  31.7980806  27.7635364  10.2448343  31.4416988
  28.5995396  -5.0273260  31.8115158  29.0568010  -4.2949286  31.9387950
  28.6751724  -5.4506795  32.5702414  28.6786365  -4.9816022  31.9416234
  28.4425004   8.7604434  22.1163746  29.2074895   8.4914078  21.7946410
  28.3403094   8.2754445  22.8333809  28.5406499   8.6493999  22.1743574
  26.4777773  -3.0371156  28.6556982  25.6873848  -3.2179696  28.9774318
  26.8738396  -3.8144204  28.6387276  26.4194650  -3.1783695  28.7009530
  31.8621460   4.5971274  26.3816428  31.1866462   4.3656506  26.8829815
  31.8713836   3.9892457  25.7558533  31.7639964   4.4730199  26.3632580
  28.9915604  -0.5610897  33.1380481  28.9274745   0.2999059  33.0100617
  29.1312792  -0.8778904  32.3376032  29.0031074  -0.4810731  33.0008694
  33.8638194   7.4536406  18.6126606  33.9458032   8.2603392  18.2888057
  34.3487937   7.4732365  19.3367379  33.9475352   7.5757069  18.6713504
  27.6734698   2.1321242  27.2796684  27.2496947   2.3325741  26.5435702
  27.4979553   1.2850090  27.3920983  27.5845578   2.0370024  27.1870374
  22.9617143   2.6273294  22.7124656  23.1181762   2.5620096  23.5680648
  23.3017736   3.4021846  22.5003336  23.0350377   2.7322492  22.8079250
  29.4996287   2.0031177  21.5818019  30.0411833   1.5001558  22.0456640
  29.8142846   1.9496372  20.7707505  29.6260684   1.9210598  21.5301831
  33.3713395   6.2133824  38.6944932  34.1848260   5.9418973  38.8550064
  33.2108361   5.9141364  37.8905127  33.4683343   6.1288751  38.5990337
  27.6682737   7.3948529  18.8658047  27.7375557   6.5363067  19.0051048
  28.4471192   7.6120410  18.5377072  27.7935587   7.3001393  18.8375205
  30.6485557  -3.1032518  31.6340320  30.8627526  -3.7421604  31.0803674
  30.0319456  -2.6586695  31.2048182  30.5890886  -3.1322375  31.4890751
  32.0590225   9.8186230  23.0794541  31.6670016   9.5152945  22.3617407
  32.2143297  10.6555320  22.8899494  32.0243814   9.8970067  22.9451038
  32.8124645  -1.4943453  32.5723627  32.0001326  -1.8017563  32.6536800
  33.2714579  -1.9744453  33.1366339  32.7605029  -1.6106961  32.6678221
  32.2229899   6.3836219  23.0200571  31.8644554   6.5550862  23.7964604
  31.7368610   6.8449424  22.4628570  32.0988596   6.4775190  23.0525840
  29.9078152  -0.0883382  37.3552329  30.3777783   0.5358735  37.7420203
  29.9540032  -0.7566406  37.9145544  29.9846028  -0.0948701  37.4952401
  33.3834639   7.2740115  33.9667772  34.0214359   6.7800310  33.6330228
  32.7408730   7.2017515  33.3819999  33.3828865   7.1899123  33.8310127
  35.1091639  -0.8770739  28.5333688  34.6819247  -0.9644391  27.7781787
  34.4717692  -0.7692964  29.1188532  34.9521246  -0.8738079  28.5079129
  33.4388895   7.9659923  30.6073129  34.2281273   7.6148988  30.7275211
  33.6132493   8.7796311  30.3449763  33.5809177   8.0345780  30.5860997
  23.1782206   1.3768649  27.6600918  22.3370212   1.2772523  27.8679812
  23.3872214   2.1464129  28.0115238  23.0846898   1.4760692  27.7428233
  20.6557773  -1.0011814  25.4885668  20.2614470  -0.9268802  24.7135778
  20.0997889  -0.6153868  26.0394030  20.5160585  -0.9330040  25.4553328
  26.9898871  -0.6949952  26.9098515  26.6862008  -1.2493964  27.5108923
  26.2878291  -0.5157742  26.4226549  26.8415080  -0.7505170  26.9268221
  25.0517222   6.5199769  31.6170613  24.9437576   6.5301831  32.4832671
  25.2613003   7.3454549  31.4275567  25.0667333   6.6440843  31.7174705
  23.0691014   3.7712411  29.0792551  22.4778947   4.4121909  29.0495566
  23.8312037   4.1950028  29.0523850  23.0939274   3.9288250  29.0707698
  25.1134986  -4.4018896  34.3132595  24.7220551  -5.0485549  34.7488373
  25.2820849  -3.8107461  34.9326851  25.0805896  -4.4104628  34.4695301
  39.1881435   3.6018181  30.0769829  39.2464559   4.0504830  30.8229805
  38.5547903   4.0116994  29.6399909  39.1032730   3.7291915  30.1222377
  32.8280530   9.2221723  26.5124575  32.6300218   9.7112537  25.8180786
  32.2068241   9.4262964  27.0908708  32.7068094   9.3238261  26.4947798
  26.8888508   0.9906619  20.8534819  27.6330553   1.3780896  21.0917769
  27.0349204   0.1464045  21.0175307  27.0199093   0.9237092  20.9128789
  29.8766384  -3.4367907  26.7528739  29.4026338  -3.9626145  27.2634050
  30.2484520  -3.9838434  26.1843600  29.8616273  -3.5951911  26.7443886
  36.1403115   1.6234468  28.1635519  35.9001337   0.7840884  28.1677946
  36.6195122   1.7034635  28.8876293  36.1755298   1.5115868  28.2710322
  38.1408302  -1.5964074  26.1164778  37.9018072  -1.6368240  25.2785563
  38.3042203  -0.7492922  26.2430499  38.1298605  -1.4771989  26.0118260
  34.7454332   2.7885875  32.0469823  35.4688531   2.3358401  31.8680843
  34.4804294   3.0690541  31.2642151  34.8135605   2.7636843  31.9048539
  23.6141200  -2.6153951  28.7822703  22.9894270  -2.6035560  28.1748655
  23.2786795  -2.1393776  29.4313943  23.4726692  -2.5435434  28.7879271
  20.3266876   5.4446509  30.2226467  19.7966800   4.7538948  30.2721442
  20.5991969   5.4356694  29.3939175  20.2891598   5.3413640  30.1073883
  31.3586966   6.0272211  18.9464150  32.0821165   6.4930324  18.8028723
  30.9187557   6.0945821  18.1961747  31.4002658   6.1056048  18.8148931
  30.5273121   2.8869753  30.1964839  29.9130114   2.3427804  30.4913474
  31.0440406   2.3733990  29.7170655  30.5128784   2.7306162  30.1689067
  29.7669418   3.9574023  27.9309137  29.3397026   3.3323742  27.4974573
  29.7594363   3.6748945  28.7568144  29.7028560   3.8226804  27.9888965
  22.8831945  -1.0060804  30.9997571  23.0425432  -1.7617480  31.4049293
  22.7024839  -0.4569864  31.6538309  22.8797304  -1.0366990  31.1560277
  28.0955128  -5.1657222  28.1451671  28.1197615  -5.6997110  27.4564451
  28.3466602  -5.6739913  28.8077262  28.1365047  -5.3196318  28.1416316
  15.6062718   2.1174273  27.5794815  15.5006167   2.0721117  26.7146899
  14.8562938   2.4628053  27.8609100  15.4798321   2.1615181  27.4932145
  26.5586063   3.1274336  35.6277710  25.7081694   3.2646050  35.7635355
  26.7214191   2.3938114  36.0725412  26.4569927   3.0388437  35.7133309
  25.7970814   0.0774106  29.8231314  24.9662743   0.2447924  29.6166563
  25.7422331  -0.2989943  30.6080200  25.6660229   0.0463837  29.9079843
  37.1789646   1.7512286  30.5500373  37.7707486   2.3909537  30.5818571
  37.6148640   1.0535323  30.8392440  37.3308077   1.7430636  30.5981206
  29.0083036   6.1729658  31.1758267  28.5008127   6.7265505  31.6198898
  28.7109682   6.2337948  30.3577042  28.8887920   6.2635969  31.1206724
  31.6190816  10.0892916  19.1062211  30.9020126   9.9153778  18.6409448
  32.2697553   9.8545488  18.5737697  31.6092666  10.0288708  18.9591428
  34.2038787  -1.0342496  22.8503516  33.5329977  -0.4912793  22.7216581
  34.8978537  -0.5647640  22.6085210  34.2067655  -0.8844224  22.7959043
  28.2525521  11.1054216  28.0815274  28.0291175  10.3473046  28.4499300
  27.7635364  11.1352238  27.3595714  28.1468970  10.9976441  28.0292015
  23.0650600  -1.9479092  23.8176735  22.3462589  -1.5314960  24.0849599
  23.4362962  -1.3824853  23.2668374  23.0142531  -1.8029811  23.7759542
  32.3650180  -1.3151243  29.7078731  32.3448108  -1.4967948  30.5613510
  32.4129381  -0.4439225  29.6838315  32.3684821  -1.2134705  29.8302026
  30.3096510   5.2735949  35.6327208  30.2692365   4.6285626  35.0472364
  31.1219828   5.2172566  35.9452620  30.4239664   5.1694915  35.5924157
  26.9003978  11.3254675  25.5352359  26.4864376  10.6628805  25.1456200
  27.5851352  11.4732533  25.0148053  26.9402349  11.2495333  25.4008856
  30.2669272  10.4844760  26.2875975  29.8685555  10.5947030  25.5196795
  29.6520491  10.6926826  26.8702535  30.1168161  10.5318328  26.2607275
  31.7154990  -2.9501588  22.5851865  31.4868683  -2.9268886  21.7430223
  31.9753067  -3.7744121  22.7046876  31.7201179  -3.0685508  22.4777063
  25.9974219  -1.0967115  32.1876965  25.4853122  -1.7045932  32.5461997
  25.8253715  -0.3810522  32.6550941  25.8963856  -1.0803816  32.3093189
  24.7699753  -4.4125042  23.8806061  25.2457119  -4.0507962  23.2456242
  24.2688353  -3.7568574  24.1606204  24.7665112  -4.2630853  23.8282802
  38.0011115   5.0596727  19.6719066  38.3844720   5.8088083  19.9017163
  37.2055228   5.3062546  19.4131055  37.9404897   5.2066420  19.6676639
  29.8743289  -3.1742870  34.6279221  30.4314719  -3.4029061  33.9957686
  29.5504354  -2.4137205  34.3514433  29.9089699  -3.0959033  34.4935718
  27.5926407  -0.0875217  35.5931228  28.3437733   0.2276460  35.9070782
  27.7848983  -0.2896046  34.7665150  27.7317821  -0.0707835  35.5174624
  32.1652549   0.7195851  26.4891230  32.6606214   0.0018846  26.4495251
  31.3552324   0.4166649  26.3745717  32.1196442   0.5693498  26.4664956
  27.6111160   4.5693664  18.6388235  26.8022483   4.2460338  18.5921544
  28.1186069   3.8626887  18.5716483  27.5660827   4.4174981  18.6218529
  18.2401437   1.9965858  24.3635599  17.3746957   1.9851548  24.2518370
  18.3400253   1.8096080  25.2106738  18.1275604   1.9671919  24.4724543
  34.2304368   3.4699539  29.1768359  34.6559439   2.9473961  28.6238784
  33.8661287   4.0680376  28.6556982  34.2390970   3.4809766  29.0177369
  23.8658447  11.7663756  27.9365705  24.1805006  12.5800145  27.9443486
  24.2751861  11.3813975  28.6047864  23.9726545  11.8292459  28.0369796
  30.8182967   7.1833803  25.5069517  31.2894145   7.8974066  25.6759502
  31.1543146   6.5832553  26.0429386  30.9378082   7.2005267  25.6101892
  32.9059952   8.7935116  37.6861589  33.0156917   8.0043677  38.0418336
  33.2350848   8.7041053  36.8835927  32.9712357   8.6640969  37.6203979
  31.4556913   6.9751737  32.2697209  30.9077859   6.3509621  32.0017274
  31.9169942   7.1646009  31.5541289  31.4424123   6.9110787  32.1247640
  21.2071468   5.7136865  27.5844313  21.8116325   5.6732699  26.9558134
  20.9998780   6.5608017  27.6148369  21.2660365   5.8324867  27.4960429
  31.0215240   7.9802810  28.8006550  31.8413613   7.8365776  29.0622846
  30.7409317   8.6049009  29.3422988  31.1011983   8.0513162  28.9194490
  16.4422750   4.6971482  27.4543236  16.3447028   3.8867754  27.7633293
  17.2251619   4.6763276  27.0689504  16.5438886   4.5738572  27.4430099
  47.4928890  15.6367662  21.7649427  47.4622894  16.4912298  21.9367696
  48.0910239  15.3362954  22.3235570  47.5766048  15.7184158  21.8724229
  40.6928575  14.7243313  26.5202357  39.8366470  14.8851811  26.5711474
  40.7396229  13.8535377  26.5407418  40.5727686  14.6194114  26.5308423
  40.5294674  24.6831400  17.7125136  40.1946043  25.3608322  17.2769358
  41.0421545  24.2936711  17.1242007  40.5560256  24.7255978  17.5611927
  43.5380396  16.7835356  29.1634009  44.0836356  17.4620443  29.2227978
  43.4797272  16.6422817  28.3035590  43.6096310  16.8627358  29.0446069
  45.3145465  18.2119964  20.0367737  45.1984990  18.9627650  20.4659875
  46.1101351  17.9543917  20.2863824  45.4150054  18.2854810  20.1371828
  29.8519515  20.2944709  24.1754695  29.6169699  19.4612362  24.0686964
  29.9905156  20.5749375  23.3615896  29.8375177  20.2128213  24.0397050
  32.1509602  12.4630440  27.0739003  31.5314634  11.8723087  26.9049017
  32.0493466  13.0541875  26.4403326  32.0447278  12.4634522  26.9543992
  37.1975790  22.2013987  21.3237079  37.5191631  22.7419194  20.7198387
  37.8447887  21.6310758  21.4559369  37.3401845  22.1973162  21.2544114
  39.2477498  14.2029982  21.4071466  39.9457663  14.3818109  21.8992929
  39.5629831  13.6800321  20.7841855  39.3972835  14.1523754  21.3873476
  31.8778736  16.0082721  29.3182572  31.7537432  16.5945167  29.9532390
  32.5297020  15.5142917  29.6194847  31.9552385  16.0221526  29.4568501
  39.4365434  20.5900427  21.3951257  39.8759069  19.9817527  21.8406030
  39.2870096  20.2107800  20.6236722  39.4786899  20.4438898  21.3470425
  36.9037077  19.1844438  28.5970083  37.5486079  18.6916882  28.2781031
  37.1438854  19.3269225  29.4236161  37.0347662  19.1321881  28.6719616
  39.4423168  22.0299344  28.2476975  39.7246411  21.2350750  28.0263731
  40.1709328  22.5079932  28.2682036  39.5912732  21.9833941  28.2179990
  37.4204362   9.5722378  25.4892740  37.0907692  10.0233522  24.8196439
  36.7449364   9.4938542  26.0365747  37.2714798   9.6273513  25.4715964
  43.0374770  18.9427608  18.3482026  42.9526065  19.7988575  18.4931595
  43.5259153  18.6671932  19.0164186  43.0963667  19.0284929  18.4684108
  44.6280769   5.5607901  23.7342351  44.3134210   6.2511380  24.1662773
  44.1107711   5.5052683  23.0327852  44.5045240   5.6542790  23.6939300
  43.9693203  15.5612402  19.8479762  43.4404675  15.7772036  20.5077068
  44.4918223  16.2548540  19.7680731  43.9681656  15.6955539  19.9335361
  49.4241256  21.1358706  25.2212806  48.5938959  21.3469350  25.3846223
  49.3750509  20.3095761  24.9455090  49.2947992  21.0448313  25.2050171
  35.8592811  19.4575619  18.6487230  35.2750026  19.9625650  19.0553093
  35.4562906  19.2318006  17.9083821  35.7132115  19.4983867  18.5992255
  31.4136840  25.1730380  25.4510901  30.9304418  25.8980870  25.4270485
  32.2260158  25.4706510  25.5621059  31.4627587  25.3232734  25.4638180
  40.3170026  15.7041271  17.1256150  40.5566029  15.9119255  16.3131493
  40.6385866  14.8998780  17.2345095  40.4007183  15.6155372  17.0216703
  35.6260316   7.6334667  20.9715688  36.3806284   8.0012984  20.7332738
  35.4487850   8.0074221  21.7394868  35.7114794   7.7432855  21.0500577
  48.9195214  13.7829107  29.0163227  48.0823636  13.8531294  29.2510822
  48.8883445  13.7853602  28.1437530  48.7913497  13.7939334  28.9222775
  35.3159944  15.9262143  34.7311596  35.4880447  15.8168037  35.5796877
  35.8529301  16.5716548  34.4942788  35.4204948  16.0054144  34.8216693
  33.9817380  10.0404986  17.6693801  33.7992954  10.2576866  16.8434794
  34.8442993  10.1543998  17.7252415  34.0821970  10.0894884  17.5548288
  33.5931812  21.8792908  25.1116789  34.4320712  22.1115841  25.1590551
  33.6243582  21.0097219  25.0423824  33.7213530  21.7849854  25.1081434
  39.6617100   7.0431396  20.7042825  40.3903260   6.8647351  20.2580981
  39.7511993   7.8849476  20.9150003  39.7823762   7.1415275  20.6696343
  43.6425400  17.9784784  24.6075119  44.3982915  18.4116298  24.6464028
  43.7487725  17.3289553  25.1809755  43.7695571  17.9462268  24.6973144
  46.6805571  21.8058061  25.3577522  46.2440803  21.8094803  26.1136493
  46.3468487  22.4863560  24.9257099  46.5668191  21.9070517  25.4058354
  29.6221660  18.5194074  29.5664516  29.3560076  17.7033191  29.7255506
  29.6360225  18.5647229  28.6960032  29.5846383  18.4050979  29.4617998
  46.6003054   8.8471889  27.6006950  47.2428963   8.9169993  28.1868865
  46.8526075   8.1801112  27.0986492  46.7325186   8.7598237  27.6134229
  33.5279407  13.3179158  16.1816274  32.8137585  13.0317338  16.5938707
  34.0123376  13.6575784  16.8222662  33.4938771  13.3260808  16.3371909
  34.3720267  12.0572452  32.2131524  33.6792064  11.5869432  32.4592255
  34.9880594  11.8310757  32.7873231  34.3604797  11.9539584  32.3340676
  49.8149918  18.5238981  24.2497159  50.4766352  17.9629649  24.1493067
  49.1741330  18.0291012  24.5749850  49.8178785  18.3675390  24.2829499
  40.7026725  21.8209112  16.5578082  41.1177874  21.4894136  15.8662578
  39.8718655  21.5878014  16.4298219  40.6414734  21.7380368  16.4368930
  30.0315074  19.3052853  26.8476260  29.8490647  19.2799739  25.9948552
  30.7664743  19.7751791  26.8865169  30.1129138  19.3714215  26.7274179
  46.1014748  19.5404363  23.9909148  46.3370338  19.6849562  23.1635998
  46.2504312  20.3046771  24.3840661  46.1580552  19.6743418  23.9272752
  47.9305205  18.3806029  21.8278752  48.2613422  18.9133669  21.2218846
  48.5038293  18.4344917  22.4840703  48.0638884  18.4675598  21.8356533
  43.1437094  16.2270932  22.5102332  43.2383949  16.9660226  22.9641957
  42.5195938  15.7988407  22.9436896  43.0646124  16.2732252  22.6410479
  41.3989568  19.4057144  33.1592613  41.9728430  18.7684389  33.3141177
  41.3204372  19.4061227  32.2902270  41.4722803  19.3122256  33.0539024
  29.9985984  16.1846354  26.9975327  30.5759487  16.0482805  27.6367572
  29.3000046  15.7282138  27.2520911  29.9807006  16.0968620  27.1297617
  43.3960115  18.0719672  15.7439284  43.3140278  18.1421859  16.6094271
  44.0339836  18.6349416  15.5523024  43.4779953  18.1658643  15.8429233
  36.7553287  17.8380410  25.2113810  36.4972531  17.0052144  25.1845110
  36.8101769  18.0638023  24.3706310  36.7253065  17.7478181  25.0833947
  41.8354337   9.9408860  25.3117903  41.1310664   9.4518046  25.4701822
  41.8839311   9.9531335  24.4406347  41.7384388   9.8698508  25.2057243
  35.7287999  15.3918172  25.6978705  35.1537590  15.5510340  26.3342666
  35.3523675  14.7553581  25.2347155  35.5890811  15.3215985  25.7233263
  39.3961287  13.8641521  30.5571083  39.0075720  13.4395739  29.9023274
  38.7315986  14.1123671  31.0648110  39.2408215  13.8380242  30.5358951
  49.0384557  13.6216526  23.3318913  48.7821121  12.8096467  23.1416796
  49.8813871  13.6294093  23.1049101  49.1250582  13.5028523  23.2703730
  25.4744818  15.0358247  23.7123145  25.5605070  14.6590115  24.4936675
  26.1020615  14.6618692  23.2343104  25.5801369  14.9243729  23.7568623
  43.2187649   7.5616150  28.0695067  43.5998161   6.8794321  28.4562942
  42.4150933   7.2725752  27.8870732  43.1564111   7.4183199  28.0999123
  40.5000226  18.0940126  18.7547890  41.3140865  18.3855019  18.6430662
  40.4359367  17.4399988  18.1806183  40.6102965  18.0405321  18.6536728
  46.7209716  20.7766122  33.1677466  46.4848353  19.9454187  33.0489526
  47.3652945  20.7251729  33.7532310  46.7804387  20.6463810  33.2363359
  36.3708134  21.5661643  23.8820202  37.0082081  21.3273391  24.4271996
  36.7963206  21.7698802  23.1473363  36.5284300  21.5612654  23.8537360
  37.0110949  16.7863933  18.2195092  37.3956102  16.5671640  18.9711637
  36.7622569  17.6126879  18.3496168  37.0313022  16.8762079  18.3496168
  37.1779489  10.0670348  37.9357676  36.8632930  10.8369911  37.6727239
  36.8569422   9.5040604  37.3509903  37.0838408  10.0980617  37.8099026
  47.7446136  20.5610571  29.2305760  47.4391954  21.2938628  29.5919076
  47.0252352  20.1548500  28.9498546  47.5933479  20.6092304  29.2418897
  38.7529606  22.0434066  25.5613989  38.8268614  21.8809238  26.4155838
  39.5699112  22.2324256  25.3174470  38.8845965  22.0470808  25.6512014
  53.4447929  17.2003571  28.5574105  53.3772429  17.2199531  27.6876691
  53.4303591  18.0433899  28.7829775  53.4326685  17.3277306  28.4626581
  32.5135363  22.3891929  22.5908432  31.6873480  22.6353666  22.4642711
  32.5747354  22.3104010  23.4570490  32.4009530  22.4136878  22.6997376
  34.7311386   8.4560870  23.5503872  33.8633812   8.5283469  23.6161481
  35.0186591   9.2582949  23.7391847  34.6451134   8.5855017  23.5878639
  43.8544275   8.6038729  31.8815194  44.5997867   8.4148540  31.4678619
  43.4381580   9.1296967  31.3229050  43.9029249   8.6540875  31.7379767
  37.2934192  25.0068809  20.2927462  37.5832490  24.6157790  19.5686689
  38.0237672  25.1885514  20.7332737  37.4441076  24.9762623  20.2510269
  51.2306546  15.9747958  26.8320699  51.7814468  15.3416027  27.0717791
  51.2150661  16.5063350  27.5236203  51.3091742  15.9596906  26.9699557
  37.8828937  19.8086555  31.3780592  37.3840630  20.5202323  31.4565481
  38.6929161  20.1287222  31.3398755  37.9285044  19.9613404  31.3837161
  34.1457054  19.0709508  25.6243313  33.8570303  18.4446979  26.1589041
  35.0140402  19.0129795  25.6907994  34.2317306  18.9697052  25.7134268
  44.9334952  14.2144291  25.9425295  44.5899718  13.4934627  26.2932545
  45.0327995  14.0058143  25.1003653  44.8976995  14.0768495  25.8696975
  34.3489328  20.7104759  21.5485678  35.1035296  21.0917798  21.7621141
  33.7559940  21.1615903  22.0032375  34.3726041  20.8333586  21.6468557
  45.3947981  20.6769995  21.4849283  45.9606014  21.3363205  21.4007826
  44.7475885  21.0219694  21.9565685  45.3826738  20.8251937  21.5422040
  36.8095995  12.6667599  36.6742891  35.9995771  12.9725379  36.5632733
  37.2870682  13.3873182  36.7895475  36.7599474  12.8182201  36.6749962
  35.6687554  21.8813320  26.9225794  35.1468308  22.0213612  27.6077658
  36.0561575  21.1223985  27.1127911  35.6491255  21.7898844  27.0526870
  32.6578738  11.9319129  20.9920748  32.3703534  11.5620400  20.2552696
  33.3449207  12.4013984  20.7304453  32.7167636  11.9466098  20.8435824
  41.8654559  23.6208780  20.9086363  41.6241235  22.8876640  20.5013427
  42.0455892  24.1695637  20.2552696  41.8562183  23.5931171  20.7516585
  37.0953880  18.9117339  22.3207285  36.8996663  19.5192074  21.7267588
  37.3188226  18.2185283  21.8398959  37.0988521  18.8994865  22.1623366
  35.4932410  15.7972077  22.4388153  36.2155062  15.9613235  21.9791959
  35.0140403  16.5181742  22.3327493  35.5296141  15.9270307  22.3553767
  43.4525918  12.1335876  27.8184838  42.6137018  12.1597155  27.5823101
  43.5230285  12.7806612  28.3990185  43.3394311  12.2332002  27.8693955
  41.8995196   9.0321253  22.5512454  42.6021549   8.8329001  22.0732412
  41.6339385   8.2597195  22.8581297  41.9641828   8.8884219  22.5257896
  47.3283441  17.3403863  25.1046080  47.2417416  17.4959289  25.9580859
  46.8733921  17.9841938  24.7305485  47.2486698  17.4579618  25.1753187
  30.2306933  12.7100342  21.8406030  30.3323069  13.5126503  22.1687005
  31.0262820  12.5087677  21.5429110  30.3634839  12.7986240  21.8441385
  36.6623752  10.2956538  31.6043335  36.4706949  10.3111673  32.4542758
  37.5122348  10.4920213  31.5809989  36.7599474  10.3270890  31.7266629
  31.0470665  12.8247520  29.5827151  30.9056157  11.9731460  29.7071659
  31.3311229  12.8676180  28.7589357  31.0678511  12.7047270  29.4794775
  41.2009258  14.6614610  23.7271639  40.9543972  14.5810361  24.5608428
  41.5294381  13.8768078  23.5334167  41.2130501  14.5340875  23.8219162
  45.0957306  21.3697969  27.5158421  44.9571666  22.0679015  28.0207163
  44.3157304  21.2146626  27.1594602  44.9600533  21.4498136  27.5384695
  43.4335391  17.6694345  33.7680802  43.4283430  16.7974161  33.7723229
  44.1396385  17.8682514  33.2950258  43.5380395  17.5698219  33.6987838
  37.1606285  17.3971329  33.1394622  37.3049661  17.9772537  32.5037732
  37.5081933  17.7747625  33.8444477  37.2333746  17.5392033  33.1493617
  39.3326202  16.5961497  30.9219754  38.5849516  16.7892511  30.5168032
  39.4867727  15.7706717  30.6843875  39.2448630  16.5026608  30.8265160
  46.5910679  20.7276223  18.2774920  46.2117488  19.9413361  18.2704209
  45.9276925  21.2763080  18.1346564  46.4369154  20.6921047  18.2555717
  39.5727979  10.4912048  31.8115158  40.0300593  11.2236022  31.9387950
  39.6484308  10.0678513  32.5702414  39.6518949  10.5369286  31.9416234
  31.8160970  10.7377867  32.9004601  31.2803160  10.1258226  33.2165369
  31.8778735  11.3126003  33.5538268  31.7456603  10.7324795  33.0440028
  44.0455305   3.6701923  25.6809001  44.1638873   4.1278386  24.9476303
  43.8717481   2.8647184  25.3945218  44.0374476   3.6195695  25.5309934
  39.4157587  24.2789742  22.1163746  40.1807478  24.0099386  21.7946410
  39.3135677  23.7939753  22.8333809  39.5139083  24.1679307  22.1743574
  37.4510357  12.4814152  28.6556982  36.6606432  12.3005612  28.9774318
  37.8470980  11.7041104  28.6387276  37.3927233  12.3401613  28.7009530
  41.9376248  21.3101926  14.0963695  42.7049233  21.3702051  13.6869547
  41.4907557  20.7382367  13.6120014  41.9849675  21.2338502  13.9641406
  42.8354043  20.1156582  26.3816428  42.1599045  19.8841814  26.8829815
  42.8446419  19.5077765  25.7558533  42.7372548  19.9915507  26.3632580
  39.9648187  14.9574411  33.1380481  39.9007329  15.8184367  33.0100617
  40.1045375  14.6406404  32.3376032  39.9763657  15.0374577  33.0008694
  44.8370778  22.9721714  18.6126606  44.9190615  23.7788700  18.2888057
  45.3220520  22.9917673  19.3367379  44.9207936  23.0942377  18.6713504
  38.6467281  17.6506550  27.2796684  38.2229530  17.8511049  26.5435702
  38.4712136  16.8035398  27.3920983  38.5578162  17.5555332  27.1870374
  33.9349726  18.1458602  22.7124656  34.0914345  18.0805404  23.5680648
  34.2750319  18.9207154  22.5003336  34.0082961  18.2507800  22.8079250
  40.4728871  17.5216485  21.5818019  41.0144416  17.0186866  22.0456640
  40.7875430  17.4681680  20.7707505  40.5993268  17.4395906  21.5301831
  38.6415321  22.9133837  18.8658047  38.7108141  22.0548375  19.0051048
  39.4203776  23.1305717  18.5377072  38.7668171  22.8186701  18.8375205
  41.6218140  12.4152790  31.6340320  41.8360110  11.7763704  31.0803674
  41.0052039  12.8598613  31.2048182  41.5623469  12.3862933  31.4890751
  43.0322808  25.3371538  23.0794541  42.6402600  25.0338253  22.3617407
  43.1875880  26.1740628  22.8899494  42.9976398  25.4155375  22.9451038
  30.5083988  15.3293552  23.0285423  30.8882953  15.7478097  22.3645691
  29.9339353  15.9107008  23.3354267  30.4795313  15.4771411  22.9762164
  43.7857228  14.0241855  32.5723627  42.9733910  13.7167745  32.6536800
  44.2447163  13.5440855  33.1366339  43.7337613  13.9078347  32.6678221
  43.1962483  21.9021527  23.0200571  42.8377138  22.0736170  23.7964604
  42.7101194  22.3634732  22.4628570  43.0721180  21.9960498  23.0525840
  41.0132869   5.5252725  26.6227663  40.1426427   5.4991446  26.5760972
  41.2673210   5.3529917  25.8053508  40.9226429   5.4962869  26.4947799
  37.9850848  17.5820692  15.5600806  38.2743373  18.3585575  15.8344380
  38.0722647  17.0709424  16.2615305  38.0405105  17.6212611  15.7043303
  40.8810736  15.4301926  37.3552329  41.3510367  16.0544043  37.7420203
  40.9272616  14.7618902  37.9145544  40.9578612  15.4236606  37.4952401
  38.0382009   7.5358954  28.0801133  37.5220498   6.8439145  28.2052712
  37.4775938   8.2029731  28.0263732  37.8788523   7.5322211  28.0907199
  40.1074243   8.0751914  29.9093986  39.7205996   8.1000945  30.6907515
  39.6207180   7.5093592  29.4568502  39.9786752   7.9947665  29.9581889
  46.0824222  14.6414569  28.5333688  45.6551830  14.5540917  27.7781787
  45.4450275  14.7492344  29.1188532  45.9253830  14.6447229  28.5079129
  39.7731385   4.9618899  32.2004245  40.4024503   5.4979199  31.9225316
  39.9417247   4.8696258  33.0517811  39.8909179   5.0280261  32.2852774
  39.5745299   9.7490094  34.4730657  40.4018729   9.4775243  34.5289272
  39.5953145  10.5450936  34.8294475  39.6998149   9.8269848  34.5345840
  44.4121479  23.4845231  30.6073129  45.2013857  23.1334296  30.7275211
  44.5865077  24.2981619  30.3449763  44.5541760  23.5531088  30.5860997
  34.1514789  16.8953957  27.6600918  33.3102796  16.7957831  27.8679812
  34.3604797  17.6649437  28.0115238  34.0579482  16.9946000  27.7428233
  31.6290356  14.5173494  25.4885668  31.2347054  14.5916505  24.7135778
  31.0730473  14.9031440  26.0394030  31.4893169  14.5855268  25.4553328
  43.2655303   7.4954788  25.1689547  43.4704896   7.4277096  26.0146544
  42.9381727   8.3013609  25.1010725  43.2470551   7.6040728  25.2849202
  37.9631454  14.8235356  26.9098515  37.6594592  14.2691344  27.5108923
  37.2610875  15.0027566  26.4226549  37.8147664  14.7680138  26.9268221
  37.0197551  12.1335876  21.4743217  37.2957286  11.4154788  21.0620785
  37.6196221  12.7320796  21.2664323  37.1490816  12.1156246  21.3823978
  46.5188991   8.0486552  24.6492313  45.9063304   8.5356954  25.0346045
  46.6153166   7.3730043  25.1929964  46.4426888   8.0204861  24.7871171
  40.5208072   9.8049393  19.7489812  40.9751818   9.9759953  20.4737657
  40.9948117   9.1917504  19.3487588  40.6576392   9.7400278  19.7963574
  34.0423597  19.2897719  29.0792551  33.4511530  19.9307217  29.0495566
  34.8044621  19.7135336  29.0523850  34.0671858  19.4473557  29.0707698
  34.4384220  10.4499717  29.7460568  34.8985701  10.5238646  30.4835692
  34.4840327  11.2480971  29.3960390  34.5134775  10.5793864  29.8033325
  36.0867570  11.1166412  34.3132595  35.6953135  10.4699759  34.7488373
  36.2553432  11.7077847  34.9326851  36.0538480  11.1080680  34.4695301
  50.1614019  19.1203489  30.0769829  50.2197142  19.5690137  30.8229805
  49.5280486  19.5302302  29.6399909  50.0765314  19.2477223  30.1222377
  43.8013113  24.7407031  26.5124575  43.6032802  25.2297845  25.8180786
  43.1800824  24.9448272  27.0908708  43.6800678  24.8423569  26.4947798
  37.8621092  16.5091927  20.8534819  38.6063137  16.8966204  21.0917769
  38.0081788  15.6649353  21.0175307  37.9931677  16.4422400  20.9128789
  39.7800667   8.3042186  25.8866681  38.9336712   8.4764994  25.7608031
  39.7771800   7.4991530  26.2232509  39.6547817   8.2103215  25.9177808
  40.8498968  12.0817401  26.7528739  40.3758922  11.5559163  27.2634050
  41.2217103  11.5346874  26.1843600  40.8348857  11.9233397  26.7443886
  47.1135698  17.1419776  28.1635519  46.8733921  16.3026192  28.1677946
  47.5927705  17.2219943  28.8876293  47.1487882  17.0301176  28.2710322
  42.7782467  12.9753955  19.8154492  42.2505486  13.0582699  19.1260201
  43.2378175  13.7171827  19.8119137  42.7684318  13.0974618  19.7129188
  49.1140885  13.9221234  26.1164778  48.8750655  13.8817068  25.2785563
  49.2774786  14.7692386  26.2430499  49.1031189  14.0413319  26.0118260
  45.7186915  18.3071183  32.0469823  46.4421114  17.8543709  31.8680843
  45.4536878  18.5875849  31.2642151  45.7868189  18.2822151  31.9048539
  34.5873784  12.9031356  28.7822703  33.9626854  12.9149748  28.1748655
  34.2519379  13.3791532  29.4313943  34.4459276  12.9749873  28.7879271
  34.7715532  11.2456475  14.8395388  34.4228337  11.8976200  15.3026937
  34.2911978  11.2313588  14.1119259  34.6485776  11.3399528  14.8006479
  42.3319550  21.5457519  18.9464150  43.0553749  22.0115632  18.8028723
  41.8920141  21.6131129  18.1961747  42.3735242  21.6241356  18.8148931
  41.5005705  18.4055061  30.1964839  40.8862698  17.8613111  30.4913474
  42.0172990  17.8919298  29.7170655  41.4861367  18.2491470  30.1689067
  40.7402002  19.4759331  27.9309137  40.3129610  18.8509050  27.4974573
  40.7326946  19.1934253  28.7568144  40.6761143  19.3412112  27.9888965
  33.8564529  14.5124504  30.9997571  34.0158016  13.7567828  31.4049293
  33.6757423  15.0615444  31.6538309  33.8529888  14.4818318  31.1560277
  41.7984832   6.6785740  31.5548361  41.3025393   6.8749414  30.8639927
  42.5553894   7.0778408  31.3837162  41.8371657   6.7663474  31.4268497
  39.0687712  10.3528086  28.1451671  39.0930199   9.8188198  27.4564451
  39.3199185   9.8445395  28.8077262  39.1097630  10.1988990  28.1416316
  26.5795301  17.6359581  27.5794815  26.4738751  17.5906425  26.7146899
  25.8295521  17.9813361  27.8609100  26.4530904  17.6800489  27.4932145
  35.3489034   9.0798904  27.5257415  35.3887405   9.5808111  28.2392123
  34.5238699   9.1709298  27.2563339  35.2328560   9.1680720  27.5907954
  37.5318647  18.6459644  35.6277710  36.6814277  18.7831358  35.7635355
  37.6946774  17.9123422  36.0725412  37.4302510  18.5573745  35.7133309
  36.7703397  15.5959414  29.8231314  35.9395327  15.7633232  29.6166563
  36.7154914  15.2195365  30.6080200  36.6392812  15.5649145  29.9079843
  34.5787181   9.0868307  35.4587725  35.2039884   8.5430439  35.7317157
  34.1237660   8.6063224  34.8895516  34.6035441   8.9357788  35.4149319
  35.1439441  13.8715005  20.3521432  35.2842402  14.3687470  21.0550074
  35.6421974  13.1701300  20.4935646  35.2380522  13.8416984  20.4773011
  35.1739663  14.7382116  17.6814009  35.8084743  15.3342541  17.6163471
  35.2565274  14.4385574  18.4959879  35.2796214  14.7823025  17.7917096
  48.1522229  17.2697594  30.5500373  48.7440070  17.9094844  30.5818571
  48.5881224  16.5720630  30.8392440  48.3040660  17.2615944  30.5981206
  36.7518646  10.6696092  17.6559451  37.0734487  10.1899174  17.0018713
  37.0145590  11.4795738  17.4650263  36.8384672  10.7185990  17.5314943
  42.1477801  10.0568286  30.0182930  42.5732873   9.6040812  29.4066456
  41.5334794   9.5028356  30.2947718  42.1206447   9.9082262  29.9687955
  31.6792651  16.9349957  20.9503555  32.1884881  17.5314465  21.3314861
  32.1526924  16.6675931  20.2679975  31.8236027  16.9835773  20.9058078
  42.5923399  25.6078224  19.1062211  41.8752709  25.4339086  18.6409448
  43.2430137  25.3730796  18.5737697  42.5825250  25.5474016  18.9591428
  40.5872024   6.5283386  23.4273507  39.9440342   6.3781032  23.9958646
  40.2471431   6.2825731  22.6622612  40.4417101   6.4695508  23.3976522
  45.1771371  14.4842812  22.8503516  44.5062561  15.0272515  22.7216581
  45.8711121  14.9537668  22.6085210  45.1800238  14.6341084  22.7959043
  39.2258104  26.6239524  28.0815274  39.0023759  25.8658354  28.4499300
  38.7367948  26.6537546  27.3595714  39.1201553  26.5161749  28.0292015
  45.3399498  10.9398696  25.7593889  45.6927108  10.5128419  26.4339688
  44.4814300  10.8549540  25.8894965  45.2648943  10.8643437  25.8788899
  34.0383183  13.5706216  23.8176735  33.3195172  13.9870348  24.0849599
  34.4095545  14.1360454  23.2668374  33.9875115  13.7155497  23.7759542
  43.3382764  14.2034065  29.7078731  43.3180691  14.0217360  30.5613510
  43.3861965  15.0746083  29.6838315  43.3417405  14.3050603  29.8302026
  41.2401855  26.0030068  26.2875975  40.8418139  26.1132338  25.5196795
  40.6253075  26.2112134  26.8702535  41.0900745  26.0503636  26.2607275
  39.8129757  12.6104216  19.1550115  39.2194597  12.9321212  18.6034682
  39.8505035  11.7645311  18.9471221  39.7304147  12.5328544  19.0432886
  46.7723558   6.0617108  26.6878201  46.2654423   5.3546247  26.6199379
  47.5690992   5.7310297  26.8179278  46.8150797   5.9090259  26.6977196
  42.6887574  12.5683720  22.5851865  42.4601267  12.5916422  21.7430223
  42.9485650  11.7441187  22.7046876  42.6933762  12.4499800  22.4777063
  36.9706802  14.4218193  32.1876965  36.4585706  13.8139376  32.5461997
  36.7986299  15.1374786  32.6550941  36.8696439  14.4381492  32.3093189
  31.8172517  12.8655768  34.8379327  31.6475107  13.5257143  34.2927534
  31.3738467  13.0762330  35.5591816  31.7271851  12.9941751  34.8640957
  35.7432337  11.1060266  23.8806061  36.2189703  11.4677346  23.2456242
  35.2420936  11.7616734  24.1606204  35.7397696  11.2554455  23.8282802
  48.9743698  20.5782034  19.6719066  49.3577304  21.3273391  19.9017163
  48.1787811  20.8247854  19.4131055  48.9137480  20.7251728  19.6676639
  40.8475873  12.3442438  34.6279221  41.4047303  12.1156247  33.9957686
  40.5236938  13.1048103  34.3514433  40.8822283  12.4226274  34.4935718
  38.5658990  15.4310091  35.5931228  39.3170317  15.7461768  35.9070782
  38.7581567  15.2289262  34.7665150  38.7050404  15.4477473  35.5174624
  37.7858990  13.2501466  17.2479445  38.1657955  13.2681095  16.4630560
  37.0451586  13.6955455  17.1270292  37.7327827  13.3183241  17.1143013
  45.4144280  11.5583657  22.8355023  45.4138507  11.4032314  23.6939300
  45.2100460  12.4046644  22.7796409  45.3844058  11.6604278  22.9542963
  27.4761551  14.9823442  27.2513840  27.2983312  14.5300051  27.9768756
  27.1880573  15.7849603  27.4352318  27.4074504  15.0346000  27.3857343
  43.1385132  16.2381159  26.4891230  43.6338798  15.5204154  26.4495251
  42.3284908  15.9351957  26.3745717  43.0929026  16.0878805  26.4664956
  38.5843744  20.0878972  18.6388235  37.7755067  19.7645646  18.5921544
  39.0918653  19.3812194  18.5716483  38.5393411  19.9360289  18.6218529
  29.2134021  17.5151166  24.3635599  28.3479541  17.5036856  24.2518370
  29.3132837  17.3281388  25.2106738  29.1008188  17.4857227  24.4724543
  45.2036951  18.9884847  29.1768359  45.6292023  18.4659269  28.6238784
  44.8393871  19.5865684  28.6556982  45.2123554  18.9995074  29.0177369
  41.7915551  22.7019111  25.5069517  42.2626729  23.4159374  25.6759502
  42.1275729  22.1017861  26.0429386  41.9110666  22.7190575  25.6101892
  38.7085046   7.4746582  32.4627611  38.8412951   6.6777575  32.7908587
  39.0930198   8.0012985  33.0425887  38.7841374   7.4346498  32.5971114
  41.7817401   4.3976908  29.0608705  40.9763364   4.2874637  29.3776543
  41.6524136   4.4989363  28.2038570  41.6437534   4.3960578  28.9816745
  45.2383361  10.5622400  29.6548401  44.6546350  11.0631606  29.2425969
  45.5587655  10.0551956  29.0212725  45.1996537  10.5614235  29.5006909
  37.7778160   9.4762994  19.9307076  38.5993855   9.6461307  19.6888771
  37.3147811   9.6310255  19.2073374  37.8309323   9.5244727  19.7878721
  36.3673492   7.4705757  30.7105505  36.9117905   7.1296883  31.3009847
  36.4210428   8.3291218  30.8526790  36.4562612   7.5461016  30.8187378
  32.1804051  21.2322173  27.5844313  32.7848908  21.1918007  26.9558134
  31.9731364  22.0793325  27.6148369  32.2392948  21.3510175  27.4960429
  41.9947823  23.4988118  28.8006550  42.8146197  23.3551084  29.0622846
  41.7141901  24.1234317  29.3422988  42.0744567  23.5698470  28.9194490
  27.4155333  20.2156790  27.4543236  27.3179611  19.4053062  27.7633293
  28.1984203  20.1948583  27.0689504  27.5171470  20.0923880  27.4430099
  58.4661474  31.1552969  21.7649427  58.4355478  32.0097606  21.9367696
  59.0642822  30.8548262  22.3235570  58.5498631  31.2369466  21.8724229
  51.6661158  30.2428620  26.5202357  50.8099054  30.4037119  26.5711474
  51.7128812  29.3720684  26.5407418  51.5460270  30.1379422  26.5308423
  51.5027258  40.2016708  17.7125136  51.1678627  40.8793629  17.2769358
  52.0154128  39.8122019  17.1242007  51.5292839  40.2441286  17.5611927
  54.5112979  32.3020664  29.1634009  55.0568940  32.9805751  29.2227978
  54.4529856  32.1608125  28.3035590  54.5828894  32.3812666  29.0446069
  56.2878048  33.7305271  20.0367737  56.1717574  34.4812958  20.4659875
  57.0833935  33.4729225  20.2863824  56.3882638  33.8040118  20.1371828
  40.8252099  35.8130017  24.1754695  40.5902283  34.9797669  24.0686964
  40.9637739  36.0934683  23.3615896  40.8107761  35.7313520  24.0397050
  43.1242186  27.9815748  27.0739003  42.5047218  27.3908395  26.9049017
  43.0226050  28.5727183  26.4403326  43.0179862  27.9819830  26.9543992
  48.1708374  37.7199295  21.3237079  48.4924215  38.2604502  20.7198387
  48.8180470  37.1496066  21.4559369  48.3134429  37.7158470  21.2544114
  50.2210082  29.7215289  21.4071466  50.9190246  29.9003417  21.8992929
  50.5362414  29.1985629  20.7841855  50.3705419  29.6709062  21.3873476
  50.4098017  36.1085734  21.3951257  50.8491653  35.5002835  21.8406030
  50.2602680  35.7293108  20.6236722  50.4519483  35.9624206  21.3470425
  48.3936945  25.0907686  25.4892740  48.0640275  25.5418830  24.8196439
  47.7181947  25.0123849  26.0365747  48.2447382  25.1458821  25.4715964
  54.0107354  34.4612916  18.3482026  53.9258649  35.3173882  18.4931595
  54.4991737  34.1857240  19.0164186  54.0696251  34.5470237  18.4684108
  55.6013353  21.0793209  23.7342351  55.2866794  21.7696688  24.1662773
  55.0840295  21.0237991  23.0327852  55.4777823  21.1728098  23.6939300
  54.9425787  31.0797710  19.8479762  54.4137258  31.2957343  20.5077068
  55.4650807  31.7733848  19.7680731  54.9414240  31.2140847  19.9335361
  60.3973840  36.6544014  25.2212806  59.5671543  36.8654658  25.3846223
  60.3483092  35.8281069  24.9455090  60.2680575  36.5633621  25.2050171
  46.8325395  34.9760927  18.6487230  46.2482610  35.4810958  19.0553093
  46.4295490  34.7503314  17.9083821  46.6864698  35.0169175  18.5992255
  51.2902609  31.2226579  17.1256150  51.5298613  31.4304563  16.3131493
  51.6118450  30.4184087  17.2345095  51.3739767  31.1340680  17.0216703
  46.5992899  23.1519975  20.9715688  47.3538867  23.5198292  20.7332738
  46.4220434  23.5259529  21.7394868  46.6847378  23.2618162  21.0500577
  59.8927798  29.3014415  29.0163227  59.0556219  29.3716602  29.2510822
  59.8616029  29.3038910  28.1437530  59.7646080  29.3124642  28.9222775
  44.9549964  25.5590294  17.6693801  44.7725537  25.7762174  16.8434794
  45.8175577  25.6729306  17.7252415  45.0554553  25.6080191  17.5548288
  50.6349683  22.5616704  20.7042825  51.3635844  22.3832659  20.2580981
  50.7244576  23.4034784  20.9150003  50.7556345  22.6600583  20.6696343
  54.6157984  33.4970092  24.6075119  55.3715499  33.9301606  24.6464028
  54.7220308  32.8474861  25.1809755  54.7428154  33.4647575  24.6973144
  57.6538155  37.3243369  25.3577522  57.2173387  37.3280111  26.1136493
  57.3201070  38.0048868  24.9257099  57.5400775  37.4255825  25.4058354
  57.5735638  24.3657197  27.6006950  58.2161546  24.4355301  28.1868865
  57.8258659  23.6986420  27.0986492  57.7057770  24.2783545  27.6134229
  44.5011991  28.8364466  16.1816274  43.7870168  28.5502646  16.5938707
  44.9855960  29.1761092  16.8222662  44.4671354  28.8446116  16.3371909
  60.7882501  34.0424289  24.2497159  61.4498935  33.4814957  24.1493067
  60.1473913  33.5476319  24.5749850  60.7911369  33.8860698  24.2829499
  51.6759309  37.3394420  16.5578082  52.0910457  37.0079444  15.8662578
  50.8451239  37.1063322  16.4298219  51.6147318  37.2565676  16.4368930
  57.0747332  35.0589671  23.9909148  57.3102921  35.2034870  23.1635998
  57.2236896  35.8232079  24.3840661  57.1313135  35.1928726  23.9272752
  58.9037789  33.8991337  21.8278752  59.2346006  34.4318977  21.2218846
  59.4770877  33.9530225  22.4840703  59.0371468  33.9860906  21.8356533
  54.1169678  31.7456240  22.5102332  54.2116532  32.4845534  22.9641957
  53.4928521  31.3173715  22.9436896  54.0378708  31.7917560  22.6410479
  54.3692699  33.5904980  15.7439284  54.2872862  33.6607167  16.6094271
  55.0072420  34.1534723  15.5523024  54.4512536  33.6843951  15.8429233
  52.8086920  25.4594168  25.3117903  52.1043247  24.9703354  25.4701822
  52.8571895  25.4716643  24.4406347  52.7116972  25.3883816  25.2057243
  46.7020582  30.9103480  25.6978705  46.1270174  31.0695648  26.3342666
  46.3256259  30.2738889  25.2347155  46.5623395  30.8401293  25.7233263
  60.0117140  29.1401834  23.3318913  59.7553705  28.3281775  23.1416796
  60.8546454  29.1479401  23.1049101  60.0983166  29.0213831  23.2703730
  54.1920233  23.0801458  28.0695067  54.5730744  22.3979629  28.4562942
  53.3883517  22.7911060  27.8870732  54.1296694  22.9368507  28.0999123
  51.4732809  33.6125434  18.7547890  52.2873448  33.9040327  18.6430662
  51.4091951  32.9585296  18.1806183  51.5835548  33.5590629  18.6536728
  47.3440718  37.0846951  23.8820202  47.9814664  36.8458699  24.4271996
  47.7695789  37.2884110  23.1473363  47.5016884  37.0797961  23.8537360
  47.9843533  32.3049241  18.2195092  48.3688685  32.0856948  18.9711637
  47.7355153  33.1312186  18.3496168  48.0045605  32.3947387  18.3496168
  58.7178720  36.0795879  29.2305760  58.4124537  36.8123936  29.5919076
  57.9984936  35.6733808  28.9498546  58.5666062  36.1277612  29.2418897
  64.4180512  32.7188879  28.5574105  64.3505012  32.7384839  27.6876691
  64.4036175  33.5619207  28.7829775  64.4059269  32.8462614  28.4626581
  45.7043970  23.9746178  23.5503872  44.8366395  24.0468777  23.6161481
  45.9919174  24.7768257  23.7391847  45.6183718  24.1040325  23.5878639
  54.8276859  24.1224037  31.8815194  55.5730451  23.9333848  31.4678619
  54.4114163  24.6482275  31.3229050  54.8761833  24.1726183  31.7379767
  48.2666775  40.5254117  20.2927462  48.5565074  40.1343098  19.5686689
  48.9970256  40.7070822  20.7332737  48.4173659  40.4947931  20.2510269
  62.2039130  31.4933266  26.8320699  62.7547051  30.8601335  27.0717791
  62.1883245  32.0248658  27.5236203  62.2824326  31.4782214  26.9699557
  55.9067536  29.7329599  25.9425295  55.5632302  29.0119934  26.2932545
  56.0060578  29.5243450  25.1003653  55.8709579  29.5953803  25.8696975
  48.3740647  43.8750889  22.1418304  49.0264705  43.3427332  22.3709330
  47.6766255  43.5219542  22.5286178  48.3671364  43.7440412  22.2330472
  45.3221911  36.2290067  21.5485678  46.0767879  36.6103106  21.7621141
  44.7292524  36.6801211  22.0032375  45.3458625  36.3518894  21.6468557
  56.3680565  36.1955303  21.4849283  56.9338597  36.8548513  21.4007826
  55.7208468  36.5405001  21.9565685  56.3559321  36.3437245  21.5422040
  43.6311322  27.4504437  20.9920748  43.3436118  27.0805707  20.2552696
  44.3181790  27.9199292  20.7304453  43.6900219  27.4651406  20.8435824
  52.8387143  39.1394088  20.9086363  52.5973819  38.4061948  20.5013427
  53.0188476  39.6880945  20.2552696  52.8294767  39.1116479  20.7516585
  48.0686464  34.4302647  22.3207285  47.8729246  35.0377382  21.7267588
  48.2920809  33.7370591  21.8398959  48.0721105  34.4180173  22.1623366
  46.4664994  31.3157385  22.4388153  47.1887646  31.4798543  21.9791959
  45.9872986  32.0367050  22.3327493  46.5028724  31.4455615  22.3553767
  54.4258501  27.6521184  27.8184838  53.5869602  27.6782463  27.5823101
  54.4962868  28.2991919  28.3990185  54.3126895  27.7517310  27.8693955
  52.8727779  24.5506561  22.5512454  53.5754132  24.3514309  22.0732412
  52.6071968  23.7782503  22.8581297  52.9374412  24.4069527  22.5257896
  58.3016025  32.8589171  25.1046080  58.2150000  33.0144597  25.9580859
  57.8466505  33.5027246  24.7305485  58.2219282  32.9764926  25.1753187
  41.2039517  28.2285650  21.8406030  41.3055653  29.0311811  22.1687005
  41.9995403  28.0272985  21.5429110  41.3367422  28.3171548  21.8441385
  52.1741841  30.1799918  23.7271639  51.9276555  30.0995669  24.5608428
  52.5026964  29.3953386  23.5334167  52.1863085  30.0526183  23.8219162
  56.0689890  36.8883277  27.5158421  55.9304249  37.5864323  28.0207163
  55.2889888  36.7331934  27.1594602  55.9333117  36.9683444  27.5384695
  50.3058786  32.1146805  30.9219754  49.5582100  32.3077819  30.5168032
  50.4600311  31.2892024  30.6843875  50.2181213  32.0211916  30.8265160
  57.5643263  36.2461531  18.2774920  57.1850071  35.4598669  18.2704209
  56.9009508  36.7948388  18.1346564  57.4101738  36.2106355  18.2555717
  55.0187889  19.1887231  25.6809001  55.1371457  19.6463694  24.9476303
  54.8450064  18.3832492  25.3945218  55.0107060  19.1381003  25.5309934
  50.3890171  39.7975050  22.1163746  51.1540062  39.5284694  21.7946410
  50.2868261  39.3125060  22.8333809  50.4871666  39.6864615  22.1743574
  48.4242941  27.9999460  28.6556982  47.6339015  27.8190920  28.9774318
  48.8203563  27.2226412  28.6387276  48.3659817  27.8586920  28.7009530
  52.9108831  36.8287234  14.0963695  53.6781817  36.8887359  13.6869547
  52.4640140  36.2567675  13.6120014  52.9582259  36.7523810  13.9641406
  53.8086627  35.6341890  26.3816428  53.1331629  35.4027122  26.8829815
  53.8179003  35.0263073  25.7558533  53.7105131  35.5100815  26.3632580
  55.8103362  38.4907022  18.6126606  55.8923199  39.2974008  18.2888057
  56.2953104  38.5102981  19.3367379  55.8940519  38.6127684  18.6713504
  44.9082310  33.6643909  22.7124656  45.0646929  33.5990712  23.5680648
  45.2482903  34.4392462  22.5003336  44.9815545  33.7693108  22.8079250
  51.4461454  33.0401793  21.5818019  51.9877000  32.5372174  22.0456640
  51.7608013  32.9866988  20.7707505  51.5725851  32.9581214  21.5301831
  49.6147904  38.4319145  18.8658047  49.6840724  37.5733683  19.0051048
  50.3936359  38.6491025  18.5377072  49.7400754  38.3372009  18.8375205
  54.0055392  40.8556846  23.0794541  53.6135183  40.5523561  22.3617407
  54.1608464  41.6925936  22.8899494  53.9708982  40.9340683  22.9451038
  54.7589812  29.5427163  32.5723627  53.9466494  29.2353053  32.6536800
  55.2179746  29.0626163  33.1366339  54.7070197  29.4263655  32.6678221
  54.1695066  37.4206835  23.0200571  53.8109721  37.5921478  23.7964604
  53.6833777  37.8820040  22.4628570  54.0453763  37.5145806  23.0525840
  51.9865452  21.0438033  26.6227663  51.1159010  21.0176754  26.5760972
  52.2405794  20.8715225  25.8053508  51.8959013  21.0148177  26.4947799
  48.9583432  33.1006000  15.5600806  49.2475957  33.8770883  15.8344380
  49.0455231  32.5894732  16.2615305  49.0137688  33.1397918  15.7043303
  49.0114593  23.0544262  28.0801133  48.4953082  22.3624453  28.2052712
  48.4508522  23.7215039  28.0263732  48.8521106  23.0507519  28.0907199
  51.0806826  23.5937222  29.9093986  50.6938580  23.6186253  30.6907515
  50.5939764  23.0278900  29.4568502  50.9519335  23.5132972  29.9581889
  57.0556806  30.1599877  28.5333688  56.6284414  30.0726225  27.7781787
  56.4182859  30.2677652  29.1188532  56.8986413  30.1632536  28.5079129
  50.7463968  20.4804207  32.2004245  51.3757086  21.0164507  31.9225316
  50.9149831  20.3881566  33.0517811  50.8641763  20.5465569  32.2852774
  42.6022940  30.0358802  25.4885668  42.2079638  30.1101813  24.7135778
  42.0463057  30.4216748  26.0394030  42.4625752  30.1040576  25.4553328
  54.2387887  23.0140096  25.1689547  54.4437480  22.9462403  26.0146544
  53.9114311  23.8198917  25.1010725  54.2203134  23.1226036  25.2849202
  48.9364038  30.3420664  26.9098515  48.6327175  29.7876652  27.5108923
  48.2343458  30.5212874  26.4226549  48.7880247  30.2865446  26.9268221
  47.9930135  27.6521184  21.4743217  48.2689869  26.9340096  21.0620785
  48.5928804  28.2506104  21.2664323  48.1223399  27.6341554  21.3823978
  57.4921574  23.5671860  24.6492313  56.8795888  24.0542262  25.0346045
  57.5885749  22.8915351  25.1929964  57.4159472  23.5390169  24.7871171
  51.4940655  25.3234701  19.7489812  51.9484402  25.4945261  20.4737657
  51.9680701  24.7102812  19.3487588  51.6308975  25.2585586  19.7963574
  45.4116803  25.9685025  29.7460568  45.8718285  26.0423954  30.4835692
  45.4572910  26.7666279  29.3960390  45.4867359  26.0979172  29.8033325
  61.1346602  34.6388797  30.0769829  61.1929726  35.0875445  30.8229805
  60.5013070  35.0487609  29.6399909  61.0497897  34.7662531  30.1222377
  54.7745697  40.2592339  26.5124575  54.5765386  40.7483153  25.8180786
  54.1533408  40.4633580  27.0908708  54.6533261  40.3608877  26.4947798
  48.8353675  32.0277235  20.8534819  49.5795720  32.4151512  21.0917769
  48.9814371  31.1834661  21.0175307  48.9664260  31.9607708  20.9128789
  50.7533251  23.8227494  25.8866681  49.9069296  23.9950302  25.7608031
  50.7504383  23.0176838  26.2232509  50.6280401  23.7288523  25.9177808
  51.8231551  27.6002709  26.7528739  51.3491505  27.0744471  27.2634050
  52.1949687  27.0532182  26.1843600  51.8081440  27.4418705  26.7443886
  58.0868282  32.6605084  28.1635519  57.8466505  31.8211499  28.1677946
  58.5660289  32.7405251  28.8876293  58.1220465  32.5486484  28.2710322
  53.7515051  28.4939263  19.8154492  53.2238069  28.5768007  19.1260201
  54.2110759  29.2357135  19.8119137  53.7416901  28.6159926  19.7129188
  60.0873469  29.4406542  26.1164778  59.8483239  29.4002376  25.2785563
  60.2507370  30.2877694  26.2430499  60.0763772  29.5598627  26.0118260
  56.6919499  33.8256491  32.0469823  57.4153698  33.3729017  31.8680843
  56.4269461  34.1061157  31.2642151  56.7600772  33.8007459  31.9048539
  45.5606367  28.4216664  28.7822703  44.9359437  28.4335056  28.1748655
  45.2251962  28.8976839  29.4313943  45.4191859  28.4935181  28.7879271
  45.7448116  26.7641783  14.8395388  45.3960920  27.4161508  15.3026937
  45.2644562  26.7498896  14.1119259  45.6218360  26.8584836  14.8006479
  53.3052133  37.0642827  18.9464150  54.0286332  37.5300940  18.8028723
  52.8652724  37.1316436  18.1961747  53.3467826  37.1426664  18.8148931
  52.7717416  22.1971048  31.5548361  52.2757977  22.3934722  30.8639927
  53.5286478  22.5963716  31.3837162  52.8104240  22.2848782  31.4268497
  50.0420295  25.8713394  28.1451671  50.0662782  25.3373506  27.4564451
  50.2931769  25.3630702  28.8077262  50.0830214  25.7174298  28.1416316
  46.3221617  24.5984212  27.5257415  46.3619989  25.0993418  28.2392123
  45.4971282  24.6894606  27.2563339  46.2061143  24.6866028  27.5907954
  46.1172025  29.3900313  20.3521432  46.2574986  29.8872777  21.0550074
  46.6154557  28.6886608  20.4935646  46.2113106  29.3602292  20.4773011
  46.1472247  30.2567424  17.6814009  46.7817327  30.8527849  17.6163471
  46.2297858  29.9570882  18.4959879  46.2528798  30.3008332  17.7917096
  59.1254813  32.7882902  30.5500373  59.7172653  33.4280152  30.5818571
  59.5613807  32.0905938  30.8392440  59.2773244  32.7801252  30.5981206
  47.7251230  26.1881400  17.6559451  48.0467071  25.7084482  17.0018713
  47.9878174  26.9981046  17.4650263  47.8117255  26.2371298  17.5314943
  53.1210385  25.5753594  30.0182930  53.5465456  25.1226120  29.4066456
  52.5067378  25.0213664  30.2947718  53.0939030  25.4267570  29.9687955
  42.6525235  32.4535265  20.9503555  43.1617464  33.0499773  21.3314861
  43.1259507  32.1861239  20.2679975  42.7968611  32.5021080  20.9058078
  53.5655983  41.1263532  19.1062211  52.8485293  40.9524394  18.6409448
  54.2162721  40.8916104  18.5737697  53.5557833  41.0659324  18.9591428
  51.5604608  22.0468693  23.4273507  50.9172926  21.8966340  23.9958646
  51.2204015  21.8011039  22.6622612  51.4149685  21.9880816  23.3976522
  56.1503954  30.0028120  22.8503516  55.4795144  30.5457823  22.7216581
  56.8443704  30.4722976  22.6085210  56.1532822  30.1526391  22.7959043
  56.3132082  26.4584004  25.7593889  56.6659692  26.0313727  26.4339688
  55.4546883  26.3734847  25.8894965  56.2381526  26.3828745  25.8788899
  45.0115767  29.0891524  23.8176735  44.2927756  29.5055656  24.0849599
  45.3828129  29.6545762  23.2668374  44.9607698  29.2340805  23.7759542
  54.3115347  29.7219372  29.7078731  54.2913275  29.5402668  30.5613510
  54.3594548  30.5931391  29.6838315  54.3149988  29.8235911  29.8302026
  50.7862341  28.1289523  19.1550115  50.1927180  28.4506520  18.6034682
  50.8237619  27.2830619  18.9471221  50.7036730  28.0513852  19.0432886
  57.7456142  21.5802416  26.6878201  57.2387006  20.8731555  26.6199379
  58.5423575  21.2495605  26.8179278  57.7883381  21.4275567  26.6977196
  53.6620158  28.0869028  22.5851865  53.4333851  28.1101729  21.7430223
  53.9218234  27.2626495  22.7046876  53.6666346  27.9685108  22.4777063
  46.7164920  26.6245574  23.8806061  47.1922286  26.9862654  23.2456242
  46.2153520  27.2802042  24.1606204  46.7130279  26.7739763  23.8282802
  59.9476282  36.0967342  19.6719066  60.3309887  36.8458699  19.9017163
  59.1520395  36.3433162  19.4131055  59.8870064  36.2437036  19.6676639
  48.7591573  28.7686774  17.2479445  49.1390538  28.7866403  16.4630560
  48.0184169  29.2140763  17.1270292  48.7060411  28.8368549  17.1143013
  56.3876864  27.0768965  22.8355023  56.3871090  26.9217622  23.6939300
  56.1833044  27.9231952  22.7796409  56.3576642  27.1789586  22.9542963
  54.1117716  31.7566467  26.4891230  54.6071381  31.0389462  26.4495251
  53.3017492  31.4537265  26.3745717  54.0661609  31.6064113  26.4664956
  49.5576327  35.6064280  18.6388235  48.7487650  35.2830954  18.5921544
  50.0651236  34.8997502  18.5716483  49.5125994  35.4545597  18.6218529
  56.1769535  34.5070155  29.1768359  56.6024606  33.9844576  28.6238784
  55.8126455  35.1050992  28.6556982  56.1856137  34.5180382  29.0177369
  52.7648134  38.2204419  25.5069517  53.2359312  38.9344681  25.6759502
  53.1008313  37.6203169  26.0429386  52.8843249  38.2375883  25.6101892
  49.6817629  22.9931889  32.4627611  49.8145535  22.1962883  32.7908587
  50.0662782  23.5198292  33.0425887  49.7573958  22.9531806  32.5971114
  52.7549984  19.9162216  29.0608705  51.9495948  19.8059945  29.3776543
  52.6256720  20.0174671  28.2038570  52.6170117  19.9145886  28.9816745
  56.2115945  26.0807707  29.6548401  55.6278934  26.5816914  29.2425969
  56.5320239  25.5737264  29.0212725  56.1729120  26.0799542  29.5006909
  48.7510744  24.9948302  19.9307076  49.5726438  25.1646615  19.6888771
  48.2880395  25.1495563  19.2073374  48.8041906  25.0430035  19.7878721
  47.3406076  22.9891064  30.7105505  47.8850489  22.6482191  31.3009847
  47.3943012  23.8476526  30.8526790  47.4295195  23.0646324  30.8187378
  69.4394057  46.6738277  21.7649427  69.4088062  47.5282914  21.9367696
  70.0375406  46.3733570  22.3235570  69.5231215  46.7554774  21.8724229
  62.6393742  45.7613928  26.5202357  61.7831638  45.9222427  26.5711474
  62.6861396  44.8905992  26.5407418  62.5192853  45.6564730  26.5308423
  57.0234882  55.2976646  22.2839589  56.2717781  54.9192185  22.0555634
  57.4720893  55.3295080  21.5358399  56.9784549  55.2462253  22.1397091
  65.9487459  52.0300454  36.1262813  66.6554226  51.5352485  36.2549748
  66.1375394  52.4709536  35.3965471  66.0815364  52.0218804  36.0371859
  62.4759842  55.7202016  17.7125136  62.1411210  56.3978937  17.2769358
  62.9886712  55.3307327  17.1242007  62.5025423  55.7626594  17.5611927
  62.0164133  57.6716284  23.6536247  62.4003512  58.2403183  23.1141023
  61.9523274  56.9465795  23.1742063  62.0637560  57.6491748  23.5030110
  65.4845563  47.8205972  29.1634009  66.0301523  48.4991059  29.2227978
  65.4262439  47.6793433  28.3035590  65.5561477  47.8997974  29.0446069
  58.6019638  55.3095038  24.5502361  58.7030001  54.4995392  24.8599489
  58.0061383  55.2151985  23.9202040  58.5292177  55.1760067  24.5028600
  67.2610632  49.2490579  20.0367737  67.1450158  49.9998266  20.4659875
  68.0566518  48.9914533  20.2863824  67.3615221  49.3225426  20.1371828
  51.7984682  51.3315325  24.1754695  51.5634867  50.4982977  24.0686964
  51.9370323  51.6119991  23.3615896  51.7840345  51.2498828  24.0397050
  54.0974770  43.5001056  27.0739003  53.4779801  42.9093703  26.9049017
  53.9958633  44.0912491  26.4403326  53.9912445  43.5005138  26.9543992
  59.1440957  53.2384602  21.3237079  59.4656798  53.7789810  20.7198387
  59.7913054  52.6681374  21.4559369  59.2867012  53.2343778  21.2544114
  61.3830601  51.6271042  21.3951257  61.8224236  51.0188143  21.8406030
  61.2335264  51.2478416  20.6236722  61.4252066  51.4809514  21.3470425
  61.3888335  53.0669960  28.2476975  61.6711578  52.2721366  28.0263731
  62.1174495  53.5450548  28.2682036  61.5377899  53.0204557  28.2179990
  59.3669529  40.6092994  25.4892740  59.0372859  41.0604138  24.8196439
  58.6914531  40.5309157  26.0365747  59.2179965  40.6644129  25.4715964
  64.9839937  49.9798224  18.3482026  64.8991232  50.8359190  18.4931595
  65.4724320  49.7042548  19.0164186  65.0428834  50.0655545  18.4684108
  66.5745937  36.5978517  23.7342351  66.2599378  37.2881996  24.1662773
  66.0572878  36.5423299  23.0327852  66.4510407  36.6913406  23.6939300
  65.9158370  46.5983018  19.8479762  65.3869842  46.8142651  20.5077068
  66.4383390  47.2919156  19.7680731  65.9146823  46.7326155  19.9335361
  71.3706423  52.1729322  25.2212806  70.5404126  52.3839966  25.3846223
  71.3215676  51.3466377  24.9455090  71.2413159  52.0818929  25.2050171
  57.8057978  50.4946235  18.6487230  57.2215193  50.9996266  19.0553093
  57.4028073  50.2688622  17.9083821  57.6597282  50.5354483  18.5992255
  59.4316161  55.0033176  28.0560716  58.9143103  54.6440591  27.4522024
  60.1290552  54.4795351  28.0666782  59.4581742  54.8730864  27.9690974
  63.0879753  55.4527991  34.0176889  63.1763099  55.2654131  34.8655099
  63.5169465  54.8065420  33.6181735  63.1641855  55.3290998  34.0848640
  60.6550213  54.7359151  32.9994551  60.0921047  54.3231760  33.5234212
  61.4171236  54.6612056  33.4187694  60.6844661  54.6636551  33.1387551
  62.2635193  46.7411887  17.1256150  62.5031196  46.9489870  16.3131493
  62.5851034  45.9369395  17.2345095  62.3472351  46.6525988  17.0216703
  57.5725483  38.6705282  20.9715688  58.3271451  39.0383600  20.7332738
  57.3953018  39.0444837  21.7394868  57.6579961  38.7803470  21.0500577
  56.2146204  56.7257172  25.6031181  56.9166783  56.2109161  25.6603937
  56.1343687  57.0531323  26.4078056  56.3069965  56.6971398  25.7303973
  70.8660382  44.8199723  29.0163227  70.0288803  44.8901910  29.2510822
  70.8348613  44.8224218  28.1437530  70.7378664  44.8309950  28.9222775
  55.9282548  41.0775601  17.6693801  55.7458121  41.2947482  16.8434794
  56.7908161  41.1914614  17.7252415  56.0287137  41.1265499  17.5548288
  55.5396980  52.9163524  25.1116789  56.3785879  53.1486456  25.1590551
  55.5708749  52.0467835  25.0423824  55.6678697  52.8220470  25.1081434
  61.6082267  38.0802012  20.7042825  62.3368427  37.9017967  20.2580981
  61.6977160  38.9220092  20.9150003  61.7288929  38.1785891  20.6696343
  65.5890567  49.0155399  24.6075119  66.3448082  49.4486914  24.6464028
  65.6952892  48.3660169  25.1809755  65.7160738  48.9832883  24.6973144
  68.6270739  52.8428677  25.3577522  68.1905970  52.8465419  26.1136493
  68.2933654  53.5234176  24.9257099  68.5133359  52.9441133  25.4058354
  68.5468221  39.8842505  27.6006950  69.1894130  39.9540609  28.1868865
  68.7991242  39.2171727  27.0986492  68.6790354  39.7968853  27.6134229
  55.4744575  44.3549774  16.1816274  54.7602752  44.0687954  16.5938707
  55.9588543  44.6946400  16.8222662  55.4403938  44.3631424  16.3371909
  63.3570206  56.7947112  30.3287128  62.5585451  56.5546612  30.5860996
  63.8056217  56.8461505  31.0754175  63.3044817  56.7669503  30.4772052
  71.7615085  49.5609597  24.2497159  72.4231519  49.0000265  24.1493067
  71.1206497  49.0661627  24.5749850  71.7643952  49.4046006  24.2829499
  62.6491893  52.8579728  16.5578082  63.0643041  52.5264752  15.8662578
  61.8183822  52.6248630  16.4298219  62.5879901  52.7750984  16.4368930
  68.0479915  50.5774979  23.9909148  68.2835505  50.7220178  23.1635998
  68.1969479  51.3417387  24.3840661  68.1045719  50.7114033  23.9272752
  69.8770372  49.4176645  21.8278752  70.2078589  49.9504285  21.2218846
  70.4503460  49.4715533  22.4840703  70.0104051  49.5046214  21.8356533
  65.0902261  47.2641548  22.5102332  65.1849116  48.0030842  22.9641957
  64.4661105  46.8359023  22.9436896  65.0111291  47.3102868  22.6410479
  63.3454735  50.4427760  33.1592613  63.9193597  49.8055005  33.3141177
  63.2669539  50.4431843  32.2902270  63.4187970  50.3492872  33.0539024
  65.3425283  49.1090287  15.7439284  65.2605445  49.1792475  16.6094271
  65.9805003  49.6720031  15.5523024  65.4245120  49.2029259  15.8429233
  58.7018454  48.8751025  25.2113810  58.4437698  48.0422760  25.1845110
  58.7566937  49.1008638  24.3706310  58.6718232  48.7848797  25.0833947
  63.7819504  40.9779476  25.3117903  63.0775831  40.4888662  25.4701822
  63.8304478  40.9901951  24.4406347  63.6849556  40.9069124  25.2057243
  57.6753166  46.4288788  25.6978705  57.1002757  46.5880956  26.3342666
  57.2988842  45.7924197  25.2347155  57.5355978  46.3586601  25.7233263
  70.9849724  44.6587142  23.3318913  70.7286289  43.8467083  23.1416796
  71.8279038  44.6664709  23.1049101  71.0715749  44.5399139  23.2703730
  65.1652816  38.5986766  28.0695067  65.5463328  37.9164937  28.4562942
  64.3616100  38.3096368  27.8870732  65.1029278  38.4553814  28.0999123
  62.4465393  49.1310742  18.7547890  63.2606032  49.4225635  18.6430662
  62.3824534  48.4770604  18.1806183  62.5568132  49.0775937  18.6536728
  68.6674883  51.8136738  33.1677466  68.4313520  50.9824803  33.0489526
  69.3118112  51.7622345  33.7532310  68.7269554  51.6834426  33.2363359
  58.3173301  52.6032259  23.8820202  58.9547248  52.3644007  24.4271996
  58.7428373  52.8069418  23.1473363  58.4749467  52.5983269  23.8537360
  58.9576116  47.8234549  18.2195092  59.3421269  47.6042256  18.9711637
  58.7087736  48.6497494  18.3496168  58.9778189  47.9132695  18.3496168
  69.6911304  51.5981187  29.2305760  69.3857121  52.3309244  29.5919076
  68.9717519  51.1919116  28.9498546  69.5398646  51.6462920  29.2418897
  60.6994773  53.0804682  25.5613989  60.7733781  52.9179854  26.4155838
  61.5164279  53.2694871  25.3174470  60.8311132  53.0841424  25.6512014
  75.3913096  48.2374187  28.5574105  75.3237596  48.2570146  27.6876691
  75.3768758  49.0804515  28.7829775  75.3791852  48.3647922  28.4626581
  54.4600530  53.4262545  22.5908432  53.6338647  53.6724282  22.4642711
  54.5212521  53.3474626  23.4570490  54.3474697  53.4507494  22.6997376
  56.6776554  39.4931486  23.5503872  55.8098979  39.5654085  23.6161481
  56.9651758  40.2953565  23.7391847  56.5916302  39.6225633  23.5878639
  65.8009442  39.6409345  31.8815194  66.5463034  39.4519155  31.4678619
  65.3846747  40.1667583  31.3229050  65.8494416  39.6911490  31.7379767
  59.2399359  56.0439425  20.2927462  59.5297657  55.6528406  19.5686689
  59.9702840  56.2256130  20.7332737  59.3906243  56.0133239  20.2510269
  73.1771713  47.0118574  26.8320699  73.7279635  46.3786643  27.0717791
  73.1615828  47.5433966  27.5236203  73.2556909  46.9967522  26.9699557
  57.1805274  58.0206807  23.3587612  56.9605570  57.7304162  24.1514279
  56.9599796  57.3621762  22.8305524  57.1152869  57.8806516  23.3976520
  56.0922222  50.1080124  25.6243313  55.8035470  49.4817595  26.1589041
  56.9605570  50.0500411  25.6907994  56.1782473  50.0067668  25.7134268
  66.8800119  45.2514907  25.9425295  66.5364885  44.5305242  26.2932545
  66.9793162  45.0428758  25.1003653  66.8442162  45.1139110  25.8696975
  59.3473230  59.3936197  22.1418304  59.9997288  58.8612640  22.3709330
  58.6498839  59.0404850  22.5286178  59.3403948  59.2625720  22.2330472
  56.2954495  51.7475375  21.5485678  57.0500463  52.1288414  21.7621141
  55.7025108  52.1986519  22.0032375  56.3191209  51.8704202  21.6468557
  67.3413148  51.7140611  21.4849283  67.9071181  52.3733821  21.4007826
  66.6941052  52.0590309  21.9565685  67.3291905  51.8622553  21.5422040
  54.6043906  42.9689745  20.9920748  54.3168701  42.5991015  20.2552696
  55.2914374  43.4384600  20.7304453  54.6632803  42.9836714  20.8435824
  63.8119727  54.6579395  20.9086363  63.5706402  53.9247256  20.5013427
  63.9921059  55.2066252  20.2552696  63.8027350  54.6301787  20.7516585
  59.0419047  49.9487955  22.3207285  58.8461830  50.5562690  21.7267588
  59.2653393  49.2555899  21.8398959  59.0453688  49.9365481  22.1623366
  57.4397577  46.8342693  22.4388153  58.1620229  46.9983851  21.9791959
  56.9605570  47.5552358  22.3327493  57.4761308  46.9640923  22.3553767
  65.3991085  43.1706492  27.8184838  64.5602185  43.1967771  27.5823101
  65.4695452  43.8177227  28.3990185  65.2859478  43.2702618  27.8693955
  63.8460363  40.0691869  22.5512454  64.5486716  39.8699617  22.0732412
  63.5804552  39.2967811  22.8581297  63.9106995  39.9254835  22.5257896
  69.2748609  48.3774479  25.1046080  69.1882583  48.5329905  25.9580859
  68.8199089  49.0212554  24.7305485  69.1951865  48.4950234  25.1753187
  63.1474425  45.6985226  23.7271639  62.9009139  45.6180977  24.5608428
  63.4759548  44.9138694  23.5334167  63.1595668  45.5711491  23.8219162
  67.0422473  52.4068585  27.5158421  66.9036833  53.1049631  28.0207163
  66.2622471  52.2517242  27.1594602  66.9065700  52.4868752  27.5384695
  65.3800559  48.7064961  33.7680802  65.3748597  47.8344777  33.7723229
  66.0861552  48.9053130  33.2950258  65.4845563  48.6068835  33.6987838
  58.1799207  56.6244716  30.0055649  58.3288771  56.0647632  29.3529054
  58.9599209  56.7036718  30.3888168  58.3173301  56.5530282  29.9652598
  68.5375846  51.7646839  18.2774920  68.1582655  50.9783977  18.2704209
  67.8742092  52.3133696  18.1346564  68.3834321  51.7291663  18.2555717
  60.7052508  56.7959359  31.2840140  60.6296179  56.1268170  31.8390928
  60.6342367  57.4977147  31.7980806  60.6833114  56.8004266  31.4416988
  65.9920472  34.7072539  25.6809001  66.1104040  35.1649002  24.9476303
  65.8182648  33.9017800  25.3945218  65.9839643  34.6566311  25.5309934
  61.3622754  55.3160358  22.1163746  62.1272646  55.0470002  21.7946410
  61.2600844  54.8310368  22.8333809  61.4604250  55.2049923  22.1743574
  63.8841415  52.3472542  14.0963695  64.6514400  52.4072667  13.6869547
  63.4372724  51.7752983  13.6120014  63.9314842  52.2709117  13.9641406
  64.7819211  51.1527198  26.3816428  64.1064212  50.9212430  26.8829815
  64.7911587  50.5448381  25.7558533  64.6837715  51.0286123  26.3632580
  66.7835945  54.0092330  18.6126606  66.8655783  54.8159316  18.2888057
  67.2685687  54.0288289  19.3367379  66.8673103  54.1312992  18.6713504
  60.0944142  60.2027679  29.7418141  60.5840072  59.5038468  29.5593805
  59.5228374  59.9051549  30.3294198  60.0828672  60.0553903  29.8019182
  55.8814893  49.1829217  22.7124656  56.0379513  49.1176020  23.5680648
  56.2215486  49.9577770  22.5003336  55.9548128  49.2878415  22.8079250
  62.4194038  48.5587101  21.5818019  62.9609583  48.0557482  22.0456640
  62.7340597  48.5052296  20.7707505  62.5458435  48.4766522  21.5301831
  66.2911145  52.7689748  38.6944932  67.1046011  52.4974897  38.8550064
  66.1306112  52.4697288  37.8905127  66.3881094  52.6844674  38.5990337
  60.5880488  53.9504452  18.8658047  60.6573308  53.0918991  19.0051048
  61.3668943  54.1676333  18.5377072  60.7133338  53.8557316  18.8375205
  64.9787975  56.3742154  23.0794541  64.5867767  56.0708869  22.3617407
  65.1341048  57.2111244  22.8899494  64.9441565  56.4525990  22.9451038
  52.4549155  46.3664168  23.0285423  52.8348120  46.7848713  22.3645691
  51.8804520  46.9477624  23.3354267  52.4260480  46.5142027  22.9762164
  65.1427650  52.9392143  23.0200571  64.7842305  53.1106785  23.7964604
  64.6566361  53.4005348  22.4628570  65.0186347  53.0331114  23.0525840
  62.9598036  36.5623341  26.6227663  62.0891594  36.5362062  26.5760972
  63.2138377  36.3900533  25.8053508  62.8691596  36.5333485  26.4947799
  59.9316015  48.6191308  15.5600806  60.2208540  49.3956190  15.8344380
  60.0187814  48.1080039  16.2615305  59.9870272  48.6583226  15.7043303
  59.9847177  38.5729570  28.0801133  59.4685665  37.8809761  28.2052712
  59.4241105  39.2400347  28.0263732  59.8253690  38.5692827  28.0907199
  62.0539410  39.1122530  29.9093986  61.6671163  39.1371561  30.6907515
  61.5672347  38.5464208  29.4568502  61.9251919  39.0318280  29.9581889
  66.3032389  53.8296039  33.9667772  66.9412110  53.3356234  33.6330228
  65.6606481  53.7573439  33.3819999  66.3026616  53.7455047  33.8310127
  68.0289389  45.6785184  28.5333688  67.6016998  45.5911533  27.7781787
  67.3915442  45.7862960  29.1188532  67.8718997  45.6817844  28.5079129
  61.7196552  35.9989515  32.2004245  62.3489670  36.5349815  31.9225316
  61.8882414  35.9066874  33.0517811  61.8374346  36.0650877  32.2852774
  66.3586646  54.5215847  30.6073129  67.1479024  54.1704912  30.7275211
  66.5330244  55.3352235  30.3449763  66.5006928  54.5901704  30.5860997
  53.5755523  45.5544109  25.4885668  53.1812221  45.6287121  24.7135778
  53.0195640  45.9402056  26.0394030  53.4358336  45.6225884  25.4553328
  65.2120470  38.5325404  25.1689547  65.4170064  38.4647711  26.0146544
  64.8846894  39.3384225  25.1010725  65.1935718  38.6411344  25.2849202
  58.9662718  43.1706492  21.4743217  59.2422453  42.4525404  21.0620785
  59.5661388  43.7691411  21.2664323  59.0955983  43.1526862  21.3823978
  68.4654158  39.0857168  24.6492313  67.8528471  39.5727570  25.0346045
  68.5618333  38.4100659  25.1929964  68.3892055  39.0575477  24.7871171
  62.4673239  40.8420009  19.7489812  62.9216985  41.0130569  20.4737657
  62.9413285  40.2288120  19.3487588  62.6041559  40.7770894  19.7963574
  72.1079186  50.1574105  30.0769829  72.1662310  50.6060753  30.8229805
  71.4745653  50.5672917  29.6399909  72.0230481  50.2847839  30.1222377
  65.7478281  55.7777646  26.5124575  65.5497969  56.2668461  25.8180786
  65.1265992  55.9818888  27.0908708  65.6265845  55.8794185  26.4947798
  59.8086259  47.5462543  20.8534819  60.5528304  47.9336820  21.0917769
  59.9546955  46.7019969  21.0175307  59.9396844  47.4793016  20.9128789
  61.7265834  39.3412802  25.8866681  60.8801879  39.5135610  25.7608031
  61.7236967  38.5362146  26.2232509  61.6012984  39.2473831  25.9177808
  62.7964135  43.1188017  26.7528739  62.3224089  42.5929779  27.2634050
  63.1682271  42.5717489  26.1843600  62.7814024  42.9604013  26.7443886
  69.0600865  48.1790392  28.1635519  68.8199088  47.3396807  28.1677946
  69.5392872  48.2590559  28.8876293  69.0953049  48.0671792  28.2710322
  64.7247634  44.0124571  19.8154492  64.1970653  44.0953315  19.1260201
  65.1843343  44.7542443  19.8119137  64.7149485  44.1345234  19.7129188
  71.0606052  44.9591849  26.1164778  70.8215822  44.9187684  25.2785563
  71.2239954  45.8063001  26.2430499  71.0496356  45.0783934  26.0118260
  67.6652082  49.3441799  32.0469823  68.3886281  48.8914325  31.8680843
  67.4002045  49.6246464  31.2642151  67.7333356  49.3192767  31.9048539
  56.7180700  42.2827091  14.8395388  56.3693504  42.9346816  15.3026937
  56.2377145  42.2684204  14.1119259  56.5950943  42.3770144  14.8006479
  64.2784717  52.5828135  18.9464150  65.0018916  53.0486248  18.8028723
  63.8385308  52.6501744  18.1961747  64.3200409  52.6611971  18.8148931
  63.4470872  49.4425677  30.1964839  62.8327865  48.8983727  30.4913474
  63.9638157  48.9289913  29.7170655  63.4326534  49.2862086  30.1689067
  62.6867169  50.5129947  27.9309137  62.2594777  49.8879666  27.4974573
  62.6792113  50.2304869  28.7568144  62.6226310  50.3782728  27.9888965
  63.7449999  37.7156356  31.5548361  63.2490560  37.9120030  30.8639927
  64.5019061  38.1149024  31.3837162  63.7836824  37.8034089  31.4268497
  61.0152879  41.3898702  28.1451671  61.0395366  40.8558814  27.4564451
  61.2664352  40.8816010  28.8077262  61.0562797  41.2359606  28.1416316
  57.2954201  40.1169520  27.5257415  57.3352573  40.6178726  28.2392123
  56.4703866  40.2079913  27.2563339  57.1793727  40.2051336  27.5907954
  57.0904608  44.9085621  20.3521432  57.2307569  45.4058085  21.0550074
  57.5887141  44.2071916  20.4935646  57.1845689  44.8787600  20.4773011
  57.1204831  45.7752732  17.6814009  57.7549910  46.3713157  17.6163471
  57.2030441  45.4756190  18.4959879  57.2261382  45.8193640  17.7917096
  70.0987396  48.3068210  30.5500373  70.6905237  48.9465460  30.5818571
  70.5346391  47.6091246  30.8392440  70.2505828  48.2986560  30.5981206
  58.6983813  41.7066708  17.6559451  59.0199655  41.2269790  17.0018713
  58.9610757  42.5166354  17.4650263  58.7849839  41.7556606  17.5314943
  61.9280786  52.7285582  31.1758267  61.4205877  53.2821429  31.6198898
  61.6307432  52.7893872  30.3577042  61.8085671  52.8191893  31.1206724
  64.0942968  41.0938902  30.0182930  64.5198040  40.6411428  29.4066456
  63.4799962  40.5398972  30.2947718  64.0671614  40.9452878  29.9687955
  53.6257819  47.9720573  20.9503555  54.1350048  48.5685080  21.3314861
  54.0992091  47.7046547  20.2679975  53.7701194  48.0206388  20.9058078
  64.5388567  56.6448840  19.1062211  63.8217876  56.4709702  18.6409448
  65.1895304  56.4101412  18.5737697  64.5290417  56.5844632  18.9591428
  62.5337191  37.5654001  23.4273507  61.8905509  37.4151648  23.9958646
  62.1936598  37.3196347  22.6622612  62.3882269  37.5066124  23.3976522
  67.1236538  45.5213428  22.8503516  66.4527728  46.0643130  22.7216581
  67.8176288  45.9908284  22.6085210  67.1265405  45.6711699  22.7959043
  61.1723272  57.6610140  28.0815274  60.9488926  56.9028969  28.4499300
  60.6833115  57.6908161  27.3595714  61.0666721  57.5532365  28.0292015
  67.2864665  41.9769312  25.7593889  67.6392275  41.5499035  26.4339688
  66.4279467  41.8920155  25.8894965  67.2114110  41.9014052  25.8788899
  55.9848350  44.6076832  23.8176735  55.2660339  45.0240964  24.0849599
  56.3560713  45.1731070  23.2668374  55.9340282  44.7526113  23.7759542
  65.2847931  45.2404680  29.7078731  65.2645858  45.0587976  30.5613510
  65.3327132  46.1116699  29.6838315  65.2882572  45.3421219  29.8302026
  59.8201728  57.8810598  25.5352359  59.4062127  57.2184729  25.1456200
  60.5049103  58.0288457  25.0148053  59.8600100  57.8051256  25.4008856
  63.1867023  57.0400684  26.2875975  62.7883306  57.1502954  25.5196795
  62.5718242  57.2482750  26.8702535  63.0365912  57.0874252  26.2607275
  61.7594925  43.6474831  19.1550115  61.1659764  43.9691828  18.6034682
  61.7970202  42.8015927  18.9471221  61.6769314  43.5699160  19.0432886
  68.7188725  37.0987724  26.6878201  68.2119590  36.3916863  26.6199379
  69.5156159  36.7680913  26.8179278  68.7615965  36.9460875  26.6977196
  64.6352741  43.6054336  22.5851865  64.4066434  43.6287037  21.7430223
  64.8950817  42.7811803  22.7046876  64.6398929  43.4870416  22.4777063
  57.6897504  42.1430882  23.8806061  58.1654870  42.5047962  23.2456242
  57.1886103  42.7987350  24.1606204  57.6862863  42.2925071  23.8282802
  70.9208865  51.6152650  19.6719066  71.3042471  52.3644006  19.9017163
  70.1252979  51.8618470  19.4131055  70.8602648  51.7622344  19.6676639
  59.7324157  44.2872082  17.2479445  60.1123122  44.3051711  16.4630560
  58.9916753  44.7326071  17.1270292  59.6792995  44.3553857  17.1143013
  67.3609447  42.5954273  22.8355023  67.3603674  42.4402930  23.6939300
  67.1565627  43.4417260  22.7796409  67.3309225  42.6974894  22.9542963
  65.0850299  47.2751775  26.4891230  65.5803965  46.5574770  26.4495251
  64.2750075  46.9722573  26.3745717  65.0394193  47.1249421  26.4664956
  60.5308911  51.1249588  18.6388235  59.7220234  50.8016262  18.5921544
  61.0383820  50.4182810  18.5716483  60.4858578  50.9730905  18.6218529
  67.1502118  50.0255463  29.1768359  67.5757190  49.5029884  28.6238784
  66.7859038  50.6236300  28.6556982  67.1588721  50.0365690  29.0177369
  56.7856198  58.3219680  27.9365705  57.1002757  59.1356068  27.9443486
  57.1949611  57.9369899  28.6047864  56.8924296  58.3848382  28.0369796
  63.7380718  53.7389727  25.5069517  64.2091896  54.4529989  25.6759502
  64.0740896  53.1388477  26.0429386  63.8575833  53.7561191  25.6101892
  65.8257702  55.3491040  37.6861589  65.9354668  54.5599601  38.0418336
  66.1548599  55.2596976  36.8835927  65.8910108  55.2196893  37.6203979
  64.3754664  53.5307661  32.2697209  63.8275610  52.9065545  32.0017274
  64.8367693  53.7201933  31.5541289  64.3621874  53.4666711  32.1247640
  63.7282568  35.4347523  29.0608705  62.9228532  35.3245253  29.3776543
  63.5989303  35.5359979  28.2038570  63.5902701  35.4331194  28.9816745
  67.1848528  41.5993015  29.6548401  66.6011517  42.1002222  29.2425969
  67.5052822  41.0922572  29.0212725  67.1461704  41.5984850  29.5006909
  59.7243328  40.5133610  19.9307076  60.5459022  40.6831923  19.6888771
  59.2612978  40.6680871  19.2073374  59.7774490  40.5615343  19.7878721
  63.9412990  54.5358734  28.8006550  64.7611364  54.3921700  29.0622846
  63.6607068  55.1604932  29.3422988  64.0209734  54.6069086  28.9194490
  73.6126326  61.2799236  26.5202357  72.7564221  61.4407735  26.5711474
  73.6593979  60.4091300  26.5407418  73.4925437  61.1750038  26.5308423
  67.9967465  70.8161954  22.2839589  67.2450365  70.4377493  22.0555634
  68.4453477  70.8480388  21.5358399  67.9517132  70.7647561  22.1397091
  76.9220042  67.5485762  36.1262813  77.6286809  67.0537793  36.2549748
  77.1107978  67.9894843  35.3965471  77.0547948  67.5404112  36.0371859
  76.4578147  63.3391280  29.1634009  77.0034107  64.0176367  29.2227978
  76.3995023  63.1978741  28.3035590  76.5294061  63.4183282  29.0446069
  69.5752221  70.8280346  24.5502361  69.6762584  70.0180700  24.8599489
  68.9793967  70.7337293  23.9202040  69.5024760  70.6945374  24.5028600
  62.7717266  66.8500633  24.1754695  62.5367450  66.0168285  24.0686964
  62.9102907  67.1305299  23.3615896  62.7572928  66.7684136  24.0397050
  65.0707353  59.0186364  27.0739003  64.4512385  58.4279011  26.9049017
  64.9691217  59.6097799  26.4403326  64.9645029  59.0190446  26.9543992
  72.1675249  60.7585905  21.4071466  72.8655414  60.9374033  21.8992929
  72.4827581  60.2356245  20.7841855  72.3170586  60.7079677  21.3873476
  64.7976486  62.5638645  29.3182572  64.6735183  63.1501091  29.9532390
  65.4494771  62.0698841  29.6194847  64.8750136  62.5777450  29.4568501
  72.3563184  67.1456350  21.3951257  72.7956820  66.5373451  21.8406030
  72.2067847  66.7663724  20.6236722  72.3984650  66.9994821  21.3470425
  69.8234827  65.7400362  28.5970083  70.4683830  65.2472805  28.2781031
  70.0636604  65.8825149  29.4236161  69.9545412  65.6877804  28.6719616
  72.3620919  68.5855268  28.2476975  72.6444161  67.7906674  28.0263731
  73.0907079  69.0635855  28.2682036  72.5110482  68.5389865  28.2179990
  70.3402112  56.1278302  25.4892740  70.0105442  56.5789446  24.8196439
  69.6647114  56.0494465  26.0365747  70.1912549  56.1829437  25.4715964
  77.5478520  52.1163825  23.7342351  77.2331961  52.8067303  24.1662773
  77.0305462  52.0608607  23.0327852  77.4242991  52.2098713  23.6939300
  64.3334590  71.7286304  25.4510901  63.8502169  72.4536793  25.4270485
  65.1457909  72.0262434  25.5621059  64.3825338  71.8788657  25.4638180
  70.4048745  70.5218484  28.0560716  69.8875686  70.1625899  27.4522024
  71.1023136  69.9980659  28.0666782  70.4314326  70.3916172  27.9690974
  71.6282796  70.2544458  32.9994551  71.0653631  69.8417068  33.5234212
  72.3903820  70.1797364  33.4187694  71.6577245  70.1821859  33.1387551
  68.5458067  54.1890590  20.9715688  69.3004035  54.5568907  20.7332738
  68.3685601  54.5630145  21.7394868  68.6312545  54.2988778  21.0500577
  67.1878788  72.2442480  25.6031181  67.8899367  71.7294469  25.6603937
  67.1076271  72.5716631  26.4078056  67.2802548  72.2156706  25.7303973
  68.2357694  62.4818067  34.7311596  68.4078198  62.3723961  35.5796877
  68.7727052  63.1272472  34.4942788  68.3402698  62.5610068  34.8216693
  66.9015131  56.5960909  17.6693801  66.7190704  56.8132790  16.8434794
  67.7640744  56.7099922  17.7252415  67.0019721  56.6450807  17.5548288
  66.5129563  68.4348832  25.1116789  67.3518463  68.6671764  25.1590551
  66.5441332  67.5653143  25.0423824  66.6411281  68.3405778  25.1081434
  67.1382266  68.8549707  29.4130094  67.6780491  68.7120838  30.0833467
  66.4552212  69.2546458  29.7814121  67.1174420  68.8929378  29.5664516
  72.5814850  53.5987320  20.7042825  73.3101011  53.4203275  20.2580981
  72.6709743  54.4405400  20.9150003  72.7021512  53.6971198  20.6696343
  76.5623151  64.5340707  24.6075119  77.3180666  64.9672222  24.6464028
  76.6685475  63.8845477  25.1809755  76.6893322  64.5018191  24.6973144
  62.5419411  65.0749998  29.5664516  62.2757826  64.2589114  29.7255506
  62.5557975  65.1203153  28.6960032  62.5044134  64.9606902  29.4617998
  66.4477158  59.8735082  16.1816274  65.7335335  59.5873262  16.5938707
  66.9321127  60.2131708  16.8222662  66.4136522  59.8816732  16.3371909
  67.2918018  58.6128376  32.2131524  66.5989814  58.1425356  32.4592255
  67.9078345  58.3866680  32.7873231  67.2802548  58.5095508  32.3340676
  62.9512825  65.8608777  26.8476260  62.7688398  65.8355663  25.9948552
  63.6862494  66.3307715  26.8865169  63.0326889  65.9270139  26.7274179
  66.0158577  62.5793780  33.3558369  66.7398549  62.5646811  33.8423264
  66.1174713  63.2889135  32.8580337  66.1376786  62.6818483  33.3537156
  73.3903526  66.0592864  38.2207316  72.5976507  66.3736376  38.4059936
  73.5052453  66.2744333  37.3828101  73.2898936  66.1376701  38.1245651
  76.0634845  62.7826856  22.5102332  76.1581699  63.5216150  22.9641957
  75.4393688  62.3544331  22.9436896  75.9843875  62.8288176  22.6410479
  74.3187319  65.9613068  33.1592613  74.8926180  65.3240312  33.3141177
  74.2402122  65.9617151  32.2902270  74.3920554  65.8678180  33.0539024
  62.9183735  62.7402278  26.9975327  63.4957238  62.6038728  27.6367572
  62.2197797  62.2838062  27.2520911  62.9004757  62.6524544  27.1297617
  69.6751037  64.3936333  25.2113810  69.4170282  63.5608068  25.1845110
  69.7299520  64.6193946  24.3706310  69.6450815  64.3034105  25.0833947
  74.7552088  56.4964784  25.3117903  74.0508414  56.0073970  25.4701822
  74.8037062  56.5087258  24.4406347  74.6582139  56.4254432  25.2057243
  68.6485750  61.9474096  25.6978705  68.0735341  62.1066264  26.3342666
  68.2721426  61.3109505  25.2347155  68.5088562  61.8771909  25.7233263
  72.3159038  60.4197445  30.5571083  71.9273471  59.9951663  29.9023274
  71.6513737  60.6679595  31.0648110  72.1605966  60.3936166  30.5358951
  58.3942568  61.5914171  23.7123145  58.4802820  61.2146039  24.4936675
  59.0218366  61.2174616  23.2343104  58.4999119  61.4799653  23.7568623
  76.1385400  54.1172074  28.0695067  76.5195911  53.4350245  28.4562942
  75.3348684  53.8281676  27.8870732  76.0761861  53.9739122  28.0999123
  69.2905885  68.1217567  23.8820202  69.9279832  67.8829315  24.4271996
  69.7160956  68.3254726  23.1473363  69.4482051  68.1168577  23.8537360
  63.9818527  70.3605904  27.7654506  64.0222672  70.6320755  26.9374286
  64.5413051  70.8847812  28.1812294  64.0701873  70.4781659  27.7046394
  69.9308700  63.3419857  18.2195092  70.3153852  63.1227564  18.9711637
  69.6820320  64.1682802  18.3496168  69.9510772  63.4318003  18.3496168
  70.0977240  56.6226272  37.9357676  69.7830681  57.3925835  37.6727239
  69.7767173  56.0596528  37.3509903  70.0036159  56.6536541  37.8099026
  71.6727357  68.5989990  25.5613989  71.7466365  68.4365162  26.4155838
  72.4896863  68.7880179  25.3174470  71.8043715  68.6026732  25.6512014
  65.4333113  68.9447853  22.5908432  64.6071231  69.1909590  22.4642711
  65.4945105  68.8659933  23.4570490  65.3207280  68.9692802  22.6997376
  67.6509137  55.0116794  23.5503872  66.7831563  55.0839393  23.6161481
  67.9384341  55.8138873  23.7391847  67.5648885  55.1410941  23.5878639
  76.7742026  55.1594653  31.8815194  77.5195618  54.9704463  31.4678619
  76.3579330  55.6852891  31.3229050  76.8227000  55.2096798  31.7379767
  70.8026688  66.3642479  31.3780592  70.3038381  67.0758246  31.4565481
  71.6126912  66.6843145  31.3398755  70.8482794  66.5169327  31.3837161
  68.1537858  73.5392115  23.3587612  67.9338153  73.2489470  24.1514279
  67.9332380  72.8807070  22.8305524  68.0885452  73.3991824  23.3976520
  67.0654805  65.6265432  25.6243313  66.7768054  65.0002903  26.1589041
  67.9338153  65.5685719  25.6907994  67.1515057  65.5252976  25.7134268
  77.8532703  60.7700215  25.9425295  77.5097469  60.0490550  26.2932545
  77.9525745  60.5614066  25.1003653  77.8174746  60.6324418  25.8696975
  67.2687078  67.2660683  21.5485678  68.0233046  67.6473722  21.7621141
  66.6757691  67.7171826  22.0032375  67.2923792  67.3889510  21.6468557
  69.7293746  59.2223523  36.6742891  68.9193521  59.5281303  36.5632733
  70.2068432  59.9429105  36.7895475  69.6797224  59.3738124  36.6749962
  68.5885305  68.4369244  26.9225794  68.0666059  68.5769536  27.6077658
  68.9759325  67.6779908  27.1127911  68.5689006  68.3454768  27.0526870
  65.5776489  58.4875053  20.9920748  65.2901285  58.1176323  20.2552696
  66.2646957  58.9569908  20.7304453  65.6365386  58.5022022  20.8435824
  70.0151631  65.4673263  22.3207285  69.8194413  66.0747998  21.7267588
  70.2385976  64.7741207  21.8398959  70.0186272  65.4550789  22.1623366
  68.4130161  62.3528001  22.4388153  69.1352813  62.5169159  21.9791959
  67.9338154  63.0737666  22.3327493  68.4493891  62.4826231  22.3553767
  76.3723668  58.6891800  27.8184838  75.5334769  58.7153079  27.5823101
  76.4428036  59.3362535  28.3990185  76.2592062  58.7887926  27.8693955
  66.0637777  64.7586073  31.5442293  66.5758874  65.0370327  30.8951053
  65.7774120  65.4975368  31.9105106  66.0972641  64.9088427  31.5032171
  74.8192947  55.5877177  22.5512454  75.5219299  55.3884925  22.0732412
  74.5537135  54.8153119  22.8581297  74.8839579  55.4440143  22.5257896
  63.1504684  59.2656265  21.8406030  63.2520820  60.0682427  22.1687005
  63.9460571  59.0643601  21.5429110  63.2832589  59.3542164  21.8441385
  69.5821503  56.8512462  31.6043335  69.3904700  56.8667597  32.4542758
  70.4320099  57.0476136  31.5809989  69.6797225  56.8826813  31.7266629
  63.9668416  59.3803444  29.5827151  63.8253908  58.5287384  29.7071659
  64.2508979  59.4232104  28.7589357  63.9876262  59.2603194  29.4794775
  74.1207008  61.2170534  23.7271639  73.8741723  61.1366285  24.5608428
  74.4492131  60.4324002  23.5334167  74.1328252  61.0896799  23.8219162
  76.3533142  64.2250268  33.7680802  76.3481181  63.3530085  33.7723229
  77.0594136  64.4238438  33.2950258  76.4578146  64.1254143  33.6987838
  70.0804036  63.9527252  33.1394622  70.2247411  64.5328461  32.5037732
  70.4279684  64.3303549  33.8444477  70.1531497  64.0947956  33.1493617
  72.2523953  63.1517421  30.9219754  71.5047267  63.3448435  30.5168032
  72.4065478  62.3262640  30.6843875  72.1646380  63.0582532  30.8265160
  69.1531790  72.1430024  30.0055649  69.3021354  71.5832940  29.3529054
  69.9331793  72.2222026  30.3888168  69.2905884  72.0715590  29.9652598
  72.4925730  57.0467971  31.8115158  72.9498344  57.7791946  31.9387950
  72.5682059  56.6234437  32.5702414  72.5716700  57.0925210  31.9416234
  64.7358721  57.2933791  32.9004601  64.2000911  56.6814149  33.2165369
  64.7976486  57.8681927  33.5538268  64.6654354  57.2880719  33.0440028
  76.9653056  50.2257847  25.6809001  77.0836624  50.6834310  24.9476303
  76.7915232  49.4203108  25.3945218  76.9572227  50.1751619  25.5309934
  70.3708108  59.0370075  28.6556982  69.5804183  58.8561535  28.9774318
  70.7668731  58.2597028  28.6387276  70.3124984  58.8957536  28.7009530
  75.7551794  66.6712506  26.3816428  75.0796796  66.4397738  26.8829815
  75.7644170  66.0633688  25.7558533  75.6570299  66.5471431  26.3632580
  72.8845938  61.5130335  33.1380481  72.8205079  62.3740291  33.0100617
  73.0243126  61.1962328  32.3376032  72.8961408  61.5930501  33.0008694
  71.5665032  64.2062474  27.2796684  71.1427281  64.4066973  26.5435702
  71.3909887  63.3591322  27.3920983  71.4775913  64.1111255  27.1870374
  66.8547477  64.7014525  22.7124656  67.0112096  64.6361328  23.5680648
  67.1948070  65.4763078  22.5003336  66.9280712  64.8063723  22.8079250
  73.3926622  64.0772409  21.5818019  73.9342167  63.5742790  22.0456640
  73.7073181  64.0237604  20.7707505  73.5191019  63.9951830  21.5301831
  74.5415891  58.9708713  31.6340320  74.7557861  58.3319628  31.0803674
  73.9249790  59.4154537  31.2048182  74.4821220  58.9418857  31.4890751
  63.4281738  61.8849476  23.0285423  63.8080703  62.3034021  22.3645691
  62.8537103  62.4662931  23.3354267  63.3993063  62.0327335  22.9762164
  76.7054979  60.5797779  32.5723627  75.8931661  60.2723669  32.6536800
  77.1644914  60.0996779  33.1366339  76.6535364  60.4634271  32.6678221
  73.9330620  52.0808649  26.6227663  73.0624178  52.0547370  26.5760972
  74.1870961  51.9085841  25.8053508  73.8424180  52.0518793  26.4947799
  73.8008486  61.9857850  37.3552329  74.2708118  62.6099966  37.7420203
  73.8470367  61.3174826  37.9145544  73.8776362  61.9792530  37.4952401
  70.9579760  54.0914877  28.0801133  70.4418249  53.3995069  28.2052712
  70.3973689  54.7585655  28.0263732  70.7986273  54.0878135  28.0907199
  73.0271994  54.6307837  29.9093986  72.6403747  54.6556869  30.6907515
  72.5404931  54.0649516  29.4568502  72.8984502  54.5503588  29.9581889
  72.6929135  51.5174823  32.2004245  73.3222253  52.0535123  31.9225316
  72.8614998  51.4252182  33.0517811  72.8106930  51.5836185  32.2852774
  72.4943050  56.3046018  34.4730657  73.3216479  56.0331167  34.5289272
  72.5150896  57.1006859  34.8294475  72.6195900  56.3825772  34.5345840
  67.0712540  63.4509880  27.6600918  66.2300547  63.3513755  27.8679812
  67.2802548  64.2205361  28.0115238  66.9777233  63.5501924  27.7428233
  64.5488107  61.0729417  25.4885668  64.1544805  61.1472429  24.7135778
  63.9928224  61.4587364  26.0394030  64.4090919  61.1411192  25.4553328
  76.1853054  54.0510711  25.1689547  76.3902647  53.9833019  26.0146544
  75.8579478  54.8569533  25.1010725  76.1668302  54.1596652  25.2849202
  70.8829205  61.3791280  26.9098515  70.5792342  60.8247268  27.5108923
  70.1808626  61.5583490  26.4226549  70.7345415  61.3236062  26.9268221
  69.9395302  58.6891799  21.4743217  70.2155036  57.9710712  21.0620785
  70.5393971  59.2876719  21.2664323  70.0688567  58.6712170  21.3823978
  68.9447556  68.5941000  31.6170613  68.8367911  68.6043063  32.4832671
  69.1543337  69.4195781  31.4275567  68.9597667  68.7182075  31.7174705
  73.4405822  56.3605317  19.7489812  73.8949569  56.5315877  20.4737657
  73.9145868  55.7473428  19.3487588  73.5774143  56.2956202  19.7963574
  66.9621348  65.8453643  29.0792551  66.3709281  66.4863141  29.0495566
  67.7242371  66.2691260  29.0523850  66.9869608  66.0029481  29.0707698
  67.3581971  57.0055641  29.7460568  67.8183452  57.0794570  30.4835692
  67.4038077  57.8036895  29.3960390  67.4332526  57.1349788  29.8033325
  69.0065320  57.6722335  34.3132595  68.6150886  57.0255683  34.7488373
  69.1751183  58.2633771  34.9326851  68.9736231  57.6636603  34.4695301
  70.7818842  63.0647851  20.8534819  71.5260887  63.4522127  21.0917769
  70.9279539  62.2205277  21.0175307  70.9129428  62.9978324  20.9128789
  72.6998418  54.8598110  25.8866681  71.8534463  55.0320918  25.7608031
  72.6969550  54.0547454  26.2232509  72.5745568  54.7659139  25.9177808
  73.7696718  58.6373324  26.7528739  73.2956673  58.1115087  27.2634050
  74.1414854  58.0902797  26.1843600  73.7546607  58.4789321  26.7443886
  75.6980218  59.5309879  19.8154492  75.1703237  59.6138623  19.1260201
  76.1575926  60.2727751  19.8119137  75.6882068  59.6530541  19.7129188
  67.5071534  59.4587280  28.7822703  66.8824605  59.4705672  28.1748655
  67.1717129  59.9347455  29.4313943  67.3657026  59.5305797  28.7879271
  67.6913283  57.8012399  14.8395388  67.3426087  58.4532124  15.3026937
  67.2109729  57.7869512  14.1119259  67.5683527  57.8955452  14.8006479
  64.2197210  67.5187740  30.2226467  63.6897134  66.8280179  30.2721442
  64.4922303  67.5097926  29.3939175  64.1821932  67.4154872  30.1073883
  74.4203456  64.9610985  30.1964839  73.8060449  64.4169035  30.4913474
  74.9370740  64.4475221  29.7170655  74.4059118  64.8047394  30.1689067
  73.6599753  66.0315255  27.9309137  73.2327361  65.4064974  27.4974573
  73.6524697  65.7490177  28.7568144  73.5958894  65.8968036  27.9888965
  66.7762280  61.0680428  30.9997571  66.9355767  60.3123752  31.4049293
  66.5955173  61.6171368  31.6538309  66.7727639  61.0374242  31.1560277
  74.7182583  53.2341664  31.5548361  74.2223144  53.4305338  30.8639927
  75.4751645  53.6334332  31.3837162  74.7569407  53.3219397  31.4268497
  71.9885462  56.9084009  28.1451671  72.0127950  56.3744122  27.4564451
  72.2396936  56.4001318  28.8077262  72.0295381  56.7544913  28.1416316
  59.4993052  64.1915504  27.5794815  59.3936501  64.1462349  26.7146899
  58.7493272  64.5369285  27.8609100  59.3728655  64.2356413  27.4932145
  68.2686785  55.6354828  27.5257415  68.3085156  56.1364034  28.2392123
  67.4436449  55.7265221  27.2563339  68.1526311  55.7236644  27.5907954
  70.4516398  65.2015568  35.6277710  69.6012028  65.3387282  35.7635355
  70.6144525  64.4679346  36.0725412  70.3500261  65.1129669  35.7133309
  69.6901148  62.1515338  29.8231314  68.8593078  62.3189156  29.6166563
  69.6352665  61.7751288  30.6080200  69.5590563  62.1205069  29.9079843
  67.4984931  55.6424230  35.4587725  68.1237635  55.0986363  35.7317157
  67.0435411  55.1619148  34.8895516  67.5233192  55.4913712  35.4149319
  68.0637192  60.4270929  20.3521432  68.2040153  60.9243393  21.0550074
  68.5619725  59.7257224  20.4935646  68.1578273  60.3972908  20.4773011
  68.0937414  61.2938040  17.6814009  68.7282494  61.8898465  17.6163471
  68.1763025  60.9941498  18.4959879  68.1993965  61.3378948  17.7917096
  69.6716397  57.2252016  17.6559451  69.9932238  56.7455098  17.0018713
  69.9343341  58.0351662  17.4650263  69.7582422  57.2741913  17.5314943
  72.9013370  68.2470890  31.1758267  72.3938461  68.8006737  31.6198898
  72.6040016  68.3079180  30.3577042  72.7818255  68.3377201  31.1206724
  75.0675552  56.6124210  30.0182930  75.4930624  56.1596736  29.4066456
  74.4532545  56.0584280  30.2947718  75.0404197  56.4638186  29.9687955
  64.5990402  63.4905881  20.9503555  65.1082631  64.0870388  21.3314861
  65.0724674  63.2231855  20.2679975  64.7433778  63.5391696  20.9058078
  73.5069775  53.0839309  23.4273507  72.8638093  52.9336956  23.9958646
  73.1669182  52.8381655  22.6622612  73.3614852  53.0251432  23.3976522
  78.2597249  57.4954620  25.7593889  78.6124859  57.0684343  26.4339688
  77.4012050  57.4105463  25.8894965  78.1846693  57.4199360  25.8788899
  66.9580934  60.1262139  23.8176735  66.2392923  60.5426272  24.0849599
  67.3293296  60.6916378  23.2668374  66.9072866  60.2711421  23.7759542
  76.2580515  60.7589988  29.7078731  76.2378442  60.5773284  30.5613510
  76.3059715  61.6302007  29.6838315  76.2615156  60.8606527  29.8302026
  74.2026844  67.3477180  35.6327208  74.1622699  66.7026857  35.0472364
  75.0150163  67.2913798  35.9452620  74.3169998  67.2436147  35.5924157
  72.7327508  59.1660139  19.1550115  72.1392347  59.4877136  18.6034682
  72.7702786  58.3201235  18.9471221  72.6501897  59.0884468  19.0432886
  75.6085325  59.1239644  22.5851865  75.3799018  59.1472345  21.7430223
  75.8683401  58.2997111  22.7046876  75.6131513  59.0055724  22.4777063
  69.8904553  60.9774117  32.1876965  69.3783456  60.3695300  32.5461997
  69.7184049  61.6930709  32.6550941  69.7894190  60.9937416  32.3093189
  64.7370268  59.4211692  34.8379327  64.5672858  60.0813067  34.2927534
  64.2936218  59.6318253  35.5591816  64.6469602  59.5497674  34.8640957
  68.6630087  57.6616190  23.8806061  69.1387454  58.0233270  23.2456242
  68.1618687  58.3172658  24.1606204  68.6595446  57.8110379  23.8282802
  73.7673624  58.8998362  34.6279221  74.3245054  58.6712171  33.9957686
  73.4434689  59.6604027  34.3514433  73.8020034  58.9782198  34.4935718
  61.6372332  62.3258558  30.0967817  61.0899052  61.6559203  30.2148685
  62.4264711  61.9588406  30.1611284  61.6724516  62.1723544  30.1236518
  71.4856741  61.9866015  35.5931228  72.2368068  62.3017692  35.9070782
  71.6779317  61.7845186  34.7665150  71.6248155  62.0033397  35.5174624
  70.7056740  59.8057390  17.2479445  71.0855705  59.8237019  16.4630560
  69.9649336  60.2511379  17.1270292  70.6525578  59.8739165  17.1143013
  78.3342031  58.1139581  22.8355023  78.3336257  57.9588238  23.6939300
  78.1298211  58.9602568  22.7796409  78.3041809  58.2160202  22.9542963
  60.3959302  61.5379366  27.2513840  60.2181063  61.0855975  27.9768756
  60.1078324  62.3405527  27.4352318  60.3272255  61.5901923  27.3857343
  76.0582883  62.7937083  26.4891230  76.5536548  62.0760078  26.4495251
  75.2482659  62.4907881  26.3745717  76.0126776  62.6434729  26.4664956
  62.1331772  64.0707089  24.3635599  61.2677291  64.0592780  24.2518370
  62.2330588  63.8837312  25.2106738  62.0205939  64.0413151  24.4724543
  78.1234702  65.5440770  29.1768359  78.5489773  65.0215192  28.6238784
  77.7591622  66.1421608  28.6556982  78.1321304  65.5550997  29.0177369
  67.7588782  73.8404988  27.9365705  68.0735341  74.6541376  27.9443486
  68.1682195  73.4555207  28.6047864  67.8656880  73.9033690  28.0369796
  74.7113301  69.2575035  25.5069517  75.1824480  69.9715297  25.6759502
  75.0473480  68.6573785  26.0429386  74.8308416  69.2746499  25.6101892
  71.6282796  54.0302505  32.4627611  71.7610702  53.2333499  32.7908587
  72.0127949  54.5568908  33.0425887  71.7039125  53.9902422  32.5971114
  75.3487248  69.0492969  32.2697209  74.8008194  68.4250852  32.0017274
  75.8100276  69.2387241  31.5541289  75.3354457  68.9852019  32.1247640
  74.7015151  50.9532831  29.0608705  73.8961115  50.8430561  29.3776543
  74.5721887  51.0545287  28.2038570  74.5635284  50.9516501  28.9816745
  78.1581112  57.1178323  29.6548401  77.5744101  57.6187530  29.2425969
  78.4785406  56.6107880  29.0212725  78.1194287  57.1170158  29.5006909
  70.6975911  56.0318918  19.9307076  71.5191605  56.2017231  19.6888771
  70.2345562  56.1866179  19.2073374  70.7507073  56.0800651  19.7878721
  69.2871243  54.0261680  30.7105505  69.8315656  53.6852807  31.3009847
  69.3408179  54.8847142  30.8526790  69.3760362  54.1016940  30.8187378
  65.1001802  67.7878096  27.5844313  65.7046659  67.7473931  26.9558134
  64.8929114  68.6349248  27.6148369  65.1590699  67.9066099  27.4960429
  60.3353084  66.7712714  27.4543236  60.2377362  65.9608985  27.7633293
  61.1181954  66.7504507  27.0689504  60.4369221  66.6479804  27.4430099
  36.1906034   6.1280143  12.8857264  36.8343490   6.5693307  13.2753422
  36.5162290   5.3233569  12.7987523  36.3337863   6.0745338  12.9302741
  40.8365410   1.3535506  20.9516935  40.9248756   1.1661646  21.7995146
  41.2655122   0.7072935  20.5521782  40.9127512   1.2298514  21.0188687
  38.4035869   0.6366666  19.9334598  37.8406704   0.2239276  20.4574259
  39.1656893   0.5619571  20.3527741  38.4330318   0.5644066  20.0727598
  40.9485469   0.7844525  23.6160719  41.7325886   0.8975373  23.9816461
  40.7482064  -0.0414338  23.8119405  41.0351494   0.6791244  23.6995105
  41.1055862   2.6954627  17.2627175  40.3071108   2.4554127  17.5201043
  41.5541874   2.7469020  18.0094222  41.0530474   2.6677018  17.4112099
  35.9284864   2.5252232  16.9395696  36.0774427   1.9655147  16.2869101
  36.7084866   2.6044233  17.3228215  36.0658957   2.4537797  16.8992645
  38.4538164   2.6966874  18.2180187  38.3781835   2.0275685  18.7730975
  38.3828023   3.3984663  18.7320853  38.4318771   2.7011782  18.3757035
  37.8429799   6.1035194  16.6758188  38.3325729   5.4045983  16.4933852
  37.2714031   5.8059064  17.2634245  37.8314329   5.9561418  16.7359228
  35.7200629  -1.0236792  18.5510660  35.6120984  -1.0134730  19.4172718
  35.9296411  -0.1982012  18.3615614  35.7350740  -0.8995717  18.6514751
  43.4963937   1.6785162  13.4464622  43.2983626   2.1675976  12.7520833
  42.8751648   1.8826403  14.0248755  43.3751502   1.7801700  13.4287845
  39.6766443  -1.3706903  18.1098314  39.1691534  -0.8171056  18.5538944
  39.3793089  -1.3098613  17.2917088  39.5571328  -1.2800592  18.0546771
  38.9208928   3.5617656  15.0155321  38.6974583   2.8036485  15.3839347
  38.4318772   3.5915677  14.2935760  38.8152377   3.4539880  14.9632062
  40.9352679   2.9408199  13.2216022  40.5368963   3.0510469  12.4536842
  40.3203899   3.1490265  13.8042582  40.7851569   2.9881767  13.1947321
  34.5341855   4.2227195  14.8705751  34.8488414   5.0363584  14.8783533
  34.9435268   3.8377414  15.5387911  34.6409953   4.2855898  14.9709843
  43.5743359   1.2498555  24.6201635  43.6840325   0.4607116  24.9758383
  43.9034256   1.1604492  23.8175974  43.6395765   1.1204408  24.5544026
  41.6898647   0.4366249  15.7346597  42.5097021   0.2929215  15.9962892
  41.4092725   1.0612448  16.2763035  41.7695391   0.5076601  15.8534537
  51.3611982   7.1806752  13.4542404  50.5049878   7.3415250  13.5051521
  51.4079636   6.3098816  13.4747465  51.2411094   7.0757554  13.4648470
  45.7453122  16.7169470   9.2179636  44.9936022  16.3385008   8.9895681
  46.1939134  16.7487903   8.4698446  45.7002789  16.6655077   9.0737138
  54.6705699  13.4493277  23.0602860  55.3772466  12.9545308  23.1889795
  54.8593634  13.8902359  22.3305518  54.8033605  13.4411628  22.9711906
  51.1978082  17.1394839   4.6465183  50.8629450  17.8171761   4.2109405
  51.7104952  16.7500150   4.0582054  51.2243663  17.1819417   4.4951974
  50.7382373  19.0909108  10.5876294  51.1221753  19.6596006  10.0481069
  50.6741515  18.3658618  10.1082110  50.7855800  19.0684571  10.4370157
  54.2063803   9.2398796  16.0974056  54.7519763   9.9183882  16.1568025
  54.1480680   9.0986256  15.2375637  54.2779718   9.3190797  15.9786116
  47.3237878  16.7287862  11.4842408  47.4248241  15.9188216  11.7939536
  46.7279624  16.6344808  10.8542087  47.2510417  16.5952890  11.4368646
  55.9828872  10.6683403   6.9707783  55.8668398  11.4191089   7.3999922
  56.7784759  10.4107356   7.2203870  56.0833462  10.7418250   7.0711875
  47.1638618  21.6465451  12.8857264  47.8076073  22.0878615  13.2753422
  47.4894873  20.8418877  12.7987523  47.3070447  21.5930646  12.9302741
  40.5202923  12.7508148  11.1094742  40.2853107  11.9175801  11.0027011
  40.6588563  13.0312814  10.2955943  40.5058585  12.6691652  10.9737097
  42.8193010   4.9193879  14.0079049  42.1998042   4.3286526  13.8389064
  42.7176874   5.5105314  13.3743373  42.7130686   4.9197961  13.8884039
  47.8659198  14.6577426   8.2577126  48.1875039  15.1982633   7.6538434
  48.5131294  14.0874197   8.3899416  48.0085253  14.6536601   8.1884161
  49.9160906   6.6593421   8.3411513  50.6141070   6.8381548   8.8332976
  50.2313238   6.1363760   7.7181902  50.0656243   6.6087193   8.3213523
  42.5462143   8.4646161  16.2522618  42.4220840   9.0508606  16.8872437
  43.1980428   7.9706356  16.5534893  42.6235792   8.4784965  16.3908548
  50.1048841  13.0463866   8.3291304  50.5442477  12.4380966   8.7746077
  49.9553504  12.6671239   7.5576769  50.1470307  12.9002337   8.2810471
  47.5720484  11.6407878  15.5310129  48.2169487  11.1480321  15.2121078
  47.8122261  11.7832664  16.3576208  47.7031069  11.5885320  15.6059663
  50.1106575  14.4862783  15.1817022  50.3929818  13.6914189  14.9603778
  50.8392736  14.9643371  15.2022083  50.2596139  14.4397380  15.1520037
  48.0887769   2.0285817  12.4232787  47.7591099   2.4796961  11.7536486
  47.4132771   1.9501981  12.9705794  47.9398206   2.0836953  12.4056010
  53.7058178  11.3991047   5.2822073  53.6209473  12.2552014   5.4271642
  54.1942561  11.1235371   5.9504232  53.7647075  11.4848368   5.4024155
  54.6376611   8.0175841   6.7819808  54.1088082   8.2335475   7.4417115
  55.1601631   8.7111980   6.7020778  54.6365064   8.1518978   6.8675408
  60.0924664  13.5922146  12.1552853  59.2622367  13.8032789  12.3186269
  60.0433916  12.7659200  11.8795136  59.9631399  13.5011752  12.1390218
  42.0820247  17.6293819  12.3850948  41.5987825  18.3544309  12.3610531
  42.8943566  17.9269949  12.4961106  42.1310995  17.7796173  12.3978227
  48.1534401  16.4226000  14.9900762  47.6361343  16.0633415  14.3862070
  48.8508793  15.8988174  15.0006828  48.1799982  16.2923688  14.9031021
  51.8097993  16.8720814  20.9516935  51.8981339  16.6846954  21.7995146
  52.2387706  16.2258243  20.5521782  51.8860096  16.7483822  21.0188687
  49.3768453  16.1551974  19.9334598  48.8139288  15.7424584  20.4574259
  50.1389477  16.0804879  20.3527741  49.4062902  16.0829374  20.0727598
  44.9364445  18.1449995  12.5371228  45.6385024  17.6301984  12.5943984
  44.8561928  18.4724146  13.3418103  45.0288205  18.1164221  12.6644020
  59.5878622   6.2392546  15.9503274  58.7507043   6.3094733  16.1850869
  59.5566853   6.2417041  15.0777577  59.4596904   6.2502773  15.8562822
  45.9843351   8.3825582  21.6651643  46.1563855   8.2731477  22.5136924
  46.5212709   9.0279987  21.4282835  46.0888355   8.4617584  21.7556739
  44.2615220  14.3356347  12.0456836  45.1004119  14.5679280  12.0930597
  44.2926989  13.4660658  11.9763871  44.3896938  14.2413293  12.0421480
  44.8867923  14.7557222  16.3470141  45.4266148  14.6128353  17.0173514
  44.2037869  15.1553973  16.7154168  44.8660077  14.7936893  16.5004563
  54.3108808  10.4348223  11.5415166  55.0666323  10.8679737  11.5804074
  54.4171132   9.7852992  12.1149802  54.4378978  10.4025707  11.6313191
  57.3488979  14.2621500  12.2917569  56.9124211  14.2658242  13.0476540
  57.0151894  14.9426999  11.8597146  57.2351599  14.3633956  12.3398401
  51.9218053  16.3029833  23.6160719  52.7058469  16.4160681  23.9816461
  51.7214647  15.4770970  23.8119405  52.0084078  16.1976552  23.6995105
  40.2905068  10.9757513  16.5004563  40.0243483  10.1596630  16.6595553
  40.3043632  11.0210668  15.6300078  40.2529790  10.8614418  16.3958045
  45.0403674   4.5135891  19.1471571  44.3475471   4.0432871  19.3932302
  45.6564002   4.2874196  19.7213278  45.0288204   4.4103023  19.2680723
  52.0788446  18.2139935  17.2627175  51.2803692  17.9739435  17.5201043
  52.5274457  18.2654328  18.0094222  52.0263057  18.1862326  17.4112099
  60.4833325  10.9802420  11.1837206  61.1449759  10.4193088  11.0833114
  59.8424737  10.4854451  11.5089897  60.4862193  10.8238829  11.2169546
  51.3710133  14.2772551   3.4918129  51.7861281  13.9457575   2.8002625
  50.5402063  14.0441454   3.3638266  51.3098142  14.1943807   3.3708976
  40.6998482  11.7616292  13.7816307  40.5174055  11.7363178  12.9288599
  41.4348151  12.2315230  13.8205216  40.7812546  11.8277655  13.6614226
  56.7698156  11.9967802  10.9249195  57.0053745  12.1413001  10.0976045
  56.9187720  12.7610210  11.3180708  56.8263959  12.1306857  10.8612798
  43.7644233   8.4801295  20.2898416  44.4884206   8.4654326  20.7763310
  43.8660370   9.1896650  19.7920384  43.8862442   8.5825998  20.2877203
  58.5988613  10.8369468   8.7618798  58.9296830  11.3697108   8.1558893
  59.1721701  10.8908356   9.4180749  58.7322292  10.9239037   8.7696580
  51.1389183  11.9600380  25.1547363  50.3462164  12.2743892  25.3399982
  51.2538110  12.1751848  24.3168147  51.0384593  12.0384217  25.0585697
  53.8120502   8.6834371   9.4442379  53.9067356   9.4223665   9.8982004
  53.1879345   8.2551846   9.8776943  53.7329532   8.7295692   9.5750526
  52.0672976  11.8620584  20.0932659  52.6411837  11.2247828  20.2481223
  51.9887779  11.8624666  19.2242317  52.1406210  11.7685695  19.9879070
  40.6669392   8.6409793  13.9315374  41.2442895   8.5046244  14.5707619
  39.9683454   8.1845577  14.1860958  40.6490413   8.5532059  14.0637663
  47.4236694  10.2943849  12.1453857  47.1655938   9.4615584  12.1185156
  47.4785177  10.5201462  11.3046357  47.3936472  10.2041620  12.0173994
  46.3971406   7.8481611  12.6318752  45.8220998   8.0073780  13.2682713
  46.0207083   7.2117020  12.1687202  46.2574219   7.7779424  12.6573310
  50.0644695   6.3204960  17.4911130  49.6759128   5.8959178  16.8363321
  49.3999393   6.5687110  17.9988157  49.9091623   6.2943682  17.4698998
  51.1683633  10.5503565   5.6887937  51.9824272  10.8418458   5.5770708
  51.1042774   9.8963427   5.1146230  51.2786372  10.4968760   5.5876774
  57.3893123  13.2329561  20.1017513  57.1531761  12.4017626  19.9829573
  58.0336352  13.1815168  20.6872357  57.4487794  13.1027249  20.1703406
  47.0391541  14.0225082  10.8160249  47.6765488  13.7836830  11.3612042
  47.4646613  14.2262241  10.0813410  47.1967708  14.0176093  10.7877406
  41.7304184  16.2613419  14.6994553  41.7708329  16.5328270  13.8714332
  42.2898708  16.7855327  15.1152341  41.8187530  16.3789174  14.6386441
  47.8462897   2.5233787  24.8697723  47.5316338   3.2933350  24.6067285
  47.5252829   1.9604043  24.2849950  47.7521816   2.5544056  24.7439073
  58.4129544  13.0174010  16.1645807  58.1075361  13.7502067  16.5259123
  57.6935760  12.6111939  15.8838593  58.2616886  13.0655743  16.1758944
  49.4213013  14.4997505  12.4954035  49.4952022  14.3372677  13.3495885
  50.2382520  14.6887695  12.2514517  49.5529372  14.5034247  12.5852061
  64.1131336   9.6567011  15.4914151  64.0455836   9.6762970  14.6216738
  64.0986999  10.4997338  15.7169822  64.1010093   9.7840745  15.3966628
  43.1818770  14.8455368   9.5248479  42.3556888  15.0917105   9.3982758
  43.2430761  14.7667449  10.3910537  43.0692937  14.8700317   9.6337423
  47.9617599  17.4632248   7.2267509  48.2515898  17.0721229   6.5026735
  48.6921080  17.6448953   7.6672784  48.1124483  17.4326062   7.1850316
  61.8989953   8.4311397  13.7660746  62.4497875   7.7979466  14.0057838
  61.8834069   8.9626790  14.4576250  61.9775150   8.4160345  13.9039604
  48.5512344  12.2649994  18.3120639  48.0524038  12.9765762  18.3905528
  49.3612569  12.5850661  18.2738802  48.5968451  12.4176843  18.3177208
  45.9023515  19.4399631  10.2927658  45.6823810  19.1496985  11.0854325
  45.6818037  18.7814586   9.7645571  45.8371109  19.2999339  10.3316567
  44.8140462  11.5272947  12.5583360  44.5253711  10.9010418  13.0929087
  45.6823810  11.4693235  12.6248041  44.9000714  11.4260491  12.6474315
  55.6018360   6.6707730  12.8765342  55.2583126   5.9498066  13.2272592
  55.7011402   6.4621582  12.0343700  55.5660403   6.5331934  12.8037022
  48.0691470  20.8129021   9.0758351  48.7215528  20.2805463   9.3049377
  47.3717079  20.4597673   9.4626225  48.0622188  20.6818543   9.1670519
  45.0172735  13.1668198   8.4825725  45.7718703  13.5481237   8.6961188
  44.4243348  13.6179342   8.9372422  45.0409449  13.2897026   8.5808604
  56.0631389  13.1333435   8.4189330  56.6289421  13.7926644   8.3347873
  55.4159292  13.4783133   8.8905732  56.0510145  13.2815376   8.4762087
  47.4779402   5.1231038  23.6082938  46.6679178   5.4288818  23.4972780
  47.9554089   5.8436621  23.7235522  47.4282881   5.2745640  23.6090009
  46.3370962  14.3376759  13.8565841  45.8151715  14.4777051  14.5417705
  46.7244982  13.5787424  14.0467958  46.3174663  14.2462283  13.9866917
  52.5337967  16.0772219   7.8426409  52.2924643  15.3440079   7.4353474
  52.7139300  16.6259076   7.1892743  52.5245591  16.0494610   7.6856632
  47.7637288  11.3680779   9.2547332  47.5680070  11.9755513   8.6607635
  47.9871633  10.6748723   8.7739006  47.7671929  11.3558304   9.0963412
  46.1615818   8.2535516   9.3728200  46.8838469   8.4176675   8.9132006
  45.6823810   8.9745181   9.2667540  46.1979548   8.3833746   9.2893814
  54.1209325   4.5899315  14.7524885  53.2820426   4.6160594  14.5163148
  54.1913692   5.2370051  15.3330232  54.0077719   4.6895441  14.8034002
  43.8123434  10.6593589  18.4782340  44.3244531  10.9377842  17.8291100
  43.5259777  11.3982883  18.8445153  43.8458297  10.8095943  18.4372218
  57.9966849   9.7967302  12.0386127  57.9100823   9.9522728  12.8920905
  57.5417329  10.4405378  11.6645532  57.9170106   9.9143057  12.1093233
  47.3307160   2.7519977  18.5383381  47.1390357   2.7675112  19.3882805
  48.1805756   2.9483652  18.5150036  47.4282882   2.7834329  18.6606676
  41.7154073   5.2810959  16.5167198  41.5739564   4.4294900  16.6411706
  41.9994636   5.3239620  15.6929404  41.7361919   5.1610709  16.4134822
  51.8692665   7.1178049  10.6611686  51.6227379   7.0373800  11.4948475
  52.1977788   6.3331517  10.4674214  51.8813909   6.9904314  10.7559209
  55.7640714  13.8261408  14.4498467  55.6255073  14.5242454  14.9547210
  54.9840712  13.6710065  14.0934649  55.6283941  13.9061575  14.4724742
  54.1018799  10.1257784  20.7020849  54.0966837   9.2537600  20.7063276
  54.8079793  10.3245953  20.2290305  54.2063803  10.0261658  20.6327884
  47.8289692   9.8534768  20.0734669  47.9733068  10.4335976  19.4377779
  48.1765341  10.2311064  20.7784524  47.9017154   9.9955472  20.0833664
  50.0009610   9.0524936  17.8559801  49.2532924   9.2455950  17.4508079
  50.1551135   8.2270156  17.6183922  49.9132037   8.9590047  17.7605207
  46.9017447  18.0437539  16.9395696  47.0507011  17.4840455  16.2869101
  47.6817449  18.1229541  17.3228215  47.0391541  17.9723105  16.8992645
  49.4270748  18.2152182  18.2180187  49.3514419  17.5460993  18.7730975
  49.3560607  18.9169971  18.7320853  49.4051355  18.2197090  18.3757035
  50.2411387   2.9475487  18.7455205  50.6984001   3.6799461  18.8727997
  50.3167715   2.5241952  19.5042460  50.3202357   2.9932725  18.8756281
  42.4844378   3.1941307  19.8344648  41.9486567   2.5821665  20.1505416
  42.5462143   3.7689442  20.4878315  42.4140011   3.1888234  19.9780075
  50.0840995  16.7353181   9.0503793  50.8490886  16.4662825   8.7286457
  49.9819085  16.2503192   9.7673856  50.1822490  16.6242746   9.1083620
  48.1193765   4.9377591  15.5897029  47.3289839   4.7569051  15.9114364
  48.5154387   4.1604543  15.5727323  48.0610641   4.7965052  15.6349577
  53.5037451  12.5720021  13.3156475  52.8282453  12.3405253  13.8169862
  53.5129827  11.9641204  12.6898580  53.4055955  12.4478946  13.2972627
  50.6331595   7.4137850  20.0720528  50.5690736   8.2747806  19.9440664
  50.7728783   7.0969843  19.2716079  50.6447065   7.4938016  19.9348740
  55.5054185  15.4285153   5.5466652  55.5874023  16.2352139   5.2228103
  55.9903928  15.4481112   6.2707426  55.5891343  15.5505816   5.6053551
  49.3150689  10.1069989  14.2136730  48.8912938  10.3074488  13.4775749
  49.1395544   9.2598837  14.3261030  49.2261569  10.0118771  14.1210421
  48.8162382  21.6220502  16.6758188  49.3058313  20.9231291  16.4933852
  48.2446614  21.3244372  17.2634245  48.8046912  21.4746726  16.7359228
  44.6033134  10.6022041   9.6464703  44.7597753  10.5368843  10.5020695
  44.9433727  11.3770593   9.4343383  44.6766369  10.7071239   9.7419297
  51.1412278   9.9779924   8.5158066  51.6827824   9.4750305   8.9796687
  51.4558837   9.9245119   7.7047551  51.2676675   9.8959345   8.4641878
  55.0129386  14.1882572  25.6284978  55.8264251  13.9167720  25.7890111
  54.8524352  13.8890111  24.8245174  55.1099334  14.1037498  25.5330384
  49.3098728  15.3697276   5.7998094  49.3791548  14.5111814   5.9391095
  50.0887183  15.5869157   5.4717119  49.4351578  15.2750140   5.7715251
  52.2901548   4.8716229  18.5680367  52.5043517   4.2327143  18.0143721
  51.6735447   5.3162053  18.1388228  52.2306877   4.8426372  18.4230798
  53.7006216  17.7934977  10.0134588  53.3086007  17.4901692   9.2957454
  53.8559288  18.6304067   9.8239541  53.6659805  17.8718814   9.8791085
  41.1767395   7.7856991   9.9625470  41.5566360   8.2041536   9.2985737
  40.6022760   8.3670447  10.2694313  41.1478720   7.9334850   9.9102211
  54.4540636   6.4805294  19.5063674  53.6417317   6.1731184  19.5876846
  54.9130570   6.0004294  20.0706386  54.4021020   6.3641786  19.6018268
  53.8645890  14.3584966   9.9540618  53.5060545  14.5299609  10.7304650
  53.3784601  14.8198171   9.3968617  53.7404587  14.4523937   9.9865887
  51.5494143   7.8865365  24.2892376  52.0193774   8.5107482  24.6760250
  51.5956023   7.2182341  24.8485591  51.6262019   7.8800046  24.4292447
  55.0250630  15.2488862  20.9007819  55.6630350  14.7549057  20.5670275
  54.3824721  15.1766262  20.3160046  55.0244856  15.1647870  20.7650174
  56.7507630   7.0978008  15.4673735  56.3235238   7.0104356  14.7121834
  56.1133683   7.2055783  16.0528579  56.5937237   7.1010668  15.4419176
  55.0804886  15.9408670  17.5413176  55.8697265  15.5897735  17.6615257
  55.2548484  16.7545058  17.2789809  55.2225168  16.0094527  17.5201044
  44.8198197   9.3517396  14.5940965  43.9786203   9.2521270  14.8019858
  45.0288205  10.1212876  14.9455285  44.7262889   9.4509439  14.6768279
  42.2973764   6.9736933  12.4225715  41.9030461   7.0479945  11.6475825
  41.7413881   7.3594879  12.9734077  42.1576576   7.0418707  12.3893375
  48.6314862   7.2798795  13.8438562  48.3277999   6.7254783  14.4448970
  47.9294282   7.4591005  13.3566596  48.4831071   7.2243577  13.8608268
  46.6933213  14.4948516  18.5510660  46.5853568  14.5050578  19.4172718
  46.9028994  15.3203296  18.3615614  46.7083324  14.6189591  18.6514751
  44.7107005  11.7461158  16.0132597  44.1194938  12.3870656  15.9835612
  45.4728028  12.1698775  15.9863897  44.7355265  11.9036997  16.0047745
  45.1067627   2.9063156  16.6800615  45.5669109   2.9802085  17.4175739
  45.1523734   3.7044410  16.3300436  45.1818183   3.0357303  16.7373372
  46.7550977   3.5729851  21.2472642  46.3636542   2.9263198  21.6828420
  46.9236840   4.1641286  21.8666898  46.7221888   3.5644119  21.4035348
  60.8297426  11.5766928  17.0109876  60.8880550  12.0253577  17.7569852
  60.1963894  11.9865741  16.5739956  60.7448721  11.7040662  17.0562424
  54.4696521  17.1970470  13.4464622  54.2716210  17.6861284  12.7520833
  53.8484232  17.4011711  14.0248755  54.3484085  17.2987008  13.4287845
  48.5304499   8.9655367   7.7874866  49.2746544   9.3529643   8.0257816
  48.6765195   8.1212792   7.9515354  48.6615084   8.8985839   7.8468836
  51.5182375   4.5380840  13.6868785  51.0442329   4.0122602  14.1974096
  51.8900511   3.9910313  13.1183647  51.5032264   4.3796836  13.6783933
  57.7819106   9.5983216  15.0975566  57.5417329   8.7589631  15.1017992
  58.2611113   9.6783382  15.8216339  57.8171289   9.4864615  15.2050368
  59.7824293   6.3784673  13.0504825  59.5434063   6.3380507  12.2125610
  59.9458194   7.2255825  13.1770546  59.7714596   6.4976758  12.9458307
  56.3870323  10.7634622  18.9809870  57.1104522  10.3107148  18.8020890
  56.1220285  11.0439288  18.1982198  56.4551596  10.7385591  18.8388586
  45.2557191   5.3594796  15.7162749  44.6310261   5.3713188  15.1088702
  44.9202786   5.8354971  16.3653990  45.1142683   5.4313313  15.7219318
  41.9682867  13.4195256  17.1566514  41.4382791  12.7287695  17.2061488
  42.2407960  13.4105441  16.3279222  41.9307589  13.3162387  17.0413930
  53.0002957  14.0020958   5.8804196  53.7237156  14.4679071   5.7368770
  52.5603548  14.0694568   5.1301793  53.0418649  14.0804795   5.7488978
  52.1689112  10.8618500  17.1304885  51.5546105  10.3176551  17.4253521
  52.6856397  10.3482737  16.6510701  52.1544775  10.7054909  17.1029114
  51.4085409  11.9322770  14.8649184  50.9813018  11.3072489  14.4314619
  51.4010354  11.6497692  15.6908191  51.3444551  11.7975551  14.9229012
  44.5247937   6.9687943  17.9337618  44.6841423   6.2131267  18.3389340
  44.3440830   7.5178883  18.5878356  44.5213296   6.9381757  18.0900324
  49.7371119   2.8091525  15.0791718  49.7613606   2.2751637  14.3904498
  49.9882593   2.3008834  15.7417309  49.7781038   2.6552429  15.0756363
  37.2478709  10.0923020  14.5134862  37.1422158  10.0469864  13.6486946
  36.4978929  10.4376800  14.7949147  37.1214312  10.1363928  14.4272192
  46.0172441   1.5362343  14.4597462  46.0570813   2.0371550  15.1732170
  45.1922106   1.6272737  14.1903385  45.9011967   1.6244159  14.5248000
  48.2002054  11.1023083  22.5617757  47.3497685  11.2394797  22.6975402
  48.3630182  10.3686861  23.0065459  48.0985918  11.0137184  22.6473356
  47.4386805   8.0522853  16.7571361  46.6078734   8.2196671  16.5506609
  47.3838322   7.6758804  17.5420247  47.3076220   8.0212584  16.8419889
  45.2470588   1.5431746  22.3927772  45.8723291   0.9993879  22.6657204
  44.7921068   1.0626663  21.8235562  45.2718849   1.3921227  22.3489366
  58.8205637   9.7261033  17.4840420  59.4123477  10.3658284  17.5158618
  59.2564631   9.0284070  17.7732487  58.9724068   9.7179383  17.5321253
  50.6499027  14.1478405  18.1098314  50.1424118  14.7014252  18.5538944
  50.3525673  14.2086695  17.2917088  50.5303912  14.2384716  18.0546771
  53.2606807  18.0641663   6.0402257  52.5436117  17.8902525   5.5749495
  53.9113545  17.8294235   5.5077743  53.2508657  18.0037455   5.8931475
  55.8454778   6.9406251   9.7843562  55.1745968   7.4835954   9.6556628
  56.5394528   7.4101107   9.5425257  55.8483646   7.0904523   9.7299090
  49.8941512  19.0802963  15.0155321  49.6707166  18.3221793  15.3839347
  49.4051355  19.1100985  14.2935760  49.7884961  18.9725188  14.9632062
  44.7066591   6.0269655  10.7516782  43.9878580   6.4433787  11.0189646
  45.0778953   6.5923894  10.2008420  44.6558522   6.1718936  10.7099589
  54.0066171   6.6597504  16.6418778  53.9864099   6.4780799  17.4953557
  54.0545372   7.5309522  16.6178362  54.0100812   6.7614042  16.7642073
  51.9512501  13.2484696  22.5667255  51.9108356  12.6034373  21.9812410
  52.7635820  13.1921313  22.8792667  52.0655655  13.1443663  22.5264204
  48.5419969  19.3003422  12.4692405  48.1280367  18.6377552  12.0796247
  49.2267343  19.4481280  11.9488100  48.5818341  19.2244080  12.3348903
  51.9085263  18.4593507  13.2216022  51.5101546  18.5695777  12.4536842
  51.2936483  18.6675573  13.8042582  51.7584152  18.5067075  13.1947321
  53.3570982   5.0247159   9.5191912  53.1284675   5.0479861   8.6770270
  53.6169058   4.2004626   9.6386922  53.3617170   4.9063239   9.4117110
  47.6390210   6.8781632  19.1217012  47.1269113   6.2702815  19.4802044
  47.4669706   7.5938225  19.5890988  47.5379847   6.8944932  19.2433236
  42.4855925   5.3219208  21.7719374  42.3158515   5.9820582  21.2267581
  42.0421875   5.5325769  22.4931863  42.3955258   5.4505190  21.7981003
  46.4115744   3.5623705  10.8146108  46.8873110   3.9240785  10.1796289
  45.9104344   4.2180173  11.0946250  46.4081103   3.7117894  10.7622849
  51.5159280   4.8005877  21.5619268  52.0730711   4.5719686  20.9297733
  51.1920345   5.5611542  21.2854480  51.5505691   4.8789714  21.4275765
  39.3857989   8.2266073  17.0307864  38.8384709   7.5566719  17.1488732
  40.1750367   7.8595921  17.0951331  39.4210173   8.0731060  17.0576564
  49.2342398   7.8873530  22.5271275  49.9853725   8.2025207  22.8410829
  49.4264974   7.6852701  21.7005197  49.3733812   7.9040912  22.4514671
  38.1444959   7.4386881  14.1853887  37.9666720   6.9863490  14.9108802
  37.8563981   8.2413042  14.3692364  38.0757912   7.4909439  14.3197390
  53.8068540   8.6944598  13.4231277  54.3022205   7.9767593  13.3835297
  52.9968316   8.3915396  13.3085764  53.7612433   8.5442245  13.4005003
  49.2527151  12.5442412   5.5728282  48.4438474  12.2209085   5.5261591
  49.7602060  11.8375634   5.5056530  49.2076818  12.3923728   5.5558576
  39.8817429   9.9714605  11.2975646  39.0162948   9.9600295  11.1858417
  39.9816244   9.7844828  12.1446785  39.7691596   9.9420666  11.4064590
  55.8720359  11.4448286  16.1108406  56.2975430  10.9222708  15.5578831
  55.5077279  12.0429123  15.5897029  55.8806961  11.4558513  15.9517416
  45.5074438  19.7412503  14.8705751  45.8220997  20.5548892  14.8783533
  45.9167852  19.3562722  15.5387911  45.6142536  19.8041206  14.9709843
  52.4598958  15.1582550  12.4409563  52.9310136  15.8722813  12.6099549
  52.7959137  14.5581300  12.9769433  52.5794073  15.1754014  12.5441939
  54.5475943  16.7683863  24.6201635  54.6572908  15.9792424  24.9758383
  54.8766839  16.6789800  23.8175974  54.6128348  16.6389716  24.5544026
  53.0972904  14.9500484  19.2037256  52.5493850  14.3258368  18.9357321
  53.5585933  15.1394756  18.4881335  53.0840114  14.8859534  19.0587687
  42.8487459  13.6885612  14.5184360  43.4532316  13.6481446  13.8898181
  42.6414771  14.5356764  14.5488416  42.9076356  13.8073614  14.4300476
  52.6631231  15.9551557  15.7346597  53.4829605  15.8114523  15.9962892
  52.3825308  16.5797756  16.2763035  52.7427974  16.0261909  15.8534537
  38.0838741  12.6720229  14.3883283  37.9863019  11.8616501  14.6973340
  38.8667611  12.6512023  14.0029551  38.1854877  12.5487319  14.3770146
  62.3344566  22.6992060  13.4542404  61.4782461  22.8600558  13.5051521
  62.3812220  21.8284124  13.4747465  62.2143677  22.5942861  13.4648470
  56.7185706  32.2354777   9.2179636  55.9668605  31.8570316   8.9895681
  57.1671717  32.2673211   8.4698446  56.6735372  32.1840385   9.0737138
  65.6438282  28.9678585  23.0602860  66.3505050  28.4730616  23.1889795
  65.8326218  29.4087667  22.3305518  65.7766188  28.9596936  22.9711906
  62.1710666  32.6580147   4.6465183  61.8362034  33.3357069   4.2109405
  62.6837536  32.2685458   4.0582054  62.1976247  32.7004725   4.4951974
  61.7114957  34.6094416  10.5876294  62.0954336  35.1781314  10.0481069
  61.6474098  33.8843926  10.1082110  61.7588384  34.5869879  10.4370157
  65.1796387  24.7584104  16.0974056  65.7252347  25.4369190  16.1568025
  65.1213263  24.6171564  15.2375637  65.2512301  24.8376105  15.9786116
  58.2970462  32.2473170  11.4842408  58.3980825  31.4373524  11.7939536
  57.7012207  32.1530116  10.8542087  58.2243000  32.1138198  11.4368646
  66.9561456  26.1868711   6.9707783  66.8400982  26.9376397   7.3999922
  67.7517342  25.9292664   7.2203870  67.0566045  26.2603558   7.0711875
  58.1371201  37.1650759  12.8857264  58.7808657  37.6063923  13.2753422
  58.4627457  36.3604185  12.7987523  58.2803030  37.1115954  12.9302741
  51.4935506  28.2693456  11.1094742  51.2585691  27.4361109  11.0027011
  51.6321147  28.5498122  10.2955943  51.4791169  28.1876960  10.9737097
  53.7925594  20.4379187  14.0079049  53.1730625  19.8471834  13.8389064
  53.6909457  21.0290622  13.3743373  53.6863269  20.4383269  13.8884039
  58.8391781  30.1762734   8.2577126  59.1607622  30.7167941   7.6538434
  59.4863878  29.6059505   8.3899416  58.9817836  30.1721909   8.1884161
  60.8893489  22.1778729   8.3411513  61.5873654  22.3566856   8.8332976
  61.2045822  21.6549068   7.7181902  61.0388826  22.1272501   8.3213523
  53.5194727  23.9831468  16.2522618  53.3953423  24.5693914  16.8872437
  54.1713011  23.4891664  16.5534893  53.5968376  23.9970273  16.3908548
  61.0781425  28.5649174   8.3291304  61.5175060  27.9566274   8.7746077
  60.9286087  28.1856547   7.5576769  61.1202890  28.4187645   8.2810471
  58.5453068  27.1593185  15.5310129  59.1902070  26.6665629  15.2121078
  58.7854845  27.3017972  16.3576208  58.6763653  27.1070628  15.6059663
  61.0839159  30.0048091  15.1817022  61.3662402  29.2099497  14.9603778
  61.8125319  30.4828679  15.2022083  61.2328723  29.9582688  15.1520037
  59.0620353  17.5471125  12.4232787  58.7323683  17.9982269  11.7536486
  58.3865355  17.4687289  12.9705794  58.9130789  17.6022260  12.4056010
  64.6790761  26.9176355   5.2822073  64.5942056  27.7737322   5.4271642
  65.1675144  26.6420679   5.9504232  64.7379658  27.0033676   5.4024155
  65.6109194  23.5361149   6.7819808  65.0820666  23.7520783   7.4417115
  66.1334214  24.2297288   6.7020778  65.6097647  23.6704286   6.8675408
  71.0657247  29.1107454  12.1552853  70.2354950  29.3218097  12.3186269
  71.0166500  28.2844508  11.8795136  70.9363983  29.0197060  12.1390218
  57.5008802  27.4324366   5.5827276  56.9166017  27.9374397   5.9893140
  57.0978897  27.2066753   4.8423868  57.3548106  27.4732614   5.5332302
  53.0552831  33.1479127  12.3850948  52.5720409  33.8729617  12.3610531
  53.8676149  33.4455257  12.4961106  53.1043579  33.2981481  12.3978227
  59.1266985  31.9411308  14.9900762  58.6093927  31.5818723  14.3862070
  59.8241376  31.4173482  15.0006828  59.1532566  31.8108996  14.9031021
  62.7830577  32.3906122  20.9516935  62.8713923  32.2032262  21.7995146
  63.2120289  31.7443551  20.5521782  62.8592679  32.2669129  21.0188687
  60.3501037  31.6737282  19.9334598  59.7871871  31.2609892  20.4574259
  61.1122060  31.5990187  20.3527741  60.3795485  31.6014682  20.0727598
  57.2676307  15.6083414   7.9055735  58.0222275  15.9761731   7.6672785
  57.0903841  15.9822968   8.6734914  57.3530785  15.7181602   7.9840623
  55.9097028  33.6635303  12.5371228  56.6117607  33.1487292  12.5943984
  55.8294511  33.9909454  13.3418103  56.0020789  33.6349529  12.6644020
  70.5611206  21.7577854  15.9503274  69.7239627  21.8280041  16.1850869
  70.5299437  21.7602349  15.0777577  70.4329488  21.7688081  15.8562822
  56.9575935  23.9010890  21.6651643  57.1296438  23.7916784  22.5136924
  57.4945292  24.5465295  21.4282835  57.0620939  23.9802891  21.7556739
  55.6233372  18.0153733   4.6033848  55.4408945  18.2325613   3.7774841
  56.4858985  18.1292745   4.6592462  55.7237961  18.0643631   4.4888335
  55.2347803  29.8541655  12.0456836  56.0736703  30.0864588  12.0930597
  55.2659573  28.9845966  11.9763871  55.3629521  29.7598601  12.0421480
  55.8600507  30.2742530  16.3470141  56.3998731  30.1313661  17.0173514
  55.1770453  30.6739281  16.7154168  55.8392660  30.3122201  16.5004563
  65.2841391  25.9533531  11.5415166  66.0398906  26.3865045  11.5804074
  65.3903716  25.3038300  12.1149802  65.4111562  25.9211015  11.6313191
  68.3221562  29.7806808  12.2917569  67.8856794  29.7843550  13.0476540
  67.9884478  30.4612307  11.8597146  68.2084182  29.8819264  12.3398401
  62.8950636  31.8215141  23.6160719  63.6791053  31.9345989  23.9816461
  62.6947231  30.9956278  23.8119405  62.9816662  31.7161860  23.6995105
  51.2637652  26.4942821  16.5004563  50.9976067  25.6781938  16.6595553
  51.2776216  26.5395976  15.6300078  51.2262374  26.3799726  16.3958045
  68.2419045  16.8220636  14.5346997  68.8844954  16.8918740  15.1208912
  68.4942066  16.1549859  14.0326538  68.3741178  16.7346984  14.5474276
  55.1695399  21.2927905   3.1156321  54.4553576  21.0066085   3.5278753
  55.6539367  21.6324531   3.7562708  55.1354762  21.3009555   3.2711956
  56.0136258  20.0321199  19.1471571  55.3208055  19.5618179  19.3932302
  56.6296585  19.8059504  19.7213278  56.0020788  19.9288331  19.2680723
  63.0521029  33.7325243  17.2627175  62.2536275  33.4924743  17.5201043
  63.5007041  33.7839636  18.0094222  62.9995641  33.7047634  17.4112099
  71.4565909  26.4987728  11.1837206  72.1182343  25.9378396  11.0833114
  70.8157321  26.0039759  11.5089897  71.4594776  26.3424137  11.2169546
  62.3442716  29.7957859   3.4918129  62.7593865  29.4642883   2.8002625
  61.5134646  29.5626761   3.3638266  62.2830725  29.7129115   3.3708976
  51.6731065  27.2801600  13.7816307  51.4906638  27.2548486  12.9288599
  52.4080734  27.7500538  13.8205216  51.7545129  27.3462962  13.6614226
  67.7430739  27.5153110  10.9249195  67.9786329  27.6598309  10.0976045
  67.8920303  28.2795518  11.3180708  67.7996543  27.6492165  10.8612798
  54.7376817  23.9986603  20.2898416  55.4616789  23.9839634  20.7763310
  54.8392953  24.7081958  19.7920384  54.8595026  24.1011306  20.2877203
  69.5721196  26.3554776   8.7618798  69.9029413  26.8882416   8.1558893
  70.1454284  26.4093664   9.4180749  69.7054875  26.4424345   8.7696580
  62.1121766  27.4785688  25.1547363  61.3194747  27.7929200  25.3399982
  62.2270693  27.6937156  24.3168147  62.0117177  27.5569524  25.0585697
  64.7853085  24.2019679   9.4442379  64.8799940  24.9408973   9.8982004
  64.1611929  23.7737154   9.8776943  64.7062115  24.2480999   9.5750526
  63.0405559  27.3805891  20.0932659  63.6144421  26.7433136  20.2481223
  62.9620363  27.3809974  19.2242317  63.1138794  27.2871003  19.9879070
  51.6401976  24.1595101  13.9315374  52.2175478  24.0231552  14.5707619
  50.9416037  23.7030885  14.1860958  51.6222997  24.0717367  14.0637663
  58.3969278  25.8129157  12.1453857  58.1388522  24.9800891  12.1185156
  58.4517761  26.0386770  11.3046357  58.3669056  25.7226928  12.0173994
  63.4770328  17.9157607  12.2457950  62.7726655  17.4266793  12.4041869
  63.5255302  17.9280082  11.3746394  63.3800379  17.8447255  12.1397289
  57.3703990  23.3666919  12.6318752  56.7953581  23.5259087  13.2682713
  56.9939666  22.7302328  12.1687202  57.2306802  23.2964732  12.6573310
  61.0377279  21.8390268  17.4911130  60.6491711  21.4144486  16.8363321
  60.3731977  22.0872418  17.9988157  60.8824206  21.8128989  17.4698998
  47.1160809  23.0106994  10.6463192  47.2021061  22.6338862  11.4276722
  47.7436606  22.6367439  10.1683150  47.2217360  22.8992476  10.6908670
  64.8603640  15.5364897  15.0035114  65.2414152  14.8543068  15.3902988
  64.0566924  15.2474499  14.8210779  64.7980102  15.3931946  15.0339170
  62.1416217  26.0688873   5.6887937  62.9556856  26.3603766   5.5770708
  62.0775358  25.4148735   5.1146230  62.2518956  26.0154068   5.5876774
  68.3625707  28.7514869  20.1017513  68.1264344  27.9202934  19.9829573
  69.0068936  28.7000476  20.6872357  68.4220378  28.6212557  20.1703406
  58.0124125  29.5410390  10.8160249  58.6498072  29.3022138  11.3612042
  58.4379197  29.7447549  10.0813410  58.1700291  29.5361401  10.7877406
  52.7036767  31.7798727  14.6994553  52.7440913  32.0513578  13.8714332
  53.2631292  32.3040635  15.1152341  52.7920113  31.8974482  14.6386441
  58.6526940  24.7612680   5.1535138  59.0372093  24.5420387   5.9051684
  58.4038560  25.5875626   5.2836215  58.6729013  24.8510826   5.2836215
  58.8195480  18.0419095  24.8697723  58.5048922  18.8118658  24.6067285
  58.4985413  17.4789351  24.2849950  58.7254400  18.0729364  24.7439073
  69.3862128  28.5359318  16.1645807  69.0807945  29.2687375  16.5259123
  68.6668343  28.1297247  15.8838593  69.2349470  28.5841051  16.1758944
  60.3945597  30.0182813  12.4954035  60.4684605  29.8557985  13.3495885
  61.2115103  30.2073003  12.2514517  60.5261956  30.0219555  12.5852061
  75.0863920  25.1752319  15.4914151  75.0188420  25.1948278  14.6216738
  75.0719582  26.0182646  15.7169822  75.0742676  25.3026053  15.3966628
  54.1551354  30.3640676   9.5248479  53.3289471  30.6102413   9.3982758
  54.2163345  30.2852757  10.3910537  54.0425521  30.3885625   9.6337423
  56.3727377  16.4309617  10.4843919  55.5049803  16.5032216  10.5501528
  56.6602582  17.2331696  10.6731894  56.2867126  16.5603764  10.5218686
  65.4960266  16.5787476  18.8155241  66.2413858  16.3897287  18.4018666
  65.0797571  17.1045714  18.2569097  65.5445240  16.6289622  18.6719814
  58.9350183  32.9817556   7.2267509  59.2248481  32.5906537   6.5026735
  59.6653664  33.1634261   7.6672784  59.0857067  32.9511370   7.1850316
  72.8722537  23.9496705  13.7660746  73.4230459  23.3164774  14.0057838
  72.8566652  24.4812098  14.4576250  72.9507733  23.9345653  13.9039604
  59.5244928  27.7835302  18.3120639  59.0256622  28.4951070  18.3905528
  60.3345152  28.1035969  18.2738802  59.5701035  27.9362151  18.3177208
  56.8756098  34.9584939  10.2927658  56.6556394  34.6682293  11.0854325
  56.6550620  34.2999894   9.7645571  56.8103693  34.8184647  10.3316567
  55.7873046  27.0458255  12.5583360  55.4986294  26.4195726  13.0929087
  56.6556394  26.9878542  12.6248041  55.8733297  26.9445799  12.6474315
  66.5750943  22.1893038  12.8765342  66.2315709  21.4683374  13.2272592
  66.6743986  21.9806890  12.0343700  66.5392986  22.0517242  12.8037022
  59.0424054  36.3314328   9.0758351  59.6948112  35.7990771   9.3049377
  58.3449663  35.9782981   9.4626225  59.0354772  36.2003851   9.1670519
  55.9905319  28.6853506   8.4825725  56.7451287  29.0666545   8.6961188
  55.3975932  29.1364650   8.9372422  56.0142032  28.8082333   8.5808604
  67.0363972  28.6518742   8.4189330  67.6022005  29.3111952   8.3347873
  66.3891876  28.9968441   8.8905732  67.0242729  28.8000684   8.4762087
  58.4511986  20.6416346  23.6082938  57.6411762  20.9474126  23.4972780
  58.9286673  21.3621929  23.7235522  58.4015465  20.7930948  23.6090009
  57.3103546  29.8562067  13.8565841  56.7884299  29.9962359  14.5417705
  57.6977566  29.0972732  14.0467958  57.2907246  29.7647591  13.9866917
  54.2994730  19.9067876   7.9260795  54.0119525  19.5369147   7.1892743
  54.9865198  20.3762731   7.6644500  54.3583627  19.9214846   7.7775871
  63.5070550  31.5957527   7.8426409  63.2657226  30.8625387   7.4353474
  63.6871883  32.1444384   7.1892743  63.4978174  31.5679918   7.6856632
  58.7369871  26.8866086   9.2547332  58.5412654  27.4940821   8.6607635
  58.9604217  26.1934030   8.7739006  58.7404512  26.8743612   9.0963412
  57.1348401  23.7720824   9.3728200  57.8571053  23.9361982   8.9132006
  56.6556394  24.4930489   9.2667540  57.1712132  23.9019054   9.2893814
  65.0941909  20.1084623  14.7524885  64.2553009  20.1345902  14.5163148
  65.1646276  20.7555359  15.3330232  64.9810302  20.2080749  14.8034002
  54.7856018  26.1778897  18.4782340  55.2977115  26.4563150  17.8291100
  54.4992360  26.9168191  18.8445153  54.8190881  26.3281250  18.4372218
  68.9699433  25.3152610  12.0386127  68.8833407  25.4708036  12.8920905
  68.5149912  25.9590685  11.6645532  68.8902689  25.4328365  12.1093233
  51.8722924  20.6849089   8.7746076  51.9739061  21.4875250   9.1027052
  52.6678811  20.4836425   8.4769157  52.0050830  20.7734987   8.7781432
  58.3039743  18.2705285  18.5383381  58.1122940  18.2860420  19.3882805
  59.1538339  18.4668960  18.5150036  58.4015465  18.3019637  18.6606676
  52.6886656  20.7996267  16.5167198  52.5472148  19.9480207  16.6411706
  52.9727220  20.8424927  15.6929404  52.7094502  20.6796017  16.4134822
  62.8425249  22.6363357  10.6611686  62.5959963  22.5559108  11.4948475
  63.1710372  21.8516825  10.4674214  62.8546492  22.5089622  10.7559209
  66.7373297  29.3446716  14.4498467  66.5987657  30.0427762  14.9547210
  65.9573295  29.1895373  14.0934649  66.6016524  29.4246883  14.4724742
  65.0751383  25.6443092  20.7020849  65.0699421  24.7722908  20.7063276
  65.7812376  25.8431261  20.2290305  65.1796387  25.5446966  20.6327884
  58.8022276  25.3720076  20.0734669  58.9465652  25.9521284  19.4377779
  59.1497924  25.7496372  20.7784524  58.8749737  25.5140780  20.0833664
  60.9742193  24.5710244  17.8559801  60.2265507  24.7641258  17.4508079
  61.1283718  23.7455464  17.6183922  60.8864621  24.4775355  17.7605207
  57.8750031  33.5622847  16.9395696  58.0239595  33.0025763  16.2869101
  58.6550033  33.6414849  17.3228215  58.0124124  33.4908413  16.8992645
  60.4003331  33.7337490  18.2180187  60.3247003  33.0646301  18.7730975
  60.3293191  34.4355278  18.7320853  60.3783938  33.7382398  18.3757035
  61.2143970  18.4660795  18.7455205  61.6716584  19.1984769  18.8727997
  61.2900299  18.0427260  19.5042460  61.2934940  18.5118033  18.8756281
  53.4576961  18.7126614  19.8344648  52.9219151  18.1006973  20.1505416
  53.5194726  19.2874750  20.4878315  53.3872594  18.7073542  19.9780075
  61.0573578  32.2538489   9.0503793  61.8223470  31.9848133   8.7286457
  60.9551668  31.7688500   9.7673856  61.1555074  32.1428054   9.1083620
  59.0926348  20.4562899  15.5897029  58.3022423  20.2754359  15.9114364
  59.4886971  19.6789851  15.5727323  59.0343224  20.3150360  15.6349577
  64.4770034  28.0905329  13.3156475  63.8015036  27.8590561  13.8169862
  64.4862411  27.4826512  12.6898580  64.3788539  27.9664254  13.2972627
  61.6064178  22.9323158  20.0720528  61.5423320  23.7933114  19.9440664
  61.7461366  22.6155151  19.2716079  61.6179649  23.0123324  19.9348740
  66.4786769  30.9470461   5.5466652  66.5606606  31.7537447   5.2228103
  66.9636511  30.9666420   6.2707426  66.5623927  31.0691124   5.6053551
  60.2883272  25.6255297  14.2136730  59.8645521  25.8259796  13.4775749
  60.1128128  24.7784145  14.3261030  60.1994153  25.5304079  14.1210421
  59.7894966  37.1405810  16.6758188  60.2790896  36.4416599  16.4933852
  59.2179198  36.8429680  17.2634245  59.7779496  36.9932034  16.7359228
  55.5765717  26.1207349   9.6464703  55.7330336  26.0554151  10.5020695
  55.9166310  26.8955901   9.4343383  55.6498952  26.2256547   9.7419297
  62.1144862  25.4965232   8.5158066  62.6560407  24.9935613   8.9796687
  62.4291421  25.4430427   7.7047551  62.2409259  25.4144653   8.4641878
  65.9861969  29.7067879  25.6284978  66.7996835  29.4353028  25.7890111
  65.8256936  29.4075419  24.8245174  66.0831918  29.6222805  25.5330384
  60.2831312  30.8882584   5.7998094  60.3524132  30.0297122   5.9391095
  61.0619767  31.1054465   5.4717119  60.4084162  30.7935448   5.7715251
  63.2634131  20.3901537  18.5680367  63.4776101  19.7512451  18.0143721
  62.6468030  20.8347360  18.1388228  63.2039461  20.3611680  18.4230798
  64.6738799  33.3120285  10.0134588  64.2818591  33.0087000   9.2957454
  64.8291871  34.1489375   9.8239541  64.6392389  33.3904122   9.8791085
  52.1499979  23.3042299   9.9625470  52.5298944  23.7226844   9.2985737
  51.5755344  23.8855755  10.2694313  52.1211304  23.4520158   9.9102211
  65.4273219  21.9990602  19.5063674  64.6149901  21.6916492  19.5876846
  65.8863154  21.5189602  20.0706386  65.3753604  21.8827094  19.6018268
  64.8378474  29.8770274   9.9540618  64.4793129  30.0484917  10.7304650
  64.3517185  30.3383479   9.3968617  64.7137171  29.9709245   9.9865887
  62.6548860  13.5001472  13.5567709  61.7842418  13.4740193  13.5101019
  62.9089201  13.3278664  12.7393555  62.5642420  13.4711616  13.4287846
  59.6266839  25.5569439   2.4940852  59.9159364  26.3334322   2.7684427
  59.7138638  25.0458171   3.1955352  59.6821096  25.5961358   2.6383350
  62.5226727  23.4050673  24.2892376  62.9926358  24.0292790  24.6760250
  62.5688607  22.7367649  24.8485591  62.5994603  23.3985354  24.4292447
  59.6798000  15.5107701  15.0141180  59.1636489  14.8187892  15.1392759
  59.1191929  16.1778478  14.9603779  59.5204514  15.5070958  15.0247246
  61.7490234  16.0500661  16.8434032  61.3621987  16.0749692  17.6247562
  61.2623171  15.4842339  16.3908549  61.6202743  15.9696412  16.8921936
  65.9983213  30.7674170  20.9007819  66.6362934  30.2734365  20.5670275
  65.3557305  30.6951570  20.3160046  65.9977440  30.6833178  20.7650174
  67.7240213  22.6163316  15.4673735  67.2967821  22.5289664  14.7121834
  67.0866266  22.7241091  16.0528579  67.5669821  22.6195976  15.4419176
  61.4147376  12.9367646  19.1344292  62.0440494  13.4727946  18.8565363
  61.5833238  12.8445005  19.9857858  61.5325170  13.0029008  19.2192820
  61.2161290  17.7238841  21.4070704  62.0434720  17.4523990  21.4629318
  61.2369137  18.5199683  21.7634522  61.3414141  17.8018595  21.4685887
  66.0537470  31.4593978  17.5413176  66.8429848  31.1083043  17.6615257
  66.2281068  32.2730366  17.2789809  66.1957752  31.5279835  17.5201044
  55.7930780  24.8702704  14.5940965  54.9518787  24.7706578  14.8019858
  56.0020788  25.6398184  14.9455285  55.6995473  24.9694747  14.6768279
  53.2706347  22.4922241  12.4225715  52.8763045  22.5665253  11.6475825
  52.7146464  22.8780187  12.9734077  53.1309160  22.5604015  12.3893375
  64.9071294  15.4703535  12.1029594  65.1120887  15.4025843  12.9486591
  64.5797718  16.2762356  12.0350772  64.8886542  15.5789475  12.2189249
  59.6047445  22.7984103  13.8438562  59.3010583  22.2440091  14.4448970
  58.9026866  22.9776313  13.3566596  59.4563655  22.7428885  13.8608268
  58.6613542  20.1084623   8.4083264  58.9373277  19.3903535   7.9960831
  59.2612212  20.7069543   8.2004370  58.7906807  20.0904993   8.3164025
  57.6665796  30.0133824  18.5510660  57.5586151  30.0235886  19.4172718
  57.8761578  30.8388604  18.3615614  57.6815907  30.1374898  18.6514751
  55.6839588  27.2646466  16.0132597  55.0927521  27.9055964  15.9835612
  56.4460612  27.6884083  15.9863897  55.7087849  27.4222304  16.0047745
  56.0800211  18.4248464  16.6800615  56.5401693  18.4987393  17.4175739
  56.1256318  19.2229718  16.3300436  56.1550766  18.5542611  16.7373372
  57.7283561  19.0915159  21.2472642  57.3369126  18.4448506  21.6828420
  57.8969423  19.6826594  21.8666898  57.6954471  19.0829427  21.4035348
  71.8030010  27.0952236  17.0109876  71.8613133  27.5438884  17.7569852
  71.1696477  27.5051049  16.5739956  71.7181305  27.2225970  17.0562424
  65.4429104  32.7155778  13.4464622  65.2448793  33.2046592  12.7520833
  64.8216816  32.9197019  14.0248755  65.3216669  32.8172316  13.4287845
  59.5037083  24.4840674   7.7874866  60.2479128  24.8714951   8.0257816
  59.6497779  23.6398100   7.9515354  59.6347668  24.4171147   7.8468836
  61.4216658  16.2790933  12.8206728  60.5752703  16.4513741  12.6948077
  61.4187791  15.4740277  13.1572556  61.2963808  16.1851962  12.8517855
  62.4914959  20.0566148  13.6868785  62.0174913  19.5307910  14.1974096
  62.8633094  19.5095621  13.1183647  62.4764848  19.8982144  13.6783933
  52.8687989  22.0537654  19.0552331  53.7313602  21.9533364  18.9689661
  52.5379772  21.4732364  18.4937903  52.9473185  21.9529281  18.9597737
  68.7551689  25.1168523  15.0975566  68.5149912  24.2774939  15.1017992
  69.2343696  25.1968690  15.8216339  68.7903873  25.0049923  15.2050368
  70.7556876  21.8969981  13.0504825  70.5166646  21.8565815  12.2125610
  70.9190778  22.7441133  13.1770546  70.7447180  22.0162066  12.9458307
  67.3602906  26.2819930  18.9809870  68.0837105  25.8292456  18.8020890
  67.0952869  26.5624596  18.1982198  67.4284180  26.2570898  18.8388586
  56.2289775  20.8780103  15.7162749  55.6042845  20.8898495  15.1088702
  55.8935370  21.3540279  16.3653990  56.0875267  20.9498620  15.7219318
  56.4131523  19.2205222   1.7735434  56.0644328  19.8724947   2.2366984
  55.9327969  19.2062335   1.0459306  56.2901767  19.3148276   1.7346526
  52.9415450  28.9380564  17.1566514  52.4115375  28.2473002  17.2061488
  53.2140544  28.9290749  16.3279222  52.9040173  28.8347695  17.0413930
  63.9735541  29.5206266   5.8804196  64.6969740  29.9864379   5.7368770
  63.5336132  29.5879876   5.1301793  64.0151233  29.5990103   5.7488978
  63.1421696  26.3803808  17.1304885  62.5278689  25.8361858  17.4253521
  63.6588981  25.8668045  16.6510701  63.1277358  26.2240217  17.1029114
  62.3817993  27.4508078  14.8649184  61.9545601  26.8257797  14.4314619
  62.3742937  27.1683000  15.6908191  62.3177134  27.3160859  14.9229012
  55.4980520  22.4873251  17.9337618  55.6574007  21.7316575  18.3389340
  55.3173414  23.0364191  18.5878356  55.4945879  22.4567065  18.0900324
  63.4400823  14.6534487  18.4888407  62.9441384  14.8498161  17.7979974
  64.1969885  15.0527155  18.3177209  63.4787648  14.7412221  18.3608544
  60.7103703  18.3276833  15.0791718  60.7346190  17.7936945  14.3904498
  60.9615176  17.8194142  15.7417309  60.7513621  18.1737737  15.0756363
  48.2211293  25.6108328  14.5134862  48.1154742  25.5655172  13.6486946
  47.4711513  25.9562108  14.7949147  48.0946895  25.6549236  14.4272192
  56.9905025  17.0547651  14.4597462  57.0303397  17.5556858  15.1732170
  56.1654690  17.1458045  14.1903385  56.8744551  17.1429467  14.5248000
  59.1734638  26.6208391  22.5617757  58.3230268  26.7580105  22.6975402
  59.3362766  25.8872169  23.0065459  59.0718501  26.5322492  22.6473356
  58.4119388  23.5708161  16.7571361  57.5811318  23.7381979  16.5506609
  58.3570906  23.1944112  17.5420247  58.2808803  23.5397892  16.8419889
  56.2203172  17.0617054  22.3927772  56.8455875  16.5179187  22.6657204
  55.7653652  16.5811971  21.8235562  56.2451432  16.9106535  22.3489366
  56.7855432  21.8463752   7.2861479  56.9258393  22.3436217   7.9890120
  57.2837965  21.1450047   7.4275693  56.8796513  21.8165731   7.4113058
  56.8155655  22.7130863   4.6154056  57.4500734  23.3091288   4.5503518
  56.8981265  22.4134321   5.4299926  56.9212206  22.7571772   4.7257142
  69.7938220  25.2446341  17.4840420  70.3856061  25.8843591  17.5158618
  70.2297215  24.5469377  17.7732487  69.9456652  25.2364691  17.5321253
  58.3934637  18.6444839   4.5899498  58.7150478  18.1647921   3.9358760
  58.6561581  19.4544485   4.3990309  58.4800663  18.6934737   4.4654990
  61.6231610  29.6663713  18.1098314  61.1156701  30.2199560  18.5538944
  61.3258256  29.7272003  17.2917088  61.5036495  29.7570024  18.0546771
  63.7893792  18.0317033  16.9522977  64.2148864  17.5789559  16.3406503
  63.1750786  17.4777103  17.2287764  63.7622438  17.8831009  16.9028002
  53.3208642  24.9098704   7.8843602  53.8300872  25.5063212   8.2654907
  53.7942915  24.6424678   7.2020021  53.4652018  24.9584520   7.8398125
  64.2339391  33.5826971   6.0402257  63.5168700  33.4087833   5.5749495
  64.8846128  33.3479543   5.5077743  64.2241241  33.5222763   5.8931475
  62.2288015  14.5032133  10.3613554  61.5856333  14.3529779  10.9298692
  61.8887422  14.2574478   9.5962659  62.0833093  14.4444255  10.3316569
  66.8187362  22.4591559   9.7843562  66.1478552  23.0021262   9.6556628
  67.5127112  22.9286415   9.5425257  66.8216229  22.6089831   9.7299090
  60.8674095  34.5988271  15.0155321  60.6439750  33.8407101  15.3839347
  60.3783939  34.6286293  14.2935760  60.7617544  34.4910496  14.9632062
  66.9815489  18.9147443  12.6933936  67.3343099  18.4877166  13.3679734
  66.1230291  18.8298287  12.8235012  66.9064934  18.8392184  12.8128946
  55.6799174  21.5454963  10.7516782  54.9611163  21.9619095  11.0189646
  56.0511536  22.1109201  10.2008420  55.6291106  21.6904244  10.7099589
  64.9798755  22.1782812  16.6418778  64.9596682  21.9966107  17.4953557
  65.0277956  23.0494830  16.6178362  64.9833396  22.2799350  16.7642073
  62.9245085  28.7670004  22.5667255  62.8840940  28.1219681  21.9812410
  63.7368403  28.7106621  22.8792667  63.0388238  28.6628970  22.5264204
  59.5152552  34.8188729  12.4692405  59.1012951  34.1562860  12.0796247
  60.1999927  34.9666588  11.9488100  59.5550924  34.7429388  12.3348903
  62.8817847  33.9778815  13.2216022  62.4834130  34.0881085  12.4536842
  62.2669066  34.1860881  13.8042582  62.7316736  34.0252383  13.1947321
  61.4545749  20.5852963   6.0890162  60.8610588  20.9069959   5.5374729
  61.4921026  19.7394058   5.8811268  61.3720138  20.5077291   5.9772933
  64.3303565  20.5432467   9.5191912  64.1017258  20.5665169   8.6770270
  64.5901641  19.7189934   9.6386922  64.3349753  20.4248547   9.4117110
  58.6122794  22.3966940  19.1217012  58.1001697  21.7888123  19.4802044
  58.4402290  23.1123533  19.5890988  58.5112431  22.4130239  19.2433236
  53.4588508  20.8404515  21.7719374  53.2891099  21.5005890  21.2267581
  53.0154458  21.0511077  22.4931863  53.3687842  20.9690498  21.7981003
  57.3848328  19.0809013  10.8146108  57.8605694  19.4426093  10.1796289
  56.8836927  19.7365481  11.0946250  57.3813687  19.2303202  10.7622849
  62.4891864  20.3191185  21.5619268  63.0463294  20.0904994  20.9297733
  62.1652929  21.0796850  21.2854480  62.5238274  20.3975021  21.4275765
  50.3590573  23.7451381  17.0307864  49.8117292  23.0752027  17.1488732
  51.1482951  23.3781229  17.0951331  50.3942756  23.5916367  17.0576564
  60.2074981  23.4058838  22.5271275  60.9586308  23.7210515  22.8410829
  60.3997558  23.2038009  21.7005197  60.3466395  23.4226220  22.4514671
  59.4274981  21.2250213   4.1819492  59.8073946  21.2429842   3.3970606
  58.6867577  21.6704202   4.0610339  59.3743819  21.2931988   4.0483060
  67.0560271  19.5332404   9.7695070  67.0554498  19.3781061  10.6279347
  66.8516451  20.3795391   9.7136456  67.0260049  19.6353025   9.8883010
  49.1177542  22.9572189  14.1853887  48.9399303  22.5048798  14.9108802
  48.8296564  23.7598350  14.3692364  49.0490495  23.0094747  14.3197390
  64.7801123  24.2129906  13.4231277  65.2754789  23.4952901  13.3835297
  63.9700899  23.9100704  13.3085764  64.7345017  24.0627552  13.4005003
  60.2259735  28.0627719   5.5728282  59.4171058  27.7394393   5.5261591
  60.7334644  27.3560942   5.5056530  60.1809402  27.9109036   5.5558576
  50.8550012  25.4899913  11.2975646  49.9895532  25.4785603  11.1858417
  50.9548828  25.3030135  12.1446785  50.7424179  25.4605974  11.4064590
  66.8452942  26.9633594  16.1108406  67.2708014  26.4408016  15.5578831
  66.4809862  27.5614431  15.5897029  66.8539545  26.9743821  15.9517416
  56.4807022  35.2597811  14.8705751  56.7953581  36.0734200  14.8783533
  56.8900435  34.8748030  15.5387911  56.5875120  35.3226514  14.9709843
  63.4331542  30.6767858  12.4409563  63.9042720  31.3908121  12.6099549
  63.7691720  30.0766608  12.9769433  63.5526657  30.6939322  12.5441939
  65.5208526  32.2869171  24.6201635  65.6305492  31.4977732  24.9758383
  65.8499423  32.1975108  23.8175974  65.5860932  32.1575024  24.5544026
  60.3501037  15.4495329  19.3967658  60.4828942  14.6526322  19.7248634
  60.7346189  15.9761732  19.9765934  60.4257365  15.4095245  19.5311161
  64.0705488  30.4685792  19.2037256  63.5226434  29.8443676  18.9357321
  64.5318517  30.6580064  18.4881335  64.0572697  30.4044842  19.0587687
  63.4233392  12.3725655  15.9948751  62.6179356  12.2623384  16.3116590
  63.2940127  12.4738110  15.1378617  63.2853525  12.3709325  15.9156792
  66.8799352  18.5371147  16.5888448  66.2962341  19.0380353  16.1766016
  67.2003646  18.0300703  15.9552772  66.8412528  18.5362982  16.4346956
  59.4194151  17.4511741   6.8647123  60.2409846  17.6210054   6.6228818
  58.9563802  17.6059002   6.1413421  59.4725314  17.4993474   6.7218767
  58.0089483  15.4454504  17.6445552  58.5533896  15.1045630  18.2349894
  58.0626419  16.3039965  17.7866836  58.0978603  15.5209763  17.7527425
  53.8220042  29.2070920  14.5184360  54.4264900  29.1666754  13.8898181
  53.6147355  30.0542072  14.5488416  53.8808939  29.3258922  14.4300476
  63.6363814  31.4736865  15.7346597  64.4562188  31.3299831  15.9962892
  63.3557892  32.0983064  16.2763035  63.7160558  31.5447217  15.8534537
  49.0571324  28.1905537  14.3883283  48.9595602  27.3801809  14.6973340
  49.8400194  28.1697331  14.0029551  49.1587461  28.0672627  14.3770146
  73.3077150  38.2177367  13.4542404  72.4515045  38.3785866  13.5051521
  73.3544803  37.3469431  13.4747465  73.1876261  38.1128169  13.4648470
  67.6918289  47.7540085   9.2179636  66.9401189  47.3755624   8.9895681
  68.1404301  47.7858519   8.4698446  67.6467956  47.7025693   9.0737138
  76.6170866  44.4863893  23.0602860  77.3237633  43.9915924  23.1889795
  76.8058802  44.9272975  22.3305518  76.7498772  44.4782243  22.9711906
  76.1528971  40.2769411  16.0974056  76.6984931  40.9554498  16.1568025
  76.0945847  40.1356872  15.2375637  76.2244885  40.3561413  15.9786116
  69.2703045  47.7658478  11.4842408  69.3713408  46.9558831  11.7939536
  68.6744791  47.6715424  10.8542087  69.1975584  47.6323506  11.4368646
  69.1103785  52.6836067  12.8857264  69.7541240  53.1249231  13.2753422
  69.4360041  51.8789493  12.7987523  69.2535614  52.6301261  12.9302741
  62.4668090  43.7878764  11.1094742  62.2318274  42.9546416  11.0027011
  62.6053730  44.0683430  10.2955943  62.4523752  43.7062268  10.9737097
  64.7658177  35.9564495  14.0079049  64.1463209  35.3657142  13.8389064
  64.6642041  36.5475930  13.3743373  64.6595853  35.9568577  13.8884039
  71.8626073  37.6964036   8.3411513  72.5606237  37.8752164   8.8332976
  72.1778405  37.1734376   7.7181902  72.0121410  37.6457809   8.3213523
  64.4927310  39.5016776  16.2522618  64.3686007  40.0879222  16.8872437
  65.1445595  39.0076972  16.5534893  64.5700960  39.5155581  16.3908548
  72.0514008  44.0834482   8.3291304  72.4907644  43.4751582   8.7746077
  71.9018671  43.7041855   7.5576769  72.0935474  43.9372953   8.2810471
  69.5185651  42.6778493  15.5310129  70.1634654  42.1850936  15.2121078
  69.7587428  42.8203280  16.3576208  69.6496236  42.6255936  15.6059663
  72.0571743  45.5233399  15.1817022  72.3394985  44.7284805  14.9603778
  72.7857903  46.0013987  15.2022083  72.2061306  45.4767996  15.1520037
  70.0352936  33.0656433  12.4232787  69.7056266  33.5167577  11.7536486
  69.3597938  32.9872596  12.9705794  69.8863373  33.1207568  12.4056010
  64.0285414  48.6664435  12.3850948  63.5452993  49.3914925  12.3610531
  64.8408733  48.9640565  12.4961106  64.0776162  48.8166789  12.3978227
  70.0999568  47.4596616  14.9900762  69.5826510  47.1004031  14.3862070
  70.7973960  46.9358790  15.0006828  70.1265150  47.3294304  14.9031021
  73.7563160  47.9091430  20.9516935  73.8446506  47.7217570  21.7995146
  74.1852873  47.2628859  20.5521782  73.8325263  47.7854437  21.0188687
  71.3233620  47.1922590  19.9334598  70.7604455  46.7795199  20.4574259
  72.0854644  47.1175495  20.3527741  71.3528069  47.1199990  20.0727598
  68.2408890  31.1268722   7.9055735  68.9954858  31.4947039   7.6672785
  68.0636425  31.5008276   8.6734914  68.3263369  31.2366909   7.9840623
  66.8829612  49.1820611  12.5371228  67.5850191  48.6672600  12.5943984
  66.8027095  49.5094762  13.3418103  66.9753372  49.1534837  12.6644020
  67.9308518  39.4196198  21.6651643  68.1029022  39.3102092  22.5136924
  68.4677876  40.0650603  21.4282835  68.0353522  39.4988199  21.7556739
  66.5965955  33.5339041   4.6033848  66.4141528  33.7510921   3.7774841
  67.4591568  33.6478053   4.6592462  66.6970545  33.5828938   4.4888335
  66.2080387  45.3726963  12.0456836  67.0469286  45.6049896  12.0930597
  66.2392156  44.5031274  11.9763871  66.3362105  45.2783909  12.0421480
  66.8333090  45.7927838  16.3470141  67.3731315  45.6498969  17.0173514
  66.1503036  46.1924589  16.7154168  66.8125244  45.8307509  16.5004563
  76.2573975  41.4718839  11.5415166  77.0131490  41.9050353  11.5804074
  76.3636299  40.8223608  12.1149802  76.3844146  41.4396322  11.6313191
  73.8683220  47.3400449  23.6160719  74.6523636  47.4531296  23.9816461
  73.6679814  46.5141586  23.8119405  73.9549245  47.2347168  23.6995105
  62.2370235  42.0128129  16.5004563  61.9708650  41.1967245  16.6595553
  62.2508799  42.0581284  15.6300078  62.1994957  41.8985034  16.3958045
  66.1427982  36.8113213   3.1156321  65.4286159  36.5251393   3.5278753
  66.6271951  37.1509839   3.7562708  66.1087345  36.8194863   3.2711956
  66.9868842  35.5506507  19.1471571  66.2940638  35.0803487  19.3932302
  67.6029169  35.3244812  19.7213278  66.9753371  35.4473639  19.2680723
  74.0253613  49.2510551  17.2627175  73.2268859  49.0110051  17.5201043
  74.4739625  49.3024944  18.0094222  73.9728224  49.2232942  17.4112099
  62.6463649  42.7986908  13.7816307  62.4639222  42.7733794  12.9288599
  63.3813318  43.2685846  13.8205216  62.7277713  42.8648270  13.6614226
  65.7109400  39.5171911  20.2898416  66.4349373  39.5024942  20.7763310
  65.8125537  40.2267266  19.7920384  65.8327610  39.6196614  20.2877203
  73.0854350  42.9970996  25.1547363  72.2927331  43.3114507  25.3399982
  73.2003277  43.2122464  24.3168147  72.9849760  43.0754832  25.0585697
  75.7585669  39.7204987   9.4442379  75.8532523  40.4594281   9.8982004
  75.1344512  39.2922462   9.8776943  75.6794699  39.7666307   9.5750526
  74.0138143  42.8991199  20.0932659  74.5877004  42.2618444  20.2481223
  73.9352946  42.8995282  19.2242317  74.0871378  42.8056311  19.9879070
  62.6134559  39.6780409  13.9315374  63.1908062  39.5416860  14.5707619
  61.9148621  39.2216193  14.1860958  62.5955581  39.5902675  14.0637663
  69.3701861  41.3314465  12.1453857  69.1121106  40.4986199  12.1185156
  69.4250344  41.5572078  11.3046357  69.3401639  41.2412236  12.0173994
  74.4502911  33.4342915  12.2457950  73.7459238  32.9452101  12.4041869
  74.4987886  33.4465390  11.3746394  74.3532963  33.3632563  12.1397289
  68.3436573  38.8852227  12.6318752  67.7686165  39.0444395  13.2682713
  67.9672250  38.2487636  12.1687202  68.2039386  38.8150040  12.6573310
  72.0109862  37.3575576  17.4911130  71.6224295  36.9329794  16.8363321
  71.3464560  37.6057726  17.9988157  71.8556790  37.3314297  17.4698998
  58.0893392  38.5292302  10.6463192  58.1753644  38.1524170  11.4276722
  58.7169190  38.1552747  10.1683150  58.1949943  38.4177784  10.6908670
  75.8336224  31.0550205  15.0035114  76.2146735  30.3728376  15.3902988
  75.0299508  30.7659807  14.8210779  75.7712685  30.9117254  15.0339170
  68.9856709  45.0595698  10.8160249  69.6230656  44.8207446  11.3612042
  69.4111780  45.2632857  10.0813410  69.1432875  45.0546709  10.7877406
  63.6769351  47.2984035  14.6994553  63.7173496  47.5698886  13.8714332
  64.2363875  47.8225943  15.1152341  63.7652697  47.4159790  14.6386441
  69.6259524  40.2797988   5.1535138  70.0104676  40.0605695   5.9051684
  69.3771144  41.1060934   5.2836215  69.6461596  40.3696134   5.2836215
  69.7928064  33.5604403  24.8697723  69.4781505  34.3303966  24.6067285
  69.4717997  32.9974659  24.2849950  69.6986983  33.5914672  24.7439073
  71.3678181  45.5368121  12.4954035  71.4417189  45.3743293  13.3495885
  72.1847687  45.7258311  12.2514517  71.4994539  45.5404863  12.5852061
  65.1283937  45.8825984   9.5248479  64.3022055  46.1287721   9.3982758
  65.1895928  45.8038065  10.3910537  65.0158104  45.9070933   9.6337423
  67.3459961  31.9494925  10.4843919  66.4782386  32.0217524  10.5501528
  67.6335165  32.7517004  10.6731894  67.2599709  32.0789072  10.5218686
  76.4692850  32.0972784  18.8155241  77.2146442  31.9082595  18.4018666
  76.0530154  32.6231022  18.2569097  76.5177824  32.1474930  18.6719814
  70.4977511  43.3020610  18.3120639  69.9989205  44.0136378  18.3905528
  71.3077736  43.6221277  18.2738802  70.5433618  43.4547459  18.3177208
  67.8488682  50.4770246  10.2927658  67.6288977  50.1867601  11.0854325
  67.6283204  49.8185201   9.7645571  67.7836276  50.3369955  10.3316567
  66.7605629  42.5643563  12.5583360  66.4718878  41.9381034  13.0929087
  67.6288977  42.5063850  12.6248041  66.8465881  42.4631107  12.6474315
  77.5483527  37.7078346  12.8765342  77.2048293  36.9868682  13.2272592
  77.6476569  37.4992197  12.0343700  77.5125570  37.5702550  12.8037022
  66.9637902  44.2038814   8.4825725  67.7183870  44.5851853   8.6961188
  66.3708515  44.6549958   8.9372422  66.9874616  44.3267641   8.5808604
  69.4244569  36.1601654  23.6082938  68.6144345  36.4659434  23.4972780
  69.9019256  36.8807237  23.7235522  69.3748048  36.3116255  23.6090009
  68.2836129  45.3747375  13.8565841  67.7616883  45.5147667  14.5417705
  68.6710149  44.6158040  14.0467958  68.2639830  45.2832899  13.9866917
  65.2727313  35.4253184   7.9260795  64.9852109  35.0554455   7.1892743
  65.9597781  35.8948039   7.6644500  65.3316210  35.4400153   7.7775871
  69.7102455  42.4051394   9.2547332  69.5145237  43.0126129   8.6607635
  69.9336800  41.7119338   8.7739006  69.7137096  42.3928920   9.0963412
  68.1080985  39.2906132   9.3728200  68.8303637  39.4547290   8.9132006
  67.6288977  40.0115797   9.2667540  68.1444715  39.4204362   9.2893814
  76.0674492  35.6269931  14.7524885  75.2285593  35.6531210  14.5163148
  76.1378860  36.2740667  15.3330232  75.9542886  35.7266057  14.8034002
  65.7588601  41.6964205  18.4782340  66.2709698  41.9748458  17.8291100
  65.4724944  42.4353499  18.8445153  65.7923465  41.8466558  18.4372218
  62.8455508  36.2034397   8.7746076  62.9471644  37.0060558   9.1027052
  63.6411394  36.0021732   8.4769157  62.9783413  36.2920295   8.7781432
  69.2772327  33.7890593  18.5383381  69.0855524  33.8045728  19.3882805
  70.1270923  33.9854268  18.5150036  69.3748049  33.8204944  18.6606676
  63.6619240  36.3181575  16.5167198  63.5204732  35.4665515  16.6411706
  63.9459803  36.3610235  15.6929404  63.6827086  36.1981325  16.4134822
  73.8157832  38.1548665  10.6611686  73.5692546  38.0744416  11.4948475
  74.1442955  37.3702133  10.4674214  73.8279076  38.0274930  10.7559209
  77.7105881  44.8632024  14.4498467  77.5720240  45.5613070  14.9547210
  76.9305879  44.7080681  14.0934649  77.5749108  44.9432191  14.4724742
  76.0483966  41.1628400  20.7020849  76.0432005  40.2908216  20.7063276
  76.7544960  41.3616569  20.2290305  76.1528970  41.0632274  20.6327884
  69.7754859  40.8905384  20.0734669  69.9198235  41.4706592  19.4377779
  70.1230508  41.2681680  20.7784524  69.8482321  41.0326088  20.0833664
  71.9474777  40.0895552  17.8559801  71.1998091  40.2826566  17.4508079
  72.1016302  39.2640771  17.6183922  71.8597204  39.9960663  17.7605207
  68.8482614  49.0808155  16.9395696  68.9972178  48.5211071  16.2869101
  69.6282617  49.1600157  17.3228215  68.9856708  49.0093721  16.8992645
  71.3735915  49.2522798  18.2180187  71.2979586  48.5831609  18.7730975
  71.3025774  49.9540586  18.7320853  71.3516522  49.2567706  18.3757035
  72.1876554  33.9846103  18.7455205  72.6449168  34.7170077  18.8727997
  72.2632883  33.5612568  19.5042460  72.2667524  34.0303341  18.8756281
  64.4309545  34.2311922  19.8344648  63.8951735  33.6192281  20.1505416
  64.4927310  34.8060058  20.4878315  64.3605178  34.2258850  19.9780075
  70.0658932  35.9748207  15.5897029  69.2755007  35.7939667  15.9114364
  70.4619555  35.1975159  15.5727323  70.0075808  35.8335667  15.6349577
  75.4502618  43.6090637  13.3156475  74.7747620  43.3775869  13.8169862
  75.4594994  43.0011820  12.6898580  75.3521123  43.4849562  13.2972627
  72.5796762  38.4508466  20.0720528  72.5155903  39.3118422  19.9440664
  72.7193950  38.1340459  19.2716079  72.5912232  38.5308632  19.9348740
  71.2615856  41.1440605  14.2136730  70.8378105  41.3445104  13.4775749
  71.0860711  40.2969453  14.3261030  71.1726737  41.0489386  14.1210421
  70.7627549  52.6591118  16.6758188  71.2523480  51.9601907  16.4933852
  70.1911782  52.3614988  17.2634245  70.7512079  52.5117342  16.7359228
  66.5498301  41.6392656   9.6464703  66.7062920  41.5739459  10.5020695
  66.8898894  42.4141209   9.4343383  66.6231536  41.7441855   9.7419297
  73.0877445  41.0150540   8.5158066  73.6292991  40.5120921   8.9796687
  73.4024005  40.9615735   7.7047551  73.2141843  40.9329961   8.4641878
  76.9594553  45.2253187  25.6284978  77.7729418  44.9538336  25.7890111
  76.7989519  44.9260727  24.8245174  77.0564501  45.1408113  25.5330384
  74.2366715  35.9086845  18.5680367  74.4508684  35.2697759  18.0143721
  73.6200614  36.3532668  18.1388228  74.1772044  35.8796988  18.4230798
  63.1232562  38.8227607   9.9625470  63.5031527  39.2412152   9.2985737
  62.5487927  39.4041063  10.2694313  63.0943887  38.9705466   9.9102211
  76.4005803  37.5175910  19.5063674  75.5882485  37.2101800  19.5876846
  76.8595737  37.0374910  20.0706386  76.3486188  37.4012402  19.6018268
  73.6281444  29.0186780  13.5567709  72.7575001  28.9925501  13.5101019
  73.8821785  28.8463972  12.7393555  73.5375004  28.9896924  13.4287846
  73.4959310  38.9235981  24.2892376  73.9658942  39.5478098  24.6760250
  73.5421191  38.2552957  24.8485591  73.5727186  38.9170661  24.4292447
  70.6530584  31.0293009  15.0141180  70.1369073  30.3373200  15.1392759
  70.0924513  31.6963786  14.9603779  70.4937097  31.0256266  15.0247246
  72.7222817  31.5685969  16.8434032  72.3354571  31.5935000  17.6247562
  72.2355755  31.0027647  16.3908549  72.5935326  31.4881720  16.8921936
  76.9715797  46.2859478  20.9007819  77.6095517  45.7919673  20.5670275
  76.3289888  46.2136878  20.3160046  76.9710023  46.2018486  20.7650174
  78.6972797  38.1348624  15.4673735  78.2700405  38.0474972  14.7121834
  78.0598850  38.2426399  16.0528579  78.5402404  38.1381283  15.4419176
  72.3879959  28.4552954  19.1344292  73.0173077  28.9913254  18.8565363
  72.5565822  28.3630313  19.9857858  72.5057754  28.5214316  19.2192820
  72.1893874  33.2424149  21.4070704  73.0167303  32.9709298  21.4629318
  72.2101720  34.0384991  21.7634522  72.3146724  33.3203903  21.4685887
  77.0270053  46.9779286  17.5413176  77.8162432  46.6268351  17.6615257
  77.2013651  47.7915674  17.2789809  77.1690335  47.0465143  17.5201044
  66.7663364  40.3888012  14.5940965  65.9251370  40.2891886  14.8019858
  66.9753372  41.1583492  14.9455285  66.6728056  40.4880055  14.6768279
  64.2438931  38.0107549  12.4225715  63.8495629  38.0850560  11.6475825
  63.6879048  38.3965495  12.9734077  64.1041743  38.0789323  12.3893375
  75.8803878  30.9888843  12.1029594  76.0853471  30.9211151  12.9486591
  75.5530302  31.7947664  12.0350772  75.8619126  31.0974783  12.2189249
  70.5780029  38.3169411  13.8438562  70.2743166  37.7625399  14.4448970
  69.8759450  38.4961621  13.3566596  70.4296239  38.2614193  13.8608268
  69.6346126  35.6269931   8.4083264  69.9105860  34.9088843   7.9960831
  70.2344795  36.2254851   8.2004370  69.7639391  35.6090301   8.3164025
  68.6398380  45.5319132  18.5510660  68.5318735  45.5421194  19.4172718
  68.8494161  46.3573912  18.3615614  68.6548491  45.6560206  18.6514751
  66.6572172  42.7831774  16.0132597  66.0660105  43.4241272  15.9835612
  67.4193195  43.2069391  15.9863897  66.6820432  42.9407612  16.0047745
  67.0532795  33.9433772  16.6800615  67.5134276  34.0172701  17.4175739
  67.0988901  34.7415026  16.3300436  67.1283350  34.0727919  16.7373372
  68.7016144  34.6100467  21.2472642  68.3101709  33.9633814  21.6828420
  68.8702007  35.2011902  21.8666898  68.6687055  34.6014734  21.4035348
  76.4161688  48.2341086  13.4464622  76.2181377  48.7231900  12.7520833
  75.7949399  48.4382327  14.0248755  76.2949252  48.3357624  13.4287845
  70.4769666  40.0025982   7.7874866  71.2211711  40.3900259   8.0257816
  70.6230363  39.1583408   7.9515354  70.6080251  39.9356455   7.8468836
  72.3949242  31.7976241  12.8206728  71.5485287  31.9699049  12.6948077
  72.3920374  30.9925585  13.1572556  72.2696392  31.7037270  12.8517855
  73.4647542  35.5751456  13.6868785  72.9907496  35.0493218  14.1974096
  73.8365678  35.0280929  13.1183647  73.4497431  35.4167452  13.6783933
  63.8420572  37.5722962  19.0552331  64.7046185  37.4718672  18.9689661
  63.5112355  36.9917672  18.4937903  63.9205769  37.4714589  18.9597737
  67.2022358  36.3965411  15.7162749  66.5775429  36.4083803  15.1088702
  66.8667953  36.8725587  16.3653990  67.0607850  36.4683928  15.7219318
  67.3864107  34.7390530   1.7735434  67.0376911  35.3910255   2.2366984
  66.9060553  34.7247643   1.0459306  67.2634351  34.8333583   1.7346526
  63.9148034  44.4565871  17.1566514  63.3847958  43.7658310  17.2061488
  64.1873127  44.4476057  16.3279222  63.8772756  44.3533003  17.0413930
  74.1154279  41.8989116  17.1304885  73.5011273  41.3547166  17.4253521
  74.6321564  41.3853353  16.6510701  74.1009942  41.7425525  17.1029114
  73.3550577  42.9693386  14.8649184  72.9278185  42.3443105  14.4314619
  73.3475521  42.6868308  15.6908191  73.2909718  42.8346167  14.9229012
  66.4713104  38.0058559  17.9337618  66.6306590  37.2501883  18.3389340
  66.2905997  38.5549499  18.5878356  66.4678463  37.9752373  18.0900324
  74.4133407  30.1719795  18.4888407  73.9173968  30.3683469  17.7979974
  75.1702469  30.5712463  18.3177209  74.4520231  30.2597529  18.3608544
  71.6836286  33.8462141  15.0791718  71.7078773  33.3122253  14.3904498
  71.9347760  33.3379449  15.7417309  71.7246205  33.6923045  15.0756363
  59.1943876  41.1293636  14.5134862  59.0887325  41.0840480  13.6486946
  58.4444096  41.4747416  14.7949147  59.0679479  41.1734544  14.4272192
  67.9637609  32.5732959  14.4597462  68.0035980  33.0742165  15.1732170
  67.1387273  32.6643353  14.1903385  67.8477134  32.6614775  14.5248000
  70.1467221  42.1393699  22.5617757  69.2962852  42.2765413  22.6975402
  70.3095349  41.4057477  23.0065459  70.0451085  42.0507800  22.6473356
  69.3851972  39.0893469  16.7571361  68.5543902  39.2567287  16.5506609
  69.3303489  38.7129420  17.5420247  69.2541387  39.0583200  16.8419889
  67.1935755  32.5802362  22.3927772  67.8188459  32.0364494  22.6657204
  66.7386235  32.0997279  21.8235562  67.2184016  32.4291843  22.3489366
  67.7588016  37.3649060   7.2861479  67.8990977  37.8621525   7.9890120
  68.2570549  36.6635355   7.4275693  67.8529097  37.3351039   7.4113058
  67.7888238  38.2316171   4.6154056  68.4233318  38.8276596   4.5503518
  67.8713849  37.9319629   5.4299926  67.8944789  38.2757079   4.7257142
  69.3667221  34.1630147   4.5899498  69.6883062  33.6833229   3.9358760
  69.6294165  34.9729793   4.3990309  69.4533246  34.2120045   4.4654990
  72.5964194  45.1849021  18.1098314  72.0889285  45.7384868  18.5538944
  72.2990840  45.2457311  17.2917088  72.4769079  45.2755332  18.0546771
  74.7626376  33.5502341  16.9522977  75.1881448  33.0974867  16.3406503
  74.1483369  32.9962411  17.2287764  74.7355021  33.4016317  16.9028002
  64.2941226  40.4284012   7.8843602  64.8033455  41.0248520   8.2654907
  64.7675498  40.1609986   7.2020021  64.4384602  40.4769828   7.8398125
  73.2020599  30.0217440  10.3613554  72.5588917  29.8715087  10.9298692
  72.8620006  29.7759786   9.5962659  73.0565676  29.9629563  10.3316569
  77.7919945  37.9776867   9.7843562  77.1211135  38.5206570   9.6556628
  78.4859696  38.4471723   9.5425257  77.7948813  38.1275139   9.7299090
  71.8406679  50.1173579  15.0155321  71.6172333  49.3592409  15.3839347
  71.3516522  50.1471601  14.2935760  71.7350128  50.0095804  14.9632062
  77.9548073  34.4332751  12.6933936  78.3075683  34.0062474  13.3679734
  77.0962874  34.3483594  12.8235012  77.8797517  34.3577492  12.8128946
  66.6531758  37.0640271  10.7516782  65.9343747  37.4804403  11.0189646
  67.0244120  37.6294509  10.2008420  66.6023690  37.2089552  10.7099589
  75.9531339  37.6968120  16.6418778  75.9329266  37.5151415  17.4953557
  76.0010539  38.5680138  16.6178362  75.9565980  37.7984658  16.7642073
  73.8977668  44.2855312  22.5667255  73.8573523  43.6404988  21.9812410
  74.7100987  44.2291929  22.8792667  74.0120822  44.1814278  22.5264204
  70.4885136  50.3374037  12.4692405  70.0745535  49.6748168  12.0796247
  71.1732510  50.4851896  11.9488100  70.5283508  50.2614696  12.3348903
  73.8550430  49.4964123  13.2216022  73.4566713  49.6066393  12.4536842
  73.2401650  49.7046189  13.8042582  73.7049319  49.5437691  13.1947321
  72.4278332  36.1038271   6.0890162  71.8343171  36.4255267   5.5374729
  72.4653610  35.2579366   5.8811268  72.3452721  36.0262599   5.9772933
  75.3036149  36.0617775   9.5191912  75.0749842  36.0850476   8.6770270
  75.5634225  35.2375242   9.6386922  75.3082337  35.9433855   9.4117110
  69.5855377  37.9152248  19.1217012  69.0734280  37.3073431  19.4802044
  69.4134873  38.6308841  19.5890988  69.4845014  37.9315547  19.2433236
  64.4321092  36.3589823  21.7719374  64.2623682  37.0191198  21.2267581
  63.9887042  36.5696385  22.4931863  64.3420425  36.4875806  21.7981003
  68.3580911  34.5994321  10.8146108  68.8338277  34.9611401  10.1796289
  67.8569511  35.2550789  11.0946250  68.3546270  34.7488510  10.7622849
  73.4624447  35.8376493  21.5619268  74.0195878  35.6090302  20.9297733
  73.1385513  36.5982158  21.2854480  73.4970858  35.9160329  21.4275765
  61.3323156  39.2636689  17.0307864  60.7849876  38.5937335  17.1488732
  62.1215535  38.8966537  17.0951331  61.3675340  39.1101675  17.0576564
  71.1807565  38.9244146  22.5271275  71.9318892  39.2395823  22.8410829
  71.3730141  38.7223317  21.7005197  71.3198979  38.9411528  22.4514671
  70.4007564  36.7435521   4.1819492  70.7806529  36.7615150   3.3970606
  69.6600160  37.1889510   4.0610339  70.3476402  36.8117296   4.0483060
  78.0292855  35.0517712   9.7695070  78.0287081  34.8966369  10.6279347
  77.8249035  35.8980699   9.7136456  77.9992633  35.1538333   9.8883010
  60.0910126  38.4757497  14.1853887  59.9131887  38.0234106  14.9108802
  59.8029148  39.2783658  14.3692364  60.0223079  38.5280055  14.3197390
  75.7533707  39.7315214  13.4231277  76.2487372  39.0138209  13.3835297
  74.9433483  39.4286012  13.3085764  75.7077600  39.5812860  13.4005003
  61.8282596  41.0085220  11.2975646  60.9628115  40.9970911  11.1858417
  61.9281412  40.8215443  12.1446785  61.7156763  40.9791282  11.4064590
  77.8185526  42.4818902  16.1108406  78.2440597  41.9593323  15.5578831
  77.4542446  43.0799739  15.5897029  77.8272128  42.4929129  15.9517416
  67.4539606  50.7783119  14.8705751  67.7686165  51.5919508  14.8783533
  67.8633019  50.3933338  15.5387911  67.5607704  50.8411821  14.9709843
  74.4064125  46.1953166  12.4409563  74.8775303  46.9093428  12.6099549
  74.7424304  45.5951916  12.9769433  74.5259240  46.2124630  12.5441939
  76.4941110  47.8054479  24.6201635  76.6038075  47.0163040  24.9758383
  76.8232006  47.7160415  23.8175974  76.5593516  47.6760332  24.5544026
  71.3233620  30.9680636  19.3967658  71.4561526  30.1711630  19.7248634
  71.7078773  31.4947039  19.9765934  71.3989949  30.9280553  19.5311161
  75.0438072  45.9871100  19.2037256  74.4959018  45.3628984  18.9357321
  75.5051100  46.1765372  18.4881335  75.0305281  45.9230150  19.0587687
  74.3965975  27.8910963  15.9948751  73.5911939  27.7808692  16.3116590
  74.2672711  27.9923418  15.1378617  74.2586108  27.8894633  15.9156792
  77.8531936  34.0556454  16.5888448  77.2694925  34.5565661  16.1766016
  78.1736230  33.5486011  15.9552772  77.8145111  34.0548290  16.4346956
  70.3926735  32.9697049   6.8647123  71.2142429  33.1395362   6.6228818
  69.9296386  33.1244310   6.1413421  70.4457897  33.0178782   6.7218767
  68.9822067  30.9639812  17.6445552  69.5266480  30.6230938  18.2349894
  69.0359003  31.8225273  17.7866836  69.0711186  31.0395071  17.7527425
  64.7952626  44.7256228  14.5184360  65.3997483  44.6852062  13.8898181
  64.5879938  45.5727380  14.5488416  64.8541523  44.8444230  14.4300476
  74.6096398  46.9922173  15.7346597  75.4294772  46.8485139  15.9962892
  74.3290476  47.6168372  16.2763035  74.6893141  47.0632525  15.8534537
  60.0303908  43.7090845  14.3883283  59.9328186  42.8987117  14.6973340
  60.8132778  43.6882638  14.0029551  60.1320045  43.5857935  14.3770146
  75.7390761  51.4749803  14.0079049  75.1195792  50.8842450  13.8389064
  75.6374624  52.0661238  13.3743373  75.6328436  51.4753885  13.8884039
  75.4659894  55.0202084  16.2522618  75.3418591  55.6064530  16.8872437
  76.1178178  54.5262280  16.5534893  75.5433543  55.0340889  16.3908548
  73.2102819  57.5313437  16.5004563  72.9441234  56.7152553  16.6595553
  73.2241383  57.5766592  15.6300078  73.1727541  57.4170341  16.3958045
  77.9601425  51.0691815  19.1471571  77.2673222  50.5988795  19.3932302
  78.5761752  50.8430120  19.7213278  77.9485955  50.9658947  19.2680723
  76.6841984  55.0357219  20.2898416  77.4081956  55.0210250  20.7763310
  76.7858121  55.7452574  19.7920384  76.8060193  55.1381922  20.2877203
  76.7321185  57.2149513  18.4782340  77.2442282  57.4933766  17.8291100
  76.4457528  57.9538807  18.8445153  76.7656048  57.3651866  18.4372218
  74.6351823  51.8366883  16.5167198  74.4937315  50.9850823  16.6411706
  74.9192387  51.8795543  15.6929404  74.6559669  51.7166633  16.4134822
  75.4042129  49.7497230  19.8344648  74.8684318  49.1377588  20.1505416
  75.4659893  50.3245366  20.4878315  75.3337761  49.7444158  19.9780075
  78.0265378  49.4619080  16.6800615  78.4866860  49.5358009  17.4175739
  78.0721485  50.2600334  16.3300436  78.1015933  49.5913227  16.7373372
  74.8153156  53.0908270  19.0552331  75.6778769  52.9903980  18.9689661
  74.4844939  52.5102980  18.4937903  74.8938352  52.9899897  18.9597737
  77.4445687  53.5243867  17.9337618  77.6039174  52.7687191  18.3389340
  77.2638581  54.0734807  18.5878356  77.4411046  53.4937681  18.0900324
  75.4053675  51.8775131  21.7719374  75.2356266  52.5376506  21.2267581
  74.9619625  52.0881693  22.4931863  75.3153009  52.0061113  21.7981003
  72.3055740  54.7821997  17.0307864  71.7582459  54.1122642  17.1488732
  73.0948118  54.4151845  17.0951331  72.3407924  54.6286983  17.0576564
  71.0642709  53.9942805  14.1853887  70.8864471  53.5419414  14.9108802
  70.7761732  54.7968966  14.3692364  70.9955663  54.0465362  14.3197390
   4.5962441  45.9692746  47.6234694   4.5656445  46.8237383  47.7952963
   5.1943790  45.6688039  48.1820837   4.6799599  46.0509243  47.7309496
   1.1055842  51.3254923  61.9848080   1.8122610  50.8306954  62.1135015
   1.2943778  51.7664005  61.2550738   1.2383748  51.3173273  61.8957126
   0.6413947  47.1160441  55.0219276   1.1869907  47.7945528  55.0813245
   0.5830823  46.9747902  54.1620857   0.7129861  47.1952443  54.9031336
   2.4179016  48.5445048  45.8953003   2.3018542  49.2952735  46.3245142
   3.2134902  48.2869002  46.1449090   2.5183605  48.6179895  45.9957095
   1.7314321  35.8932986  49.5927618   1.4167762  36.5836465  50.0248040
   1.2141262  35.8377768  48.8913118   1.6078791  35.9867875  49.5524567
   1.0726754  45.8937487  45.7065028   0.5438226  46.1097120  46.3662335
   1.5951774  46.5873625  45.6265998   1.0715207  46.0280624  45.7920628
   6.5274807  51.4683791  51.0798073   5.6972510  51.6794435  51.2431489
   6.4784060  50.6420846  50.8040356   6.3981543  51.3773398  51.0635438
   6.0228766  44.1154192  54.8748494   5.1857187  44.1856379  55.1096089
   5.9916997  44.1178687  54.0022797   5.8947048  44.1264419  54.7808042
   0.7458951  48.3109869  50.4660386   1.5016466  48.7441383  50.5049294
   0.8521276  47.6614638  51.0395022   0.8729122  48.2787352  50.5558411
   3.7839122  52.1383146  51.2162789   3.3474354  52.1419888  51.9721760
   3.4502038  52.8188645  50.7842366   3.6701742  52.2395602  51.2643621
   3.7036605  39.1796974  53.4592217   4.3462514  39.2495078  54.0454132
   3.9559626  38.5126197  52.9571758   3.8358738  39.0923322  53.4719496
   6.9183469  48.8564066  50.1082426   7.5799903  48.2954734  50.0078334
   6.2774881  48.3616096  50.4335117   6.9212336  48.7000475  50.1414766
   3.2048299  49.8729448  49.8494415   3.4403889  50.0174647  49.0221265
   3.3537863  50.6371856  50.2425928   3.2614103  50.0068503  49.7858019
   5.0338756  48.7131114  47.6864018   5.3646973  49.2458754  47.0804113
   5.6071844  48.7670002  48.3425969   5.1672435  48.8000683  47.6941800
   0.4993667  48.4044757  41.6024551   0.4173829  48.4746944  42.4679538
   1.1373387  48.9674500  41.4108291   0.5813504  48.4983728  41.7014500
   6.1418108  43.9541611  49.1904180   5.8854673  43.1421552  49.0002063
   6.9847422  43.9619178  48.9634367   6.2284133  43.8353608  49.1288997
   3.8243267  51.1091207  59.0262733   3.5881904  50.2779272  58.9074793
   4.4686496  51.0576814  59.6117577   3.8837938  50.9788895  59.0948626
   4.8479688  50.8935656  55.0891027   4.5425505  51.6263713  55.4504343
   4.1285903  50.4873585  54.8083813   4.6967030  50.9417389  55.1004164
  10.5481480  47.5328656  54.4159371  10.4805980  47.5524616  53.5461958
  10.5337142  48.3758984  54.6415042  10.5360236  47.6602391  54.3211848
   0.9577826  38.9363814  57.7400461   1.7031418  38.7473625  57.3263886
   0.5415131  39.4622052  57.1814317   1.0062800  38.9865960  57.5965034
   8.3340097  46.3073043  52.6905966   8.8848019  45.6741112  52.9303058
   8.3184212  46.8388435  53.3821470   8.4125293  46.2921991  52.8284824
   2.0368503  44.5469376  51.8010562   1.6933269  43.8259711  52.1517812
   2.1361546  44.3383227  50.9588920   2.0010546  44.4093580  51.7282242
   2.4981532  51.0095080  47.3434550   3.0639565  51.6688290  47.2593093
   1.8509436  51.3544778  47.8150952   2.4860289  51.1577022  47.4007307
   4.4316993  47.6728948  50.9631347   4.3450967  47.8284374  51.8166126
   3.9767472  48.3167023  50.5890752   4.3520249  47.7904703  51.0338453
   2.1990857  51.7023054  53.3743687   2.0605217  52.4004100  53.8792430
   1.4190855  51.5471711  53.0179869   2.0634084  51.7823221  53.3969962
   0.5368943  48.0019430  59.6266069   0.5316981  47.1299246  59.6308496
   1.2429936  48.2007599  59.1535525   0.6413947  47.9023304  59.5573104
   3.6944230  51.0601308  44.1360187   3.3151039  50.2738446  44.1289476
   3.0310476  51.6088165  43.9931831   3.5402705  51.0246132  44.1140984
   1.1488856  34.0027008  51.5394268   1.2672424  34.4603471  50.8061570
   0.9751032  33.1972269  51.2530485   1.1408027  33.9520780  51.3895201
   1.9404329  53.3046799  44.4711872   2.0224166  54.1113785  44.1473323
   2.4254071  53.3242758  45.1952646   2.0241487  53.4267461  44.5298771
   1.4479529  52.0644217  64.5530198   2.2614395  51.7929366  64.7135331
   1.2874496  51.7651757  63.7490394   1.5449478  51.9799143  64.4575604
   1.4600773  53.1250508  59.8253039   2.0980494  52.6310703  59.4915495
   0.8174865  53.0527908  59.2405266   1.4595000  53.0409516  59.6895394
   3.1857773  44.9739654  54.3918955   2.7585381  44.8866002  53.6367054
   2.5483826  45.0817429  54.9773799   3.0287381  44.9772313  54.3664396
   1.5155030  53.8170316  56.4658396   2.3047408  53.4659381  56.5860477
   1.6898628  54.6306704  56.2035030   1.6575312  53.8856173  56.4446264
   3.6222542  38.3811637  50.5077580   3.0096855  38.8682039  50.8931311
   3.7186717  37.7055128  51.0515231   3.5460439  38.3529946  50.6456438
   7.2647570  49.4528574  55.9355096   7.3230693  49.9015222  56.6815072
   6.6314037  49.8627386  55.4985176   7.1798865  49.5802308  55.9807644
   4.2169249  47.4744861  54.0220786   3.9767472  46.6351276  54.0263212
   4.6961256  47.5545028  54.7461560   4.2521433  47.3626261  54.1295588
   6.2174436  44.2546319  51.9750045   5.9784206  44.2142153  51.1370830
   6.3808338  45.1017471  52.1015766   6.2064740  44.3738404  51.8703527
   2.8220466  48.6396268  57.9055090   3.5454665  48.1868794  57.7266110
   2.5570429  48.9200934  57.1227418   2.8901740  48.6147236  57.7633806
   5.2555780  47.6022679  56.4085640   5.8473621  48.2419929  56.4403838
   5.6914775  46.9045715  56.6977707   5.4074212  47.5941029  56.4566473
   2.2804922  44.8167897  48.7088782   1.6096112  45.3597600  48.5801848
   2.9744672  45.2862753  48.4670477   2.2833789  44.9666168  48.6544310
   2.4433049  41.2723781  51.6179156   2.7960659  40.8453504  52.2924954
   1.5847851  41.1874624  51.7480232   2.3682494  41.1968522  51.7374166
   0.4416315  44.5359149  55.5663998   0.4214242  44.3542445  56.4198777
   0.4895516  45.4071168  55.5423582   0.4450956  44.6375688  55.6887293
   3.8757109  36.3942193  52.5463468   3.3687974  35.6871332  52.4784646
   4.6724543  36.0635382  52.6764545   3.9184348  36.2415344  52.5562463
   6.0777249  50.9107119  45.5304333   6.4610855  51.6598476  45.7602430
   5.2821363  51.1572939  45.2716322   6.0171031  51.0576813  45.5261906
   2.5177831  41.8908742  48.6940290   2.5172058  41.7357399  49.5524567
   2.3134011  42.7371729  48.6381676   2.4877609  41.9929363  48.8128230
   2.3070502  49.3209932  55.0353626   2.7325574  48.7984353  54.4824051
   1.9427422  49.9190769  54.5142249   2.3157105  49.3320159  54.8762636
   2.3416912  40.8947484  55.5133668   1.7579901  41.3956691  55.1011236
   2.6621206  40.3877041  54.8797992   2.3030088  40.8939319  55.3592176
  15.5695025  61.4878054  47.6234694  15.5389029  62.3422691  47.7952963
  16.1676373  61.1873347  48.1820837  15.6532183  61.5694551  47.7309496
   8.7694710  60.5753705  52.3787624   7.9132605  60.7362204  52.4296741
   8.8162363  59.7045769  52.3992685   8.6493821  60.4704507  52.3893690
  12.0788426  66.8440231  61.9848080  12.7855193  66.3492262  62.1135015
  12.2676362  67.2849313  61.2550738  12.2116332  66.8358581  61.8957126
  11.6146531  62.6345749  55.0219276  12.1602491  63.3130836  55.0813245
  11.5563407  62.4933210  54.1620857  11.6862445  62.7137751  54.9031336
  13.3911599  64.0630356  45.8953003  13.2751125  64.8138042  46.3245142
  14.1867486  63.8054310  46.1449090  13.4916189  64.1365203  45.9957095
   5.2741925  68.0524379  47.1822346   5.5957766  68.5929587  46.5783654
   5.9214021  67.4821151  47.3144636   5.4167980  68.0483555  47.1129381
   7.3243633  60.0540374  47.2656733   8.0223798  60.2328502  47.7578196
   7.6395965  59.5310714  46.6427122   7.4738970  60.0034146  47.2458743
   7.5131568  66.4410819  47.2536524   7.9525204  65.8327920  47.6991297
   7.3636231  66.0618193  46.4821989   7.5553034  66.2949291  47.2055691
   4.9803211  65.0354831  54.4555349   5.6252214  64.5427274  54.1366298
   5.2204988  65.1779618  55.2821428   5.1113796  64.9832273  54.5304883
   7.5189303  67.8809737  54.1062242   7.8012545  67.0861143  53.8848998
   8.2475463  68.3590325  54.1267303   7.6678866  67.8344334  54.0765257
   5.4970496  55.4232771  51.3478007   5.1673826  55.8743915  50.6781706
   4.8215498  55.3448934  51.8951014   5.3480933  55.4783906  51.3301230
  11.1140905  64.7938001  44.2067293  11.0292200  65.6498967  44.3516862
  11.6025288  64.5182325  44.8749452  11.1729802  64.8795322  44.3269375
  12.7046904  51.4118294  49.5927618  12.3900345  52.1021773  50.0248040
  12.1873846  51.3563076  48.8913118  12.5811375  51.5053183  49.5524567
  12.0459338  61.4122795  45.7065028  11.5170809  61.6282428  46.3662335
  12.5684358  62.1058933  45.6265998  12.0447791  61.5465932  45.7920628
  17.5007391  66.9869099  51.0798073  16.6705094  67.1979743  51.2431489
  17.4516643  66.1606154  50.8040356  17.3714126  66.8958706  51.0635438
   3.9358946  65.3086012  44.5072496   3.3516161  65.8136043  44.9138360
   3.5329041  65.0828399  43.7669088   3.7898250  65.3494260  44.4577522
   8.3936160  61.5551664  42.9841417   8.6332164  61.7629647  42.1716760
   8.7152001  60.7509172  43.0930361   8.4773318  61.4665765  42.8801970
   3.7026450  53.4845059  46.8300955   4.4572418  53.8523377  46.5918005
   3.5253985  53.8584614  47.5980134   3.7880929  53.5943247  46.9085843
  16.9961349  59.6339500  54.8748494  16.1589770  59.7041687  55.1096089
  16.9649580  59.6363995  54.0022797  16.8679632  59.6449727  54.7808042
   3.3926078  61.7772536  60.5896863   3.5646582  61.6678430  61.4382144
   3.9295436  62.4226941  60.3528055   3.4971082  61.8564537  60.6801960
   2.0583515  55.8915378  43.5279068   1.8759088  56.1087259  42.7020061
   2.9209128  56.0054391  43.5837682   2.1588105  55.9405276  43.4133555
   1.6697947  67.7303301  50.9702056   2.5086846  67.9626233  51.0175817
   1.7009716  66.8607612  50.9009091   1.7979665  67.6360247  50.9666700
   7.7383234  52.8941789  46.5628092   8.4669395  52.7157744  46.1166248
   7.8278127  53.7359869  46.7735270   7.8589896  52.9925668  46.5281609
  11.7191535  63.8295176  50.4660386  12.4749050  64.2626691  50.5049294
  11.8253859  63.1799946  51.0395022  11.8461706  63.7972660  50.5558411
  14.7571706  67.6568454  51.2162789  14.3206938  67.6605196  51.9721760
  14.4234622  68.3373953  50.7842366  14.6434326  67.7580910  51.2643621
  14.6769189  54.6982282  53.4592217  15.3195097  54.7680386  54.0454132
  14.9292210  54.0311504  52.9571758  14.8091321  54.6108630  53.4719496
   1.6045542  59.1689551  42.0401541   0.8903719  58.8827731  42.4523973
   2.0889511  59.5086177  42.6807928   1.5704905  59.1771201  42.1957176
   2.4486402  57.9082845  58.0716791   1.7558198  57.4379825  58.3177522
   3.0646729  57.6821149  58.6458498   2.4370931  57.8049977  58.1925943
  17.8916052  64.3749374  50.1082426  18.5532486  63.8140042  50.0078334
  17.2507464  63.8801404  50.4335117  17.8944920  64.2185783  50.1414766
   8.7792860  67.6719505  42.4163349   9.1944009  67.3404529  41.7247845
   7.9484790  67.4388407  42.2883486   8.7180869  67.5890761  42.2954197
  14.1780883  65.3914756  49.8494415  14.4136472  65.5359955  49.0221265
  14.3270447  66.1557164  50.2425928  14.2346686  65.5253810  49.7858019
   1.1726960  61.8748249  59.2143636   1.8966933  61.8601280  59.7008530
   1.2743097  62.5843604  58.7165604   1.2945170  61.9772952  59.2122423
  16.0071340  64.2316422  47.6864018  16.3379557  64.7644062  47.0804113
  16.5804428  64.2855310  48.3425969  16.1405019  64.3185991  47.6941800
  11.2203229  62.0781325  48.3687599  11.3150083  62.8170619  48.8227224
  10.5962072  61.6498800  48.8022163  11.1412259  62.1242645  48.4995746
   9.4755703  65.2567537  59.0177879  10.0494564  64.6194781  59.1726443
   9.3970506  65.2571620  58.1487537   9.5488938  65.1632649  58.9124290
  11.4726250  63.9230064  41.6024551  11.3906413  63.9932252  42.4679538
  12.1105971  64.4859808  41.4108291  11.5546088  64.0169036  41.7014500
   4.8319421  63.6890802  51.0699077   4.5738666  62.8562537  51.0430376
   4.8867904  63.9148415  50.2291577   4.8019199  63.5988574  50.9419214
   9.9120471  55.7919253  51.1703170   9.2076798  55.3028439  51.3287089
   9.9605446  55.8041728  50.2991614   9.8150523  55.7208901  51.0642509
   3.8054133  61.2428565  51.5563972   3.2303725  61.4020733  52.1927933
   3.4289810  60.6063974  51.0932422   3.6656946  61.1726378  51.5818530
   7.4727422  59.7151914  56.4156350   7.0841855  59.2906132  55.7608541
   6.8082120  59.9634064  56.9233377   7.3174350  59.6890635  56.3944218
  17.1150691  59.4726919  49.1904180  16.8587256  58.6606860  49.0002063
  17.9580005  59.4804486  48.9634367  17.2016717  59.3538916  49.1288997
  11.2953784  53.4126543  53.9280334  11.6764295  52.7304714  54.3148208
  10.4917068  53.1236145  53.7455999  11.2330245  53.2693591  53.9584390
   8.5766360  63.9450519  44.6133157   9.3906999  64.2365412  44.5015928
   8.5125502  63.2910381  44.0391450   8.6869099  63.8915713  44.5121994
  14.7975851  66.6276515  59.0262733  14.5614488  65.7964580  58.9074793
  15.4419079  66.5762122  59.6117577  14.8570521  66.4974203  59.0948626
   4.4474269  67.4172036  49.7405469   5.0848216  67.1783784  50.2857262
   4.8729340  67.6209195  49.0058630   4.6050435  67.4123046  49.7122626
   5.0877084  62.6374326  44.0780358   5.4722236  62.4182033  44.8296904
   4.8388704  63.4637271  44.2081435   5.1079156  62.7272472  44.2081435
   5.2545624  55.9180741  63.7942943   4.9399065  56.6880304  63.5312505
   4.9335557  55.3550997  63.2095170   5.1604543  55.9491010  63.6684293
  15.8212271  66.4120964  55.0891027  15.5158088  67.1449020  55.4504343
  15.1018487  66.0058893  54.8083813  15.6699613  66.4602697  55.1004164
   6.8295741  67.8944459  51.4199255   6.9034749  67.7319631  52.2741105
   7.6465247  68.0834648  51.1759737   6.9612099  67.8981201  51.5097281
  21.5214063  63.0513964  54.4159371  21.4538564  63.0709923  53.5461958
  21.5069726  63.8944292  54.6415042  21.5092820  63.1787699  54.3211848
   2.8077521  54.3071263  49.4089139   1.9399946  54.3793862  49.4746748
   3.0952725  55.1093342  49.5977114   2.7217269  54.4365410  49.4463906
  11.9310410  54.4549122  57.7400461  12.6764002  54.2658932  57.3263886
  11.5147714  54.9807360  57.1814317  11.9795384  54.5051267  57.5965034
  19.3072681  61.8258351  52.6905966  19.8580602  61.1926420  52.9303058
  19.2916796  62.3573743  53.3821470  19.3857877  61.8107299  52.8284824
   5.9595071  65.6596948  57.2365859   5.4606765  66.3712716  57.3150748
   6.7695296  65.9797614  57.1984022   6.0051178  65.8123796  57.2422428
   2.2223189  64.9219901  51.4828580   1.9336438  64.2957372  52.0174307
   3.0906537  64.8640188  51.5493261   2.3083441  64.8207445  51.5719535
  13.0101087  60.0654684  51.8010562  12.6665853  59.3445019  52.1517812
  13.1094129  59.8568535  50.9588920  12.9743130  59.9278887  51.7282242
   2.4255462  66.5615152  47.4070945   3.1801430  66.9428191  47.6206408
   1.8326075  67.0126296  47.8617642   2.4492176  66.6843979  47.5053824
  13.4714116  66.5280388  47.3434550  14.0372149  67.1873598  47.2593093
  12.8242019  66.8730086  47.8150952  13.4592872  66.6762330  47.4007307
   4.8862129  58.5177992  62.5328158   4.0761905  58.8235772  62.4218000
   5.3636816  59.2383575  62.6480742   4.8365608  58.6692593  62.5335229
   3.7453689  67.7323713  52.7811061   3.2234443  67.8724005  53.4662925
   4.1327709  66.9734378  52.9713178   3.7257390  67.6409237  52.9112137
   0.7344873  57.7829522  46.8506015   0.4469669  57.4130792  46.1137963
   1.4215341  58.2524377  46.5889720   0.7933770  57.7976491  46.7021091
   9.9420694  69.4719172  46.7671629   9.7007370  68.7387033  46.3598694
  10.1222027  70.0206029  46.1137963   9.9328318  69.4441564  46.6101852
   5.1720015  64.7627732  48.1792552   4.9762797  65.3702467  47.5852855
   5.3954360  64.0695676  47.6984226   5.1754656  64.7505258  48.0208632
   3.5698545  61.6482470  48.2973420   4.2921197  61.8123628  47.8377226
   3.0906537  62.3692135  48.1912760   3.6062275  61.7780700  48.2139034
  11.5292052  57.9846269  53.6770105  10.6903153  58.0107548  53.4408368
  11.5996420  58.6317004  54.2575452  11.4160446  58.0842395  53.7279222
   9.9761331  54.8831646  48.4097721  10.6787683  54.6839394  47.9317679
   9.7105519  54.1107588  48.7166564  10.0407963  54.7394612  48.3843162
  15.4049576  63.1914256  50.9631347  15.3183551  63.3469682  51.8166126
  14.9500056  63.8352331  50.5890752  15.3252833  63.3090011  51.0338453
   4.7389887  56.1466931  57.4628601   4.5473084  56.1622066  58.3128025
   5.5888483  56.3430605  57.4395256   4.8365609  56.1781282  57.5851896
   9.2775392  60.5125003  49.5856906   9.0310106  60.4320754  50.4193695
   9.6060515  59.7278471  49.3919434   9.2896636  60.3851268  49.6804429
  13.1723441  67.2208362  53.3743687  13.0337800  67.9189408  53.8792430
  12.3923439  67.0657019  53.0179869  13.0366668  67.3008529  53.3969962
  11.5101526  63.5204738  59.6266069  11.5049565  62.6484554  59.6308496
  12.2162520  63.7192907  59.1535525  11.6146530  63.4208612  59.5573104
   5.2372419  63.2481721  58.9979889   5.3815795  63.8282930  58.3622999
   5.5848068  63.6258018  59.7029744   5.3099881  63.3902425  59.0078884
   7.4092337  62.4471890  56.7805021   6.6615651  62.6402904  56.3753299
   7.5633862  61.6217109  56.5429142   7.3214764  62.3537001  56.6850427
  14.6676814  66.5786616  44.1360187  14.2883623  65.7923754  44.1289476
  14.0043059  67.1273473  43.9931831  14.5135289  66.5431440  44.1140984
   7.6494114  56.3422441  57.6700425   8.1066728  57.0746415  57.7973217
   7.7250443  55.9188906  58.4287680   7.7285084  56.3879679  57.8001501
  12.1221440  49.5212316  51.5394268  12.2405008  49.9788779  50.8061570
  11.9483615  48.7157577  51.2530485  12.1140611  49.4706088  51.3895201
   5.5276492  58.3324544  54.5142249   4.7372567  58.1516005  54.8359584
   5.9237115  57.5551497  54.4972543   5.4693368  58.1912005  54.5594797
  10.0142383  67.1612319  39.9548962  10.7815368  67.2212444  39.5454814
   9.5673691  66.5892760  39.4705281  10.0615810  67.0848894  39.8226673
  10.9120178  65.9666975  52.2401695  10.2365180  65.7352207  52.7415082
  10.9212554  65.3588158  51.6143800  10.8138683  65.8425900  52.2217847
   8.0414322  60.8084804  58.9965748   7.9773463  61.6694760  58.8685884
   8.1811510  60.4916797  58.1961299   8.0529792  60.8884970  58.8593960
  12.9136913  68.8232107  44.4711872  12.9956750  69.6299093  44.1473323
  13.3986655  68.8428066  45.1952646  12.9974071  68.9452769  44.5298771
   6.7233416  63.5016943  53.1381950   6.2995665  63.7021442  52.4020969
   6.5478271  62.6545791  53.2506250   6.6344297  63.4065724  53.0455641
   2.0115861  63.9968994  48.5709923   2.1680480  63.9315797  49.4265915
   2.3516454  64.7717547  48.3588603   2.0849096  64.1018192  48.6664517
   8.5495005  63.3726878  47.4403286   9.0910551  62.8697259  47.9041907
   8.8641565  63.3192073  46.6292771   8.6759403  63.2906299  47.3887098
  12.4212113  67.5829525  64.5530198  13.2346978  67.3114674  64.7135331
  12.2607079  67.2837065  63.7490394  12.5182061  67.4984451  64.4575604
   6.7181455  68.7644229  44.7243314   6.7874276  67.9058768  44.8636315
   7.4969910  68.9816110  44.3962339   6.8434305  68.6697093  44.6960471
   9.6984275  58.2663182  57.4925587   9.9126244  57.6274097  56.9388941
   9.0818174  58.7109006  57.0633448   9.6389604  58.2373326  57.3476018
  11.8623363  59.8752248  58.4308894  11.0500045  59.5678138  58.5122066
  12.3213297  59.3951248  58.9951606  11.8103748  59.7588740  58.5263488
  11.2728618  67.7531920  48.8785838  10.9143272  67.9246562  49.6549870
  10.7867328  68.2145125  48.3213837  11.1487314  67.8470891  48.9111107
   9.0899004  51.3763118  52.4812929   8.2192561  51.3501839  52.4346239
   9.3439345  51.2040310  51.6638775   8.9992564  51.3473262  52.3533066
   6.0616983  63.4331085  41.4186072   6.3509508  64.2095967  41.6929647
   6.1488782  62.9219816  42.1200572   6.1171239  63.4723003  41.5628570
   8.9576870  61.2812319  63.2137596   9.4276502  61.9054435  63.6005470
   9.0038751  60.6129295  63.7730811   9.0344746  61.2746999  63.3537667
   6.1148144  53.3869347  53.9386400   5.5986633  52.6949538  54.0637979
   5.5542073  54.0540124  53.8848999   5.9554657  53.3832604  53.9492466
   8.1840377  53.9262307  55.7679252   7.7972131  53.9511338  56.5492782
   7.6973315  53.3603985  55.3153769   8.0552886  53.8458057  55.8167156
  12.4333357  68.6435816  59.8253039  13.0713077  68.1496011  59.4915495
  11.7907448  68.5713216  59.2405266  12.4327583  68.5594824  59.6895394
  14.1590357  60.4924961  54.3918955  13.7317965  60.4051310  53.6367054
  13.5216410  60.6002737  54.9773799  14.0019964  60.4957621  54.3664396
   7.8497519  50.8129292  58.0589512   8.4790637  51.3489592  57.7810583
   8.0183382  50.7206651  58.9103078   7.9675314  50.8790654  58.1438040
   7.6511434  55.6000487  60.3315924   8.4784863  55.3285636  60.3874538
   7.6719280  56.3961328  60.6879742   7.7764284  55.6780241  60.3931107
  12.4887614  69.3355624  56.4658396  13.2779992  68.9844689  56.5860477
  12.6631211  70.1492012  56.2035030  12.6307895  69.4041481  56.4446264
   2.2280924  62.7464350  53.5186185   1.3868930  62.6468224  53.7265078
   2.4370932  63.5159830  53.8700505   2.1345616  62.8456393  53.6013499
  11.3421438  53.3465181  51.0274814  11.5471031  53.2787488  51.8731811
  11.0147862  54.1524002  50.9595992  11.3236686  53.4551121  51.1434469
   6.0397589  60.6745749  52.7683782   5.7360726  60.1201737  53.3694190
   5.3377010  60.8537959  52.2811816   5.8913799  60.6190531  52.7853488
   5.0963686  57.9846269  47.3328484   5.3723420  57.2665181  46.9206051
   5.6962355  58.5831188  47.1249590   5.2256951  57.9666639  47.2409245
  14.5955125  53.8996945  50.5077580  13.9829439  54.3867347  50.8931311
  14.6919300  53.2240436  51.0515231  14.5193023  53.8715253  50.6456438
   8.5974206  55.6559786  45.6075079   9.0517953  55.8270346  46.3322923
   9.0714252  55.0427897  45.2072855   8.7342527  55.5910671  45.6548840
   2.1189732  65.1408112  54.9377817   1.5277665  65.7817610  54.9080833
   2.8810755  65.5645729  54.9109117   2.1437992  65.2983950  54.9292965
   2.5150355  56.3010110  55.6045835   2.9751836  56.3749039  56.3420959
   2.5606461  57.0991364  55.2545656   2.5900910  56.4304257  55.6618592
   4.1633704  56.9676804  60.1717862   3.7719269  56.3210152  60.6073640
   4.3319567  57.5588240  60.7912118   4.1304615  56.9591072  60.3280568
  18.2380153  64.9713882  55.9355096  18.2963277  65.4200530  56.6815072
  17.6046621  65.3812694  55.4985176  18.1531448  65.0987616  55.9807644
  11.8779248  70.5917423  52.3709842  11.6798937  71.0808238  51.6766053
  11.2566959  70.7958665  52.9493975  11.7566812  70.6933962  52.3533065
   5.9387226  62.3602320  46.7120086   6.6829271  62.7476597  46.9503036
   6.0847923  61.5159746  46.8760574   6.0697811  62.2932793  46.7714056
   7.8566802  54.1552579  51.7451948   7.0102847  54.3275387  51.6193297
   7.8537934  53.3501923  52.0817776   7.7313952  54.0613608  51.7763075
   8.9265102  57.9327794  52.6114005   8.4525056  57.4069556  53.1219316
   9.2983238  57.3857266  52.0428867   8.9114991  57.7743790  52.6029153
  15.1901833  62.9930169  54.0220786  14.9500056  62.1536584  54.0263212
  15.6693840  63.0730336  54.7461560  15.2254016  62.8811569  54.1295588
  10.8548602  58.8264348  45.6739759  10.3271621  58.9093092  44.9845468
  11.3144310  59.5682220  45.6704404  10.8450452  58.9485011  45.5714454
  17.1907020  59.7731626  51.9750045  16.9516790  59.7327461  51.1370830
  17.3540921  60.6202778  52.1015766  17.1797323  59.8923711  51.8703527
  13.7953050  64.1581576  57.9055090  14.5187249  63.7054102  57.7266110
  13.5303012  64.4386241  57.1227418  13.8634323  64.1332544  57.7633806
   2.6639918  58.7541749  54.6407969   2.0392989  58.7660141  54.0333922
   2.3285513  59.2301924  55.2899210   2.5225410  58.8260266  54.6464538
   2.8481667  57.0966868  40.6980654   2.4994471  57.7486593  41.1612204
   2.3678113  57.0823981  39.9704526   2.7251911  57.1909921  40.6591746
  10.4085684  67.3967912  44.8049416  11.1319883  67.8626025  44.6613990
   9.9686275  67.4641521  44.0547013  10.4501377  67.4751748  44.6734198
   9.5771839  64.2565454  56.0550105   8.9628833  63.7123504  56.3498741
  10.0939124  63.7429690  55.5755921   9.5627502  64.1001863  56.0274334
   8.8168137  65.3269724  53.7894404   8.3895745  64.7019443  53.3559839
   8.8093081  65.0444646  54.6153411   8.7527278  65.1922505  53.8474232
   1.9330664  60.3634897  56.8582838   2.0924150  59.6078221  57.2634560
   1.7523557  60.9125837  57.5123576   1.9296023  60.3328711  57.0145544
   9.8750967  52.5296133  57.4133627   9.3791528  52.7259807  56.7225194
  10.6320029  52.9288801  57.2422429   9.9137791  52.6173866  57.2853764
   7.1453846  56.2038479  54.0036938   7.1696333  55.6698591  53.3149718
   7.3965320  55.6955787  54.6662529   7.1863765  56.0499382  54.0001583
   3.4255169  54.9309297  53.3842682   3.4653540  55.4318503  54.0977390
   2.6004833  55.0219690  53.1148605   3.3094694  55.0191113  53.4493221
   4.8469532  61.4469807  55.6816581   4.0161462  61.6143625  55.4751829
   4.7921049  61.0705757  56.4665467   4.7158947  61.4159538  55.7665109
   2.6553315  54.9378700  61.3172992   3.2806019  54.3940832  61.5902424
   2.2003795  54.4573617  60.7480782   2.6801576  54.7868181  61.2734586
   3.2205576  59.7225398  46.2106699   3.3608537  60.2197862  46.9135340
   3.7188109  59.0211693  46.3520913   3.3146657  59.6927377  46.3358278
   3.2505798  60.5892509  43.5399276   3.8850878  61.1852934  43.4748738
   3.3331409  60.2895967  44.3545146   3.3562349  60.6333417  43.6502362
  16.2288364  63.1207987  56.4085640  16.8206204  63.7605237  56.4403838
  16.6647358  62.4231023  56.6977707  16.3806795  63.1126337  56.4566473
   4.8284781  56.5206485  43.5144718   5.1500622  56.0409567  42.8603980
   5.0911725  57.3306131  43.3235529   4.9150806  56.5696383  43.3900210
   8.0581754  67.5425359  57.0343534   7.5506845  68.0961206  57.4784164
   7.7608400  67.6033649  56.2162308   7.9386639  67.6331670  56.9791991
  10.2243936  55.9078679  55.8768197  10.6499008  55.4551205  55.2651723
   9.6100929  55.3538749  56.1532984  10.1972581  55.7592655  55.8273222
   8.6638159  52.3793778  49.2858774   8.0206477  52.2291425  49.8543912
   8.3237566  52.1336124  48.5207879   8.5183236  52.3205901  49.2561789
  13.2537505  60.3353205  48.7088782  12.5828695  60.8782907  48.5801848
  13.9477256  60.8048061  48.4670477  13.2566373  60.4851476  48.6544310
  13.4165633  56.7909089  51.6179156  13.7693243  56.3638812  52.2924954
  12.5580434  56.7059932  51.7480232  13.3415077  56.7153829  51.7374166
   2.1149318  59.4216609  49.6762002   1.3961307  59.8380741  49.9434866
   2.4861680  59.9870847  49.1253640   2.0641250  59.5665890  49.6344809
  11.4148899  60.0544457  55.5663998  11.3946826  59.8727753  56.4198777
  11.4628099  60.9256476  55.5423582  11.4183540  60.1560996  55.6887293
   9.3595228  66.6431649  61.4912475   9.3191083  65.9981326  60.9057630
  10.1718547  66.5868267  61.8037887   9.4738382  66.5390616  61.4509424
   7.8895892  58.4614608  45.0135382   7.2960731  58.7831605  44.4619949
   7.9271170  57.6155704  44.8056488   7.8070281  58.3838937  44.9018153
  14.8489693  51.9127501  52.5463468  14.3420558  51.2056640  52.4784646
  15.6457127  51.5820690  52.6764545  14.8916932  51.7600652  52.5562463
  10.7653709  58.4194113  48.4437132  10.5367402  58.4426814  47.6015490
  11.0251785  57.5951580  48.5632142  10.7699897  58.3010193  48.3362330
   5.0472937  60.2728586  58.0462232   4.5351840  59.6649769  58.4047264
   4.8752433  60.9885178  58.5136208   4.9462574  60.2891885  58.1678456
   3.8198471  56.9570659  49.7391328   4.2955837  57.3187739  49.1041509
   3.3187071  57.6127127  50.0191470   3.8163830  57.1064848  49.6868069
  17.0509833  66.4292427  45.5304333  17.4343439  67.1783783  45.7602430
  16.2553946  66.6758247  45.2716322  16.9903615  66.5762121  45.5261906
   8.9242007  58.1952831  60.4864488   9.4813438  57.9666640  59.8542953
   8.6003073  58.9558496  60.2099700   8.9588418  58.2736667  60.3520985
   6.6425125  61.2820484  61.4516495   7.3936452  61.5972161  61.7656049
   6.8347701  61.0799655  60.6250417   6.7816539  61.2987866  61.3759891
   5.8625124  59.1011859  43.1064712   6.2424089  59.1191488  42.3215826
   5.1217720  59.5465848  42.9855559   5.8093962  59.1693634  42.9728280
  13.4910415  57.4094050  48.6940290  13.4904641  57.2542707  49.5524567
  13.2866595  58.2557037  48.6381676  13.4610193  57.5114671  48.8128230
  11.2151267  62.0891552  52.3476497  11.7104932  61.3714547  52.3080517
  10.4051043  61.7862350  52.2330984  11.1695160  61.9389198  52.3250223
   6.6609878  65.9389365  44.4973502   5.8521201  65.6156039  44.4506811
   7.1684787  65.2322587  44.4301750   6.6159545  65.7870682  44.4803796
  13.2803086  64.8395240  55.0353626  13.7058157  64.3169661  54.4824051
  12.9160006  65.4376077  54.5142249  13.2889688  64.8505467  54.8762636
   9.8681685  68.5529504  51.3654783  10.3392863  69.2669766  51.5344769
  10.2041864  67.9528254  51.9014653   9.9876800  68.5700968  51.4687159
   6.7851180  53.3256974  58.3212878   6.9179086  52.5287968  58.6493854
   7.1696333  53.8523377  58.9011154   6.8607509  53.2856891  58.4556381
  10.5055632  68.3447438  58.1282476   9.9576578  67.7205322  57.8602541
  10.9668660  68.5341710  57.4126555  10.4922841  68.2806488  57.9832907
   9.8583535  50.2487300  54.9193971   9.0529499  50.1385030  55.2361810
   9.7290271  50.3499756  54.0623837   9.7203668  50.2470971  54.8402012
  13.3149496  56.4132792  55.5133668  12.7312485  56.9141999  55.1011236
  13.6353790  55.9062349  54.8797992  13.2762671  56.4124627  55.3592176
   5.8544295  55.3273387  45.7892343   6.6759989  55.4971700  45.5474038
   5.3913946  55.4820648  45.0658641   5.9075457  55.3755120  45.6463987
   4.4439627  53.3216149  56.5690772   4.9884040  52.9807276  57.1595114
   4.4976563  54.1801611  56.7112056   4.5328746  53.3971409  56.6772645
  10.0713958  69.3498511  54.6591817  10.8912332  69.2061477  54.9208112
   9.7908036  69.9744709  55.2008255  10.1510701  69.4208863  54.7779757
  16.4703080  70.9418079  51.3478007  16.1406410  71.3929223  50.6781706
  15.7948082  70.8634242  51.8951014  16.3213516  70.9969214  51.3301230
  23.6779488  66.9303602  49.5927618  23.3632929  67.6207080  50.0248040
  23.1606429  66.8748384  48.8913118  23.5543958  67.0238490  49.5524567
  14.6759034  69.0030367  46.8300955  15.4305002  69.3708684  46.5918005
  14.4986569  69.3769922  47.5980134  14.7613512  69.1128555  46.9085843
  27.9693933  75.1524808  54.8748494  27.1322354  75.2226995  55.1096089
  27.9382164  75.1549303  54.0022797  27.8412215  75.1635035  54.7808042
  13.0316099  71.4100686  43.5279068  12.8491672  71.6272567  42.7020061
  13.8941712  71.5239699  43.5837682  13.1320688  71.4590584  43.4133555
  18.7115818  68.4127097  46.5628092  19.4401978  68.2343052  46.1166248
  18.8010711  69.2545177  46.7735270  18.8322480  68.5110975  46.5281609
  25.6501773  70.2167589  53.4592217  26.2927681  70.2865694  54.0454132
  25.9024793  69.5496812  52.9571758  25.7823905  70.1293938  53.4719496
  20.8853055  71.3104561  51.1703170  20.1809382  70.8213747  51.3287089
  20.9338029  71.3227035  50.2991614  20.7883107  71.2394209  51.0642509
  28.0883275  74.9912227  49.1904180  27.8319840  74.1792168  49.0002063
  28.9312589  74.9989794  48.9634367  28.1749300  74.8724224  49.1288997
  22.2686367  68.9311851  53.9280334  22.6496879  68.2490022  54.3148208
  21.4649652  68.6421453  53.7455999  22.2062829  68.7878899  53.9584390
  16.2278208  71.4366049  63.7942943  15.9131649  72.2065612  63.5312505
  15.9068140  70.8736305  63.2095170  16.1337127  71.4676318  63.6684293
  13.7810105  69.8256571  49.4089139  12.9132530  69.8979170  49.4746748
  14.0685309  70.6278650  49.5977114  13.6949853  69.9550718  49.4463906
  22.9042993  69.9734430  57.7400461  23.6496585  69.7844240  57.3263886
  22.4880298  70.4992668  57.1814317  22.9527968  70.0236575  57.5965034
  23.9833670  75.5839992  51.8010562  23.6398436  74.8630327  52.1517812
  24.0826713  75.3753843  50.9588920  23.9475713  75.4464195  51.7282242
  22.5024636  73.5031577  53.6770105  21.6635736  73.5292856  53.4408368
  22.5729003  74.1502312  54.2575452  22.3893029  73.6027703  53.7279222
  20.9493914  70.4016954  48.4097721  21.6520267  70.2024702  47.9317679
  20.6838103  69.6292896  48.7166564  21.0140546  70.2579920  48.3843162
  15.7122470  71.6652239  57.4628601  15.5205667  71.6807374  58.3128025
  16.5621066  71.8615913  57.4395256  15.8098192  71.6966590  57.5851896
  18.6226697  71.8607748  57.6700425  19.0799312  72.5931723  57.7973217
  18.6983026  71.4374214  58.4287680  18.7017667  71.9064987  57.8001501
  23.0954023  65.0397624  51.5394268  23.2137591  65.4974087  50.8061570
  22.9216199  64.2342885  51.2530485  23.0873194  64.9891396  51.3895201
  20.6716858  73.7848490  57.4925587  20.8858828  73.1459405  56.9388941
  20.0550758  74.2294314  57.0633448  20.6122188  73.7558634  57.3476018
  22.8355946  75.3937556  58.4308894  22.0232628  75.0863446  58.5122066
  23.2945881  74.9136556  58.9951606  22.7836331  75.2774048  58.5263488
  20.0631587  66.8948426  52.4812929  19.1925145  66.8687147  52.4346239
  20.3171928  66.7225618  51.6638775  19.9725147  66.8658570  52.3533066
  17.0880728  68.9054654  53.9386400  16.5719216  68.2134846  54.0637979
  16.5274656  69.5725431  53.8848999  16.9287241  68.9017912  53.9492466
  19.1572961  69.4447614  55.7679252  18.7704714  69.4696646  56.5492782
  18.6705898  68.8789293  55.3153769  19.0285470  69.3643365  55.8167156
  18.8230103  66.3314600  58.0589512  19.4523221  66.8674900  57.7810583
  18.9915966  66.2391959  58.9103078  18.9407897  66.3975962  58.1438040
  18.6244018  71.1185795  60.3315924  19.4517447  70.8470944  60.3874538
  18.6451864  71.9146636  60.6879742  18.7496868  71.1965549  60.3931107
  22.3154021  68.8650488  51.0274814  22.5203615  68.7972796  51.8731811
  21.9880445  69.6709310  50.9595992  22.2969269  68.9736429  51.1434469
  25.5687709  69.4182253  50.5077580  24.9562023  69.9052655  50.8931311
  25.6651884  68.7425744  51.0515231  25.4925607  69.3900561  50.6456438
  19.5706790  71.1745094  45.6075079  20.0250537  71.3455654  46.3322923
  20.0446836  70.5613205  45.2072855  19.7075110  71.1095979  45.6548840
  18.8299385  69.6737887  51.7451948  17.9835430  69.8460695  51.6193297
  18.8270518  68.8687231  52.0817776  18.7046535  69.5798916  51.7763075
  19.8997686  73.4513101  52.6114005  19.4257640  72.9254864  53.1219316
  20.2715822  72.9042574  52.0428867  19.8847575  73.2929098  52.6029153
  21.8281185  74.3449656  45.6739759  21.3004204  74.4278400  44.9845468
  22.2876894  75.0867528  45.6704404  21.8183036  74.4670318  45.5714454
  28.1639603  75.2916934  51.9750045  27.9249373  75.2512769  51.1370830
  28.3273505  76.1388086  52.1015766  28.1529907  75.4109019  51.8703527
  20.8483550  68.0481441  57.4133627  20.3524112  68.2445115  56.7225194
  21.6052612  68.4474109  57.2422429  20.8870375  68.1359174  57.2853764
  18.1186430  71.7223786  54.0036938  18.1428917  71.1883899  53.3149718
  18.3697904  71.2141095  54.6662529  18.1596349  71.5684690  54.0001583
  14.3987752  70.4494605  53.3842682  14.4386124  70.9503811  54.0977390
  13.5737417  70.5404998  53.1148605  14.2827278  70.5376421  53.4493221
  13.6285899  70.4564007  61.3172992  14.2538602  69.9126140  61.5902424
  13.1736379  69.9758925  60.7480782  13.6534159  70.3053489  61.2734586
  15.8017365  72.0391793  43.5144718  16.1233206  71.5594875  42.8603980
  16.0644308  72.8491439  43.3235529  15.8883390  72.0881690  43.3900210
  21.1976520  71.4263987  55.8768197  21.6231591  70.9736513  55.2651723
  20.5833513  70.8724057  56.1532984  21.1705165  71.2777963  55.8273222
  19.6370742  67.8979086  49.2858774  18.9939060  67.7476733  49.8543912
  19.2970149  67.6521432  48.5207879  19.4915820  67.8391209  49.2561789
  24.3898216  72.3094397  51.6179156  24.7425826  71.8824120  52.2924954
  23.5313018  72.2245240  51.7480232  24.3147661  72.2339137  51.7374166
  25.8222276  67.4312809  52.5463468  25.3153141  66.7241948  52.4784646
  26.6189710  67.1005997  52.6764545  25.8649516  67.2785960  52.5562463
  21.7386292  73.9379421  48.4437132  21.5099985  73.9612122  47.6015490
  21.9984369  73.1136888  48.5632142  21.7432480  73.8195501  48.3362330
  24.4642998  72.9279358  48.6940290  24.4637225  72.7728015  49.5524567
  24.2599179  73.7742345  48.6381676  24.4342776  73.0299979  48.8128230
  17.7583764  68.8442282  58.3212878  17.8911669  68.0473276  58.6493854
  18.1428917  69.3708685  58.9011154  17.8340093  68.8042199  58.4556381
  20.8316119  65.7672608  54.9193971  20.0262083  65.6570338  55.2361810
  20.7022854  65.8685064  54.0623837  20.6936252  65.7656278  54.8402012
  24.2882080  71.9318100  55.5133668  23.7045068  72.4327307  55.1011236
  24.6086374  71.4247657  54.8797992  24.2495255  71.9309935  55.3592176
  16.8276879  70.8458695  45.7892343  17.6492573  71.0157008  45.5474038
  16.3646530  71.0005956  45.0658641  16.8808041  70.8940428  45.6463987
  15.4172211  68.8401457  56.5690772  15.9616624  68.4992584  57.1595114
  15.4709146  69.6986919  56.7112056  15.5061330  68.9156717  56.6772645
   4.2913265  22.9070878  34.5574740   4.2607269  23.7615514  34.7293010
   4.8894614  22.6066170  35.1160884   4.3750423  22.9887374  34.6649543
   0.8006666  28.2633054  48.9188127   1.5073434  27.7685085  49.0475061
   0.9894602  28.7042136  48.1890785   0.9334572  28.2551405  48.8297172
   2.1129840  25.4823180  32.8293050   1.9969365  26.2330866  33.2585188
   2.9085726  25.2247133  33.0789137   2.2134429  25.5558027  32.9297142
   1.4265145  12.8311117  36.5267665   1.1118586  13.5214596  36.9588087
   0.9092086  12.7755899  35.8253165   1.3029615  12.9246006  36.4864614
   6.2225631  28.4061923  38.0138120   5.3923334  28.6172566  38.1771536
   6.1734884  27.5798977  37.7380403   6.0932367  28.3151529  37.9975485
   5.7179590  21.0532323  41.8088541   4.8808011  21.1234510  42.0436135
   5.6867820  21.0556818  40.9362843   5.5897872  21.0642550  41.7148089
   0.4409775  25.2488000  37.4000432   1.1967290  25.6819514  37.4389341
   0.5472100  24.5992769  37.9735068   0.5679946  25.2165484  37.4898458
   3.4789946  29.0761277  38.1502835   3.0425178  29.0798019  38.9061807
   3.1452862  29.7566776  37.7182413   3.3652566  29.1773733  38.1983668
   3.3987429  16.1175105  40.3932263   4.0413338  16.1873209  40.9794179
   3.6510450  15.4504328  39.8911805   3.5309561  16.0301453  40.4059543
   6.6134293  25.7942197  37.0422473   7.2750727  25.2332865  36.9418381
   5.9725705  25.2994228  37.3675164   6.6163160  25.6378606  37.0754813
   2.8999123  26.8107579  36.7834461   3.1354713  26.9552778  35.9561312
   3.0488687  27.5749987  37.1765975   2.9564927  26.9446634  36.7198065
   4.7289580  25.6509245  34.6204065   5.0597797  26.1836885  34.0144160
   5.3022668  25.7048133  35.2766016   4.8623259  25.7378814  34.6281847
   5.8368932  20.8919742  36.1244227   5.5805496  20.0799684  35.9342110
   6.6798246  20.8997309  35.8974414   5.9234957  20.7731740  36.0629044
   3.5194091  28.0469338  45.9602779   3.2832728  27.2157403  45.8414840
   4.1637320  27.9954945  46.5457624   3.5788762  27.9167026  46.0288673
   4.5430512  27.8313787  42.0231074   4.2376329  28.5641844  42.3844390
   3.8236727  27.4251716  41.7423860   4.3917854  27.8795520  42.0344211
  10.2432304  24.4706788  41.3499418  10.1756804  24.4902747  40.4802005
  10.2287966  25.3137115  41.5755089  10.2311060  24.5980522  41.2551895
   8.0290921  23.2451174  39.6246013   8.5798843  22.6119243  39.8643105
   8.0135036  23.7766567  40.3161517   8.1076117  23.2300122  39.7624871
   1.7319327  21.4847507  38.7350609   1.3884093  20.7637843  39.0857858
   1.8312370  21.2761359  37.8928967   1.6961370  21.3471711  38.6622289
   2.1932356  27.9473212  34.2774597   2.7590389  28.6066421  34.1933140
   1.5460260  28.2922910  34.7490999   2.1811113  28.0955153  34.3347353
   4.1267816  24.6107079  37.8971393   4.0401791  24.7662505  38.7506172
   3.6718296  25.2545155  37.5230799   4.0471073  24.7282834  37.9678500
   1.8941681  28.6401185  40.3083734   1.7556041  29.3382231  40.8132477
   1.1141679  28.4849842  39.9519916   1.7584908  28.7201352  40.3310008
   3.3895054  27.9979439  31.0700233   3.0101863  27.2116577  31.0629523
   2.7261300  28.5466296  30.9271878   3.2353529  27.9624263  31.0481030
   1.6355153  30.2424930  31.4051919   1.7174990  31.0491916  31.0813370
   2.1204895  30.2620889  32.1292693   1.7192311  30.3645593  31.4638818
   1.1430353  29.0022349  51.4870245   1.9565219  28.7307497  51.6475378
   0.9825320  28.7029888  50.6830441   1.2400302  28.9177275  51.3915651
   1.1551597  30.0628639  46.7593086   1.7931318  29.5688834  46.4255542
   0.5125689  29.9906039  46.1745313   1.1545824  29.9787647  46.6235441
   2.8808597  21.9117785  41.3259001   2.4536205  21.8244133  40.5707101
   2.2434650  22.0195560  41.9113845   2.7238205  21.9150445  41.3004443
   1.2105854  30.7548447  43.3998443   1.9998232  30.4037512  43.5200524
   1.3849452  31.5684835  43.1375076   1.3526136  30.8234304  43.3786310
   3.3173366  15.3189768  37.4417626   2.7047679  15.8060170  37.8271358
   3.4137541  14.6433259  37.9855278   3.2411263  15.2908077  37.5796485
   6.9598394  26.3906705  42.8695142   7.0181517  26.8393354  43.6155119
   6.3264861  26.8005518  42.4325223   6.8749689  26.5180439  42.9147691
   3.9120073  24.4122993  40.9560833   3.6718296  23.5729408  40.9603259
   4.3912080  24.4923159  41.6801606   3.9472257  24.3004392  41.0635635
   5.9125260  21.1924450  38.9090092   5.6735030  21.1520284  38.0710877
   6.0759161  22.0395602  39.0355813   5.9015564  21.3116535  38.8043574
   2.5171290  25.5774399  44.8395137   3.2405489  25.1246925  44.6606157
   2.2521253  25.8579065  44.0567465   2.5852564  25.5525368  44.6973852
   4.9506604  24.5400810  43.3425687   5.5424445  25.1798061  43.3743885
   5.3865599  23.8423847  43.6317754   5.1025036  24.5319160  43.3906519
   1.9755746  21.7546028  35.6428829   1.3046936  22.2975731  35.5141895
   2.6695496  22.2240884  35.4010524   1.9784613  21.9044300  35.5884357
   2.1383873  18.2101912  38.5519203   2.4911483  17.7831635  39.2265001
   1.2798675  18.1252756  38.6820279   2.0633318  18.1346653  38.6714213
   3.5707933  13.3320324  39.4803515   3.0638798  12.6249463  39.4124693
   4.3675367  13.0013513  39.6104592   3.6135172  13.1793475  39.4902510
   5.7728073  27.8485251  32.4644379   6.1561679  28.5976607  32.6942476
   4.9772186  28.0951070  32.2056369   5.7121855  27.9954944  32.4601953
   2.2128655  18.8286873  35.6280337   2.2122882  18.6735530  36.4864613
   2.0084835  19.6749861  35.5721723   2.1828433  18.9307494  35.7468276
   2.0021326  26.2588063  41.9693673   2.4276398  25.7362485  41.4164098
   1.6378246  26.8568900  41.4482296   2.0107929  26.2698290  41.8102682
   0.6776910  31.5823640  50.4786902   0.7873876  30.7932201  50.8343649
   1.0067807  31.4929577  49.6761240   0.7429316  31.4529493  50.4129293
   2.0367736  17.8325616  42.4473715   1.4530725  18.3334822  42.0351282
   2.3572030  17.3255172  41.8138038   1.9980912  17.8317451  42.2932222
  15.2645849  38.4256186  34.5574740  15.2339853  39.2800822  34.7293010
  15.8627197  38.1251478  35.1160884  15.3483007  38.5072682  34.6649543
   8.4645533  37.5131837  39.3127671   7.6083429  37.6740335  39.3636788
   8.5113187  36.6423901  39.3332732   8.3444645  37.4082638  39.3233737
   2.8486673  47.0494554  35.0764902   2.0969573  46.6710093  34.8480947
   3.2972685  47.0812988  34.3283713   2.8036340  46.9980162  34.9322405
  11.7739250  43.7818362  48.9188127  12.4806017  43.2870393  49.0475061
  11.9627185  44.2227444  48.1890785  11.9067156  43.7736713  48.8297172
   8.3011633  47.4719924  30.5050449   7.9663002  48.1496846  30.0694672
   8.8138504  47.0825235  29.9167321   8.3277214  47.5144502  30.3537241
   7.8415924  49.4234193  36.4461561   8.2255304  49.9921091  35.9066336
   7.7775066  48.6983703  35.9667377   7.8889352  49.4009656  36.2955424
  11.3097355  39.5723881  41.9559322  11.8553315  40.2508967  42.0153292
  11.2514231  39.4311341  41.0960904  11.3813269  39.6515882  41.8371383
   4.4271429  47.0612947  37.3427675   4.5281792  46.2513301  37.6524803
   3.8313175  46.9669893  36.7127353   4.3543968  46.9277975  37.2953913
  13.0862423  41.0008488  32.8293050  12.9701949  41.7516174  33.2585188
  13.8818310  40.7432441  33.0789137  13.1867013  41.0743335  32.9297142
   4.2672169  51.9790536  38.7442531   4.9109624  52.4203700  39.1338689
   4.5928424  51.1743962  38.6572790   4.4103998  51.9255731  38.7888008
   4.9692749  44.9902511  34.1162393   5.2908590  45.5307718  33.5123701
   5.6164845  44.4199282  34.2484682   5.1118804  44.9861686  34.0469428
   7.0194457  36.9918506  34.1996779   7.7174621  37.1706633  34.6918243
   7.3346789  36.4688845  33.5767169   7.1689794  36.9412278  34.1798789
   7.2082392  43.3788951  34.1876571   7.6476028  42.7706051  34.6331344
   7.0587055  42.9996324  33.4162036   7.2503858  43.2327422  34.1395738
   4.6754035  41.9732962  41.3895396   5.3203038  41.4805406  41.0706345
   4.9155812  42.1157749  42.2161475   4.8064620  41.9210405  41.4644930
   7.2140126  44.8187868  41.0402289   7.4963369  44.0239274  40.8189045
   7.9426287  45.2968456  41.0607350   7.3629690  44.7722465  41.0105304
   5.1921320  32.3610902  38.2818054   4.8624650  32.8122046  37.6121753
   4.5166322  32.2827066  38.8291060   5.0431757  32.4162037  38.2641277
  10.8091729  41.7316132  31.1407340  10.7243024  42.5877099  31.2856909
  11.2976112  41.4560456  31.8089499  10.8680626  41.8173453  31.2609422
  12.3997728  28.3496425  36.5267665  12.0851169  29.0399904  36.9588087
  11.8824670  28.2941207  35.8253165  12.2762199  28.4431314  36.4864614
  11.7410162  38.3500926  32.6405075  11.2121633  38.5660560  33.3002381
  12.2635182  39.0437065  32.5606045  11.7398615  38.4844063  32.7260674
  17.1958215  43.9247230  38.0138120  16.3655918  44.1357874  38.1771536
  17.1467467  43.0984285  37.7380403  17.0664950  43.8336837  37.9975485
   3.6309770  42.2464143  31.4412543   3.0466985  42.7514174  31.8478407
   3.2279865  42.0206530  30.7009135   3.4849074  42.2872391  31.3917568
   5.2567952  46.7551085  40.8486029   4.7394894  46.3958500  40.2447337
   5.9542344  46.2313259  40.8592095   5.2833534  46.6248773  40.7616288
   8.9131544  47.2045899  46.8102202   9.0014890  47.0172039  47.6580413
   9.3421257  46.5583328  46.4107049   8.9893647  47.0808906  46.8773954
   6.4802004  46.4877059  45.7919864   5.9172839  46.0749669  46.3159526
   7.2423028  46.4129964  46.2113008   6.5096453  46.4154459  45.9312865
   8.0886984  38.4929795  29.9181464   8.3282988  38.7007779  29.1056807
   8.4102825  37.6887304  30.0270408   8.1724142  38.4043896  29.8142017
   3.3977274  30.4223191  33.7641002   4.1523242  30.7901508  33.5258052
   3.2204809  30.7962745  34.5320181   3.4831753  30.5321379  33.8425890
   2.0397996  48.4775080  38.3956495   2.7418575  47.9627069  38.4529251
   1.9595479  48.8049231  39.2003370   2.1321756  48.4489306  38.5229287
  16.6912173  36.5717631  41.8088541  15.8540594  36.6419818  42.0436135
  16.6600404  36.5742126  40.9362843  16.5630456  36.5827858  41.7148089
   3.0876902  38.7150667  47.5236910   3.2597406  38.6056561  48.3722191
   3.6246260  39.3605072  47.2868102   3.1921906  38.7942668  47.6142006
   1.7534339  32.8293510  30.4619115   1.5709912  33.0465390  29.6360107
   2.6159952  32.9432522  30.5177729   1.8538929  32.8783408  30.3473602
   1.3648771  44.6681432  37.9042103   2.2037670  44.9004365  37.9515864
   1.3960540  43.7985743  37.8349138   1.4930489  44.5738378  37.9006747
   1.9901474  45.0882307  42.2055408   2.5299699  44.9453438  42.8758780
   1.3071420  45.4879058  42.5739434   1.9693628  45.1261978  42.3589830
   7.4334058  29.8319920  33.4968138   8.1620219  29.6535875  33.0506295
   7.5228951  30.6738000  33.7075317   7.5540720  29.9303799  33.4621656
  11.4142359  40.7673308  37.4000432  12.1699874  41.2004822  37.4389341
  11.5204683  40.1178077  37.9735068  11.5412530  40.7350792  37.4898458
  14.4522530  44.5946585  38.1502835  14.0157762  44.5983327  38.9061807
  14.1185445  45.2752084  37.7182413  14.3385150  44.6959041  38.1983668
   9.0251604  46.6354918  49.4745986   9.8092020  46.7485766  49.8401728
   8.8248198  45.8096055  49.6704672   9.1117629  46.5301637  49.5580372
  14.3720013  31.6360413  40.3932263  15.0145921  31.7058517  40.9794179
  14.6243034  30.9689636  39.8911805  14.5042145  31.5486761  40.4059543
   1.2996366  36.1067682  28.9741588   0.5854543  35.8205862  29.3864020
   1.7840335  36.4464308  29.6147975   1.2655729  36.1149332  29.1297223
   2.1437225  34.8460976  45.0056837   1.4509022  34.3757956  45.2517569
   2.7597553  34.6199281  45.5798544   2.1321755  34.7428108  45.1265990
   9.1821997  48.5465020  43.1212441   8.3837243  48.3064520  43.3786310
   9.6308008  48.5979413  43.8679489   9.1296608  48.5187411  43.2697366
   8.4743684  44.6097636  29.3503396   8.8894832  44.2782660  28.6587892
   7.6435614  44.3766538  29.2223533   8.4131693  44.5268892  29.2294243
  13.8731707  42.3292887  36.7834461  14.1087296  42.4738086  35.9561312
  14.0221271  43.0935295  37.1765975  13.9297510  42.4631942  36.7198065
   0.8677784  38.8126380  46.1483683   1.5917757  38.7979411  46.6348577
   0.9693921  39.5221735  45.6505651   0.9895993  38.9151083  46.1462469
  15.7022164  41.1694553  34.6204065  16.0330381  41.7022193  34.0144160
  16.2755252  41.2233441  35.2766016  15.8355843  41.2564122  34.6281847
   8.2422734  42.2925465  51.0132630   7.4495715  42.6068977  51.1985249
   8.3571661  42.5076933  50.1753414   8.1418144  42.3709301  50.9170964
  10.9154053  39.0159456  35.3027645  11.0100907  39.7548750  35.7567271
  10.2912896  38.5876931  35.7362210  10.8363083  39.0620776  35.4335793
   9.1706527  42.1945668  45.9517926   9.7445388  41.5572913  46.1066490
   9.0921330  42.1949751  45.0827584   9.2439762  42.1010780  45.8464337
  11.1677074  40.8608196  28.5364597  11.0857237  40.9310383  29.4019584
  11.8056795  41.4237940  28.3448338  11.2496911  40.9547167  28.6354547
   4.5270245  40.6268934  38.0039124   4.2689490  39.7940668  37.9770423
   4.5818728  40.8526547  37.1631624   4.4970023  40.5366705  37.8759260
   9.6071295  32.7297384  38.1043216   8.9027622  32.2406570  38.2627135
   9.6556270  32.7419859  37.2331661   9.5101347  32.6587032  37.9982556
   3.5004957  38.1806696  38.4904018   2.9254549  38.3398864  39.1267979
   3.1240634  37.5442105  38.0272469   3.3607770  38.1104509  38.5158577
  16.8101515  36.4105050  36.1244227  16.5538080  35.5984992  35.9342110
  17.6530829  36.4182617  35.8974414  16.8967541  36.2917047  36.0629044
  10.9904608  30.3504674  40.8620381  11.3715119  29.6682845  41.2488255
  10.1867892  30.0614276  40.6796046  10.9281069  30.2071723  40.8924437
   8.2717184  40.8828650  31.5473204   9.0857823  41.1743543  31.4355975
   8.2076326  40.2288512  30.9731497   8.3819923  40.8293845  31.4462041
  14.4926674  43.5654646  45.9602779  14.2565312  42.7342711  45.8414840
  15.1369903  43.5140253  46.5457624  14.5521345  43.4352334  46.0288673
   4.1425093  44.3550167  36.6745516   4.7799040  44.1161915  37.2197309
   4.5680164  44.5587326  35.9398676   4.3001259  44.3501178  36.6462673
   4.7827908  39.5752457  31.0120405   5.1673060  39.3560164  31.7636950
   4.5339528  40.4015403  31.1421482   4.8029980  39.6650603  31.1421482
   4.9496448  32.8558872  50.7282990   4.6349889  33.6258435  50.4652552
   4.6286381  32.2929128  50.1435216   4.8555367  32.8869141  50.6024339
  15.5163095  43.3499095  42.0231074  15.2108912  44.0827152  42.3844390
  14.7969311  42.9437024  41.7423860  15.3650437  43.3980828  42.0344211
   6.5246565  44.8322590  38.3539302   6.5985573  44.6697762  39.2081152
   7.3416071  45.0212780  38.1099784   6.6562923  44.8359332  38.4437328
   2.5028345  31.2449394  36.3429186   1.6350770  31.3171993  36.4086795
   2.7903549  32.0471473  36.5317161   2.4168093  31.3743541  36.3803952
  11.6261234  31.3927253  44.6740508  12.3714826  31.2037064  44.2603933
  11.2098538  31.9185491  44.1154364  11.6746208  31.4429399  44.5305081
   5.0651150  47.7957333  33.0852776   5.3549449  47.4046314  32.3612002
   5.7954631  47.9774038  33.5258051   5.2158034  47.7651147  33.0435583
   5.6545895  42.5975079  44.1705906   5.1557589  43.3090847  44.2490794
   6.4646120  42.9175746  44.1324068   5.7002002  42.7501928  44.1762475
   3.0057066  49.7724715  36.1512925   2.7857361  49.4822070  36.9439592
   2.7851588  49.1139671  35.6230838   2.9404660  49.6324424  36.1901834
   1.9174013  41.8598032  38.4168627   1.6287262  41.2335503  38.9514354
   2.7857361  41.8018319  38.4833307   2.0034265  41.7585576  38.5059582
  12.7051911  37.0032815  38.7350609  12.3616677  36.2823151  39.0857858
  12.8044953  36.7946667  37.8928967  12.6693954  36.8657019  38.6622289
   5.1725022  51.1454105  34.9343618   5.8249080  50.6130548  35.1634644
   4.4750630  50.7922758  35.3211492   5.1655740  51.0143628  35.0255785
   2.1206286  43.4993283  34.3410992   2.8752254  43.8806322  34.5546455
   1.5276899  43.9504427  34.7957689   2.1443000  43.6222110  34.4393870
  13.1664940  43.4658519  34.2774597  13.7322973  44.1251729  34.1933140
  12.5192843  43.8108218  34.7490999  13.1543696  43.6140461  34.3347353
   4.5812953  35.4556123  49.4668204   3.7712729  35.7613903  49.3558047
   5.0587640  36.1761706  49.5820788   4.5316432  35.6070725  49.4675275
   3.4404513  44.6701844  39.7151107   2.9185267  44.8102136  40.4002972
   3.8278533  43.9112509  39.9053225   3.4208214  44.5787368  39.8452184
   9.6371518  46.4097304  33.7011676   9.3958194  45.6765164  33.2938741
   9.8172851  46.9584161  33.0478009   9.6279142  46.3819695  33.5441899
   4.8670839  41.7005863  35.1132598   4.6713621  42.3080598  34.5192901
   5.0905184  41.0073807  34.6324272   4.8705480  41.6883389  34.9548679
   3.2649369  38.5860601  35.2313467   3.9872021  38.7501759  34.7717273
   2.7857361  39.3070266  35.1252807   3.3013099  38.7158831  35.1479081
  11.2242876  34.9224400  40.6110152  10.3853977  34.9485679  40.3748415
  11.2947244  35.5695136  41.1915498  11.1111270  35.0220526  40.6619269
   0.9156985  40.9918674  44.3367607   1.4278082  41.2702927  43.6876366
   0.6293328  41.7307968  44.7030420   0.9491848  41.1421027  44.2957485
   9.6712154  31.8209777  35.3437768  10.3738507  31.6217525  34.8657726
   9.4056343  31.0485720  35.6506611   9.7358787  31.6772743  35.3183209
  15.1000400  40.1292387  37.8971393  15.0134375  40.2847813  38.7506172
  14.6450880  40.7730462  37.5230799  15.0203657  40.2468142  37.9678500
   4.4340711  33.0845062  44.3968648   4.2423908  33.1000197  45.2468072
   5.2839307  33.2808737  44.3735303   4.5316433  33.1159414  44.5191943
   8.9726216  37.4503134  36.5196953   8.7260930  37.3698885  37.3533742
   9.3011339  36.6656602  36.3259480   8.9847460  37.3229399  36.6144476
  12.8674265  44.1586493  40.3083734  12.7288624  44.8567539  40.8132477
  12.0874263  44.0035150  39.9519916  12.7317492  44.2386660  40.3310008
  11.2052350  40.4582869  46.5606116  11.2000389  39.5862685  46.5648542
  11.9113344  40.6571038  46.0875572  11.3097354  40.3586743  46.4913151
   4.9323243  40.1859853  45.9319936   5.0766619  40.7661061  45.2963046
   5.2798892  40.5636149  46.6369791   5.0050705  40.3280557  45.9418931
   7.1043161  39.3850021  43.7145068   6.3566475  39.5781035  43.3093346
   7.2584686  38.5595241  43.4769189   7.0165588  39.2915132  43.6190474
   4.0050998  48.3762624  42.7980963   4.1540562  47.8165540  42.1454367
   4.7851000  48.4554626  43.1813482   4.1425092  48.3048190  42.7577912
  14.3627638  43.5164747  31.0700233  13.9834447  42.7301885  31.0629523
  13.6993883  44.0651604  30.9271878  14.2086113  43.4809571  31.0481030
   6.5304299  48.5477267  44.0765454   6.4547970  47.8786078  44.6316242
   6.4594158  49.2495055  44.5906120   6.5084906  48.5522175  44.2342302
   7.3444938  33.2800572  44.6040471   7.8017552  34.0124546  44.7313264
   7.4201267  32.8567037  45.3627727   7.4235908  33.3257810  44.7341548
  11.8172264  26.4590447  38.4734314  11.9355832  26.9166910  37.7401617
  11.6434439  25.6535708  38.1870532  11.8091435  26.4084219  38.3235248
   7.1874546  47.0678266  34.9089060   7.9524437  46.7987910  34.5871724
   7.0852636  46.5828277  35.6259122   7.2856041  46.9567831  34.9668887
   5.2227316  35.2702676  41.4482295   4.4323390  35.0894136  41.7699631
   5.6187939  34.4929628  41.4312590   5.1644192  35.1290137  41.4934844
   9.7093206  44.0990450  26.8889009  10.4766192  44.1590575  26.4794861
   9.2624515  43.5270891  26.4045328   9.7566634  44.0227026  26.7566719
  10.6071002  42.9045106  39.1741741   9.9316004  42.6730338  39.6755128
  10.6163378  42.2966289  38.5483846  10.5089507  42.7804031  39.1557894
   7.7365146  37.7462935  45.9305794   7.6724287  38.6072891  45.8025931
   7.8762334  37.4294928  45.1301346   7.7480616  37.8263101  45.7934007
  12.6087737  45.7610238  31.4051919  12.6907574  46.5677224  31.0813370
  13.0937479  45.7806197  32.1292693  12.6924894  45.8830901  31.4638818
   6.4184240  40.4395074  40.0721997   5.9946489  40.6399573  39.3361016
   6.2429095  39.5923922  40.1846297   6.3295120  40.3443856  39.9795687
   5.9195933  51.9545587  42.5343455   6.4091864  51.2556376  42.3519119
   5.3480166  51.6569457  43.1219512   5.9080463  51.8071811  42.5944495
   1.7066685  40.9347126  35.5049970   1.8631304  40.8693928  36.3605962
   2.0467278  41.7095678  35.2928649   1.7799920  41.0396324  35.6004564
   8.2445829  40.3105009  34.3743333   8.7861375  39.8075390  34.8381954
   8.5592388  40.2570204  33.5632818   8.3710227  40.2284430  34.3227145
  12.1162937  44.5207656  51.4870245  12.9297802  44.2492805  51.6475378
  11.9557903  44.2215196  50.6830441  12.2132885  44.4362582  51.3915651
   6.4132279  45.7022361  31.6583361   6.4825099  44.8436899  31.7976361
   7.1920734  45.9194242  31.3302386   6.5385129  45.6075225  31.6300518
   9.3935099  35.2041314  44.4265633   9.6077068  34.5652228  43.8728987
   8.7768998  35.6487137  43.9973495   9.3340428  35.1751457  44.2816065
  10.8039767  48.1260062  35.8719854  10.4119558  47.8226777  35.1542720
  10.9592839  48.9629152  35.6824808  10.7693357  48.2043899  35.7376351
  11.5574187  36.8130379  45.3648941  10.7450869  36.5056269  45.4462113
  12.0164121  36.3329379  45.9291653  11.5054572  36.6966871  45.4603535
  10.9679441  44.6910051  35.8125885  10.6094096  44.8624694  36.5889917
  10.4818152  45.1523256  35.2553883  10.8438138  44.7849022  35.8451154
   8.7849827  28.3141249  39.4152976   7.9143385  28.2879970  39.3686286
   9.0390169  28.1418441  38.5978822   8.6943388  28.2851393  39.2873113
   5.7567807  40.3709216  28.3526119   6.0460332  41.1474099  28.6269694
   5.8439606  39.8597948  29.0540619   5.8122063  40.4101135  28.4968617
   8.6527694  38.2190450  50.1477643   9.1227325  38.8432567  50.5345517
   8.6989575  37.5507426  50.7070858   8.7295570  38.2125131  50.2877714
   5.8098968  30.3247478  40.8726447   5.2937457  29.6327669  40.9978026
   5.2492897  30.9918255  40.8189045   5.6505481  30.3210735  40.8832513
   7.8791201  30.8640438  42.7019299   7.4922955  30.8889469  43.4832829
   7.3924139  30.2982116  42.2493816   7.7503710  30.7836189  42.7507203
  12.1284181  45.5813947  46.7593086  12.7663901  45.0874142  46.4255542
  11.4858272  45.5091347  46.1745313  12.1278407  45.4972955  46.6235441
  13.8541181  37.4303093  41.3259001  13.4268789  37.3429441  40.5707101
  13.2167234  37.5380868  41.9113845  13.6970788  37.4335753  41.3004443
   7.5448343  27.7507423  44.9929559   8.1741461  28.2867723  44.7150629
   7.7134206  27.6584782  45.8443125   7.6626138  27.8168785  45.0778087
   7.3462258  32.5378618  47.2655971   8.1735687  32.2663767  47.3214585
   7.3670104  33.3339460  47.6219789   7.4715108  32.6158372  47.3271154
  12.1838437  46.2733755  43.3998443  12.9730816  45.9222820  43.5200524
  12.3582035  47.0870143  43.1375076  12.3258719  46.3419612  43.3786310
   1.9231748  39.6842481  40.4526231   1.0819754  39.5846355  40.6605125
   2.1321756  40.4537961  40.8040552   1.8296440  39.7834524  40.5353546
  11.0372262  30.2843312  37.9614861  11.2421855  30.2165620  38.8071858
  10.7098686  31.0902133  37.8936038  11.0187510  30.3929252  38.0774516
   5.7348413  37.6123880  39.7023829   5.4311550  37.0579868  40.3034237
   5.0327833  37.7916090  39.2151863   5.5864623  37.5568662  39.7193535
   4.7914510  34.9224400  34.2668531   5.0674244  34.2043312  33.8546098
   5.3913179  35.5209320  34.0589637   4.9207774  34.9044770  34.1749292
   3.7966764  44.8273601  44.4095927   3.6887119  44.8375663  45.2757985
   4.0062545  45.6528381  44.2200880   3.8116875  44.9514675  44.5100018
  14.2905949  30.8375076  37.4417626  13.6780263  31.3245478  37.8271358
  14.3870124  30.1618567  37.9855278  14.2143847  30.8093385  37.5796485
   8.2925030  32.5937917  32.5415126   8.7468777  32.7648477  33.2662970
   8.7665076  31.9806028  32.1412901   8.4293350  32.5288802  32.5888887
   1.8140556  42.0786243  41.8717864   1.2228489  42.7195741  41.8420879
   2.5761579  42.5023860  41.8449164   1.8388816  42.2362081  41.8633011
   2.2101179  33.2388241  42.5385882   2.6702660  33.3127170  43.2761006
   2.2557285  34.0369495  42.1885703   2.2851734  33.3682388  42.5958638
   3.8584528  33.9054936  47.1057909   3.4670093  33.2588283  47.5413687
   4.0270391  34.4966371  47.7252164   3.8255439  33.8969204  47.2620615
  17.9330977  41.9092013  42.8695142  17.9914101  42.3578661  43.6155119
  17.2997445  42.3190826  42.4325223  17.8482272  42.0365747  42.9147691
  11.5730072  47.5295555  39.3049889  11.3749761  48.0186369  38.6106100
  10.9517783  47.7336796  39.8834022  11.4517636  47.6312093  39.2873112
   5.6338050  39.2980451  33.6460133   6.3780095  39.6854728  33.8843083
   5.7798746  38.4537877  33.8100621   5.7648635  39.2310924  33.7054103
   7.5517626  31.0930710  38.6791994   6.7053671  31.2653518  38.5533344
   7.5488758  30.2880054  39.0157823   7.4264776  30.9991739  38.7103121
   8.6215926  34.8705925  39.5454052   8.1475880  34.3447687  40.0559363
   8.9934062  34.3235398  38.9768914   8.6065815  34.7121921  39.5369199
  14.8852657  39.9308300  40.9560833  14.6450880  39.0914716  40.9603259
  15.3644664  40.0108467  41.6801606  14.9204840  39.8189700  41.0635635
  10.5499426  35.7642479  32.6079806  10.0222444  35.8471223  31.9185515
  11.0095134  36.5060351  32.6044451  10.5401276  35.8863142  32.5054501
  16.8857844  36.7109758  38.9090092  16.6467614  36.6705592  38.0710877
  17.0491745  37.5580910  39.0355813  16.8748147  36.8301843  38.8043574
  13.4903874  41.0959707  44.8395137  14.2138073  40.6432233  44.6606157
  13.2253836  41.3764373  44.0567465  13.5585147  41.0710675  44.6973852
   2.3590742  35.6919880  41.5748016   1.7343812  35.7038272  40.9673969
   2.0236337  36.1680056  42.2239256   2.2176234  35.7638397  41.5804585
   2.5432491  34.0344999  27.6320701   2.1945295  34.6864724  28.0952251
   2.0628937  34.0202112  26.9044572   2.4202735  34.1288052  27.5931793
  10.1036508  44.3346043  31.7389463  10.8270707  44.8004156  31.5954036
   9.6637099  44.4019653  30.9887060  10.1452201  44.4129880  31.6074245
   9.2722663  41.1943585  42.9890152   8.6579657  40.6501635  43.2838787
   9.7889948  40.6807822  42.5095968   9.2578326  41.0379994  42.9614381
   8.5118961  42.2647855  40.7234451   8.0846569  41.6397574  40.2899886
   8.5043905  41.9822777  41.5493458   8.4478102  42.1300636  40.7814278
   1.6281488  37.3013028  43.7922885   1.7874974  36.5456352  44.1974607
   1.4474381  37.8503968  44.4463622   1.6246847  37.2706842  43.9485591
   9.5701791  29.4674264  44.3473674   9.0742352  29.6637938  43.6565241
  10.3270853  29.8666932  44.1762476   9.6088615  29.5551998  44.2193811
   6.8404670  33.1416610  40.9376985   6.8647157  32.6076722  40.2489765
   7.0916144  32.6333919  41.6002575   6.8814589  32.9877514  40.9341629
   3.1205992  31.8687428  40.3182729   3.1604364  32.3696635  41.0317436
   2.2955657  31.9597822  40.0488652   3.0045518  31.9569244  40.3833267
   5.3035605  41.4348168  48.4203024   4.4531236  41.5719882  48.5560669
   5.4663733  40.7011946  48.8650725   5.2019469  41.3462269  48.5058623
   4.5420356  38.3847938  42.6156628   3.7112286  38.5521756  42.4091876
   4.4871873  38.0083889  43.4005513   4.4109771  38.3537669  42.7005156
   2.3504139  31.8756831  48.2513039   2.9756843  31.3318964  48.5242471
   1.8954619  31.3951748  47.6820829   2.3752400  31.7246312  48.2074633
   2.9156400  36.6603529  33.1446746   3.0559361  37.1575994  33.8475387
   3.4138933  35.9589824  33.2860959   3.0097481  36.6305508  33.2698325
   2.9456622  37.5270640  30.4739323   3.5801702  38.1231065  30.4088784
   3.0282233  37.2274098  31.2885193   3.0513173  37.5711549  30.5842409
  15.9239188  40.0586118  43.3425687  16.5157028  40.6983368  43.3743885
  16.3598182  39.3609154  43.6317754  16.0757619  40.0504468  43.3906519
   4.5235605  33.4584616  30.4484765   4.8451446  32.9787698  29.7944027
   4.7862549  34.2684262  30.2575576   4.6101630  33.5074514  30.3240257
   7.7532578  44.4803490  43.9683581   7.2457669  45.0339337  44.4124211
   7.4559224  44.5411780  43.1502355   7.6337463  44.5709801  43.9132037
   9.9194760  32.8456810  42.8108244  10.3449831  32.3929336  42.1991770
   9.3051753  32.2916880  43.0873031   9.8923405  32.6970786  42.7613269
  10.3640358  48.3966748  31.8987524   9.6469668  48.2227610  31.4334762
  11.0147096  48.1619320  31.3663010  10.3542209  48.3362540  31.7516742
   8.3588983  29.3171910  36.2198821   7.7157301  29.1669556  36.7883959
   8.0188390  29.0714255  35.4547925   8.2134060  29.2584032  36.1901836
  12.9488329  37.2731336  35.6428829  12.2779519  37.8161039  35.5141895
  13.6428080  37.7426192  35.4010524  12.9517197  37.4229608  35.5884357
   6.9975063  49.4128048  40.8740588   6.7740717  48.6546878  41.2424614
   6.5084906  49.4426070  40.1521027   6.8918512  49.3050273  40.8217329
  13.1116457  33.7287220  38.5519203  13.4644067  33.3016943  39.2265001
  12.2531258  33.6438064  38.6820279  13.0365901  33.6531961  38.6714213
   1.8100142  36.3594740  36.6102049   1.0912131  36.7758872  36.8774913
   2.1812504  36.9248978  36.0593687   1.7592073  36.5044021  36.5684856
  11.1099723  36.9922589  42.5004045  11.0897650  36.8105884  43.3538824
  11.1578923  37.8634607  42.4763628  11.1134364  37.0939127  42.6227340
   9.0546052  43.5809781  48.4252521   9.0141907  42.9359458  47.8397677
   9.8669371  43.5246398  48.7377933   9.1689206  43.4768747  48.3849470
   5.6453520  49.6328506  38.3277672   5.2313919  48.9702637  37.9381514
   6.3300894  49.7806365  37.8073366   5.6851892  49.5569165  38.1934169
   9.0118814  48.7918592  39.0801289   8.6135097  48.9020862  38.3122109
   8.3970034  49.0000658  39.6627849   8.8617703  48.8392160  39.0532588
   7.5846716  35.3992740  31.9475429   6.9911555  35.7209736  31.3959996
   7.6221994  34.5533835  31.7396535   7.5021105  35.3217068  31.8358200
  14.5440517  28.8505632  39.4803515  14.0371381  28.1434771  39.4124693
  15.3407951  28.5198821  39.6104592  14.5867756  28.6978783  39.4902510
  10.4604533  35.3572244  35.3777179  10.2318226  35.3804946  34.5355537
  10.7202609  34.5329711  35.4972189  10.4650721  35.2388324  35.2702376
   4.7423761  37.2106717  44.9802279   4.2302664  36.6027900  45.3387310
   4.5703257  37.9263310  45.4476255   4.6413398  37.2270016  45.1018503
   3.5149295  33.8948790  36.6731374   3.9906661  34.2565870  36.0381556
   3.0137895  34.5505258  36.9531517   3.5114654  34.0442979  36.6208115
  16.7460657  43.3670558  32.4644379  17.1294263  44.1161915  32.6942476
  15.9504770  43.6136378  32.2056369  16.6854439  43.5140252  32.4601953
   8.6192831  35.1330962  47.4204535   9.1764262  34.9044771  46.7883000
   8.2953896  35.8936627  47.1439747   8.6539242  35.2114798  47.2861032
   6.3375949  38.2198615  48.3856542   7.0887276  38.5350292  48.6996096
   6.5298525  38.0177786  47.5590463   6.4767363  38.2365997  48.3099937
   5.5575948  36.0389990  30.0404758   5.9374913  36.0569619  29.2555873
   4.8168544  36.4843979  29.9195606   5.5044786  36.1071765  29.9068327
  13.1861239  34.3472181  35.6280337  13.1855465  34.1920838  36.4864613
  12.9817419  35.1935168  35.5721723  13.1561017  34.4492802  35.7468276
  10.9102091  39.0269683  39.2816544  11.4055756  38.3092678  39.2420564
  10.1001867  38.7240481  39.1671031  10.8645984  38.8767329  39.2590270
   6.3560702  42.8767496  31.4313548   5.5472025  42.5534170  31.3846858
   6.8635611  42.1700719  31.3641797   6.3110369  42.7248813  31.4143843
  12.9753910  41.7773371  41.9693673  13.4008981  41.2547793  41.4164098
  12.6110830  42.3754208  41.4482296  12.9840512  41.7883598  41.8102682
   2.6107990  50.0737588  40.7291018   2.9254549  50.8873977  40.7368800
   3.0201403  49.6887807  41.3973177   2.7176088  50.1366291  40.8295110
   9.5632509  45.4907635  38.2994830  10.0343687  46.2047898  38.4684815
   9.8992688  44.8906385  38.8354700   9.6827624  45.5079099  38.4027206
  11.6509494  47.1008948  50.4786902  11.7606459  46.3117509  50.8343649
  11.9800390  47.0114885  49.6761240  11.7161900  46.9714801  50.4129293
   6.4802004  30.2635106  45.2552925   6.6129910  29.4666099  45.5833901
   6.8647157  30.7901509  45.8351201   6.5558333  30.2235022  45.3896428
  10.2006456  45.2825569  45.0622523   9.6527402  44.6583453  44.7942588
  10.6619484  45.4719841  44.3466602  10.1873665  45.2184619  44.9172954
   9.5534359  27.1865432  41.8534018   8.7480323  27.0763161  42.1701857
   9.4241095  27.2877887  40.9963884   9.4154492  27.1849102  41.7742059
  13.0100320  33.3510924  42.4473715  12.4263309  33.8520130  42.0351282
  13.3304614  32.8440480  41.8138038  12.9713495  33.3502759  42.2932222
   5.5495119  32.2651518  32.7232390   6.3710813  32.4349831  32.4814085
   5.0864770  32.4198779  31.9998688   5.6026281  32.3133251  32.5804034
   4.1390451  30.2594281  43.5030819   4.6834864  29.9185407  44.0935160
   4.1927387  31.1179742  43.6452103   4.2279570  30.3349540  43.6112692
   9.7664782  46.2876642  41.5931864  10.5863156  46.1439608  41.8548159
   9.4858859  46.9122841  42.1348302   9.8461525  46.3586994  41.7119803
  19.4378117  53.0317144  39.3127671  18.5816013  53.1925643  39.3636788
  19.4845771  52.1609208  39.3332732  19.3177229  52.9267946  39.3233737
  13.8219257  62.5679862  35.0764902  13.0702156  62.1895401  34.8480947
  14.2705268  62.5998296  34.3283713  13.7768924  62.5165470  34.9322405
  22.7471834  59.3003670  48.9188127  23.4538601  58.8055701  49.0475061
  22.9359769  59.7412752  48.1890785  22.8799739  59.2922020  48.8297172
  19.2744217  62.9905232  30.5050449  18.9395585  63.6682153  30.0694672
  19.7871087  62.6010543  29.9167321  19.3009798  63.0329810  30.3537241
  18.8148508  64.9419501  36.4461561  19.1987887  65.5106399  35.9066336
  18.7507649  64.2169011  35.9667377  18.8621935  64.9194964  36.2955424
  22.2829938  55.0909188  41.9559322  22.8285898  55.7694275  42.0153292
  22.2246814  54.9496649  41.0960904  22.3545852  55.1701190  41.8371383
  15.4004013  62.5798255  37.3427675  15.5014376  61.7698608  37.6524803
  14.8045758  62.4855201  36.7127353  15.3276552  62.4463283  37.2953913
  24.0595007  56.5193796  32.8293050  23.9434533  57.2701482  33.2585188
  24.8550893  56.2617749  33.0789137  24.1599596  56.5928642  32.9297142
  15.2404753  67.4975844  38.7442531  15.8842208  67.9389008  39.1338689
  15.5661008  66.6929270  38.6572790  15.3836581  67.4441038  38.7888008
   8.5969057  58.6018541  36.9680009   8.3619242  57.7686193  36.8612277
   8.7354698  58.8823207  36.1541209   8.5824720  58.5202044  36.8322364
  10.8959145  50.7704272  39.8664316  10.2764176  50.1796919  39.6974331
  10.7943008  51.3615707  39.2328639  10.7896820  50.7708354  39.7469306
  15.9425332  60.5087819  34.1162393  16.2641173  61.0493026  33.5123701
  16.5897429  59.9384590  34.2484682  16.0851387  60.5046994  34.0469428
  17.9927040  52.5103813  34.1996779  18.6907205  52.6891941  34.6918243
  18.3079373  51.9874153  33.5767169  18.1422378  52.4597586  34.1798789
  10.6228278  54.3156553  42.1107885  10.4986975  54.9018999  42.7457704
  11.2746562  53.8216749  42.4120160  10.7001927  54.3295358  42.2493815
  18.1814976  58.8974259  34.1876571  18.6208611  58.2891359  34.6331344
  18.0319639  58.5181632  33.4162036  18.2236441  58.7512730  34.1395738
  15.6486619  57.4918270  41.3895396  16.2935621  56.9990713  41.0706345
  15.8888396  57.6343057  42.2161475  15.7797204  57.4395713  41.4644930
  18.1872710  60.3373176  41.0402289  18.4695953  59.5424582  40.8189045
  18.9158870  60.8153764  41.0607350  18.3362274  60.2907773  41.0105304
  16.1653904  47.8796210  38.2818054  15.8357234  48.3307354  37.6121753
  15.4898906  47.8012373  38.8291060  16.0164340  47.9347345  38.2641277
  21.7824312  57.2501440  31.1407340  21.6975607  58.1062406  31.2856909
  22.2708695  56.9745764  31.8089499  21.8413210  57.3358761  31.2609422
  22.7142745  53.8686234  32.6405075  22.1854217  54.0845868  33.3002381
  23.2367765  54.5622372  32.5606045  22.7131198  54.0029371  32.7260674
  14.6042353  57.7649451  31.4412543  14.0199569  58.2699482  31.8478407
  14.2012448  57.5391838  30.7009135  14.4581657  57.8057699  31.3917568
  10.1586382  63.4804212  38.2436215   9.6753960  64.2054702  38.2195798
  10.9709700  63.7780342  38.3546372  10.2077130  63.6306566  38.2563494
  16.2300536  62.2736393  40.8486029  15.7127478  61.9143808  40.2447337
  16.9274927  61.7498567  40.8592095  16.2566117  62.1434081  40.7616288
  19.8864128  62.7231207  46.8102202  19.9747474  62.5357347  47.6580413
  20.3153840  62.0768636  46.4107049  19.9626230  62.5994214  46.8773954
  17.4534588  62.0062367  45.7919864  16.8905423  61.5934976  46.3159526
  18.2155611  61.9315272  46.2113008  17.4829036  61.9339767  45.9312865
  19.0619568  54.0115103  29.9181464  19.3015571  54.2193087  29.1056807
  19.3835409  53.2072612  30.0270408  19.1456726  53.9229204  29.8142017
  14.3709858  45.9408499  33.7641002  15.1255826  46.3086816  33.5258052
  14.1937393  46.3148053  34.5320181  14.4564336  46.0506686  33.8425890
  13.0130579  63.9960388  38.3956495  13.7151158  63.4812377  38.4529251
  12.9328062  64.3234539  39.2003370  13.1054340  63.9674614  38.5229287
  27.6644757  52.0902939  41.8088541  26.8273178  52.1605126  42.0436135
  27.6332988  52.0927434  40.9362843  27.5363039  52.1013166  41.7148089
  14.0609486  54.2335975  47.5236910  14.2329989  54.1241869  48.3722191
  14.5978843  54.8790380  47.2868102  14.1654490  54.3127976  47.6142006
  12.7266923  48.3478818  30.4619115  12.5442496  48.5650698  29.6360107
  13.5892536  48.4617830  30.5177729  12.8271512  48.3968715  30.3473602
  12.3381355  60.1866740  37.9042103  13.1770254  60.4189673  37.9515864
  12.3693124  59.3171051  37.8349138  12.4663072  60.0923686  37.9006747
  12.9634058  60.6067615  42.2055408  13.5032283  60.4638746  42.8758780
  12.2804004  61.0064366  42.5739434  12.9426211  60.6447286  42.3589830
  18.4066642  45.3505228  33.4968138  19.1352802  45.1721183  33.0506295
  18.4961535  46.1923308  33.7075317  18.5273304  45.4489107  33.4621656
  22.3874942  56.2858616  37.4000432  23.1432458  56.7190130  37.4389341
  22.4937267  55.6363385  37.9735068  22.5145113  56.2536099  37.4898458
  25.4255114  60.1131893  38.1502835  24.9890345  60.1168635  38.9061807
  25.0918029  60.7937392  37.7182413  25.3117734  60.2144349  38.1983668
  19.9984187  62.1540226  49.4745986  20.7824604  62.2671073  49.8401728
  19.7980782  61.3281363  49.6704672  20.0850213  62.0486945  49.5580372
   8.3671203  56.8267906  42.3589830   8.1009618  56.0107022  42.5180820
   8.3809767  56.8721061  41.4885345   8.3295925  56.7124811  42.2543312
  12.2728950  51.6252990  28.9741588  11.5587127  51.3391170  29.3864020
  12.7572918  51.9649616  29.6147975  12.2388313  51.6334640  29.1297223
  13.1169809  50.3646284  45.0056837  12.4241606  49.8943264  45.2517569
  13.7330136  50.1384589  45.5798544  13.1054339  50.2613416  45.1265990
  20.1554581  64.0650328  43.1212441  19.3569826  63.8249828  43.3786310
  20.6040592  64.1164721  43.8679489  20.1029192  64.0372719  43.2697366
  19.4476268  60.1282944  29.3503396  19.8627416  59.7967968  28.6587892
  18.6168197  59.8951846  29.2223533  19.3864276  60.0454200  29.2294243
   8.7764616  57.6126685  39.6401574   8.5940190  57.5873571  38.7873866
   9.5114285  58.0825623  39.6790483   8.8578680  57.6788047  39.5199492
  11.8410368  54.3311688  46.1483683  12.5650340  54.3164719  46.6348577
  11.9426505  55.0407043  45.6505651  11.9628577  54.4336391  46.1462469
  19.2155317  57.8110773  51.0132630  18.4228298  58.1254284  51.1985249
  19.3304245  58.0262241  50.1753414  19.1150728  57.8894609  50.9170964
  21.8886636  54.5344764  35.3027645  21.9833491  55.2734058  35.7567271
  21.2645480  54.1062239  35.7362210  21.8095666  54.5806084  35.4335793
  20.1439110  57.7130976  45.9517926  20.7177972  57.0758221  46.1066490
  20.0653914  57.7135059  45.0827584  20.2172345  57.6196088  45.8464337
   8.7435527  54.4920186  39.7900640   9.3209029  54.3556637  40.4292886
   8.0449588  54.0355970  40.0446225   8.7256548  54.4042452  39.9222930
  22.1409658  56.3793504  28.5364597  22.0589820  56.4495691  29.4019584
  22.7789378  56.9423248  28.3448338  22.2229495  56.4732475  28.6354547
  15.5002829  56.1454242  38.0039124  15.2422073  55.3125976  37.9770423
  15.5551312  56.3711855  37.1631624  15.4702607  56.0552013  37.8759260
  20.5803879  48.2482692  38.1043216  19.8760206  47.7591878  38.2627135
  20.6288853  48.2605167  37.2331661  20.4833931  48.1772340  37.9982556
  14.4737541  53.6992004  38.4904018  13.8987132  53.8584172  39.1267979
  14.0973217  53.0627413  38.0272469  14.3340353  53.6289817  38.5158577
  18.1410830  52.1715353  43.3496397  17.7525262  51.7469571  42.6948588
  17.4765528  52.4197503  43.8573423  17.9857757  52.1454074  43.3284265
   4.2194360  53.3432079  36.5048459   4.3054612  52.9663947  37.2861989
   4.8470157  52.9692524  36.0268417   4.3250911  53.2317561  36.5493936
  21.9637191  45.8689982  40.8620381  22.3447703  45.1868153  41.2488255
  21.1600475  45.5799584  40.6796046  21.9013653  45.7257031  40.8924437
  19.2449768  56.4013958  31.5473204  20.0590407  56.6928851  31.4355975
  19.1808909  55.7473820  30.9731497  19.3552507  56.3479153  31.4462041
  25.4659258  59.0839954  45.9602779  25.2297895  58.2528019  45.8414840
  26.1102487  59.0325561  46.5457624  25.5253929  58.9537642  46.0288673
  15.1157676  59.8735475  36.6745516  15.7531623  59.6347223  37.2197309
  15.5412748  60.0772634  35.9398676  15.2733842  59.8686486  36.6462673
   9.8070319  62.1123812  40.5579820   9.8474464  62.3838663  39.7299599
  10.3664843  62.6365720  40.9737608   9.8953664  62.2299567  40.4971708
  15.7560491  55.0937765  31.0120405  16.1405644  54.8745472  31.7636950
  15.5072112  55.9200710  31.1421482  15.7762564  55.1835911  31.1421482
  15.9229032  48.3744180  50.7282990  15.6082473  49.1443743  50.4652552
  15.6018964  47.8114436  50.1435216  15.8287951  48.4054449  50.6024339
  26.4895679  58.8684403  42.0231074  26.1841496  59.6012460  42.3844390
  25.7701894  58.4622332  41.7423860  26.3383021  58.9166136  42.0344211
  17.4979148  60.3507898  38.3539302  17.5718156  60.1883070  39.2081152
  18.3148654  60.5398088  38.1099784  17.6295507  60.3544640  38.4437328
  32.1897471  55.5077403  41.3499418  32.1221971  55.5273363  40.4802005
  32.1753133  56.3507731  41.5755089  32.1776227  55.6351138  41.2551895
  11.2584905  60.6965761  35.3833746  10.4323022  60.9427498  35.2568024
  11.3196896  60.6177842  36.2495804  11.1459072  60.7210710  35.4922690
  13.4760929  46.7634702  36.3429186  12.6083354  46.8357301  36.4086795
  13.7636133  47.5656781  36.5317161  13.3900677  46.8928849  36.3803952
  22.5993817  46.9112561  44.6740508  23.3447409  46.7222372  44.2603933
  22.1831122  47.4370799  44.1154364  22.6478792  46.9614707  44.5305081
  16.0383734  63.3142641  33.0852776  16.3282032  62.9231622  32.3612002
  16.7687215  63.4959346  33.5258051  16.1890618  63.2836455  33.0435583
  16.6278479  58.1160387  44.1705906  16.1290173  58.8276155  44.2490794
  17.4378703  58.4361054  44.1324068  16.6734586  58.2687236  44.1762475
  13.9789649  65.2910023  36.1512925  13.7589945  65.0007378  36.9439592
  13.7584171  64.6324978  35.6230838  13.9137244  65.1509732  36.1901834
  12.8906597  57.3783340  38.4168627  12.6019845  56.7520811  38.9514354
  13.7589945  57.3203627  38.4833307  12.9766849  57.2770884  38.5059582
  23.6784494  52.5218123  38.7350609  23.3349260  51.8008459  39.0857858
  23.7777537  52.3131974  37.8928967  23.6426537  52.3842327  38.6622289
  16.1457605  66.6639413  34.9343618  16.7981663  66.1315856  35.1634644
  15.4483214  66.3108066  35.3211492  16.1388323  66.5328936  35.0255785
  13.0938870  59.0178591  34.3410992  13.8484838  59.3991630  34.5546455
  12.5009483  59.4689735  34.7957689  13.1175584  59.1407418  34.4393870
  24.1397523  58.9843827  34.2774597  24.7055556  59.6437037  34.1933140
  23.4925427  59.3293525  34.7490999  24.1276280  59.1325769  34.3347353
  15.5545537  50.9741431  49.4668204  14.7445313  51.2799211  49.3558047
  16.0320224  51.6947014  49.5820788  15.5049016  51.1256032  49.4675275
  14.4137097  60.1887152  39.7151107  13.8917850  60.3287444  40.4002972
  14.8011117  59.4297817  39.9053225  14.3940797  60.0972676  39.8452184
  11.4028281  50.2392961  33.7846062  11.1153076  49.8694231  33.0478009
  12.0898749  50.7087816  33.5229767  11.4617178  50.2539930  33.6361138
  20.6104102  61.9282612  33.7011676  20.3690777  61.1950472  33.2938741
  20.7905434  62.4769469  33.0478009  20.6011726  61.9005003  33.5441899
  15.8403422  57.2191171  35.1132598  15.6446205  57.8265906  34.5192901
  16.0637768  56.5259115  34.6324272  15.8438063  57.2068697  34.9548679
  14.2381952  54.1045909  35.2313467  14.9604604  54.2687067  34.7717273
  13.7589945  54.8255574  35.1252807  14.2745683  54.2344139  35.1479081
  22.1975460  50.4409708  40.6110152  21.3586560  50.4670987  40.3748415
  22.2679827  51.0880444  41.1915498  22.0843853  50.5405834  40.6619269
  11.8889569  56.5103982  44.3367607  12.4010666  56.7888235  43.6876366
  11.6025912  57.2493276  44.7030420  11.9224432  56.6606335  44.2957485
  20.6444738  47.3395085  35.3437768  21.3471091  47.1402833  34.8657726
  20.3788927  46.5671027  35.6506611  20.7091370  47.1958051  35.3183209
   8.9756475  51.0174174  34.6331343   9.0772612  51.8200335  34.9612319
   9.7712362  50.8161509  34.3354424   9.1084381  51.1060072  34.6366699
  15.4073294  48.6030370  44.3968648  15.2156491  48.6185505  45.2468072
  16.2571890  48.7994045  44.3735303  15.5049016  48.6344721  44.5191943
   9.7920207  51.1321352  42.3752465   9.6505699  50.2805292  42.4996973
  10.0760771  51.1750012  41.5514671   9.8128053  51.0121102  42.2720089
  19.9458800  52.9688442  36.5196953  19.6993514  52.8884193  37.3533742
  20.2743923  52.1841910  36.3259480  19.9580043  52.8414707  36.6144476
  23.8406848  59.6771801  40.3083734  23.7021208  60.3752847  40.8132477
  23.0606846  59.5220458  39.9519916  23.7050075  59.7571968  40.3310008
  22.1784934  55.9768177  46.5606116  22.1732972  55.1047993  46.5648542
  22.8845927  56.1756346  46.0875572  22.2829938  55.8772051  46.4913151
  15.9055827  55.7045161  45.9319936  16.0499203  56.2846369  45.2963046
  16.2531476  56.0821457  46.6369791  15.9783288  55.8465865  45.9418931
  18.0775744  54.9035329  43.7145068  17.3299058  55.0966343  43.3093346
  18.2317270  54.0780548  43.4769189  17.9898172  54.8100440  43.6190474
  14.9783582  63.8947932  42.7980963  15.1273146  63.3350848  42.1454367
  15.7583584  63.9739934  43.1813482  15.1157676  63.8233498  42.7577912
  25.3360221  59.0350055  31.0700233  24.9567030  58.2487193  31.0629523
  24.6726467  59.5836912  30.9271878  25.1818696  58.9994879  31.0481030
  18.3177521  48.7985880  44.6040471  18.7750135  49.5309854  44.7313264
  18.3933850  48.3752345  45.3627727  18.3968491  48.8443118  44.7341548
  10.5610513  49.0451699  45.6929915  10.0252702  48.4332058  46.0090682
  10.6228277  49.6199835  46.3463582  10.4906145  49.0398627  45.8365342
  18.1607130  62.5863574  34.9089060  18.9257021  62.3173218  34.5871724
  18.0585219  62.1013584  35.6259122  18.2588625  62.4753139  34.9668887
  16.1959899  50.7887984  41.4482295  15.4055974  50.6079444  41.7699631
  16.5920522  50.0114936  41.4312590  16.1376775  50.6475444  41.4934844
  20.6825790  59.6175758  26.8889009  21.4498775  59.6775883  26.4794861
  20.2357099  59.0456199  26.4045328  20.7299217  59.5412334  26.7566719
  21.5803586  58.4230414  39.1741741  20.9048587  58.1915646  39.6755128
  21.5895962  57.8151597  38.5483846  21.4822090  58.2989339  39.1557894
  18.7097730  53.2648243  45.9305794  18.6456871  54.1258199  45.8025931
  18.8494917  52.9480236  45.1301346  18.7213200  53.3448409  45.7934007
  23.5820320  61.2795546  31.4051919  23.6640158  62.0862532  31.0813370
  24.0670062  61.2991505  32.1292693  23.6657478  61.4016208  31.4638818
  17.3916823  55.9580382  40.0721997  16.9679073  56.1584881  39.3361016
  17.2161679  55.1109230  40.1846297  17.3027704  55.8629163  39.9795687
  16.8928517  67.4730895  42.5343455  17.3824447  66.7741684  42.3519119
  16.3212749  67.1754765  43.1219512  16.8813047  67.3257119  42.5944495
  12.6799268  56.4532433  35.5049970  12.8363888  56.3879236  36.3605962
  13.0199862  57.2280986  35.2928649  12.7532503  56.5581632  35.6004564
  19.2178413  55.8290317  34.3743333  19.7593958  55.3260698  34.8381954
  19.5324972  55.7755512  33.5632818  19.3442810  55.7469738  34.3227145
  23.0895520  60.0392964  51.4870245  23.9030386  59.7678113  51.6475378
  22.9290487  59.7400504  50.6830441  23.1865469  59.9547890  51.3915651
  17.3864863  61.2207669  31.6583361  17.4557683  60.3622207  31.7976361
  18.1653318  61.4379549  31.3302386  17.5117713  61.1260533  31.6300518
  20.3667682  50.7226622  44.4265633  20.5809652  50.0837536  43.8728987
  19.7501582  51.1672445  43.9973495  20.3073012  50.6936765  44.2816065
  21.7772350  63.6445370  35.8719854  21.3852142  63.3412085  35.1542720
  21.9325423  64.4814460  35.6824808  21.7425940  63.7229207  35.7376351
   9.2533530  53.6367384  35.8210737   9.6332495  54.0551929  35.1571004
   8.6788895  54.2180840  36.1279580   9.2244855  53.7845243  35.7687478
  22.5306770  52.3315687  45.3648941  21.7183452  52.0241577  45.4462113
  22.9896705  51.8514687  45.9291653  22.4787155  52.2152179  45.4603535
  21.9412025  60.2095359  35.8125885  21.5826680  60.3810002  36.5889917
  21.4550736  60.6708564  35.2553883  21.8170722  60.3034330  35.8451154
  19.7582411  43.8326557  39.4152976  18.8875969  43.8065278  39.3686286
  20.0122752  43.6603749  38.5978822  19.6675971  43.8036701  39.2873113
  16.7300390  55.8894524  28.3526119  17.0192915  56.6659407  28.6269694
  16.8172189  55.3783256  29.0540619  16.7854647  55.9286442  28.4968617
  19.6260278  53.7375758  50.1477643  20.0959909  54.3617875  50.5345517
  19.6722158  53.0692734  50.7070858  19.7028154  53.7310438  50.2877714
  16.7831552  45.8432786  40.8726447  16.2670040  45.1512977  40.9978026
  16.2225480  46.5103563  40.8189045  16.6238065  45.8396043  40.8832513
  18.8523785  46.3825746  42.7019299  18.4655538  46.4074777  43.4832829
  18.3656722  45.8167424  42.2493816  18.7236294  46.3021497  42.7507203
  23.1016764  61.0999255  46.7593086  23.7396485  60.6059450  46.4255542
  22.4590856  61.0276655  46.1745313  23.1010991  61.0158263  46.6235441
  24.8273765  52.9488401  41.3259001  24.4001373  52.8614749  40.5707101
  24.1899817  53.0566176  41.9113845  24.6703372  52.9521060  41.3004443
  18.5180927  43.2692731  44.9929559  19.1474045  43.8053031  44.7150629
  18.6866789  43.1770090  45.8443125  18.6358721  43.3354093  45.0778087
  18.3194842  48.0563926  47.2655971  19.1468271  47.7849075  47.3214585
  18.3402688  48.8524768  47.6219789  18.4447692  48.1343680  47.3271154
  23.1571021  61.7919063  43.3998443  23.9463399  61.4408128  43.5200524
  23.3314619  62.6055451  43.1375076  23.2991303  61.8604920  43.3786310
  12.8964331  55.2027789  40.4526231  12.0552338  55.1031663  40.6605125
  13.1054339  55.9723269  40.8040552  12.8029024  55.3019832  40.5353546
  10.3739898  52.8247326  38.2810982   9.9796596  52.8990337  37.5061092
   9.8180015  53.2105272  38.8319344  10.2342711  52.8929100  38.2478642
  16.7080996  53.1309188  39.7023829  16.4044134  52.5765176  40.3034237
  16.0060417  53.3101398  39.2151863  16.5597206  53.0753970  39.7193535
  15.7647093  50.4409708  34.2668531  16.0406828  49.7228620  33.8546098
  16.3645763  51.0394628  34.0589637  15.8940358  50.4230078  34.1749292
  14.7699347  60.3458909  44.4095927  14.6619702  60.3560971  45.2757985
  14.9795129  61.1713689  44.2200880  14.7849458  60.4699983  44.5100018
  19.2657614  48.1123225  32.5415126  19.7201360  48.2833785  33.2662970
  19.7397660  47.4991336  32.1412901  19.4025934  48.0474110  32.5888887
  12.7873139  57.5971551  41.8717864  12.1961073  58.2381049  41.8420879
  13.5494163  58.0209168  41.8449164  12.8121400  57.7547389  41.8633011
  13.1833762  48.7573549  42.5385882  13.6435244  48.8312478  43.2761006
  13.2289869  49.5554803  42.1885703  13.2584317  48.8867696  42.5958638
  14.8317112  49.4240244  47.1057909  14.4402677  48.7773591  47.5413687
  15.0002975  50.0151679  47.7252164  14.7988022  49.4154511  47.2620615
  28.9063561  57.4277321  42.8695142  28.9646685  57.8763969  43.6155119
  28.2730028  57.8376133  42.4325223  28.8214856  57.5551055  42.9147691
  22.5462656  63.0480863  39.3049889  22.3482344  63.5371677  38.6106100
  21.9250367  63.2522104  39.8834022  22.4250220  63.1497401  39.2873112
  16.6070634  54.8165759  33.6460133  17.3512679  55.2040036  33.8843083
  16.7531330  53.9723185  33.8100621  16.7381219  54.7496232  33.7054103
  18.5250209  46.6116018  38.6791994  17.6786254  46.7838826  38.5533344
  18.5221342  45.8065362  39.0157823  18.3997359  46.5177047  38.7103121
  19.5948510  50.3891233  39.5454052  19.1208464  49.8632995  40.0559363
  19.9666646  49.8420706  38.9768914  19.5798399  50.2307229  39.5369199
   9.9721540  52.3862739  44.9137598  10.8347153  52.2858449  44.8274928
   9.6413323  51.8057449  44.3523170  10.0506736  52.2854366  44.8183004
  25.8585240  55.4493608  40.9560833  25.6183463  54.6100024  40.9603259
  26.3377248  55.5293775  41.6801606  25.8937424  55.3375008  41.0635635
  21.5232009  51.2827787  32.6079806  20.9955028  51.3656531  31.9185515
  21.9827718  52.0245659  32.6044451  21.5133860  51.4048450  32.5054501
  27.8590427  52.2295066  38.9090092  27.6200197  52.1890900  38.0710877
  28.0224329  53.0766218  39.0355813  27.8480731  52.3487151  38.8043574
  24.4636457  56.6145015  44.8395137  25.1870656  56.1617541  44.6606157
  24.1986420  56.8949681  44.0567465  24.5317731  56.5895983  44.6973852
  13.3323326  51.2105188  41.5748016  12.7076396  51.2223580  40.9673969
  12.9968921  51.6865364  42.2239256  13.1908818  51.2823705  41.5804585
  13.5165075  49.5530307  27.6320701  13.1677879  50.2050032  28.0952251
  13.0361520  49.5387420  26.9044572  13.3935318  49.6473360  27.5931793
  10.0449001  59.2705648  43.0151781   9.5148926  58.5798087  43.0646755
  10.3174095  59.2615834  42.1864489  10.0073724  59.1672780  42.8999197
  21.0769092  59.8531351  31.7389463  21.8003291  60.3189464  31.5954036
  20.6369683  59.9204960  30.9887060  21.1184784  59.9315188  31.6074245
  20.2455247  56.7128893  42.9890152  19.6312240  56.1686943  43.2838787
  20.7622532  56.1993130  42.5095968  20.2310909  56.5565302  42.9614381
  19.4851544  57.7833163  40.7234451  19.0579152  57.1582882  40.2899886
  19.4776489  57.5008085  41.5493458  19.4210685  57.6485944  40.7814278
  20.5434374  44.9859572  44.3473674  20.0474935  45.1823246  43.6565241
  21.3003436  45.3852240  44.1762476  20.5821199  45.0737306  44.2193811
  17.8137254  48.6601918  40.9376985  17.8379741  48.1262030  40.2489765
  18.0648727  48.1519226  41.6002575  17.8547173  48.5062822  40.9341629
   5.3244844  55.9433413  40.3720129   5.2188293  55.8980257  39.5072213
   4.5745064  56.2887193  40.6534414   5.1980447  55.9874321  40.2857459
  14.0938576  47.3872736  40.3182729  14.1336948  47.8881942  41.0317436
  13.2688241  47.4783130  40.0488652  13.9778102  47.4754552  40.3833267
  16.2768189  56.9533476  48.4203024  15.4263819  57.0905190  48.5560669
  16.4396317  56.2197254  48.8650725  16.1752052  56.8647577  48.5058623
  15.5152939  53.9033246  42.6156628  14.6844869  54.0707064  42.4091876
  15.4604457  53.5269197  43.4005513  15.3842354  53.8722977  42.7005156
  13.3236723  47.3942139  48.2513039  13.9489426  46.8504271  48.5242471
  12.8687203  46.9137056  47.6820829  13.3484983  47.2431620  48.2074633
  13.8888983  52.1788837  33.1446746  14.0291944  52.6761302  33.8475387
  14.3871516  51.4775132  33.2860959  13.9830064  52.1490816  33.2698325
  13.9189206  53.0455948  30.4739323  14.5534285  53.6416373  30.4088784
  14.0014816  52.7459406  31.2885193  14.0245757  53.0896856  30.5842409
  26.8971771  55.5771426  43.3425687  27.4889612  56.2168676  43.3743885
  27.3330766  54.8794462  43.6317754  27.0490203  55.5689776  43.3906519
  15.4968189  48.9769924  30.4484765  15.8184030  48.4973006  29.7944027
  15.7595132  49.7869570  30.2575576  15.5834214  49.0259822  30.3240257
  18.7265161  59.9988798  43.9683581  18.2190252  60.5524645  44.4124211
  18.4291807  60.0597088  43.1502355  18.6070046  60.0895109  43.9132037
  20.8927344  48.3642118  42.8108244  21.3182415  47.9114644  42.1991770
  20.2784337  47.8102188  43.0873031  20.8655989  48.2156094  42.7613269
  10.4242194  55.2423789  33.7428869  10.9334423  55.8388297  34.1240174
  10.8976466  54.9749763  33.0605288  10.5685569  55.2909605  33.6983391
  21.3372942  63.9152056  31.8987524  20.6202251  63.7412918  31.4334762
  21.9879679  63.6804628  31.3663010  21.3274792  63.8547848  31.7516742
  19.3321566  44.8357217  36.2198821  18.6889884  44.6854864  36.7883959
  18.9920973  44.5899563  35.4547925  19.1866644  44.7769340  36.1901836
  23.9220913  52.7916644  35.6428829  23.2512103  53.3346347  35.5141895
  24.6160663  53.2611500  35.4010524  23.9249780  52.9414916  35.5884357
  17.9707647  64.9313356  40.8740588  17.7473301  64.1732186  41.2424614
  17.4817490  64.9611378  40.1521027  17.8651096  64.8235581  40.8217329
  24.0849040  49.2472528  38.5519203  24.4376650  48.8202251  39.2265001
  23.2263842  49.1623371  38.6820279  24.0098485  49.1717269  38.6714213
  12.7832725  51.8780048  36.6102049  12.0644714  52.2944180  36.8774913
  13.1545088  52.4434286  36.0593687  12.7324657  52.0229329  36.5684856
  22.0832306  52.5107897  42.5004045  22.0630233  52.3291192  43.3538824
  22.1311507  53.3819915  42.4763628  22.0866947  52.6124435  42.6227340
  20.0278636  59.0995089  48.4252521  19.9874491  58.4544765  47.8397677
  20.8401954  59.0431706  48.7377933  20.1421789  58.9954055  48.3849470
  16.6186104  65.1513814  38.3277672  16.2046502  64.4887945  37.9381514
  17.3033478  65.2991673  37.8073366  16.6584475  65.0754473  38.1934169
  19.9851398  64.3103900  39.0801289  19.5867681  64.4206170  38.3122109
  19.3702617  64.5185966  39.6627849  19.8350287  64.3577468  39.0532588
  18.5579300  50.9178048  31.9475429  17.9644139  51.2395044  31.3959996
  18.5954577  50.0719143  31.7396535  18.4753689  50.8402376  31.8358200
  21.4337116  50.8757552  35.3777179  21.2050809  50.8990253  34.5355537
  21.6935192  50.0515019  35.4972189  21.4383304  50.7573632  35.2702376
  15.7156345  52.7292025  44.9802279  15.2035248  52.1213208  45.3387310
  15.5435841  53.4448618  45.4476255  15.6145982  52.7455324  45.1018503
  10.5622059  51.1729600  47.6304641  10.3924650  51.8330975  47.0852847
  10.1188009  51.3836162  48.3517130  10.4721393  51.3015583  47.6566270
  14.4881879  49.4134098  36.6731374  14.9639245  49.7751178  36.0381556
  13.9870478  50.0690566  36.9531517  14.4847238  49.5628287  36.6208115
  19.5925415  50.6516270  47.4204535  20.1496845  50.4230079  46.7883000
  19.2686480  51.4121935  47.1439747  19.6271825  50.7300106  47.2861032
   7.4624124  54.0776466  42.8893131   6.9150843  53.4077111  43.0073999
   8.2516502  53.7106314  42.9536598   7.4976308  53.9241452  42.9161831
  17.3108532  53.7383923  48.3856542  18.0619859  54.0535600  48.6996096
  17.5031109  53.5363094  47.5590463  17.4499946  53.7551305  48.3099937
  16.5308532  51.5575298  30.0404758  16.9107497  51.5754927  29.2555873
  15.7901128  52.0029287  29.9195606  16.4777370  51.6257073  29.9068327
   6.2211093  53.2897274  40.0439154   6.0432854  52.8373883  40.7694069
   5.9330116  54.0923435  40.2277631   6.1524047  53.3419832  40.1782657
  21.8834674  54.5454991  39.2816544  22.3788340  53.8277986  39.2420564
  21.0734450  54.2425789  39.1671031  21.8378568  54.3952637  39.2590270
  17.3293286  58.3952804  31.4313548  16.5204609  58.0719478  31.3846858
  17.8368195  57.6886026  31.3641797  17.2842953  58.2434121  31.4143843
   7.9583563  55.8224997  37.1560913   7.0929083  55.8110688  37.0443684
   8.0582379  55.6355220  38.0032052   7.8457730  55.7931059  37.2649857
  23.9486493  57.2958679  41.9693673  24.3741565  56.7733100  41.4164098
  23.5843413  57.8939516  41.4482296  23.9573096  57.3068906  41.8102682
  13.5840573  65.5922896  40.7291018  13.8987132  66.4059285  40.7368800
  13.9933986  65.2073115  41.3973177  13.6908671  65.6551598  40.8295110
  20.5365093  61.0092943  38.2994830  21.0076271  61.7233205  38.4684815
  20.8725271  60.4091693  38.8354700  20.6560208  61.0264407  38.4027206
  22.6242077  62.6194256  50.4786902  22.7339043  61.8302817  50.8343649
  22.9532974  62.5300192  49.6761240  22.6894483  62.4900109  50.4129293
  17.4534588  45.7820413  45.2552925  17.5862493  44.9851407  45.5833901
  17.8379740  46.3086816  45.8351201  17.5290917  45.7420330  45.3896428
  21.1739039  60.8010877  45.0622523  20.6259985  60.1768761  44.7942588
  21.6352068  60.9905149  44.3466602  21.1606249  60.7369927  44.9172954
  20.5266943  42.7050740  41.8534018  19.7212907  42.5948469  42.1701857
  20.3973678  42.8063195  40.9963884  20.3887076  42.7034410  41.7742059
  23.9832903  48.8696231  42.4473715  23.3995892  49.3705438  42.0351282
  24.3037198  48.3625788  41.8138038  23.9446079  48.8688067  42.2932222
  16.5227703  47.7836826  32.7232390  17.3443397  47.9535139  32.4814085
  16.0597354  47.9384087  31.9998688  16.5758865  47.8318559  32.5804034
  15.1123034  45.7779589  43.5030819  15.6567447  45.4370715  44.0935160
  15.1659970  46.6365050  43.6452103  15.2012154  45.8534848  43.6112692
  10.9253593  59.5396005  40.3769627  11.5298451  59.4991839  39.7483447
  10.7180906  60.3867157  40.4073682  10.9842491  59.6584007  40.2885743
  20.7397365  61.8061950  41.5931864  21.5595739  61.6624916  41.8548159
  20.4591443  62.4308149  42.1348302  20.8194109  61.8772302  41.7119803
   6.1604876  58.5230622  40.2468550   6.0629154  57.7126894  40.5558606
   6.9433745  58.5022415  39.8614818   6.2621012  58.3997712  40.2355413
  37.2111016  69.4626801  34.5574740  37.1805020  70.3171438  34.7293010
  37.8092365  69.1622094  35.1160884  37.2948174  69.5443298  34.6649543
  30.4110701  68.5502452  39.3127671  29.5548596  68.7110951  39.3636788
  30.4578354  67.6794516  39.3332732  30.2909812  68.4453254  39.3233737
  33.7204417  74.8188978  48.9188127  34.4271184  74.3241009  49.0475061
  33.9092353  75.2598060  48.1890785  33.8532323  74.8107328  48.8297172
  33.2562522  70.6094496  41.9559322  33.8018482  71.2879583  42.0153292
  33.1979398  70.4681957  41.0960904  33.3278436  70.6886498  41.8371383
  35.0327590  72.0379103  32.8293050  34.9167116  72.7886790  33.2585188
  35.8283477  71.7803057  33.0789137  35.1332180  72.1113950  32.9297142
  21.8691728  66.2889580  39.8664316  21.2496760  65.6982227  39.6974331
  21.7675592  66.8801015  39.2328639  21.7629404  66.2893662  39.7469306
  26.9157916  76.0273126  34.1162393  27.2373757  76.5678334  33.5123701
  27.5630012  75.4569898  34.2484682  27.0583971  76.0232302  34.0469428
  28.9659624  68.0289121  34.1996779  29.6639789  68.2077249  34.6918243
  29.2811956  67.5059461  33.5767169  29.1154961  67.9782894  34.1798789
  21.5960861  69.8341861  42.1107885  21.4719558  70.4204307  42.7457704
  22.2479146  69.3402057  42.4120160  21.6734511  69.8480666  42.2493815
  29.1547559  74.4159566  34.1876571  29.5941195  73.8076667  34.6331344
  29.0052222  74.0366940  33.4162036  29.1969025  74.2698038  34.1395738
  26.6219202  73.0103578  41.3895396  27.2668205  72.5176021  41.0706345
  26.8620979  73.1528365  42.2161475  26.7529787  72.9581020  41.4644930
  29.1605294  75.8558484  41.0402289  29.4428536  75.0609890  40.8189045
  29.8891454  76.3339072  41.0607350  29.3094857  75.8093081  41.0105304
  27.1386487  63.3981518  38.2818054  26.8089818  63.8492662  37.6121753
  26.4631489  63.3197681  38.8291060  26.9896924  63.4532653  38.2641277
  32.7556896  72.7686748  31.1407340  32.6708191  73.6247714  31.2856909
  33.2441279  72.4931072  31.8089499  32.8145793  72.8544069  31.2609422
  33.6875329  69.3871542  32.6405075  33.1586801  69.6031175  33.3002381
  34.2100349  70.0807680  32.5606045  33.6863782  69.5214679  32.7260674
  39.1423382  74.9617846  38.0138120  38.3121085  75.1728490  38.1771536
  39.0932634  74.1354901  37.7380403  39.0130117  74.8707453  37.9975485
  25.5774937  73.2834759  31.4412543  24.9932152  73.7884790  31.8478407
  25.1745032  73.0577146  30.7009135  25.4314241  73.3243007  31.3917568
  30.8596712  78.2416515  46.8102202  30.9480057  78.0542655  47.6580413
  31.2886424  77.5953944  46.4107049  30.9358814  78.1179522  46.8773954
  30.0352151  69.5300411  29.9181464  30.2748155  69.7378395  29.1056807
  30.3567992  68.7257919  30.0270408  30.1189309  69.4414512  29.8142017
  25.3442442  61.4593806  33.7641002  26.0988410  61.8272124  33.5258052
  25.1669976  61.8333361  34.5320181  25.4296920  61.5691994  33.8425890
  38.6377340  67.6088247  41.8088541  37.8005761  67.6790434  42.0436135
  38.6065571  67.6112742  40.9362843  38.5095623  67.6198474  41.7148089
  25.0342069  69.7521283  47.5236910  25.2062573  69.6427177  48.3722191
  25.5711427  70.3975688  47.2868102  25.1387073  69.8313284  47.6142006
  23.6999506  63.8664125  30.4619115  23.5175079  64.0836006  29.6360107
  24.5625119  63.9803138  30.5177729  23.8004096  63.9154023  30.3473602
  33.3607526  71.8043924  37.4000432  34.1165041  72.2375438  37.4389341
  33.4669851  71.1548693  37.9735068  33.4877697  71.7721407  37.4898458
  36.3987697  75.6317201  38.1502835  35.9622929  75.6353943  38.9061807
  36.0650613  76.3122700  37.7182413  36.2850317  75.7329657  38.1983668
  30.9716771  77.6725534  49.4745986  31.7557187  77.7856381  49.8401728
  30.7713365  76.8466671  49.6704672  31.0582796  77.5672253  49.5580372
  19.3403786  72.3453214  42.3589830  19.0742201  71.5292330  42.5180820
  19.3542350  72.3906369  41.4885345  19.3028509  72.2310118  42.2543312
  36.3185180  62.6731029  40.3932263  36.9611089  62.7429133  40.9794179
  36.5708201  62.0060251  39.8911805  36.4507312  62.5857377  40.4059543
  23.2461533  67.1438298  28.9741588  22.5319710  66.8576478  29.3864020
  23.7305502  67.4834924  29.6147975  23.2120897  67.1519948  29.1297223
  24.0902393  65.8831592  45.0056837  23.3974189  65.4128572  45.2517569
  24.7062720  65.6569896  45.5798544  24.0786923  65.7798724  45.1265990
  39.5332043  72.3498121  37.0422473  40.1948477  71.7888789  36.9418381
  38.8923455  71.8550151  37.3675164  39.5360911  72.1934530  37.0754813
  30.4208851  75.6468252  29.3503396  30.8360000  75.3153276  28.6587892
  29.5900781  75.4137154  29.2223533  30.3596860  75.5639508  29.2294243
  19.7497200  73.1311993  39.6401574  19.5672773  73.1058879  38.7873866
  20.4846869  73.6010931  39.6790483  19.8311264  73.1973355  39.5199492
  35.8196874  73.3663503  36.7834461  36.0552463  73.5108702  35.9561312
  35.9686438  74.1305911  37.1765975  35.8762677  73.5002557  36.7198065
  22.8142952  69.8496996  46.1483683  23.5382924  69.8350027  46.6348577
  22.9159088  70.5592351  45.6505651  22.9361161  69.9521699  46.1462469
  37.6487331  72.2065169  34.6204065  37.9795548  72.7392809  34.0144160
  38.2220419  72.2604057  35.2766016  37.7821010  72.2934738  34.6281847
  30.1887901  73.3296081  51.0132630  29.3960882  73.6439592  51.1985249
  30.3036828  73.5447549  50.1753414  30.0883312  73.4079917  50.9170964
  32.8619220  70.0530072  35.3027645  32.9566074  70.7919366  35.7567271
  32.2378063  69.6247547  35.7362210  32.7828250  70.0991392  35.4335793
  31.1171694  73.2316284  45.9517926  31.6910555  72.5943529  46.1066490
  31.0386498  73.2320367  45.0827584  31.1904929  73.1381396  45.8464337
  19.7168110  70.0105494  39.7900640  20.2941613  69.8741945  40.4292886
  19.0182172  69.5541278  40.0446225  19.6989132  69.9227760  39.9222930
  33.1142241  71.8978812  28.5364597  33.0322404  71.9680999  29.4019584
  33.7521962  72.4608555  28.3448338  33.1962079  71.9917783  28.6354547
  26.4735412  71.6639549  38.0039124  26.2154657  70.8311284  37.9770423
  26.5283895  71.8897162  37.1631624  26.4435190  71.5737321  37.8759260
  31.5536463  63.7668000  38.1043216  30.8492789  63.2777186  38.2627135
  31.6021437  63.7790475  37.2331661  31.4566514  63.6957648  37.9982556
  25.4470125  69.2177312  38.4904018  24.8719716  69.3769480  39.1267979
  25.0705801  68.5812721  38.0272469  25.3072937  69.1475125  38.5158577
  29.1143413  67.6900661  43.3496397  28.7257846  67.2654879  42.6948588
  28.4498112  67.9382811  43.8573423  28.9590341  67.6639382  43.3284265
  38.7566682  67.4475666  36.1244227  38.5003247  66.6355607  35.9342110
  39.5995996  67.4553233  35.8974414  38.8432708  67.3287663  36.0629044
  15.1926943  68.8617387  36.5048459  15.2787195  68.4849255  37.2861989
  15.8202741  68.4877832  36.0268417  15.2983494  68.7502869  36.5493936
  32.9369775  61.3875290  40.8620381  33.3180287  60.7053461  41.2488255
  32.1333059  61.0984892  40.6796046  32.8746236  61.2442338  40.8924437
  30.2182351  71.9199266  31.5473204  31.0322990  72.2114159  31.4355975
  30.1541493  71.2659128  30.9731497  30.3285090  71.8664461  31.4462041
  36.4391842  74.6025262  45.9602779  36.2030479  73.7713327  45.8414840
  37.0835071  74.5510869  46.5457624  36.4986512  74.4722950  46.0288673
  26.0890260  75.3920783  36.6745516  26.7264207  75.1532531  37.2197309
  26.5145331  75.5957942  35.9398676  26.2466426  75.3871793  36.6462673
  26.7293075  70.6123073  31.0120405  27.1138227  70.3930780  31.7636950
  26.4804695  71.4386018  31.1421482  26.7495147  70.7021219  31.1421482
  26.8961615  63.8929488  50.7282990  26.5815056  64.6629051  50.4652552
  26.5751548  63.3299744  50.1435216  26.8020534  63.9239757  50.6024339
  37.4628262  74.3869711  42.0231074  37.1574079  75.1197768  42.3844390
  36.7434478  73.9807640  41.7423860  37.3115605  74.4351444  42.0344211
  28.4711732  75.8693206  38.3539302  28.5450740  75.7068378  39.2081152
  29.2881238  76.0583395  38.1099784  28.6028090  75.8729948  38.4437328
  43.1630054  71.0262711  41.3499418  43.0954555  71.0458670  40.4802005
  43.1485717  71.8693039  41.5755089  43.1508811  71.1536446  41.2551895
  24.4493512  62.2820010  36.3429186  23.5815938  62.3542609  36.4086795
  24.7368716  63.0842089  36.5317161  24.3633260  62.4114157  36.3803952
  33.5726401  62.4297869  44.6740508  34.3179993  62.2407679  44.2603933
  33.1563705  62.9556107  44.1154364  33.6211375  62.4800014  44.5305081
  40.9488672  69.8007098  39.6246013  41.4996593  69.1675167  39.8643105
  40.9332787  70.3322490  40.3161517  41.0273868  69.7856046  39.7624871
  27.6011063  73.6345695  44.1705906  27.1022756  74.3461463  44.2490794
  28.4111287  73.9546361  44.1324068  27.6467169  73.7872543  44.1762475
  23.8639180  72.8968648  38.4168627  23.5752429  72.2706119  38.9514354
  24.7322528  72.8388935  38.4833307  23.9499432  72.7956192  38.5059582
  34.6517078  68.0403431  38.7350609  34.3081844  67.3193766  39.0857858
  34.7510121  67.8317282  37.8928967  34.6159121  67.9027634  38.6622289
  24.0671454  74.5363899  34.3410992  24.8217422  74.9176938  34.5546455
  23.4742066  74.9875043  34.7957689  24.0908167  74.6592726  34.4393870
  35.1130107  74.5029135  34.2774597  35.6788140  75.1622345  34.1933140
  34.4658010  74.8478833  34.7490999  35.1008863  74.6511077  34.3347353
  26.5278121  66.4926739  49.4668204  25.7177896  66.7984519  49.3558047
  27.0052807  67.2132322  49.5820788  26.4781599  66.6441340  49.4675275
  25.3869680  75.7072460  39.7151107  24.8650434  75.8472752  40.4002972
  25.7743700  74.9483125  39.9053225  25.3673381  75.6157984  39.8452184
  22.3760864  65.7578269  33.7846062  22.0885660  65.3879539  33.0478009
  23.0631332  66.2273124  33.5229767  22.4349761  65.7725238  33.6361138
  31.5836685  77.4467920  33.7011676  31.3423361  76.7135780  33.2938741
  31.7638018  77.9954776  33.0478009  31.5744309  77.4190311  33.5441899
  26.8136006  72.7376479  35.1132598  26.6178788  73.3451214  34.5192901
  27.0370351  72.0444423  34.6324272  26.8170647  72.7254005  34.9548679
  25.2114536  69.6231217  35.2313467  25.9337188  69.7872375  34.7717273
  24.7322529  70.3440882  35.1252807  25.2478266  69.7529447  35.1479081
  33.1708043  65.9595016  40.6110152  32.3319144  65.9856295  40.3748415
  33.2412411  66.6065751  41.1915498  33.0576437  66.0591142  40.6619269
  22.8622152  72.0289290  44.3367607  23.3743249  72.3073543  43.6876366
  22.5758495  72.7678584  44.7030420  22.8957016  72.1791643  44.2957485
  37.0465567  71.1663003  37.8971393  36.9599542  71.3218429  38.7506172
  36.5916047  71.8101078  37.5230799  36.9668824  71.2838758  37.9678500
  19.9489059  66.5359481  34.6331343  20.0505195  67.3385643  34.9612319
  20.7444946  66.3346817  34.3354424  20.0816964  66.6245380  34.6366699
  26.3805878  64.1215678  44.3968648  26.1889075  64.1370813  45.2468072
  27.2304474  64.3179352  44.3735303  26.4781600  64.1530029  44.5191943
  20.7652791  66.6506660  42.3752465  20.6238283  65.7990600  42.4996973
  21.0493354  66.6935320  41.5514671  20.7860637  66.5306410  42.2720089
  30.9191383  68.4873750  36.5196953  30.6726098  68.4069501  37.3533742
  31.2476506  67.7027218  36.3259480  30.9312627  68.3600015  36.6144476
  34.8139432  75.1957109  40.3083734  34.6753791  75.8938155  40.8132477
  34.0339430  75.0405766  39.9519916  34.6782659  75.2757276  40.3310008
  33.1517517  71.4953485  46.5606116  33.1465556  70.6233301  46.5648542
  33.8578511  71.6941654  46.0875572  33.2562521  71.3957359  46.4913151
  26.8788411  71.2230468  45.9319936  27.0231786  71.8031677  45.2963046
  27.2264059  71.6006765  46.6369791  26.9515872  71.3651172  45.9418931
  29.0508328  70.4220637  43.7145068  28.3031642  70.6151651  43.3093346
  29.2049853  69.5965856  43.4769189  28.9630755  70.3285748  43.6190474
  36.3092805  74.5535363  31.0700233  35.9299614  73.7672501  31.0629523
  35.6459050  75.1022220  30.9271878  36.1551280  74.5180187  31.0481030
  29.2910105  64.3171188  44.6040471  29.7482719  65.0495162  44.7313264
  29.3666434  63.8937653  45.3627727  29.3701075  64.3628426  44.7341548
  21.5343096  64.5637007  45.6929915  20.9985286  63.9517365  46.0090682
  21.5960861  65.1385143  46.3463582  21.4638729  64.5583935  45.8365342
  33.7637431  57.4961063  38.4734314  33.8820999  57.9537526  37.7401617
  33.5899607  56.6906324  38.1870532  33.7556602  57.4454835  38.3235248
  27.1692483  66.3073291  41.4482295  26.3788558  66.1264752  41.7699631
  27.5653106  65.5300244  41.4312590  27.1109359  66.1660752  41.4934844
  31.6558374  75.1361066  26.8889009  32.4231359  75.1961191  26.4794861
  31.2089683  74.5641507  26.4045328  31.7031801  75.0597641  26.7566719
  32.5536169  73.9415722  39.1741741  31.8781171  73.7100954  39.6755128
  32.5628545  73.3336905  38.5483846  32.4554674  73.8174647  39.1557894
  29.6830313  68.7833551  45.9305794  29.6189454  69.6443507  45.8025931
  29.8227501  68.4665544  45.1301346  29.6945783  68.8633717  45.7934007
  34.5552904  76.7980854  31.4051919  34.6372741  77.6047840  31.0813370
  35.0402646  76.8176813  32.1292693  34.6390062  76.9201516  31.4638818
  28.3649407  71.4765690  40.0721997  27.9411656  71.6770189  39.3361016
  28.1894262  70.6294538  40.1846297  28.2760288  71.3814471  39.9795687
  23.6531852  71.9717741  35.5049970  23.8096471  71.9064544  36.3605962
  23.9932445  72.7466294  35.2928649  23.7265087  72.0766940  35.6004564
  30.1910997  71.3475625  34.3743333  30.7326542  70.8446006  34.8381954
  30.5057556  71.2940820  33.5632818  30.3175394  71.2655046  34.3227145
  34.0628104  75.5578272  51.4870245  34.8762969  75.2863421  51.6475378
  33.9023070  75.2585812  50.6830441  34.1598052  75.4733198  51.3915651
  28.3597446  76.7392976  31.6583361  28.4290267  75.8807515  31.7976361
  29.1385901  76.9564857  31.3302386  28.4850296  76.6445840  31.6300518
  31.3400266  66.2411929  44.4265633  31.5542236  65.6022844  43.8728987
  30.7234165  66.6857753  43.9973495  31.2805595  66.2122073  44.2816065
  20.2266113  69.1552692  35.8210737  20.6065078  69.5737237  35.1571004
  19.6521478  69.7366148  36.1279580  20.1977438  69.3030551  35.7687478
  33.5039354  67.8500995  45.3648941  32.6916036  67.5426885  45.4462113
  33.9629289  67.3699995  45.9291653  33.4519739  67.7337487  45.4603535
  32.9144609  75.7280667  35.8125885  32.5559263  75.8995309  36.5889917
  32.4283319  76.1893872  35.2553883  32.7903306  75.8219638  35.8451154
  27.7032974  71.4079832  28.3526119  27.9925499  72.1844715  28.6269694
  27.7904773  70.8968563  29.0540619  27.7587230  71.4471750  28.4968617
  30.5992861  69.2561066  50.1477643  31.0692493  69.8803182  50.5345517
  30.6454742  68.5878042  50.7070858  30.6760737  69.2495746  50.2877714
  27.7564135  61.3618094  40.8726447  27.2402624  60.6698285  40.9978026
  27.1958064  62.0288871  40.8189045  27.5970648  61.3581351  40.8832513
  29.8256369  61.9011054  42.7019299  29.4388122  61.9260085  43.4832829
  29.3389306  61.3352732  42.2493816  29.6968877  61.8206804  42.7507203
  34.0749348  76.6184563  46.7593086  34.7129069  76.1244758  46.4255542
  33.4323440  76.5461963  46.1745313  34.0743575  76.5343571  46.6235441
  35.8006348  68.4673709  41.3259001  35.3733956  68.3800057  40.5707101
  35.1632401  68.5751484  41.9113845  35.6435955  68.4706368  41.3004443
  29.4913510  58.7878039  44.9929559  30.1206628  59.3238339  44.7150629
  29.6599373  58.6955398  45.8443125  29.6091305  58.8539401  45.0778087
  29.2927425  63.5749234  47.2655971  30.1200855  63.3034383  47.3214585
  29.3135271  64.3710075  47.6219789  29.4180275  63.6528988  47.3271154
  34.1303605  77.3104371  43.3998443  34.9195983  76.9593436  43.5200524
  34.3047202  78.1240759  43.1375076  34.2723886  77.3790228  43.3786310
  23.8696915  70.7213097  40.4526231  23.0284922  70.6216971  40.6605125
  24.0786923  71.4908577  40.8040552  23.7761608  70.8205140  40.5353546
  21.3472482  68.3432634  38.2810982  20.9529180  68.4175645  37.5061092
  20.7912599  68.7290580  38.8319344  21.2075294  68.4114408  38.2478642
  27.6813580  68.6494496  39.7023829  27.3776717  68.0950484  40.3034237
  26.9793001  68.8286706  39.2151863  27.5329790  68.5939278  39.7193535
  26.7379677  65.9595016  34.2668531  27.0139411  65.2413928  33.8546098
  27.3378346  66.5579935  34.0589637  26.8672942  65.9415386  34.1749292
  23.7605723  73.1156859  41.8717864  23.1693656  73.7566357  41.8420879
  24.5226746  73.5394476  41.8449164  23.7853984  73.2732697  41.8633011
  24.1566346  64.2758857  42.5385882  24.6167827  64.3497786  43.2761006
  24.2022452  65.0740111  42.1885703  24.2316901  64.4053004  42.5958638
  25.8049695  64.9425552  47.1057909  25.4135261  64.2958899  47.5413687
  25.9735558  65.5336987  47.7252164  25.7720606  64.9339819  47.2620615
  39.8796144  72.9462629  42.8695142  39.9379268  73.3949277  43.6155119
  39.2462612  73.3561441  42.4325223  39.7947440  73.0736363  42.9147691
  33.5195239  78.5666170  39.3049889  33.3214928  79.0556985  38.6106100
  32.8982950  78.7707412  39.8834022  33.3982804  78.6682709  39.2873112
  27.5803217  70.3351067  33.6460133  28.3245262  70.7225344  33.8843083
  27.7263914  69.4908493  33.8100621  27.7113803  70.2681540  33.7054103
  29.4982793  62.1301326  38.6791994  28.6518838  62.3024134  38.5533344
  29.4953925  61.3250670  39.0157823  29.3729943  62.0362355  38.7103121
  30.5681093  65.9076541  39.5454052  30.0941048  65.3818303  40.0559363
  30.9399229  65.3606013  38.9768914  30.5530982  65.7492537  39.5369199
  20.9454123  67.9048047  44.9137598  21.8079737  67.8043757  44.8274928
  20.6145906  67.3242757  44.3523170  21.0239320  67.8039674  44.8183004
  36.8317824  70.9678916  40.9560833  36.5916047  70.1285331  40.9603259
  37.3109831  71.0479083  41.6801606  36.8670008  70.8560316  41.0635635
  32.4964593  66.8013095  32.6079806  31.9687612  66.8841839  31.9185515
  32.9560301  67.5430967  32.6044451  32.4866443  66.9233758  32.5054501
  38.8323011  67.7480373  38.9090092  38.5932781  67.7076208  38.0710877
  38.9956912  68.5951526  39.0355813  38.8213314  67.8672458  38.8043574
  35.4369041  72.1330323  44.8395137  36.1603240  71.6802849  44.6606157
  35.1719003  72.4134988  44.0567465  35.5050314  72.1081291  44.6973852
  24.3055909  66.7290496  41.5748016  23.6808980  66.7408888  40.9673969
  23.9701504  67.2050671  42.2239256  24.1641401  66.8009013  41.5804585
  24.4897658  65.0715615  27.6320701  24.1410462  65.7235340  28.0952251
  24.0094104  65.0572728  26.9044572  24.3667902  65.1658668  27.5931793
  21.0181585  74.7890956  43.0151781  20.4881510  74.0983395  43.0646755
  21.2906678  74.7801142  42.1864489  20.9806307  74.6858088  42.8999197
  32.0501675  75.3716659  31.7389463  32.7735874  75.8374772  31.5954036
  31.6102267  75.4390268  30.9887060  32.0917368  75.4500495  31.6074245
  31.2187831  72.2314201  42.9890152  30.6044824  71.6872251  43.2838787
  31.7355116  71.7178437  42.5095968  31.2043493  72.0750610  42.9614381
  30.4584128  73.3018471  40.7234451  30.0311736  72.6768190  40.2899886
  30.4509072  73.0193393  41.5493458  30.3943269  73.1671252  40.7814278
  23.5746655  68.3383644  43.7922885  23.7340142  67.5826968  44.1974607
  23.3939548  68.8874584  44.4463622  23.5712014  68.3077458  43.9485591
  31.5166958  60.5044880  44.3473674  31.0207519  60.7008554  43.6565241
  32.2736020  60.9037548  44.1762476  31.5553783  60.5922613  44.2193811
  28.7869837  64.1787226  40.9376985  28.8112325  63.6447338  40.2489765
  29.0381311  63.6704534  41.6002575  28.8279756  64.0248130  40.9341629
  16.2977427  71.4618721  40.3720129  16.1920876  71.4165565  39.5072213
  15.5477647  71.8072501  40.6534414  16.1713030  71.5059629  40.2857459
  25.0671160  62.9058044  40.3182729  25.1069531  63.4067250  41.0317436
  24.2420824  62.9968438  40.0488652  24.9510686  62.9939860  40.3833267
  27.2500773  72.4718784  48.4203024  26.3996403  72.6090498  48.5560669
  27.4128900  71.7382562  48.8650725  27.1484636  72.3832885  48.5058623
  26.4885523  69.4218554  42.6156628  25.6577453  69.5892372  42.4091876
  26.4337040  69.0454504  43.4005513  26.3574938  69.3908285  42.7005156
  24.2969306  62.9127447  48.2513039  24.9222010  62.3689579  48.5242471
  23.8419786  62.4322364  47.6820829  24.3217567  62.7616928  48.2074633
  24.8621567  67.6974145  33.1446746  25.0024528  68.1946609  33.8475387
  25.3604100  66.9960440  33.2860959  24.9562648  67.6676124  33.2698325
  24.8921789  68.5641256  30.4739323  25.5266869  69.1601681  30.4088784
  24.9747400  68.2644714  31.2885193  24.9978340  68.6082164  30.5842409
  37.8704355  71.0956734  43.3425687  38.4622195  71.7353984  43.3743885
  38.3063350  70.3979770  43.6317754  38.0222786  71.0875084  43.3906519
  26.4700772  64.4955232  30.4484765  26.7916613  64.0158314  29.7944027
  26.7327716  65.3054878  30.2575576  26.5566798  64.5445130  30.3240257
  29.6997745  75.5174106  43.9683581  29.1922836  76.0709953  44.4124211
  29.4024391  75.5782396  43.1502355  29.5802630  75.6080417  43.9132037
  31.8659927  63.8827426  42.8108244  32.2914999  63.4299952  42.1991770
  31.2516920  63.3287496  43.0873031  31.8388572  63.7341402  42.7613269
  21.3974777  70.7609097  33.7428869  21.9067006  71.3573605  34.1240174
  21.8709049  70.4935071  33.0605288  21.5418153  70.8094912  33.6983391
  34.8953496  68.3101952  35.6428829  34.2244686  68.8531654  35.5141895
  35.5893247  68.7796808  35.4010524  34.8982364  68.4600223  35.5884357
  35.0581624  64.7657836  38.5519203  35.4109234  64.3387559  39.2265001
  34.1996425  64.6808679  38.6820279  34.9831069  64.6902577  38.6714213
  23.7565309  67.3965356  36.6102049  23.0377298  67.8129488  36.8774913
  24.1277671  67.9619594  36.0593687  23.7057241  67.5414637  36.5684856
  33.0564890  68.0293204  42.5004045  33.0362817  67.8476500  43.3538824
  33.1044090  68.9005223  42.4763628  33.0599531  68.1309743  42.6227340
  31.0011220  74.6180396  48.4252521  30.9607074  73.9730073  47.8397677
  31.8134538  74.5617014  48.7377933  31.1154373  74.5139363  48.3849470
  29.5311883  66.4363355  31.9475429  28.9376723  66.7580352  31.3959996
  29.5687161  65.5904451  31.7396535  29.4486272  66.3587684  31.8358200
  36.4905684  59.8876248  39.4803515  35.9836549  59.1805387  39.4124693
  37.2873118  59.5569437  39.6104592  36.5332923  59.7349399  39.4902510
  32.4069700  66.3942860  35.3777179  32.1783393  66.4175561  34.5355537
  32.6667776  65.5700327  35.4972189  32.4115888  66.2758940  35.2702376
  26.6888928  68.2477333  44.9802279  26.1767831  67.6398516  45.3387310
  26.5168424  68.9633926  45.4476255  26.5878565  68.2640632  45.1018503
  21.5354643  66.6914908  47.6304641  21.3657233  67.3516283  47.0852847
  21.0920593  66.9021470  48.3517130  21.4453977  66.8200890  47.6566270
  25.4614462  64.9319406  36.6731374  25.9371829  65.2936486  36.0381556
  24.9603062  65.5875874  36.9531517  25.4579821  65.0813595  36.6208115
  38.6925824  74.4041174  32.4644379  39.0759430  75.1532530  32.6942476
  37.8969937  74.6506994  32.2056369  38.6319606  74.5510868  32.4601953
  30.5657999  66.1701578  47.4204535  31.1229429  65.9415387  46.7883000
  30.2419064  66.9307243  47.1439747  30.6004409  66.2485414  47.2861032
  18.4356707  69.5961774  42.8893131  17.8883427  68.9262419  43.0073999
  19.2249086  69.2291622  42.9536598  18.4708891  69.4426760  42.9161831
  28.2841116  69.2569231  48.3856542  29.0352443  69.5720908  48.6996096
  28.4763692  69.0548402  47.5590463  28.4232530  69.2736613  48.3099937
  27.5041115  67.0760606  30.0404758  27.8840080  67.0940235  29.2555873
  26.7633712  67.5214595  29.9195606  27.4509953  67.1442381  29.9068327
  35.1326406  65.3842797  35.6280337  35.1320632  65.2291454  36.4864613
  34.9282586  66.2305784  35.5721723  35.1026184  65.4863418  35.7468276
  17.1943677  68.8082582  40.0439154  17.0165438  68.3559191  40.7694069
  16.9062699  69.6108743  40.2277631  17.1256630  68.8605139  40.1782657
  32.8567258  70.0640299  39.2816544  33.3520923  69.3463294  39.2420564
  32.0467034  69.7611097  39.1671031  32.8111151  69.9137945  39.2590270
  28.3025870  73.9138112  31.4313548  27.4937192  73.5904786  31.3846858
  28.8100778  73.2071334  31.3641797  28.2575536  73.7619429  31.4143843
  18.9316147  71.3410305  37.1560913  18.0661666  71.3295996  37.0443684
  19.0314963  71.1540528  38.0032052  18.8190314  71.3116367  37.2649857
  34.9219077  72.8143987  41.9693673  35.3474148  72.2918408  41.4164098
  34.5575997  73.4124824  41.4482296  34.9305679  72.8254214  41.8102682
  31.5097676  76.5278251  38.2994830  31.9808855  77.2418513  38.4684815
  31.8457855  75.9277001  38.8354700  31.6292791  76.5449715  38.4027206
  33.5974661  78.1379564  50.4786902  33.7071626  77.3488125  50.8343649
  33.9265558  78.0485500  49.6761240  33.6627067  78.0085417  50.4129293
  28.4267171  61.3005721  45.2552925  28.5595077  60.5036715  45.5833901
  28.8112324  61.8272124  45.8351201  28.5023500  61.2605638  45.3896428
  32.1471623  76.3196185  45.0622523  31.5992569  75.6954069  44.7942588
  32.6084651  76.5090457  44.3466602  32.1338832  76.2555235  44.9172954
  31.4999526  58.2236048  41.8534018  30.6945490  58.1133777  42.1701857
  31.3706262  58.3248503  40.9963884  31.3619659  58.2219718  41.7742059
  34.9565487  64.3881539  42.4473715  34.3728476  64.8890746  42.0351282
  35.2769781  63.8811096  41.8138038  34.9178662  64.3873374  42.2932222
  27.4960286  63.3022134  32.7232390  28.3175981  63.4720447  32.4814085
  27.0329937  63.4569395  31.9998688  27.5491448  63.3503867  32.5804034
  26.0855618  61.2964896  43.5030819  26.6300031  60.9556023  44.0935160
  26.1392554  62.1550358  43.6452103  26.1744737  61.3720156  43.6112692
  31.7129949  77.3247258  41.5931864  32.5328323  77.1810224  41.8548159
  31.4324027  77.9493457  42.1348302  31.7926692  77.3957610  41.7119803
  38.1119071  78.9166826  38.2818054  37.7822401  79.3677970  37.6121753
  37.4364073  78.8382989  38.8291060  37.9629507  78.9717961  38.2641277
  45.3195479  74.9052349  36.5267665  45.0048920  75.5955828  36.9588087
  44.8022420  74.8497131  35.8253165  45.1959949  74.9987237  36.4864614
  36.3175025  76.9779114  33.7641002  37.0720993  77.3457431  33.5258052
  36.1402560  77.3518669  34.5320181  36.4029504  77.0877302  33.8425890
  49.6109924  83.1273555  41.8088541  48.7738345  83.1975742  42.0436135
  49.5798155  83.1298050  40.9362843  49.4828206  83.1383782  41.7148089
  40.3531809  76.3875844  33.4968138  41.0817969  76.2091799  33.0506295
  40.4426702  77.2293924  33.7075317  40.4738471  76.4859722  33.4621656
  47.2917764  78.1916337  40.3932263  47.9343672  78.2614441  40.9794179
  47.5440784  77.5245559  39.8911805  47.4239896  78.1042685  40.4059543
  42.5269046  79.2853308  38.1043216  41.8225373  78.7962494  38.2627135
  42.5754020  79.2975783  37.2331661  42.4299098  79.2142956  37.9982556
  49.7299266  82.9660974  36.1244227  49.4735831  82.1540915  35.9342110
  50.5728580  82.9738541  35.8974414  49.8165291  82.8472971  36.0629044
  43.9102358  76.9060598  40.8620381  44.2912870  76.2238769  41.2488255
  43.1065643  76.6170200  40.6796046  43.8478820  76.7627646  40.8924437
  37.8694199  79.4114796  50.7282990  37.5547640  80.1814359  50.4652552
  37.5484131  78.8485052  50.1435216  37.7753118  79.4425065  50.6024339
  35.4226096  77.8005318  36.3429186  34.5548521  77.8727917  36.4086795
  35.7101300  78.6027397  36.5317161  35.3365844  77.9299465  36.3803952
  44.5458984  77.9483177  44.6740508  45.2912576  77.7592987  44.2603933
  44.1296289  78.4741415  44.1154364  44.5943959  77.9985322  44.5305081
  44.1440627  81.4780324  40.6110152  43.3051728  81.5041603  40.3748415
  44.2144994  82.1251059  41.1915498  44.0309020  81.5776450  40.6619269
  42.5909905  78.3765701  35.3437768  43.2936258  78.1773449  34.8657726
  42.3254094  77.6041643  35.6506611  42.6556538  78.2328667  35.3183209
  37.3538461  79.6400986  44.3968648  37.1621658  79.6556121  45.2468072
  38.2037057  79.8364660  44.3735303  37.4514183  79.6715337  44.5191943
  40.2642688  79.8356495  44.6040471  40.7215303  80.5680470  44.7313264
  40.3399017  79.4122961  45.3627727  40.3433658  79.8813734  44.7341548
  44.7370014  73.0146371  38.4734314  44.8553583  73.4722834  37.7401617
  44.5632190  72.2091632  38.1870532  44.7289185  72.9640143  38.3235248
  41.7047578  74.8697173  39.4152976  40.8341136  74.8435894  39.3686286
  41.9587919  74.6974365  38.5978822  41.6141138  74.8407317  39.2873113
  38.7296719  76.8803401  40.8726447  38.2135207  76.1883593  40.9978026
  38.1690648  77.5474179  40.8189045  38.5703232  76.8766659  40.8832513
  40.7988952  77.4196362  42.7019299  40.4120705  77.4445393  43.4832829
  40.3121889  76.8538040  42.2493816  40.6701461  77.3392112  42.7507203
  40.4646094  74.3063347  44.9929559  41.0939212  74.8423647  44.7150629
  40.6331957  74.2140706  45.8443125  40.5823888  74.3724709  45.0778087
  40.2660009  79.0934542  47.2655971  41.0933438  78.8219691  47.3214585
  40.2867855  79.8895383  47.6219789  40.3912859  79.1714296  47.3271154
  43.9570012  76.8399235  37.9614861  44.1619606  76.7721543  38.8071858
  43.6296436  77.6458057  37.8936038  43.9385260  76.9485176  38.0774516
  47.2103700  77.3931000  37.4417626  46.5978014  77.8801402  37.8271358
  47.3067875  76.7174491  37.9855278  47.1341598  77.3649308  37.5796485
  41.2122781  79.1493841  32.5415126  41.6666528  79.3204401  33.2662970
  41.6862827  78.5361952  32.1412901  41.3491101  79.0844726  32.5888887
  40.4715377  77.6486634  38.6791994  39.6251422  77.8209442  38.5533344
  40.4686509  76.8435978  39.0157823  40.3462526  77.5547663  38.7103121
  41.5413677  81.4261849  39.5454052  41.0673631  80.9003611  40.0559363
  41.9131813  80.8791321  38.9768914  41.5263566  81.2677845  39.5369199
  49.8055595  83.2665681  38.9090092  49.5665364  83.2261516  38.0710877
  49.9689496  84.1136833  39.0355813  49.7945898  83.3857766  38.8043574
  42.4899541  76.0230188  44.3473674  41.9940103  76.2193862  43.6565241
  43.2468603  76.4222856  44.1762476  42.5286366  76.1107921  44.2193811
  39.7602421  79.6972534  40.9376985  39.7844908  79.1632646  40.2489765
  40.0113895  79.1889842  41.6002575  39.8012340  79.5433437  40.9341629
  36.0403743  78.4243352  40.3182729  36.0802115  78.9252558  41.0317436
  35.2153408  78.5153745  40.0488652  35.9243269  78.5125168  40.3833267
  35.2701890  78.4312755  48.2513039  35.8954593  77.8874887  48.5242471
  34.8152370  77.9507672  47.6820829  35.2950150  78.2802236  48.2074633
  42.8392511  79.4012734  42.8108244  43.2647582  78.9485260  42.1991770
  42.2249504  78.8472804  43.0873031  42.8121156  79.2526710  42.7613269
  41.2786734  75.8727833  36.2198821  40.6355051  75.7225480  36.7883959
  40.9386141  75.6270179  35.4547925  41.1331811  75.8139956  36.1901836
  46.0314207  80.2843144  38.5519203  46.3841818  79.8572867  39.2265001
  45.1729009  80.1993987  38.6820279  45.9563652  80.2087884  38.6714213
  47.4638268  75.4061556  39.4803515  46.9569132  74.6990695  39.4124693
  48.2605701  75.0754744  39.6104592  47.5065507  75.2534707  39.4902510
  43.3802283  81.9128168  35.3777179  43.1515976  81.9360869  34.5355537
  43.6400360  81.0885635  35.4972189  43.3848471  81.7944248  35.2702376
  46.1058990  80.9028105  35.6280337  46.1053216  80.7476762  36.4864613
  45.9015170  81.7491092  35.5721723  46.0758767  81.0048726  35.7468276
  39.3999755  76.8191029  45.2552925  39.5327660  76.0222023  45.5833901
  39.7844908  77.3457432  45.8351201  39.4756084  76.7790946  45.3896428
  42.4732110  73.7421355  41.8534018  41.6678074  73.6319085  42.1701857
  42.3438846  73.8433811  40.9963884  42.3352243  73.7405026  41.7742059
  45.9298071  79.9066847  42.4473715  45.3461059  80.4076054  42.0351282
  46.2502365  79.3996404  41.8138038  45.8911246  79.9058682  42.2932222
  38.4692870  78.8207442  32.7232390  39.2908564  78.9905755  32.4814085
  38.0062521  78.9754703  31.9998688  38.5224032  78.8689175  32.5804034
  37.0588202  76.8150204  43.5030819  37.6032615  76.4741331  44.0935160
  37.1125137  77.6735666  43.6452103  37.1477321  76.8905464  43.6112692
  14.9596673  15.3634317  21.4914787  14.9290677  16.2178953  21.6633057
  15.5578021  15.0629609  22.0500931  15.0433830  15.4450813  21.5989589
   8.1596357  14.4509968  26.2467718   7.3034253  14.6118466  26.2976834
   8.2064011  13.5802032  26.2672779   8.0395469  14.3460770  26.2573784
   2.5437497  23.9872686  22.0104949   1.7920397  23.6088224  21.7820994
   2.9923509  24.0191119  21.2623759   2.4987164  23.9358293  21.8662451
  11.4690074  20.7196493  35.8528174  12.1756841  20.2248524  35.9815108
  11.6578009  21.1605575  35.1230832  11.6017980  20.7114844  35.7637219
   7.9962457  24.4098055  17.4390496   7.6613825  25.0874977  17.0034718
   8.5089327  24.0203366  16.8507368   8.0228038  24.4522633  17.2877288
   7.5366748  26.3612324  23.3801608   7.9206128  26.9299222  22.8406383
   7.4725890  25.6361834  22.9007424   7.5840176  26.3387787  23.2295470
  11.0048178  16.5102012  28.8899369  11.5504138  17.1887098  28.9493339
  10.9465055  16.3689473  28.0300951  11.0764093  16.5894013  28.7711430
   4.1222253  23.9991078  24.2767722   4.2232616  23.1891432  24.5864849
   3.5263999  23.9048024  23.6467400   4.0494792  23.8656106  24.2293960
  12.7813247  17.9386619  19.7633097  12.6652773  18.6894305  20.1925235
  13.5769134  17.6810572  20.0129184  12.8817837  18.0121466  19.8637189
   3.9622993  28.9168667  25.6782578   4.6060448  29.3581831  26.0678736
   4.2879248  28.1122093  25.5912836   4.1054822  28.8633862  25.7228055
   4.6643573  21.9280642  21.0502439   4.9859414  22.4685849  20.4463748
   5.3115669  21.3577413  21.1824729   4.8069628  21.9239817  20.9809475
   6.7145281  13.9296637  21.1336826   7.4125445  14.1084764  21.6258289
   7.0297613  13.4066976  20.5107215   6.8640618  13.8790409  21.1138836
   6.9033216  20.3167082  21.1216618   7.3426852  19.7084182  21.5671390
   6.7537879  19.9374455  20.3502083   6.9454682  20.1705553  21.0735785
   4.3704859  18.9111094  28.3235443   5.0153862  18.4183537  28.0046392
   4.6106636  19.0535880  29.1501521   4.5015444  18.8588536  28.3984976
   6.9090950  21.7565999  27.9742336   7.1914193  20.9617405  27.7529092
   7.6377111  22.2346587  27.9947397   7.0580514  21.7100596  27.9445351
  10.5042553  18.6694263  18.0747387  10.4193848  19.5255230  18.2196956
  10.9926936  18.3938587  18.7429546  10.5631450  18.7551584  18.1949468
  11.4360986  15.2879057  19.5745122  10.9072457  15.5038691  20.2342428
  11.9586006  15.9815196  19.4946091  11.4349439  15.4222194  19.6600721
  16.8909039  20.8625362  24.9478166  16.0606742  21.0736005  25.1111583
  16.8418291  20.0362416  24.6720450  16.7615774  20.7714968  24.9315532
   4.9518776  23.6929216  27.7826076   4.4345718  23.3336631  27.1787384
   5.6493168  23.1691390  27.7932142   4.9784357  23.5626904  27.6956335
   8.6082368  24.1424030  33.7442249   8.6965714  23.9550170  34.5920459
   9.0372081  23.4961459  33.3447096   8.6844471  24.0187038  33.8114000
   6.1752828  23.4255190  32.7259911   5.6123663  23.0127800  33.2499572
   6.9373852  23.3508096  33.1453054   6.2047277  23.3532590  32.8652912
   1.7348820  25.4153211  25.3296541   2.4369399  24.9005200  25.3869298
   1.6546303  25.7427362  26.1343416   1.8272580  25.3867437  25.4569334
  16.3862997  13.5095762  28.7428588  15.5491418  13.5797949  28.9776182
  16.3551228  13.5120257  27.8702890  16.2581279  13.5205989  28.6488136
   2.7827726  15.6528798  34.4576956   2.9548230  15.5434693  35.3062238
   3.3197084  16.2983203  34.2208149   2.8872730  15.7320800  34.5482053
   1.0599595  21.6059563  24.8382149   1.8988494  21.8382496  24.8855911
   1.0911364  20.7363874  24.7689185   1.1881313  21.5116509  24.8346794
   1.6852298  22.0260438  29.1395455   2.2250523  21.8831569  29.8098827
   1.0022244  22.4257189  29.5079481   1.6644452  22.0640109  29.2929877
  11.1093183  17.7051439  24.3340479  11.8650698  18.1382953  24.3729388
  11.2155507  17.0556209  24.9075115  11.2363353  17.6728923  24.4238505
  14.1473354  21.5324716  25.0842882  13.7108586  21.5361459  25.8401854
  13.8136269  22.2130215  24.6522460  14.0335974  21.6337172  25.1323715
   8.7202428  23.5733049  36.4086033   9.5042844  23.6863897  36.7741775
   8.5199022  22.7474186  36.6044718   8.8068453  23.4679768  36.4920419
  14.0670837   8.5738544  27.3272310  14.7096745   8.6436649  27.9134225
  14.3193858   7.9067767  26.8251852  14.1992969   8.4864893  27.3399589
   8.8772821  25.4843151  30.0552488   8.0788067  25.2442651  30.3126357
   9.3258832  25.5357544  30.8019536   8.8247432  25.4565542  30.2037412
  17.2817700  18.2505636  23.9762519  17.9434134  17.6896304  23.8758428
  16.6409112  17.7557667  24.3015211  17.2846568  18.0942045  24.0094860
   8.1694508  21.5475767  16.2843443   8.5845656  21.2160791  15.5927938
   7.3386438  21.3144670  16.1563579   8.1082517  21.4647023  16.1634290
  13.5682531  19.2671018  23.7174508  13.8038120  19.4116217  22.8901359
  13.7172095  20.0313426  24.1106022  13.6248334  19.4010073  23.6538112
   0.5628608  15.7504511  33.0823729   1.2868581  15.7357542  33.5688624
   0.6644745  16.4599867  32.5845698   0.6846817  15.8529214  33.0802516
  15.3972988  18.1072684  21.5544112  15.7281205  18.6400324  20.9484207
  15.9706076  18.1611572  22.2106063  15.5306667  18.1942253  21.5621894
   7.9373558  19.2303596  37.9472676   7.1446539  19.5447108  38.1325296
   8.0522485  19.4455064  37.1093461   7.8368968  19.3087433  37.8511011
  10.6104877  15.9537587  22.2367692  10.7051731  16.6926881  22.6907318
   9.9863720  15.5255063  22.6702257  10.5313907  15.9998908  22.3675840
   8.8657351  19.1323800  32.8857973   9.4396212  18.4951044  33.0406537
   8.7872154  19.1327882  32.0167631   8.9390585  19.0388911  32.7804384
   4.2221069  17.5647065  24.9379171   3.9640313  16.7318800  24.9110470
   4.2769552  17.7904678  24.0971671   4.1920847  17.4744836  24.8099307
   9.3022119   9.6675515  25.0383263   8.5978446   9.1784701  25.1967182
   9.3507094   9.6797990  24.1671708   9.2052171   9.5965163  24.9322603
   3.1955781  15.1184827  25.4244065   2.6205373  15.2776996  26.0608026
   2.8191458  14.4820236  24.9612516   3.0558594  15.0482640  25.4498624
   6.8629070  13.5908177  30.2836444   6.4743503  13.1662394  29.6288635
   6.1983768  13.8390326  30.7913470   6.7075998  13.5646898  30.2624312
  16.5052339  13.3483181  23.0584274  16.2488904  12.5363123  22.8682157
  17.3481653  13.3560748  22.8314461  16.5918365  13.2295179  22.9969091
  10.6855432   7.2882805  27.7960428  11.0665943   6.6060976  28.1828302
   9.8818716   6.9992407  27.6136092  10.6231893   7.1449854  27.8264484
   7.9668008  17.8206781  18.4813251   8.7808647  18.1121674  18.3696022
   7.9027150  17.1666643  17.9071544   8.0770747  17.7671976  18.3802088
  14.1877498  20.5032777  32.8942826  13.9516136  19.6720842  32.7754887
  14.8320727  20.4518384  33.4797670  14.2472169  20.3730465  32.9628720
   3.8375917  21.2928299  23.6085563   4.4749863  21.0540046  24.1537356
   4.2630988  21.4965457  22.8738723   3.9952083  21.2879309  23.5802720
  15.2113919  20.2877226  28.9571121  14.9059736  21.0205283  29.3184436
  14.4920135  19.8815156  28.6763907  15.0601261  20.3358959  28.9684258
   6.2197388  21.7700721  25.2879349   6.2936397  21.6075893  26.1421199
   7.0366895  21.9590911  25.0439831   6.3513747  21.7737464  25.3777375
  20.9115711  16.9270227  28.2839465  20.8440211  16.9466186  27.4142052
  20.8971374  17.7700554  28.5095136  20.8994468  17.0543961  28.1891942
  11.3212058   8.3305384  31.6080554  12.0665650   8.1415195  31.1943980
  10.9049362   8.8563622  31.0494411  11.3697032   8.3807530  31.4645128
   4.7601974  24.7335464  20.0192822   5.0500273  24.3424446  19.2952049
   5.4905455  24.9152169  20.4598098   4.9108858  24.7029278  19.9775629
  18.6974329  15.7014613  26.5586059  19.2482250  15.0682682  26.7983152
  18.6818444  16.2330006  27.2501564  18.7759525  15.6863561  26.6964918
   5.3496719  19.5353210  31.1045953   4.8508413  20.2468978  31.1830841
   6.1596944  19.8553877  31.0664115   5.3952826  19.6880059  31.1102521
   2.7007890  26.7102847  23.0852972   2.4808185  26.4200201  23.8779639
   2.4802412  26.0517802  22.5570884   2.6355484  26.5702555  23.1241881
   1.6124837  18.7976163  25.3508674   1.3238086  18.1713634  25.8854401
   2.4808185  18.7396451  25.4173354   1.6985089  18.6963707  25.4399628
  12.4002735  13.9410947  25.6690656  12.0567501  13.2201282  26.0197905
  12.4995777  13.7324798  24.8269014  12.3644778  13.8035150  25.5962336
   4.8675845  28.0832237  21.8683664   5.5199904  27.5508679  22.0974691
   4.1701454  27.7300889  22.2551539   4.8606563  27.9521760  21.9595832
   1.8157110  20.4371414  21.2751039   2.5703078  20.8184453  21.4886501
   1.2227723  20.8882558  21.7297735   1.8393824  20.5600242  21.3733917
  12.8615764  20.4036651  21.2114644  13.4273796  21.0629861  21.1273187
  12.2143667  20.7486349  21.6831046  12.8494520  20.5518592  21.2687400
   4.2763777  12.3934255  36.4008251   3.4663553  12.6992034  36.2898093
   4.7538464  13.1139837  36.5160835   4.2267256  12.5448856  36.4015322
   3.1355337  21.6079976  26.6491154   2.6136090  21.7480267  27.3343019
   3.5229357  20.8490640  26.8393272   3.1159038  21.5165499  26.7792231
   9.3322342  23.3475435  20.6351723   9.0909018  22.6143295  20.2278788
   9.5123675  23.8962292  19.9818056   9.3229966  23.3197826  20.4781946
   4.5621663  18.6383995  22.0472645   4.3664445  19.2458729  21.4532948
   4.7856008  17.9451939  21.5664319   4.5656304  18.6261520  21.8888726
   2.9600193  15.5238733  22.1653514   3.6822844  15.6879891  21.7057320
   2.4808185  16.2448397  22.0592853   2.9963923  15.6536962  22.0819128
  10.9193700  11.8602531  27.5450199  10.0804801  11.8863810  27.3088462
  10.9898067  12.5073267  28.1255545  10.8062094  11.9598657  27.5959315
   9.3662978   8.7587908  22.2777814  10.0689331   8.5595657  21.7997773
   9.1007167   7.9863851  22.5846658   9.4309611   8.6150874  22.2523256
  14.7951224  17.0670518  24.8311440  14.7085199  17.2225944  25.6846219
  14.3401704  17.7108594  24.4570845  14.7154481  17.1846273  24.9018547
   4.1291535  10.0223194  31.3308695   3.9374732  10.0378328  32.1808119
   4.9790131  10.2186868  31.3075350   4.2267257  10.0537545  31.4531990
   8.6677040  14.3881265  23.4537000   8.4211754  14.3077016  24.2873789
   8.9962163  13.6034733  23.2599527   8.6798284  14.2607531  23.5484523
  12.5625089  21.0964625  27.2423781  12.4239448  21.7945670  27.7472523
  11.7825087  20.9413281  26.8859963  12.4268316  21.1764791  27.2650055
  10.9003174  17.3961000  33.4946163  10.8951212  16.5240816  33.4988589
  11.6064168  17.5949169  33.0215618  11.0048178  17.2964874  33.4253198
   4.6274067  17.1237984  32.8659983   4.7717443  17.7039192  32.2303093
   4.9749716  17.5014280  33.5709838   4.7001529  17.2658688  32.8758978
   6.7993985  16.3228152  30.6485114   6.0517299  16.5159167  30.2433393
   6.9535510  15.4973372  30.4109236   6.7116412  16.2293264  30.5530520
   3.7001822  25.3140756  29.7321010   3.8491386  24.7543671  29.0794414
   4.4801824  25.3932757  30.1153529   3.8375916  25.2426321  29.6917959
  14.0578462  20.4542878  18.0040280  13.6785270  19.6680016  17.9969570
  13.3944707  21.0029735  17.8611924  13.9036936  20.4187702  17.9821077
   6.2255123  25.4855398  31.0105501   6.1498794  24.8164209  31.5656289
   6.1544982  26.1873187  31.5246167   6.2035730  25.4900306  31.1682349
   7.0395762  10.2178703  31.5380518   7.4968376  10.9502677  31.6653310
   7.1152090   9.7945168  32.2967774   7.1186732  10.2635941  31.6681595
   6.8825370  24.0056397  21.8429107   7.6475261  23.7366041  21.5211771
   6.7803460  23.5206408  22.5599169   6.9806865  23.8945962  21.9008934
   4.9178140  12.2080807  28.3822342   4.1274214  12.0272267  28.7039678
   5.3138762  11.4307759  28.3652637   4.8595016  12.0668268  28.4274891
  10.3021826  19.8423237  26.1081788   9.6266828  19.6108469  26.6095175
  10.3114202  19.2344420  25.4823893  10.2040330  19.7182162  26.0897940
   7.4315970  14.6841066  32.8645841   7.3675111  15.5451022  32.7365978
   7.5713158  14.3673059  32.0641392   7.4431440  14.7641233  32.7274054
  12.3038560  22.6988369  18.3391966  12.3858398  23.5055356  18.0153417
  12.7888303  22.7184329  19.0632740  12.3875718  22.8209032  18.3978865
   6.1135064  17.3773205  27.0062044   5.6897313  17.5777704  26.2701062
   5.9379919  16.5302053  27.1186344   6.0245944  17.2821987  26.9135734
   5.6146757  28.8923718  29.4683501   6.1042688  28.1934507  29.2859166
   5.0430990  28.5947588  30.0559559   5.6031287  28.7449942  29.5284542
   1.4017509  17.8725257  22.4390017   1.5582128  17.8072060  23.2946009
   1.7418102  18.6473809  22.2268696   1.4750744  17.9774455  22.5344611
   7.9396653  17.2483140  21.3083380   8.4812199  16.7453521  21.7722000
   8.2543212  17.1948335  20.4972865   8.0661050  17.1662561  21.2567192
  11.8113761  21.4585788  38.4210292  12.6248626  21.1870936  38.5815424
  11.6508727  21.1593328  37.6170488  11.9083709  21.3740714  38.3255698
   6.1083103  22.6400492  18.5923408   6.1775923  21.7815030  18.7316408
   6.8871558  22.8572373  18.2642432   6.2335953  22.5453356  18.5640565
   9.0885923  12.1419445  31.3605680   9.3027892  11.5030359  30.8069034
   8.4719822  12.5865269  30.9313542   9.0291252  12.1129588  31.2156111
  10.4990591  25.0638193  22.8059901  10.1070382  24.7604908  22.0882767
  10.6543663  25.9007283  22.6164855  10.4644181  25.1422030  22.6716398
  11.2525011  13.7508510  32.2988987  10.4401692  13.4434400  32.3802160
  11.7114945  13.2707510  32.8631700  11.2005396  13.6345002  32.3943582
  10.6630265  21.6288182  22.7465932  10.3044920  21.8002825  23.5229964
  10.1768976  22.0901388  22.1893930  10.5388962  21.7227153  22.7791201
   8.3478518  15.1568581  37.0817690   8.8178149  15.7810698  37.4685564
   8.3940398  14.4885557  37.6410904   8.4246394  15.1503262  37.2217761
  11.8235005  22.5192078  33.6933133  12.4614725  22.0252274  33.3595589
  11.1809096  22.4469478  33.1085359  11.8229231  22.4351086  33.5575488
  13.5492005  14.3681224  28.2599048  13.1219613  14.2807572  27.5047148
  12.9118058  14.4758999  28.8453892  13.3921612  14.3713884  28.2344490
   7.0413082   9.4756749  34.1996018   7.8686511   9.2041898  34.2554632
   7.0620928  10.2717591  34.5559836   7.1665932   9.5536503  34.2611200
  11.8789261  23.2111886  30.3338489  12.6681640  22.8600951  30.4540571
  12.0532859  24.0248275  30.0715123  12.0209543  23.2797743  30.3126357
   1.6182572  16.6220612  27.3866278   0.7770578  16.5224486  27.5945172
   1.8272580  17.3916092  27.7380599   1.5247264  16.7212655  27.4693593
  10.7323086   7.2221443  24.8954908  10.9372679   7.1543751  25.7411905
  10.4049510   8.0280264  24.8276085  10.7138333   7.3307383  25.0114563
   5.4299237  14.5502011  26.6363876   5.1262374  13.9957999  27.2374283
   4.7278657  14.7294221  26.1491910   5.2815446  14.4946793  26.6533581
   3.4917588  21.7651732  31.3435973   3.3837943  21.7753794  32.2098032
   3.7013369  22.5906512  31.1540927   3.5067699  21.8892807  31.4440065
  13.9856773   7.7753207  24.3757673  13.3731087   8.2623609  24.7611405
  14.0820948   7.0996698  24.9195324  13.9094671   7.7471516  24.5136531
   1.5091380  19.0164374  28.8057911   0.9179313  19.6573872  28.7760926
   2.2712403  19.4401991  28.7789211   1.5339640  19.1740213  28.7973058
   3.5535352  10.8433067  34.0397956   3.1620917  10.1966414  34.4753734
   3.7221215  11.4344502  34.6592211   3.5206263  10.8347335  34.1960662
  17.6281801  18.8470144  29.8035189  17.6864925  19.2956793  30.5495166
  16.9948269  19.2568957  29.3665269  17.5433096  18.9743879  29.8487738
  11.2680896  24.4673686  26.2389935  11.0700585  24.9564500  25.5446147
  10.6468607  24.6714927  26.8174069  11.1468460  24.5690224  26.2213159
   5.3288874  16.2358583  20.5800180   6.0730919  16.6232859  20.8183130
   5.4749570  15.3916008  20.7440668   5.4599459  16.1689055  20.6394149
   8.3166750  11.8084056  26.4794099   7.8426704  11.2825818  26.9899410
   8.6884886  11.2613529  25.9108961   8.3016639  11.6500053  26.4709246
  14.5803481  16.8686432  27.8900880  14.3401704  16.0292847  27.8943306
  15.0595488  16.9486598  28.6141653  14.6155664  16.7567831  27.9975682
  16.5808668  13.6487889  25.8430139  16.3418438  13.6083723  25.0050923
  16.7442569  14.4959041  25.9695860  16.5698971  13.7679974  25.7383621
  13.1854698  18.0337838  31.7735184  13.9088897  17.5810365  31.5946204
  12.9204660  18.3142504  30.9907512  13.2535971  18.0088807  31.6313899
   2.0541566  12.6298012  28.5088063   1.4294636  12.6416404  27.9014016
   1.7187161  13.1058187  29.1579303   1.9127058  12.7016529  28.5144632
   9.7987332  21.2724174  18.6729510  10.5221531  21.7382287  18.5294083
   9.3587923  21.3397784  17.9227107   9.8403024  21.3508011  18.5414291
   8.9673487  18.1321716  29.9230199   8.3530480  17.5879767  30.2178834
   9.4840772  17.6185953  29.4436015   8.9529150  17.9758125  29.8954427
   8.2069785  19.2025986  27.6574498   7.7797393  18.5775705  27.2239933
   8.1994729  18.9200908  28.4833505   8.1428926  19.0678767  27.7154325
   1.3232312  14.2391159  30.7262932   1.4825798  13.4834484  31.1314653
   1.1425205  14.7882099  31.3803669   1.3197671  14.2084973  30.8825638
   9.2652615   6.4052395  31.2813721   8.7693176   6.6016069  30.5905288
  10.0221677   6.8045063  31.1102523   9.3039439   6.4930129  31.1533858
   6.5355494  10.0794741  27.8717032   6.5597981   9.5454853  27.1829812
   6.7866968   9.5712050  28.5342622   6.5765413   9.9255645  27.8681676
   4.9986429  18.3726299  35.3543070   4.1482060  18.5098013  35.4900715
   5.1614557  17.6390077  35.7990772   4.8970293  18.2840400  35.4398670
   4.2371180  15.3226069  29.5496675   3.4063109  15.4899887  29.3431923
   4.1822697  14.9462020  30.3345560   4.1060595  15.2915800  29.6345203
  15.6190012  16.9964249  30.2765734  16.2107852  17.6361500  30.3083932
  16.0549006  16.2987286  30.5657800  15.7708443  16.9882599  30.3246566
   7.4483402  21.4181621  30.9023628   6.9408493  21.9717468  31.3464258
   7.1510048  21.4789911  30.0842402   7.3288287  21.5087933  30.8472084
   9.6145584   9.7834941  29.7448291  10.0400655   9.3307467  29.1331817
   9.0002577   9.2295012  30.0213078   9.5874229   9.6348917  29.6953316
  10.0591182  25.3344879  18.8327571   9.3420492  25.1605741  18.3674808
  10.7097920  25.0997451  18.3003057  10.0493032  25.2740672  18.6856789
  12.6439153  14.2109468  22.5768876  11.9730343  14.7539170  22.4481942
  13.3378903  14.6804323  22.3350571  12.6468021  14.3607739  22.5224404
   6.6925887  26.3506180  27.8080634   6.4691541  25.5925009  28.1764661
   6.2035730  26.3804201  27.0861074   6.5869336  26.2428404  27.7557375
  12.8067281  10.6665351  25.4859249  13.1594891  10.2395074  26.1605048
  11.9482082  10.5816195  25.6160326  12.7316725  10.5910092  25.6054260
   1.5050966  13.2972871  23.5442096   0.7862955  13.7137003  23.8114959
   1.8763328  13.8627110  22.9933734   1.4542897  13.4422152  23.5024903
  10.8050546  13.9300720  29.4344092  10.7848474  13.7484015  30.2878870
  10.8529747  14.8012738  29.4103675  10.8085187  14.0317258  29.5567386
   8.7496876  20.5187912  35.3592568   8.7092731  19.8737589  34.7737724
   9.5620195  20.4624529  35.6717980   8.8640030  20.4146879  35.3189517
   5.3404344  26.5706638  25.2617719   4.9264742  25.9080768  24.8721561
   6.0251718  26.7184496  24.7413413   5.3802716  26.4947296  25.1274216
   8.7069638  25.7296723  26.0141336   8.3085921  25.8398993  25.2462156
   8.0920858  25.9378789  26.5967895   8.5568527  25.7770291  25.9872635
  14.2391341   5.7883763  26.4143562  13.7322205   5.0812903  26.3464739
  15.0358774   5.4576952  26.5444638  14.2818580   5.6356914  26.4242557
  10.1555357  12.2950375  22.3117226   9.9269050  12.3183077  21.4695584
  10.4153433  11.4707842  22.4312236  10.1601545  12.1766455  22.2042423
   4.4374585  14.1484848  31.9142326   3.9253488  13.5406031  32.2727357
   4.2654081  14.8641441  32.3816302   4.3364222  14.1648148  32.0358549
   3.2100119  10.8326922  23.6071421   3.6857485  11.1944001  22.9721602
   2.7088719  11.4883389  23.8871564   3.2065478  10.9821110  23.5548162
  16.4411481  20.3048690  19.3984426  16.8245086  21.0540046  19.6282523
  15.6455594  20.5514509  19.1396415  16.3805263  20.4518383  19.3942000
   8.3143655  12.0709093  34.3544581   8.8715086  11.8422902  33.7223047
   7.9904720  12.8314759  34.0779794   8.3490066  12.1492930  34.2201078
   6.0326773  15.1576746  35.3196588   6.7838100  15.4728423  35.6336143
   6.2249349  14.9555917  34.4930510   6.1718187  15.1744128  35.2439984
  12.8812063  11.2850313  22.5620384  12.8806289  11.1298969  23.4204660
  12.6768243  12.1313300  22.5061769  12.8511841  11.3870933  22.6808323
  10.6052915  15.9647814  26.2156591  11.1006580  15.2470809  26.1760611
   9.7952691  15.6618612  26.1011078  10.5596808  15.8145461  26.1930317
   6.0511526  19.8145628  18.3653595   5.2422849  19.4912301  18.3186905
   6.5586435  19.1078850  18.2981844   6.0061193  19.6626944  18.3483890
  12.6704734  18.7151502  28.9033720  13.0959805  18.1925924  28.3504145
  12.3061654  19.3132339  28.3822342  12.6791336  18.7261729  28.7442729
   2.3058814  27.0115719  27.6631065   2.6205372  27.8252108  27.6708847
   2.7152227  26.6265938  28.3313224   2.4126911  27.0744422  27.7635157
   9.2583333  22.4285766  25.2334877   9.7294511  23.1426029  25.4024862
   9.5943512  21.8284516  25.7694746   9.3778448  22.4457230  25.3367253
  11.3460318  24.0387080  37.4126949  11.4557283  23.2495640  37.7683696
  11.6751214  23.9493016  36.6101287  11.4112724  23.9092932  37.3469340
   9.8957279  22.2203700  31.9962570   9.3478225  21.5961584  31.7282635
  10.3570308  22.4097972  31.2806649   9.8824489  22.1562750  31.8513001
  12.7051144  10.2889055  29.3813762  12.1214133  10.7898261  28.9691329
  13.0255438   9.7818611  28.7478085  12.6664319  10.2880890  29.2272269
   9.4615606  23.2254773  28.5271911  10.2813980  23.0817739  28.7888206
   9.1809683  23.8500972  29.0688349   9.5412349  23.2965125  28.6459850
  19.1328941  29.9695276  26.2467718  18.2766837  30.1303774  26.2976834
  19.1796595  29.0987340  26.2672779  19.0128052  29.8646078  26.2573784
  13.5170081  39.5057994  22.0104949  12.7652980  39.1273532  21.7820994
  13.9656092  39.5376427  21.2623759  13.4719748  39.4543601  21.8662451
  18.9695041  39.9283363  17.4390496  18.6346409  40.6060285  17.0034718
  19.4821911  39.5388674  16.8507368  18.9960622  39.9707941  17.2877288
  18.5099332  41.8797632  23.3801608  18.8938711  42.4484530  22.8406383
  18.4458473  41.1547142  22.9007424  18.5572759  41.8573095  23.2295470
  15.0954837  39.5176386  24.2767722  15.1965200  38.7076740  24.5864849
  14.4996582  39.4233332  23.6467400  15.0227376  39.3841414  24.2293960
  23.7545831  33.4571927  19.7633097  23.6385357  34.2079613  20.1925235
  24.5501717  33.1995880  20.0129184  23.8550420  33.5306774  19.8637189
  14.9355576  44.4353975  25.6782578  15.5793032  44.8767139  26.0678736
  15.2611832  43.6307401  25.5912836  15.0787405  44.3819170  25.7228055
   8.2919881  35.5396672  23.9020055   8.0570066  34.7064325  23.7952324
   8.4305522  35.8201338  23.0881256   8.2775544  35.4580176  23.7662410
  10.5909969  27.7082403  26.8004363   9.9715000  27.1175050  26.6314378
  10.4893832  28.2993838  26.1668686  10.4847644  27.7086485  26.6809353
  15.6376156  37.4465950  21.0502439  15.9591997  37.9871157  20.4463748
  16.2848253  36.8762721  21.1824729  15.7802211  37.4425125  20.9809475
  17.6877864  29.4481945  21.1336826  18.3858029  29.6270072  21.6258289
  18.0030197  28.9252284  20.5107215  17.8373201  29.3975717  21.1138836
  10.3179102  31.2534685  29.0447932  10.1937799  31.8397130  29.6797751
  10.9697386  30.7594880  29.3460207  10.3952751  31.2673489  29.1833861
  17.8765800  35.8352390  21.1216618  18.3159435  35.2269490  21.5671390
  17.7270463  35.4559763  20.3502083  17.9187265  35.6890861  21.0735785
  15.3437443  34.4296402  28.3235443  15.9886445  33.9368845  28.0046392
  15.5839220  34.5721188  29.1501521  15.4748028  34.3773844  28.3984976
  17.8823534  37.2751307  27.9742336  18.1646777  36.4802713  27.7529092
  18.6109694  37.7531895  27.9947397  18.0313098  37.2285904  27.9445351
  15.8604728  24.8174341  25.2158101  15.5308058  25.2685485  24.5461799
  15.1849730  24.7390505  25.7631107  15.7115164  24.8725477  25.1981324
  21.4775136  34.1879571  18.0747387  21.3926431  35.0440538  18.2196956
  21.9659519  33.9123895  18.7429546  21.5364033  34.2736892  18.1949468
  23.0681136  20.8059864  23.4607711  22.7534577  21.4963343  23.8928134
  22.5508077  20.7504646  22.7593212  22.9445606  20.8994753  23.4204661
  22.4093569  30.8064365  19.5745122  21.8805041  31.0223999  20.2342428
  22.9318589  31.5000504  19.4946091  22.4082022  30.9407502  19.6600721
  14.2993177  34.7027582  18.3752590  13.7150392  35.2077613  18.7818454
  13.8963272  34.4769969  17.6349182  14.1532481  34.7435830  18.3257615
   9.8537206  40.4182343  25.1776262   9.3704784  41.1432833  25.1535845
  10.6660524  40.7158473  25.2886419   9.9027954  40.5684697  25.1903541
  15.9251360  39.2114524  27.7826076  15.4078302  38.8521939  27.1787384
  16.6225751  38.6876698  27.7932142  15.9516941  39.0812212  27.6956335
  18.7570392  30.9493234  16.8521511  18.9966395  31.1571218  16.0396854
  19.0786233  30.1450743  16.9610455  18.8407550  30.8607335  16.7482064
  14.0660682  22.8786630  20.6981048  14.8206650  23.2464947  20.4598099
  13.8888217  23.2526184  21.4660228  14.1515160  22.9884818  20.7765937
  12.7081403  40.9338519  25.3296541  13.4101982  40.4190508  25.3869298
  12.6278886  41.2612670  26.1343416  12.8005164  40.9052745  25.4569334
  13.7560310  31.1714106  34.4576956  13.9280813  31.0620001  35.3062238
  14.2929667  31.8168511  34.2208149  13.8605314  31.2506108  34.5482053
  12.4217747  25.2856949  17.3959161  12.2393320  25.5028830  16.5700154
  13.2843360  25.3995961  17.4517776  12.5222336  25.3346847  17.2813649
  12.0332179  37.1244871  24.8382149  12.8721078  37.3567804  24.8855911
  12.0643948  36.2549182  24.7689185  12.1613896  37.0301817  24.8346794
  12.6584882  37.5445746  29.1395455  13.1983106  37.4016877  29.8098827
  11.9754828  37.9442497  29.5079481  12.6377035  37.5825417  29.2929877
  18.1017466  22.2883359  20.4308185  18.8303626  22.1099314  19.9846342
  18.1912359  23.1301439  20.6415363  18.2224128  22.3867238  20.3961703
   8.0622027  33.7646037  29.2929876   7.7960442  32.9485154  29.4520867
   8.0760591  33.8099192  28.4225392   8.0246749  33.6502942  29.1883358
  11.9679774  28.5631121  15.9081635  11.2537951  28.2769301  16.3204067
  12.4523742  28.9027747  16.5488022  11.9339137  28.5712771  16.0637269
  12.8120633  27.3024415  31.9396884  12.1192430  26.8321395  32.1857616
  13.4280960  27.0762720  32.5138591  12.8005163  27.1991547  32.0606037
  19.1427091  37.0661075  16.2843443  19.5578240  36.7346099  15.5927938
  18.3119021  36.8329978  16.1563579  19.0815100  36.9832331  16.1634290
   8.4715440  34.5504816  26.5741621   8.2891013  34.5251702  25.7213913
   9.2065109  35.0203754  26.6130529   8.5529504  34.6166179  26.4539539
  24.5415114  34.7856326  23.7174508  24.7770704  34.9301525  22.8901359
  24.6904678  35.5498734  24.1106022  24.5980918  34.9195381  23.6538112
  11.5361192  31.2689819  33.0823729  12.2601164  31.2542850  33.5688624
  11.6377328  31.9785174  32.5845698  11.6579401  31.3714522  33.0802516
  26.3705571  33.6257992  21.5544112  26.7013788  34.1585632  20.9484207
  26.9438659  33.6796880  22.2106063  26.5039250  33.7127561  21.5621894
  18.9106141  34.7488904  37.9472676  18.1179122  35.0632416  38.1325296
  19.0255068  34.9640372  37.1093461  18.8101552  34.8272741  37.8511011
  21.5837460  31.4722895  22.2367692  21.6784315  32.2112189  22.6907318
  20.9596304  31.0440370  22.6702257  21.5046490  31.5184216  22.3675840
   8.4386351  31.4298317  26.7240687   9.0159853  31.2934768  27.3632933
   7.7400412  30.9734101  26.9786272   8.4207372  31.3420583  26.8562977
  21.8360482  33.3171635  15.4704644  21.7540644  33.3873822  16.3359631
  22.4740202  33.8801379  15.2788385  21.9180319  33.4110606  15.5694594
  15.1953653  33.0832373  24.9379171  14.9372897  32.2504108  24.9110470
  15.2502136  33.3089986  24.0971671  15.1653431  32.9930144  24.8099307
  20.2754703  25.1860823  25.0383263  19.5711030  24.6970009  25.1967182
  20.3239677  25.1983298  24.1671708  20.1784755  25.1150471  24.9322603
  14.1688365  30.6370135  25.4244065  13.5937956  30.7962304  26.0608026
  13.7924041  30.0005544  24.9612516  14.0291177  30.5667948  25.4498624
  17.8361654  29.1093484  30.2836444  17.4476086  28.6847702  29.6288635
  17.1716352  29.3575634  30.7913470  17.6808581  29.0832206  30.2624312
   3.9145184  30.2810210  23.4388506   4.0005436  29.9042078  24.2202036
   4.5420981  29.9070656  22.9608464   4.0201735  30.1695692  23.4833983
  18.9400592  33.3392089  18.4813251  19.7541231  33.6306982  18.3696022
  18.8759733  32.6851951  17.9071544  19.0503331  33.2857284  18.3802088
  14.8108500  36.8113606  23.6085563  15.4482447  36.5725354  24.1537356
  15.2363572  37.0150765  22.8738723  14.9684666  36.8064617  23.5802720
   9.5021142  39.0501943  27.4919867   9.5425288  39.3216794  26.6639646
  10.0615667  39.5743851  27.9077654   9.5904488  39.1677698  27.4311755
  15.4511315  32.0315896  17.9460452  15.8356468  31.8123603  18.6976997
  15.2022935  32.8578842  18.0761528  15.4713388  32.1214043  18.0761529
  15.6179856  25.3122311  37.6623036  15.3033297  26.0821874  37.3992599
  15.2969788  24.7492567  37.0775263  15.5238775  25.3432580  37.5364386
  17.1929972  37.2886029  25.2879349  17.2668980  37.1261201  26.1421199
  18.0099478  37.4776219  25.0439831  17.3246331  37.2922771  25.3777375
  10.9535729  37.6343892  22.3173792  10.1273846  37.8805629  22.1908071
  11.0147720  37.5555973  23.1835851  10.8409896  37.6588841  22.4262737
  13.1711752  23.7012833  23.2769233  12.3034178  23.7735432  23.3426842
  13.4586957  24.5034912  23.4657208  13.0851501  23.8306980  23.3143999
  15.7334558  40.2520772  20.0192822  16.0232856  39.8609753  19.2952049
  16.4638039  40.4337477  20.4598098  15.8841442  40.2214586  19.9775629
  16.3229303  35.0538518  31.1045953  15.8240997  35.7654286  31.1830841
  17.1329527  35.3739185  31.0664115  16.3685410  35.2065367  31.1102521
  13.6740473  42.2288155  23.0852972  13.4540769  41.9385509  23.8779639
  13.4534995  41.5703110  22.5570884  13.6088068  42.0887863  23.1241881
  12.5857421  34.3161471  25.3508674  12.2970669  33.6898942  25.8854401
  13.4540769  34.2581759  25.4173354  12.6717672  34.2149015  25.4399628
  15.8408429  43.6017545  21.8683664  16.4932487  43.0693987  22.0974691
  15.1434038  43.2486197  22.2551539  15.8339147  43.4707068  21.9595832
  12.7889694  35.9556722  21.2751039  13.5435662  36.3369761  21.4886501
  12.1960307  36.4067866  21.7297735  12.8126407  36.0785550  21.3733917
  23.8348347  35.9221959  21.2114644  24.4006380  36.5815168  21.1273187
  23.1876251  36.2671657  21.6831046  23.8227104  36.0703900  21.2687400
  15.2496361  27.9119563  36.4008251  14.4396137  28.2177342  36.2898093
  15.7271048  28.6325145  36.5160835  15.1999840  28.0634164  36.4015322
  14.1087921  37.1265283  26.6491154  13.5868674  37.2665575  27.3343019
  14.4961941  36.3675948  26.8393272  14.0891621  37.0350807  26.7792231
  11.0979105  27.1771092  20.7186109  10.8103900  26.8072363  19.9818056
  11.7849573  27.6465948  20.4569814  11.1568002  27.1918062  20.5701185
  20.3054926  38.8660743  20.6351723  20.0641601  38.1328603  20.2278788
  20.4856258  39.4147600  19.9818056  20.2962549  38.8383134  20.4781946
  15.5354246  34.1569303  22.0472645  15.3397029  34.7644037  21.4532948
  15.7588592  33.4637247  21.5664319  15.5388887  34.1446828  21.8888726
  13.9332776  31.0424040  22.1653514  14.6555428  31.2065199  21.7057320
  13.4540769  31.7633705  22.0592853  13.9696507  31.1722270  22.0819128
  11.5840393  33.4482113  31.2707653  12.0961490  33.7266366  30.6216413
  11.2976735  34.1871407  31.6370467  11.6175256  33.5984467  31.2297532
  20.3395562  24.2773216  22.2777814  21.0421915  24.0780965  21.7997773
  20.0739751  23.5049159  22.5846658  20.4042194  24.1336182  22.2523256
   8.6707299  27.9552305  21.5671390   8.7723436  28.7578466  21.8952365
   9.4663186  27.7539641  21.2694471   8.8035205  28.0438203  21.5706745
  15.1024118  25.5408501  31.3308695  14.9107315  25.5563636  32.1808119
  15.9522714  25.7372176  31.3075350  15.1999840  25.5722853  31.4531990
   9.4871031  28.0699483  29.3092512   9.3456523  27.2183424  29.4337019
   9.7711595  28.1128144  28.4854718   9.5078877  27.9499233  29.2060136
  19.6409624  29.9066573  23.4537000  19.3944338  29.8262324  24.2873789
  19.9694747  29.1220041  23.2599527  19.6530867  29.7792838  23.5484523
  15.6006651  32.6423292  32.8659983  15.7450027  33.2224500  32.2303093
  15.9482299  33.0199588  33.5709838  15.6734112  32.7843996  32.8758978
  14.6734406  40.8326064  29.7321010  14.8223970  40.2728979  29.0794414
  15.4534408  40.9118065  30.1153529  14.8108500  40.7611629  29.6917959
  25.0311045  35.9728186  18.0040280  24.6517854  35.1865324  17.9969570
  24.3677291  36.5215043  17.8611924  24.8769520  35.9373010  17.9821077
  18.0128345  25.7364011  31.5380518  18.4700959  26.4687985  31.6653310
  18.0884674  25.3130476  32.2967774  18.0919315  25.7821249  31.6681595
  22.4855671  18.9153886  25.4074361  22.6039239  19.3730349  24.6741664
  22.3117847  18.1099147  25.1210579  22.4774842  18.8647658  25.2575295
  17.8557953  39.5241705  21.8429107  18.6207845  39.2551349  21.5211771
  17.7536043  39.0391716  22.5599169  17.9539449  39.4131270  21.9008934
  15.8910723  27.7266115  28.3822342  15.1006798  27.5457575  28.7039678
  16.2871346  26.9493067  28.3652637  15.8327599  27.5853576  28.4274891
  20.3776614  36.5553889  13.8229056  21.1449599  36.6154014  13.4134908
  19.9307923  35.9834330  13.3385374  20.4250041  36.4790465  13.6906766
  21.2754410  35.3608545  26.1081788  20.5999411  35.1293777  26.6095175
  21.2846786  34.7529728  25.4823893  21.1772914  35.2367470  26.0897940
  18.4048553  30.2026374  32.8645841  18.3407695  31.0636330  32.7365978
  18.5445741  29.8858367  32.0641392  18.4164024  30.2826540  32.7274054
  23.2771144  38.2173677  18.3391966  23.3590981  39.0240663  18.0153417
  23.7620886  38.2369636  19.0632740  23.3608302  38.3394340  18.3978865
  17.0867647  32.8958513  27.0062044  16.6629896  33.0963012  26.2701062
  16.9112503  32.0487361  27.1186344  16.9978528  32.8007295  26.9135734
  16.5879341  44.4109026  29.4683501  17.0775271  43.7119815  29.2859166
  16.0163573  44.1132896  30.0559559  16.5763871  44.2635250  29.5284542
  12.3750092  33.3910565  22.4390017  12.5314712  33.3257367  23.2946009
  12.7150685  34.1659117  22.2268696  12.4483327  33.4959763  22.5344611
  18.9129237  32.7668448  21.3083380  19.4544782  32.2638829  21.7722000
  19.2275796  32.7133643  20.4972865  19.0393634  32.6847869  21.2567192
  17.0815687  38.1585800  18.5923408  17.1508507  37.3000338  18.7316408
  17.8604142  38.3757681  18.2642432  17.2068537  38.0638664  18.5640565
  21.4723174  40.5823501  22.8059901  21.0802966  40.2790216  22.0882767
  21.6276246  41.4192591  22.6164855  21.4376764  40.6607338  22.6716398
   8.9484354  30.5745515  22.7550784   9.3283319  30.9930060  22.0911051
   8.3739719  31.1558971  23.0619627   8.9195679  30.7223374  22.7027525
  21.6362849  37.1473490  22.7465932  21.2777504  37.3188133  23.5229964
  21.1501560  37.6086696  22.1893930  21.5121546  37.2412461  22.7791201
  19.4533235  20.7704688  26.3493023  18.5826793  20.7443409  26.3026333
  19.7073576  20.5981881  25.5318869  19.3626795  20.7414832  26.2213160
  16.4251214  32.8272655  15.2866166  16.7143739  33.6037538  15.5609740
  16.5123013  32.3161387  15.9880665  16.4805471  32.8664574  15.4308664
  19.3211102  30.6753889  37.0817690  19.7910733  31.2996006  37.4685564
  19.3672982  30.0070865  37.6410904  19.3978978  30.6688570  37.2217761
  16.4782375  22.7810917  27.8066493  15.9620864  22.0891108  27.9318072
  15.9176304  23.4481694  27.7529092  16.3188889  22.7774174  27.8172559
  18.5474609  23.3203877  29.6359346  18.1606362  23.3452908  30.4172876
  18.0607546  22.7545555  29.1833863  18.4187118  23.2399628  29.6847250
  18.2131751  20.2070862  31.9269606  18.8424869  20.7431162  31.6490676
  18.3817613  20.1148221  32.7783172  18.3309545  20.2732225  32.0118134
  18.0145666  24.9942057  34.1996018  18.8419095  24.7227206  34.2554632
  18.0353512  25.7902899  34.5559836  18.1398516  25.0721811  34.2611200
  12.5915155  32.1405920  27.3866278  11.7503162  32.0409794  27.5945172
  12.8005163  32.9101400  27.7380599  12.4979848  32.2397963  27.4693593
  10.0690722  29.7625457  25.2151029   9.6747420  29.8368469  24.4401138
   9.5130839  30.1483403  25.7659391   9.9293535  29.8307231  25.1818689
  21.7055669  22.7406751  24.8954908  21.9105263  22.6729059  25.7411905
  21.3782093  23.5465572  24.8276085  21.6870917  22.8492691  25.0114563
  16.4031820  30.0687319  26.6363876  16.0994958  29.5143307  27.2374283
  15.7011241  30.2479529  26.1491910  16.2548030  30.0132101  26.6533581
  15.4597917  27.3787839  21.2008578  15.7357652  26.6606751  20.7886145
  16.0596587  27.9772759  20.9929684  15.5891182  27.3608210  21.1089339
  14.4650171  37.2837040  31.3435973  14.3570526  37.2939102  32.2098032
  14.6745953  38.1091820  31.1540927  14.4800282  37.4078115  31.4440065
  24.9589357  23.2938515  24.3757673  24.3463670  23.7808917  24.7611405
  25.0553532  22.6182006  24.9195324  24.8827254  23.2656824  24.5136531
  18.9608438  25.0501356  19.4755173  19.4152184  25.2211917  20.2003017
  19.4348484  24.4369467  19.0752948  19.0976758  24.9852241  19.5228934
  12.4823963  34.5349682  28.8057911  11.8911896  35.1759180  28.7760926
  13.2444987  34.9587299  28.7789211  12.5072224  34.6925521  28.7973058
  12.8784586  25.6951680  29.4725929  13.3386068  25.7690609  30.2101052
  12.9240693  26.4932934  29.1225750  12.9535141  25.8245827  29.5298685
  14.5267936  26.3618375  34.0397956  14.1353501  25.7151722  34.4753734
  14.6953799  26.9529810  34.6592211  14.4938846  26.3532643  34.1960662
  22.2413479  39.9858994  26.2389935  22.0433168  40.4749808  25.5446147
  21.6201191  40.1900235  26.8174069  22.1201044  40.0875532  26.2213159
  16.3021458  31.7543891  20.5800180  17.0463503  32.1418167  20.8183130
  16.4482154  30.9101316  20.7440668  16.4332043  31.6874363  20.6394149
  18.2201033  23.5494149  25.6132041  17.3737078  23.7216957  25.4873391
  18.2172166  22.7443493  25.9497870  18.0948183  23.4555178  25.6443168
  19.2899334  27.3269364  26.4794099  18.8159288  26.8011126  26.9899410
  19.6617470  26.7798837  25.9108961  19.2749223  27.1685360  26.4709246
   9.6672364  29.3240871  31.8477645  10.5297977  29.2236580  31.7614975
   9.3364147  28.7435580  31.2863217   9.7457560  29.2232497  31.7523051
  21.2182833  28.2205918  19.5419853  20.6905852  28.3034662  18.8525562
  21.6778542  28.9623790  19.5384498  21.2084684  28.3426581  19.4394548
  13.0274150  28.1483320  28.5088063  12.4027220  28.1601712  27.9014016
  12.6919745  28.6243495  29.1579303  12.8859642  28.2201837  28.5144632
  13.2115899  26.4908438  14.5660748  12.8628703  27.1428163  15.0292297
  12.7312344  26.4765551  13.8384619  13.0886142  26.5851492  14.5271839
   9.7399825  36.2083780  29.9491827   9.2099750  35.5176219  29.9986802
  10.0124919  36.1993965  29.1204536   9.7024548  36.1050911  29.8339243
  20.7719916  36.7909482  18.6729510  21.4954115  37.2567595  18.5294083
  20.3320507  36.8583092  17.9227107  20.8135608  36.8693319  18.5414291
  19.1802368  34.7211294  27.6574498  18.7529976  34.0961013  27.2239933
  19.1727312  34.4386216  28.4833505  19.1161509  34.5864075  27.7154325
  12.2964895  29.7576467  30.7262932  12.4558382  29.0019792  31.1314653
  12.1157789  30.3067407  31.3803669  12.2930254  29.7270281  30.8825638
  20.2385198  21.9237703  31.2813721  19.7425759  22.1201377  30.5905288
  20.9954260  22.3230371  31.1102523  20.2772023  22.0115437  31.1533858
  17.5088078  25.5980049  27.8717032  17.5330565  25.0640161  27.1829812
  17.7599551  25.0897358  28.5342622  17.5497996  25.4440953  27.8681676
   5.0195668  32.8811544  27.3060176   4.9139117  32.8358388  26.4412260
   4.2695888  33.2265324  27.5874461   4.8931271  32.9252452  27.2197505
  13.7889400  24.3250867  27.2522776  13.8287772  24.8260074  27.9657483
  12.9639065  24.4161261  26.9828699  13.6728926  24.4132683  27.3173314
  15.9719013  33.8911607  35.3543070  15.1214643  34.0283321  35.4900715
  16.1347141  33.1575385  35.7990772  15.8702876  33.8025708  35.4398670
  15.2103763  30.8411377  29.5496675  14.3795693  31.0085195  29.3431923
  15.1555281  30.4647328  30.3345560  15.0793178  30.8101108  29.6345203
  13.0187547  24.3320270  35.1853086  13.6440250  23.7882403  35.4582518
  12.5638027  23.8515187  34.6160876  13.0435807  24.1809751  35.1414679
  13.5839807  29.1166968  20.0786793  13.7242768  29.6139433  20.7815434
  14.0822340  28.4153263  20.2201006  13.6780888  29.0868947  20.2038372
  13.6140030  29.9834079  17.4079369  14.2485109  30.5794505  17.3428831
  13.6965640  29.6837537  18.2225240  13.7196581  30.0274988  17.5182456
  15.1919012  25.9148055  17.3824811  15.5134854  25.4351137  16.7284074
  15.4545956  26.7247701  17.1915623  15.2785038  25.9637953  17.2580303
  18.4215985  36.9366929  30.9023628  17.9141076  37.4902776  31.3464258
  18.1242631  36.9975219  30.0842402  18.3020870  37.0273240  30.8472084
  10.1193018  32.1801920  20.6768915  10.6285247  32.7766428  21.0580221
  10.5927290  31.9127894  19.9945335  10.2636393  32.2287736  20.6323438
  21.0323766  40.8530187  18.8327571  20.3153075  40.6791049  18.3674808
  21.6830503  40.6182759  18.3003057  21.0225616  40.7925979  18.6856789
  19.0272390  21.7735349  23.1538868  18.3840708  21.6232995  23.7224006
  18.6871797  21.5277694  22.3887972  18.8817468  21.7147471  23.1241883
  17.6658471  41.8691487  27.8080634  17.4424125  41.1110317  28.1764661
  17.1768314  41.8989509  27.0861074  17.5601920  41.7613712  27.7557375
  23.7799864  26.1850659  25.4859249  24.1327474  25.7580382  26.1605048
  22.9214666  26.1001503  25.6160326  23.7049309  26.1095400  25.6054260
  12.4783549  28.8158179  23.5442096  11.7595538  29.2322311  23.8114959
  12.8495912  29.3812418  22.9933734  12.4275481  28.9607460  23.5024903
  16.3136927  42.0891946  25.2617719  15.8997326  41.4266076  24.8721561
  16.9984302  42.2369804  24.7413413  16.3535299  42.0132604  25.1274216
  19.6802222  41.2482031  26.0141336  19.2818505  41.3584301  25.2462156
  19.0653441  41.4564097  26.5967895  19.5301111  41.2955599  25.9872635
  18.2530124  27.8556179  18.8815475  17.6594963  28.1773175  18.3300042
  18.2905401  27.0097274  18.6736581  18.1704513  27.7780507  18.7698247
  25.2123924  21.3069071  26.4143562  24.7054789  20.5998211  26.3464739
  26.0091358  20.9762260  26.5444638  25.2551164  21.1542222  26.4242557
  21.1287940  27.8135683  22.3117226  20.9001633  27.8368385  21.4695584
  21.3886016  26.9893150  22.4312236  21.1334128  27.6951763  22.2042423
  15.4107169  29.6670156  31.9142326  14.8986072  29.0591339  32.2727357
  15.2386665  30.3826749  32.3816302  15.3096806  29.6833456  32.0358549
  10.2572883  28.1107732  34.5644688  10.0875474  28.7709106  34.0192894
   9.8138833  28.3214293  35.2857177  10.1672217  28.2393714  34.5906317
  14.1832703  26.3512230  23.6071421  14.6590069  26.7129309  22.9721602
  13.6821302  27.0068697  23.8871564  14.1798062  26.5006418  23.5548162
  27.4144064  35.8233998  19.3984426  27.7977670  36.5725354  19.6282523
  26.6188178  36.0699817  19.1396415  27.3537846  35.9703691  19.3942000
  19.2876239  27.5894401  34.3544581  19.8447669  27.3608210  33.7223047
  18.9637304  28.3500067  34.0779794  19.3222649  27.6678238  34.2201078
   7.1574948  31.0154597  29.8233177   6.6101667  30.3455243  29.9414046
   7.9467326  30.6484445  29.8876645   7.1927131  30.8619584  29.8501878
  17.0059356  30.6762054  35.3196588  17.7570683  30.9913731  35.6336143
  17.1981933  30.4741225  34.4930510  17.1450770  30.6929436  35.2439984
  16.2259356  28.4953429  16.9744805  16.6058321  28.5133058  16.1895920
  15.4851952  28.9407418  16.8535653  16.1728194  28.5635204  16.8408373
  23.8544646  26.8035620  22.5620384  23.8538873  26.6484277  23.4204660
  23.6500826  27.6498608  22.5061769  23.8244424  26.9056241  22.6808323
   5.9161917  30.2275405  26.9779200   5.7383678  29.7752014  27.7034116
   5.6280939  31.0301566  27.1617678   5.8474870  30.2797963  27.1122703
  17.0244110  35.3330936  18.3653595  16.2155433  35.0097609  18.3186905
  17.5319019  34.6264158  18.2981844  16.9793777  35.1812252  18.3483890
   7.6534387  32.7603129  24.0900960   6.7879907  32.7488819  23.9783731
   7.7533203  32.5733352  24.9372099   7.5408554  32.7309190  24.1989904
  13.2791397  42.5301027  27.6631065  13.5937956  43.3437416  27.6708847
  13.6884810  42.1451246  28.3313224  13.3859495  42.5929730  27.7635157
  20.2315917  37.9471074  25.2334877  20.7027095  38.6611337  25.4024862
  20.5676095  37.3469824  25.7694746  20.3511032  37.9642538  25.3367253
  17.1485412  22.7198545  32.1892972  17.2813317  21.9229538  32.5173947
  17.5330564  23.2464948  32.7691247  17.2241741  22.6798461  32.3236475
  20.2217767  19.6428871  28.7874065  19.4163731  19.5326600  29.1041903
  20.0924502  19.7441326  27.9303931  20.0837900  19.6412541  28.7082105
  16.2178527  24.7214957  19.6572437  17.0394221  24.8913270  19.4154132
  15.7548177  24.8762218  18.9338734  16.2709689  24.7696690  19.5144081
  14.8073858  22.7157720  30.4370866  15.3518271  22.3748847  31.0275207
  14.8610794  23.5743181  30.5792150  14.8962978  22.7912979  30.5452739
  10.6204417  36.4774136  27.3109673  11.2249275  36.4369970  26.6823494
  10.4131730  37.3245288  27.3413729  10.6793314  36.5962138  27.2225790
   5.8555700  35.4608753  27.1808597   5.7579978  34.6505025  27.4898653
   6.6384569  35.4400547  26.7954865   5.9571836  35.3375843  27.1695459
  36.9061840  46.4004933  21.4914787  36.8755844  47.2549569  21.6633057
  37.5043188  46.1000225  22.0500931  36.9898998  46.4821429  21.5989589
  30.1061525  45.4880584  26.2467718  29.2499420  45.6489082  26.2976834
  30.1529178  44.6172648  26.2672779  29.9860636  45.3831385  26.2573784
  24.4902664  55.0243301  22.0104949  23.7385564  54.6458840  21.7820994
  24.9388676  55.0561735  21.2623759  24.4452331  54.9728909  21.8662451
  29.9427624  55.4468671  17.4390496  29.6078993  56.1245593  17.0034718
  30.4554495  55.0573982  16.8507368  29.9693205  55.4893249  17.2877288
  29.4831915  57.3982940  23.3801608  29.8671295  57.9669838  22.8406383
  29.4191057  56.6732450  22.9007424  29.5305343  57.3758403  23.2295470
  32.9513346  47.5472628  28.8899369  33.4969306  48.2257714  28.9493339
  32.8930222  47.4060088  28.0300951  33.0229260  47.6264629  28.7711430
  26.0687420  55.0361694  24.2767722  26.1697783  54.2262048  24.5864849
  25.4729166  54.9418640  23.6467400  25.9959959  54.9026722  24.2293960
  34.7278414  48.9757235  19.7633097  34.6117940  49.7264921  20.1925235
  35.5234301  48.7181188  20.0129184  34.8283004  49.0492082  19.8637189
  25.9088160  59.9539283  25.6782578  26.5525616  60.3952447  26.0678736
  26.2344416  59.1492709  25.5912836  26.0519989  59.9004478  25.7228055
  19.2652465  51.0581980  23.9020055  19.0302649  50.2249633  23.7952324
  19.4038105  51.3386646  23.0881256  19.2508127  50.9765484  23.7662410
  21.5642552  43.2267711  26.8004363  20.9447584  42.6360358  26.6314378
  21.4626416  43.8179146  26.1668686  21.4580228  43.2271793  26.6809353
  26.6108740  52.9651258  21.0502439  26.9324581  53.5056465  20.4463748
  27.2580836  52.3948029  21.1824729  26.7534795  52.9610433  20.9809475
  28.6610448  44.9667253  21.1336826  29.3590613  45.1455380  21.6258289
  28.9762780  44.4437592  20.5107215  28.8105785  44.9161025  21.1138836
  21.2911685  46.7719993  29.0447932  21.1670382  47.3582438  29.6797751
  21.9429970  46.2780188  29.3460207  21.3685335  46.7858797  29.1833861
  28.8498383  51.3537698  21.1216618  29.2892019  50.7454798  21.5671390
  28.7003046  50.9745071  20.3502083  28.8919849  51.2076169  21.0735785
  26.3170026  49.9481709  28.3235443  26.9619029  49.4554153  28.0046392
  26.5571803  50.0906496  29.1501521  26.4480611  49.8959152  28.3984976
  28.8556118  52.7936615  27.9742336  29.1379360  51.9988021  27.7529092
  29.5842278  53.2717203  27.9947397  29.0045681  52.7471212  27.9445351
  26.8337311  40.3359649  25.2158101  26.5040641  40.7870793  24.5461799
  26.1582313  40.2575813  25.7631107  26.6847748  40.3910784  25.1981324
  32.4507720  49.7064879  18.0747387  32.3659015  50.5625846  18.2196956
  32.9392103  49.4309203  18.7429546  32.5096617  49.7922200  18.1949468
  33.3826153  46.3249673  19.5745122  32.8537624  46.5409307  20.2342428
  33.9051173  47.0185812  19.4946091  33.3814606  46.4592810  19.6600721
  25.2725761  50.2212890  18.3752590  24.6882976  50.7262921  18.7818454
  24.8695856  49.9955277  17.6349182  25.1265065  50.2621138  18.3257615
  20.8269789  55.9367651  25.1776262  20.3437368  56.6618141  25.1535845
  21.6393108  56.2343781  25.2886419  20.8760537  56.0870005  25.1903541
  26.8983943  54.7299832  27.7826076  26.3810885  54.3707247  27.1787384
  27.5958335  54.2062006  27.7932142  26.9249525  54.5997520  27.6956335
  29.7302975  46.4678542  16.8521511  29.9698979  46.6756526  16.0396854
  30.0518816  45.6636051  16.9610455  29.8140133  46.3792643  16.7482064
  25.0393265  38.3971938  20.6981048  25.7939234  38.7650255  20.4598099
  24.8620800  38.7711492  21.4660228  25.1247744  38.5070126  20.7765937
  23.6813987  56.4523827  25.3296541  24.3834566  55.9375816  25.3869298
  23.6011470  56.7797978  26.1343416  23.7737747  56.4238053  25.4569334
  23.3950330  40.8042257  17.3959161  23.2125903  41.0214137  16.5700154
  24.2575943  40.9181269  17.4517776  23.4954920  40.8532155  17.2813649
  23.0064762  52.6430179  24.8382149  23.8453662  52.8753112  24.8855911
  23.0376531  51.7734490  24.7689185  23.1346480  52.5487125  24.8346794
  23.6317465  53.0631054  29.1395455  24.1715690  52.9202185  29.8098827
  22.9487411  53.4627805  29.5079481  23.6109619  53.1010725  29.2929877
  29.0750049  37.8068667  20.4308185  29.8036210  37.6284622  19.9846342
  29.1644942  38.6486747  20.6415363  29.1956711  37.9052546  20.3961703
  19.0354610  49.2831345  29.2929876  18.7693025  48.4670462  29.4520867
  19.0493174  49.3284500  28.4225392  18.9979333  49.1688250  29.1883358
  22.9412357  44.0816429  15.9081635  22.2270534  43.7954609  16.3204067
  23.4256326  44.4213055  16.5488022  22.9071720  44.0898079  16.0637269
  30.1159675  52.5846383  16.2843443  30.5310824  52.2531407  15.5927938
  29.2851605  52.3515286  16.1563579  30.0547684  52.5017639  16.1634290
  19.4448024  50.0690124  26.5741621  19.2623597  50.0437010  25.7213913
  20.1797693  50.5389062  26.6130529  19.5262088  50.1351487  26.4539539
  22.5093776  46.7875127  33.0823729  23.2333748  46.7728158  33.5688624
  22.6109912  47.4970482  32.5845698  22.6311985  46.8899830  33.0802516
  32.5570044  46.9908203  22.2367692  32.6516898  47.7297497  22.6907318
  31.9328887  46.5625678  22.6702257  32.4779074  47.0369523  22.3675840
  19.4118934  46.9483625  26.7240687  19.9892437  46.8120076  27.3632933
  18.7132996  46.4919409  26.9786272  19.3939956  46.8605891  26.8562977
  32.8093065  48.8356943  15.4704644  32.7273228  48.9059130  16.3359631
  33.4472786  49.3986687  15.2788385  32.8912903  48.9295914  15.5694594
  26.1686236  48.6017681  24.9379171  25.9105481  47.7689415  24.9110470
  26.2234719  48.8275294  24.0971671  26.1386014  48.5115452  24.8099307
  31.2487287  40.7046131  25.0383263  30.5443613  40.2155317  25.1967182
  31.2972261  40.7168606  24.1671708  31.1517338  40.6335779  24.9322603
  25.1420949  46.1555443  25.4244065  24.5670540  46.3147611  26.0608026
  24.7656625  45.5190852  24.9612516  25.0023761  46.0853256  25.4498624
  28.8094237  44.6278792  30.2836444  28.4208670  44.2033010  29.6288635
  28.1448936  44.8760942  30.7913470  28.6541165  44.6017513  30.2624312
  38.4517506  44.3853797  23.0584274  38.1954071  43.5733739  22.8682157
  39.2946820  44.3931364  22.8314461  38.5383532  44.2665795  22.9969091
  14.8877767  45.7995518  23.4388506  14.9738019  45.4227386  24.2202036
  15.5153565  45.4255963  22.9608464  14.9934318  45.6881000  23.4833983
  32.6320599  38.3253421  27.7960428  33.0131110  37.6431592  28.1828302
  31.8283883  38.0363023  27.6136092  32.5697060  38.1820470  27.8264484
  29.9133175  48.8577397  18.4813251  30.7273814  49.1492290  18.3696022
  29.8492317  48.2037259  17.9071544  30.0235914  48.8042592  18.3802088
  25.7841084  52.3298914  23.6085563  26.4215031  52.0910662  24.1537356
  26.2096155  52.5336073  22.8738723  25.9417250  52.3249925  23.5802720
  20.4753726  54.5687251  27.4919867  20.5157871  54.8402102  26.6639646
  21.0348250  55.0929159  27.9077654  20.5637072  54.6863006  27.4311755
  26.4243899  47.5501204  17.9460452  26.8089051  47.3308911  18.6976997
  26.1755519  48.3764150  18.0761528  26.4445971  47.6399350  18.0761529
  28.1662556  52.8071337  25.2879349  28.2401564  52.6446509  26.1421199
  28.9832062  52.9961527  25.0439831  28.2978914  52.8108079  25.3777375
  21.9268312  53.1529200  22.3173792  21.1006430  53.3990937  22.1908071
  21.9880304  53.0741281  23.1835851  21.8142479  53.1774149  22.4262737
  24.1444336  39.2198141  23.2769233  23.2766762  39.2920740  23.3426842
  24.4319540  40.0220220  23.4657208  24.0584084  39.3492288  23.3143999
  26.7067141  55.7706080  20.0192822  26.9965440  55.3795061  19.2952049
  27.4370622  55.9522785  20.4598098  26.8574026  55.7399894  19.9775629
  24.6473057  57.7473463  23.0852972  24.4273352  57.4570817  23.8779639
  24.4267579  57.0888418  22.5570884  24.5820651  57.6073171  23.1241881
  23.5590004  49.8346779  25.3508674  23.2703253  49.2084250  25.8854401
  24.4273352  49.7767066  25.4173354  23.6450256  49.7334323  25.4399628
  26.8141013  59.1202852  21.8683664  27.4665071  58.5879295  22.0974691
  26.1166621  58.7671505  22.2551539  26.8071731  58.9892375  21.9595832
  23.7622277  51.4742030  21.2751039  24.5168245  51.8555069  21.4886501
  23.1692890  51.9253174  21.7297735  23.7858991  51.5970857  21.3733917
  34.8080931  51.4407266  21.2114644  35.3738964  52.1000476  21.1273187
  34.1608834  51.7856965  21.6831046  34.7959687  51.5889208  21.2687400
  25.0820504  52.6450591  26.6491154  24.5601258  52.7850883  27.3343019
  25.4694524  51.8861256  26.8393272  25.0624205  52.5536115  26.7792231
  22.0711688  42.6956400  20.7186109  21.7836484  42.3257671  19.9818056
  22.7582156  43.1651255  20.4569814  22.1300585  42.7103370  20.5701185
  31.2787509  54.3846051  20.6351723  31.0374185  53.6513911  20.2278788
  31.4588842  54.9332908  19.9818056  31.2695133  54.3568442  20.4781946
  26.5086830  49.6754610  22.0472645  26.3129612  50.2829345  21.4532948
  26.7321175  48.9822554  21.5664319  26.5121471  49.6632136  21.8888726
  24.9065360  46.5609348  22.1653514  25.6288012  46.7250506  21.7057320
  24.4273352  47.2819013  22.0592853  24.9429090  46.6907578  22.0819128
  32.8658867  42.8973147  27.5450199  32.0269968  42.9234426  27.3088462
  32.9363235  43.5443883  28.1255545  32.7527261  42.9969273  27.5959315
  22.5572976  48.9667421  31.2707653  23.0694073  49.2451674  30.6216413
  22.2709319  49.7056715  31.6370467  22.5907840  49.1169774  31.2297532
  31.3128146  39.7958524  22.2777814  32.0154498  39.5966273  21.7997773
  31.0472334  39.0234467  22.5846658  31.3774778  39.6521490  22.2523256
  19.6439883  43.4737613  21.5671390  19.7456019  44.2763774  21.8952365
  20.4395769  43.2724949  21.2694471  19.7767788  43.5623511  21.5706745
  30.6142207  45.4251881  23.4537000  30.3676921  45.3447632  24.2873789
  30.9427330  44.6405349  23.2599527  30.6263451  45.2978146  23.5484523
  34.5090256  52.1335240  27.2423781  34.3704615  52.8316286  27.7472523
  33.7290254  51.9783897  26.8859963  34.3733483  52.2135407  27.2650055
  25.6466989  56.3511371  29.7321010  25.7956553  55.7914287  29.0794414
  26.4266992  56.4303373  30.1153529  25.7841083  56.2796937  29.6917959
  36.0043629  51.4913494  18.0040280  35.6250438  50.7050632  17.9969570
  35.3409874  52.0400351  17.8611924  35.8502104  51.4558318  17.9821077
  28.1720290  56.5226014  31.0105501  28.0963961  55.8534825  31.5656289
  28.1010149  57.2243802  31.5246167  28.1500897  56.5270922  31.1682349
  28.8290537  55.0427013  21.8429107  29.5940428  54.7736657  21.5211771
  28.7268627  54.5577024  22.5599169  28.9272032  54.9316578  21.9008934
  26.8643307  43.2451423  28.3822342  26.0739382  43.0642883  28.7039678
  27.2603930  42.4678375  28.3652637  26.8060183  43.1038884  28.4274891
  31.3509198  52.0739197  13.8229056  32.1182183  52.1339322  13.4134908
  30.9040507  51.5019638  13.3385374  31.3982625  51.9975773  13.6906766
  34.2503728  53.7358985  18.3391966  34.3323565  54.5425971  18.0153417
  34.7353470  53.7554944  19.0632740  34.3340886  53.8579648  18.3978865
  28.0600231  48.4143821  27.0062044  27.6362480  48.6148320  26.2701062
  27.8845086  47.5672669  27.1186344  27.9711112  48.3192603  26.9135734
  27.5611924  59.9294334  29.4683501  28.0507855  59.2305123  29.2859166
  26.9896157  59.6318204  30.0559559  27.5496454  59.7820558  29.5284542
  23.3482676  48.9095873  22.4390017  23.5047295  48.8442675  23.2946009
  23.6883269  49.6844425  22.2268696  23.4215911  49.0145071  22.5344611
  29.8861821  48.2853756  21.3083380  30.4277366  47.7824137  21.7722000
  30.2008380  48.2318951  20.4972865  30.0126218  48.2033177  21.2567192
  28.0548270  53.6771108  18.5923408  28.1241091  52.8185646  18.7316408
  28.8336725  53.8942989  18.2642432  28.1801120  53.5823972  18.5640565
  32.4455758  56.1008809  22.8059901  32.0535550  55.7975524  22.0882767
  32.6008830  56.9377899  22.6164855  32.4109348  56.1792646  22.6716398
  19.9216937  46.0930823  22.7550784  20.3015902  46.5115368  22.0911051
  19.3472302  46.6744279  23.0619627  19.8928262  46.2408682  22.7027525
  32.6095433  52.6658798  22.7465932  32.2510087  52.8373441  23.5229964
  32.1234143  53.1272003  22.1893930  32.4854130  52.7597769  22.7791201
  27.3983798  48.3457963  15.2866166  27.6876323  49.1222846  15.5609740
  27.4855597  47.8346695  15.9880665  27.4538054  48.3849882  15.4308664
  23.5647739  47.6591228  27.3866278  22.7235746  47.5595102  27.5945172
  23.7737747  48.4286708  27.7380599  23.4712432  47.7583271  27.4693593
  21.0423306  45.2810765  25.2151029  20.6480004  45.3553777  24.4401138
  20.4863423  45.6668711  25.7659391  20.9026118  45.3492539  25.1818689
  27.3764404  45.5872627  26.6363876  27.0727541  45.0328615  27.2374283
  26.6743825  45.7664837  26.1491910  27.2280614  45.5317409  26.6533581
  26.4330501  42.8973147  21.2008578  26.7090235  42.1792059  20.7886145
  27.0329170  43.4958067  20.9929684  26.5623766  42.8793517  21.1089339
  25.4382755  52.8022348  31.3435973  25.3303110  52.8124410  32.2098032
  25.6478536  53.6277128  31.1540927  25.4532866  52.9263422  31.4440065
  35.9321940  38.8123823  24.3757673  35.3196254  39.2994225  24.7611405
  36.0286115  38.1367314  24.9195324  35.8559838  38.7842132  24.5136531
  29.9341021  40.5686664  19.4755173  30.3884768  40.7397225  20.2003017
  30.4081067  39.9554775  19.0752948  30.0709342  40.5037549  19.5228934
  23.4556547  50.0534990  28.8057911  22.8644480  50.6944488  28.7760926
  24.2177570  50.4772607  28.7789211  23.4804807  50.2110828  28.7973058
  27.2754041  47.2729198  20.5800180  28.0196086  47.6603475  20.8183130
  27.4214738  46.4286624  20.7440668  27.4064627  47.2059671  20.6394149
  30.2631917  42.8454672  26.4794099  29.7891872  42.3196434  26.9899410
  30.6350053  42.2984145  25.9108961  30.2481806  42.6870668  26.4709246
  32.1915417  43.7391226  19.5419853  31.6638436  43.8219970  18.8525562
  32.6511125  44.4809098  19.5384498  32.1817267  43.8611889  19.4394548
  24.0006733  43.6668628  28.5088063  23.3759804  43.6787019  27.9014016
  23.6652328  44.1428803  29.1579303  23.8592225  43.7387145  28.5144632
  24.1848482  42.0093746  14.5660748  23.8361286  42.6613471  15.0292297
  23.7044928  41.9950859  13.8384619  24.0618726  42.1036800  14.5271839
  20.7132409  51.7269088  29.9491827  20.1832333  51.0361527  29.9986802
  20.9857502  51.7179273  29.1204536  20.6757131  51.6236219  29.8339243
  31.7452499  52.3094790  18.6729510  32.4686698  52.7752903  18.5294083
  31.3053090  52.3768400  17.9227107  31.7868192  52.3878627  18.5414291
  30.9138654  49.1692332  29.9230199  30.2995648  48.6250383  30.2178834
  31.4305939  48.6556569  29.4436015  30.8994317  49.0128741  29.8954427
  30.1534952  50.2396602  27.6574498  29.7262560  49.6146321  27.2239933
  30.1459896  49.9571524  28.4833505  30.0894093  50.1049383  27.7154325
  23.2697479  45.2761775  30.7262932  23.4290965  44.5205099  31.1314653
  23.0890372  45.8252715  31.3803669  23.2662838  45.2455589  30.8825638
  28.4820661  41.1165357  27.8717032  28.5063149  40.5825469  27.1829812
  28.7332135  40.6082666  28.5342622  28.5230580  40.9626261  27.8681676
  15.9928251  48.3996852  27.3060176  15.8871700  48.3543696  26.4412260
  15.2428471  48.7450632  27.5874461  15.8663854  48.4437760  27.2197505
  24.7621984  39.8436175  27.2522776  24.8020355  40.3445382  27.9657483
  23.9371648  39.9346569  26.9828699  24.6461510  39.9317991  27.3173314
  26.1836347  46.3596685  29.5496675  25.3528277  46.5270503  29.3431923
  26.1287864  45.9832636  30.3345560  26.0525762  46.3286416  29.6345203
  24.5572391  44.6352276  20.0786793  24.6975352  45.1324741  20.7815434
  25.0554924  43.9338571  20.2201006  24.6513472  44.6054255  20.2038372
  24.5872613  45.5019387  17.4079369  25.2217693  46.0979812  17.3428831
  24.6698224  45.2022845  18.2225240  24.6929164  45.5460296  17.5182456
  26.1651596  41.4333363  17.3824811  26.4867437  40.9536445  16.7284074
  26.4278540  42.2433009  17.1915623  26.2517621  41.4823261  17.2580303
  21.0925601  47.6987228  20.6768915  21.6017830  48.2951736  21.0580221
  21.5659873  47.4313202  19.9945335  21.2368977  47.7473044  20.6323438
  32.0056349  56.3715495  18.8327571  31.2885659  56.1976357  18.3674808
  32.6563087  56.1368067  18.3003057  31.9958200  56.3111287  18.6856789
  34.5904320  45.2480083  22.5768876  33.9195510  45.7909786  22.4481942
  35.2844071  45.7174939  22.3350571  34.5933188  45.3978355  22.5224404
  28.6391054  57.3876795  27.8080634  28.4156709  56.6295625  28.1764661
  28.1500897  57.4174817  27.0861074  28.5334503  57.2799020  27.7557375
  34.7532448  41.7035967  25.4859249  35.1060058  41.2765690  26.1605048
  33.8947249  41.6186811  25.6160326  34.6781892  41.6280708  25.6054260
  23.4516133  44.3343487  23.5442096  22.7328122  44.7507619  23.8114959
  23.8228495  44.8997726  22.9933734  23.4008065  44.4792768  23.5024903
  27.2869511  57.6077254  25.2617719  26.8729910  56.9451384  24.8721561
  27.9716885  57.7555112  24.7413413  27.3267883  57.5317912  25.1274216
  30.6534805  56.7667339  26.0141336  30.2551088  56.8769609  25.2462156
  30.0386025  56.9749405  26.5967895  30.5033694  56.8140907  25.9872635
  29.2262707  43.3741487  18.8815475  28.6327546  43.6958483  18.3300042
  29.2637985  42.5282582  18.6736581  29.1437096  43.2965815  18.7698247
  32.1020524  43.3320991  22.3117226  31.8734217  43.3553693  21.4695584
  32.3618600  42.5078458  22.4312236  32.1066712  43.2137071  22.2042423
  25.1565286  41.8697537  23.6071421  25.6322653  42.2314617  22.9721602
  24.6553886  42.5254005  23.8871564  25.1530645  42.0191726  23.5548162
  18.1307531  46.5339905  29.8233177  17.5834251  45.8640551  29.9414046
  18.9199910  46.1669753  29.8876645  18.1659715  46.3804891  29.8501878
  27.1991939  44.0138737  16.9744805  27.5790904  44.0318366  16.1895920
  26.4584535  44.4592726  16.8535653  27.1460777  44.0820512  16.8408373
  34.8277230  42.3220928  22.5620384  34.8271456  42.1669585  23.4204660
  34.6233410  43.1683915  22.5061769  34.7977008  42.4241549  22.6808323
  16.8894501  45.7460713  26.9779200  16.7116262  45.2937322  27.7034116
  16.6013523  46.5486874  27.1617678  16.8207454  45.7983271  27.1122703
  32.5518082  47.0018430  26.2156591  33.0471747  46.2841425  26.1760611
  31.7417858  46.6989228  26.1011078  32.5061975  46.8516076  26.1930317
  27.9976693  50.8516243  18.3653595  27.1888016  50.5282917  18.3186905
  28.5051602  50.1449466  18.2981844  27.9526360  50.6997560  18.3483890
  18.6266971  48.2788437  24.0900960  17.7612490  48.2674127  23.9783731
  18.7265787  48.0918659  24.9372099  18.5141138  48.2494498  24.1989904
  24.2523981  58.0486335  27.6631065  24.5670540  58.8622724  27.6708847
  24.6617394  57.6636554  28.3313224  24.3592079  58.1115038  27.7635157
  31.2048500  53.4656382  25.2334877  31.6759678  54.1796645  25.4024862
  31.5408679  52.8655132  25.7694746  31.3243615  53.4827846  25.3367253
  27.1911110  40.2400265  19.6572437  28.0126804  40.4098578  19.4154132
  26.7280761  40.3947526  18.9338734  27.2442272  40.2881998  19.5144081
  21.5937001  51.9959444  27.3109673  22.1981858  51.9555278  26.6823494
  21.3864313  52.8430596  27.3413729  21.6525898  52.1147446  27.2225790
  16.8288283  50.9794061  27.1808597  16.7312561  50.1690333  27.4898653
  17.6117153  50.9585855  26.7954865  16.9304420  50.8561151  27.1695459
  35.4635248  70.5428609  22.0104949  34.7118147  70.1644148  21.7820994
  35.9121260  70.5747043  21.2623759  35.4184915  70.4914217  21.8662451
  44.3887825  67.2752417  35.8528174  45.0954592  66.7804448  35.9815108
  44.5775760  67.7161499  35.1230832  44.5215730  67.2670768  35.7637219
  40.9160208  70.9653979  17.4390496  40.5811576  71.6430901  17.0034718
  41.4287078  70.5759290  16.8507368  40.9425789  71.0078557  17.2877288
  40.4564499  72.9168248  23.3801608  40.8403878  73.4855146  22.8406383
  40.3923640  72.1917758  22.9007424  40.5037926  72.8943711  23.2295470
  43.9245929  63.0657935  28.8899369  44.4701889  63.7443022  28.9493339
  43.8662805  62.9245396  28.0300951  43.9961844  63.1449937  28.7711430
  37.0420004  70.5547002  24.2767722  37.1430367  69.7447356  24.5864849
  36.4461749  70.4603948  23.6467400  36.9692543  70.4212030  24.2293960
  45.7010998  64.4942543  19.7633097  45.5850524  65.2450229  20.1925235
  46.4966885  64.2366496  20.0129184  45.8015587  64.5677389  19.8637189
  36.8820744  75.4724591  25.6782578  37.5258199  75.9137755  26.0678736
  37.2076999  74.6678017  25.5912836  37.0252572  75.4189785  25.7228055
  30.2385048  66.5767288  23.9020055  30.0035233  65.7434941  23.7952324
  30.3770689  66.8571954  23.0881256  30.2240711  66.4950792  23.7662410
  37.5841323  68.4836566  21.0502439  37.9057164  69.0241773  20.4463748
  38.2313420  67.9133337  21.1824729  37.7267379  68.4795741  20.9809475
  39.6343031  60.4852561  21.1336826  40.3323196  60.6640688  21.6258289
  39.9495364  59.9622900  20.5107215  39.7838369  60.4346333  21.1138836
  39.8230967  66.8723006  21.1216618  40.2624602  66.2640106  21.5671390
  39.6735630  66.4930379  20.3502083  39.8652432  66.7261477  21.0735785
  39.8288701  68.3121923  27.9742336  40.1111944  67.5173329  27.7529092
  40.5574862  68.7902511  27.9947397  39.9778265  68.2656520  27.9445351
  43.4240303  65.2250187  18.0747387  43.3391598  66.0811153  18.2196956
  43.9124687  64.9494511  18.7429546  43.4829201  65.3107508  18.1949468
  44.3558737  61.8434981  19.5745122  43.8270208  62.0594615  20.2342428
  44.8783757  62.5371119  19.4946091  44.3547190  61.9778118  19.6600721
  49.8106789  67.4181285  24.9478166  48.9804493  67.6291929  25.1111583
  49.7616042  66.5918340  24.6720450  49.6813525  67.3270892  24.9315532
  36.2458344  65.7398198  18.3752590  35.6615560  66.2448229  18.7818454
  35.8428440  65.5140585  17.6349182  36.0997648  65.7806446  18.3257615
  31.8002373  71.4552959  25.1776262  31.3169951  72.1803449  25.1535845
  32.6125691  71.7529089  25.2886419  31.8493121  71.6055313  25.1903541
  37.8716527  70.2485140  27.7826076  37.3543469  69.8892555  27.1787384
  38.5690918  69.7247314  27.7932142  37.8982108  70.1182828  27.6956335
  41.5280119  70.6979954  33.7442249  41.6163465  70.5106094  34.5920459
  41.9569832  70.0517383  33.3447096  41.6042221  70.5742961  33.8114000
  39.0950579  69.9811114  32.7259911  38.5321414  69.5683723  33.2499572
  39.8571602  69.9064019  33.1453054  39.1245027  69.9088514  32.8652912
  40.7035559  61.9863850  16.8521511  40.9431562  62.1941834  16.0396854
  41.0251400  61.1821359  16.9610455  40.7872717  61.8977951  16.7482064
  36.0125849  53.9157246  20.6981048  36.7671817  54.2835563  20.4598099
  35.8353384  54.2896800  21.4660228  36.0980327  54.0255433  20.7765937
  34.6546570  71.9709135  25.3296541  35.3567150  71.4561124  25.3869298
  34.5744053  72.2983286  26.1343416  34.7470331  71.9423361  25.4569334
  34.3682914  56.3227565  17.3959161  34.1858487  56.5399445  16.5700154
  35.2308527  56.4366577  17.4517776  34.4687503  56.3717463  17.2813649
  33.9797346  68.1615487  24.8382149  34.8186245  68.3938420  24.8855911
  34.0109115  67.2919798  24.7689185  34.1079063  68.0672433  24.8346794
  34.6050049  68.5816362  29.1395455  35.1448274  68.4387493  29.8098827
  33.9219995  68.9813113  29.5079481  34.5842203  68.6196033  29.2929877
  44.0290934  64.2607363  24.3340479  44.7848449  64.6938877  24.3729388
  44.1353258  63.6112132  24.9075115  44.1561104  64.2284846  24.4238505
  47.0671105  68.0880640  25.0842882  46.6306337  68.0917382  25.8401854
  46.7334020  68.7686139  24.6522460  46.9533725  68.1893096  25.1323715
  41.6400178  70.1288973  36.4086033  42.4240595  70.2419820  36.7741775
  41.4396773  69.3030110  36.6044718  41.7266204  70.0235692  36.4920419
  33.9144941  59.6001737  15.9081635  33.2003118  59.3139917  16.3204067
  34.3988909  59.9398363  16.5488022  33.8804304  59.6083387  16.0637269
  41.7970572  72.0399075  30.0552488  40.9985817  71.7998575  30.3126357
  42.2456583  72.0913468  30.8019536  41.7445183  72.0121466  30.2037412
  41.0892259  68.1031691  16.2843443  41.5043407  67.7716715  15.5927938
  40.2584188  67.8700593  16.1563579  41.0280267  68.0202947  16.1634290
  30.4180607  65.5875432  26.5741621  30.2356181  65.5622318  25.7213913
  31.1530276  66.0574370  26.6130529  30.4994671  65.6536794  26.4539539
  46.4880282  65.8226942  23.7174508  46.7235871  65.9672141  22.8901359
  46.6369845  66.5869350  24.1106022  46.5446085  65.9565997  23.6538112
  48.3170738  64.6628608  21.5544112  48.6478955  65.1956248  20.9484207
  48.8903826  64.7167496  22.2106063  48.4504417  64.7498177  21.5621894
  40.8571309  65.7859520  37.9472676  40.0644289  66.1003032  38.1325296
  40.9720236  66.0010988  37.1093461  40.7566719  65.8643356  37.8511011
  43.5302627  62.5093511  22.2367692  43.6249482  63.2482805  22.6907318
  42.9061471  62.0810986  22.6702257  43.4511658  62.5554831  22.3675840
  43.7825649  64.3542251  15.4704644  43.7005811  64.4244438  16.3359631
  44.4205369  64.9171995  15.2788385  43.8645486  64.4481222  15.5694594
  37.1418820  64.1202989  24.9379171  36.8838064  63.2874723  24.9110470
  37.1967303  64.3460602  24.0971671  37.1118598  64.0300760  24.8099307
  25.8610351  61.3180826  23.4388506  25.9470603  60.9412694  24.2202036
  26.4886148  60.9441271  22.9608464  25.9666902  61.2066308  23.4833983
  40.8865759  64.3762705  18.4813251  41.7006398  64.6677598  18.3696022
  40.8224900  63.7222567  17.9071544  40.9968498  64.3227900  18.3802088
  47.1075249  67.0588701  32.8942826  46.8713887  66.2276766  32.7754887
  47.7518478  67.0074308  33.4797670  47.1669920  66.9286389  32.9628720
  36.7573667  67.8484222  23.6085563  37.3947614  67.6095970  24.1537356
  37.1828739  68.0521381  22.8738723  36.9149833  67.8435233  23.5802720
  31.4486310  70.0872559  27.4919867  31.4890455  70.3587410  26.6639646
  32.0080834  70.6114467  27.9077654  31.5369656  70.2048314  27.4311755
  37.3976482  63.0686512  17.9460452  37.7821635  62.8494219  18.6976997
  37.1488103  63.8949458  18.0761528  37.4178555  63.1584658  18.0761529
  39.1395139  68.3256645  25.2879349  39.2134147  68.1631817  26.1421199
  39.9564646  68.5146835  25.0439831  39.2711498  68.3293387  25.3777375
  32.9000896  68.6714508  22.3173792  32.0739014  68.9176245  22.1908071
  32.9612887  68.5926589  23.1835851  32.7875063  68.6959457  22.4262737
  37.6799725  71.2891388  20.0192822  37.9698023  70.8980369  19.2952049
  38.4103206  71.4708093  20.4598098  37.8306609  71.2585202  19.9775629
  38.2694470  66.0909134  31.1045953  37.7706164  66.8024902  31.1830841
  39.0794694  66.4109801  31.0664115  38.3150577  66.2435983  31.1102521
  35.6205641  73.2658770  23.0852972  35.4005936  72.9756125  23.8779639
  35.4000163  72.6073725  22.5570884  35.5553235  73.1258479  23.1241881
  34.5322588  65.3532087  25.3508674  34.2435836  64.7269558  25.8854401
  35.4005936  65.2952374  25.4173354  34.6182840  65.2519631  25.4399628
  37.7873596  74.6388160  21.8683664  38.4397654  74.1064603  22.0974691
  37.0899205  74.2856813  22.2551539  37.7804314  74.5077683  21.9595832
  34.7354861  66.9927338  21.2751039  35.4900829  67.3740377  21.4886501
  34.1425474  67.4438482  21.7297735  34.7591575  67.1156165  21.3733917
  45.7813515  66.9592574  21.2114644  46.3471547  67.6185784  21.1273187
  45.1341418  67.3042273  21.6831046  45.7692271  67.1074516  21.2687400
  36.0553088  68.1635899  26.6491154  35.5333841  68.3036191  27.3343019
  36.4427108  67.4046564  26.8393272  36.0356789  68.0721423  26.7792231
  33.0444272  58.2141708  20.7186109  32.7569067  57.8442979  19.9818056
  33.7314740  58.6836563  20.4569814  33.1033169  58.2288677  20.5701185
  42.2520093  69.9031359  20.6351723  42.0106769  69.1699219  20.2278788
  42.4321426  70.4518216  19.9818056  42.2427717  69.8753750  20.4781946
  37.4819413  65.1939918  22.0472645  37.2862196  65.8014653  21.4532948
  37.7053759  64.5007862  21.5664319  37.4854054  65.1817444  21.8888726
  35.8797943  62.0794656  22.1653514  36.6020595  62.2435814  21.7057320
  35.4005936  62.8004321  22.0592853  35.9161674  62.2092886  22.0819128
  30.6172466  58.9922921  21.5671390  30.7188603  59.7949082  21.8952365
  31.4128353  58.7910256  21.2694471  30.7500372  59.0808819  21.5706745
  41.5874791  60.9437189  23.4537000  41.3409505  60.8632940  24.2873789
  41.9159914  60.1590657  23.2599527  41.5996034  60.8163454  23.5484523
  45.4822840  67.6520548  27.2423781  45.3437199  68.3501594  27.7472523
  44.7022837  67.4969205  26.8859963  45.3466066  67.7320715  27.2650055
  43.8200925  63.9516924  33.4946163  43.8148963  63.0796740  33.4988589
  44.5261919  64.1505093  33.0215618  43.9245929  63.8520798  33.4253198
  36.6199573  71.8696679  29.7321010  36.7689137  71.3099595  29.0794414
  37.3999575  71.9488681  30.1153529  36.7573667  71.7982245  29.6917959
  46.9776212  67.0098802  18.0040280  46.5983021  66.2235940  17.9969570
  46.3142458  67.5585659  17.8611924  46.8234687  66.9743626  17.9821077
  39.1452874  72.0411322  31.0105501  39.0696545  71.3720133  31.5656289
  39.0742733  72.7429110  31.5246167  39.1233481  72.0456230  31.1682349
  39.8023121  70.5612321  21.8429107  40.5673012  70.2921965  21.5211771
  39.7001211  70.0762331  22.5599169  39.9004616  70.4501886  21.9008934
  42.3241781  67.5924505  13.8229056  43.0914766  67.6524630  13.4134908
  41.8773090  67.0204946  13.3385374  42.3715208  67.5161081  13.6906766
  43.2219577  66.3979161  26.1081788  42.5464578  66.1664393  26.6095175
  43.2311953  65.7900344  25.4823893  43.1238081  66.2738086  26.0897940
  45.2236311  69.2544293  18.3391966  45.3056149  70.0611279  18.0153417
  45.7086053  69.2740252  19.0632740  45.3073469  69.3764956  18.3978865
  39.0332815  63.9329129  27.0062044  38.6095064  64.1333628  26.2701062
  38.8577670  63.0857977  27.1186344  38.9443695  63.8377911  26.9135734
  38.5344508  75.4479642  29.4683501  39.0240438  74.7490431  29.2859166
  37.9628740  75.1503512  30.0559559  38.5229038  75.3005866  29.5284542
  34.3215260  64.4281180  22.4390017  34.4779879  64.3627983  23.2946009
  34.6615853  65.2029733  22.2268696  34.3948494  64.5330379  22.5344611
  40.8594404  63.8039064  21.3083380  41.4009950  63.3009445  21.7722000
  41.1740963  63.7504259  20.4972865  40.9858801  63.7218485  21.2567192
  44.7311512  68.0141711  38.4210292  45.5446377  67.7426860  38.5815424
  44.5706478  67.7149251  37.6170488  44.8281460  67.9296637  38.3255698
  39.0280854  69.1956416  18.5923408  39.0973674  68.3370954  18.7316408
  39.8069309  69.4128296  18.2642432  39.1533704  69.1009280  18.5640565
  43.4188341  71.6194117  22.8059901  43.0268133  71.3160832  22.0882767
  43.5741414  72.4563207  22.6164855  43.3841931  71.6977954  22.6716398
  30.8949521  61.6116131  22.7550784  31.2748486  62.0300676  22.0911051
  30.3204886  62.1929587  23.0619627  30.8660846  61.7593990  22.7027525
  43.5828016  68.1844106  22.7465932  43.2242671  68.3558749  23.5229964
  43.0966727  68.6457311  22.1893930  43.4586713  68.2783077  22.7791201
  38.3716382  63.8643271  15.2866166  38.6608906  64.6408154  15.5609740
  38.4588180  63.3532003  15.9880665  38.4270638  63.9035189  15.4308664
  44.7432756  69.0748002  33.6933133  45.3812476  68.5808197  33.3595589
  44.1006847  69.0025402  33.1085359  44.7426982  68.9907010  33.5575488
  44.7987012  69.7667810  30.3338489  45.5879390  69.4156875  30.4540571
  44.9730610  70.5804198  30.0715123  44.9407294  69.8353667  30.3126357
  32.0155889  60.7996073  25.2151029  31.6212587  60.8739084  24.4401138
  31.4596006  61.1854019  25.7659391  31.8758702  60.8677847  25.1818689
  37.4063085  58.4158455  21.2008578  37.6822819  57.6977367  20.7886145
  38.0061754  59.0143375  20.9929684  37.5356349  58.3978825  21.1089339
  36.4115338  68.3207656  31.3435973  36.3035693  68.3309718  32.2098032
  36.6211120  69.1462436  31.1540927  36.4265449  68.4448730  31.4440065
  44.1878647  71.0229610  26.2389935  43.9898335  71.5120424  25.5446147
  43.5666358  71.2270851  26.8174069  44.0666211  71.1246148  26.2213159
  38.2486625  62.7914506  20.5800180  38.9928670  63.1788783  20.8183130
  38.3947321  61.9471932  20.7440668  38.3797210  62.7244979  20.6394149
  46.1052449  64.5893762  31.7735184  46.8286647  64.1366288  31.5946204
  45.8402411  64.8698428  30.9907512  46.1733722  64.5644730  31.6313899
  35.1581066  57.5279054  14.5660748  34.8093870  58.1798779  15.0292297
  34.6777511  57.5136167  13.8384619  35.0351310  57.6222107  14.5271839
  31.6864993  67.2454396  29.9491827  31.1564917  66.5546834  29.9986802
  31.9590086  67.2364581  29.1204536  31.6489715  67.1421527  29.8339243
  42.7185083  67.8280098  18.6729510  43.4419282  68.2938211  18.5294083
  42.2785674  67.8953708  17.9227107  42.7600775  67.9063935  18.5414291
  41.8871238  64.6877640  29.9230199  41.2728231  64.1435690  30.2178834
  42.4038523  64.1741877  29.4436015  41.8726901  64.5314049  29.8954427
  41.1267535  65.7581910  27.6574498  40.6995143  65.1331629  27.2239933
  41.1192480  65.4756832  28.4833505  41.0626676  65.6234691  27.7154325
  26.9660835  63.9182160  27.3060176  26.8604284  63.8729004  26.4412260
  26.2161055  64.2635940  27.5874461  26.8396438  63.9623068  27.2197505
  37.9184180  64.9282223  35.3543070  37.0679811  65.0653937  35.4900715
  38.0812308  64.1946001  35.7990772  37.8168044  64.8396324  35.4398670
  35.5304974  60.1537584  20.0786793  35.6707935  60.6510049  20.7815434
  36.0287507  59.4523879  20.2201006  35.6246055  60.1239563  20.2038372
  35.5605197  61.0204695  17.4079369  36.1950276  61.6165120  17.3428831
  35.6430808  60.7208153  18.2225240  35.6661748  61.0645604  17.5182456
  37.1384180  56.9518671  17.3824811  37.4600021  56.4721753  16.7284074
  37.4011123  57.7618317  17.1915623  37.2250205  57.0008569  17.2580303
  40.3681152  67.9737545  30.9023628  39.8606243  68.5273392  31.3464258
  40.0707799  68.0345835  30.0842402  40.2486037  68.0643856  30.8472084
  32.0658185  63.2172536  20.6768915  32.5750414  63.8137044  21.0580221
  32.5392457  62.9498510  19.9945335  32.2101560  63.2658352  20.6323438
  42.9788933  71.8900803  18.8327571  42.2618242  71.7161665  18.3674808
  43.6295670  71.6553375  18.3003057  42.9690783  71.8296595  18.6856789
  39.6123638  72.9062103  27.8080634  39.3889292  72.1480933  28.1764661
  39.1233481  72.9360125  27.0861074  39.5067087  72.7984328  27.7557375
  34.4248716  59.8528795  23.5442096  33.7060706  60.2692927  23.8114959
  34.7961079  60.4183033  22.9933734  34.3740648  59.9978076  23.5024903
  41.6694627  67.0743836  35.3592568  41.6290482  66.4293513  34.7737724
  42.4817945  67.0180453  35.6717980  41.7837781  66.9702802  35.3189517
  38.2602095  73.1262561  25.2617719  37.8462493  72.4636692  24.8721561
  38.9449469  73.2740420  24.7413413  38.3000466  73.0503220  25.1274216
  41.6267389  72.2852647  26.0141336  41.2283672  72.3954917  25.2462156
  41.0118608  72.4934713  26.5967895  41.4766278  72.3326215  25.9872635
  40.1995291  58.8926795  18.8815475  39.6060130  59.2143791  18.3300042
  40.2370568  58.0467890  18.6736581  40.1169680  58.8151123  18.7698247
  49.3609231  66.8604613  19.3984426  49.7442837  67.6095970  19.6282523
  48.5653345  67.1070433  19.1396415  49.3003014  67.0074307  19.3942000
  29.1040115  62.0525213  29.8233177  28.5566834  61.3825859  29.9414046
  29.8932493  61.6855061  29.8876645  29.1392299  61.8990199  29.8501878
  38.1724523  59.5324045  16.9744805  38.5523488  59.5503674  16.1895920
  37.4317119  59.9778034  16.8535653  38.1193361  59.6005820  16.8408373
  27.8627084  61.2646021  26.9779200  27.6848846  60.8122630  27.7034116
  27.5746107  62.0672182  27.1617678  27.7940038  61.3168579  27.1122703
  43.5250666  62.5203738  26.2156591  44.0204331  61.8026733  26.1760611
  42.7150441  62.2174536  26.1011078  43.4794559  62.3701384  26.1930317
  38.9709277  66.3701551  18.3653595  38.1620600  66.0468225  18.3186905
  39.4784186  65.6634773  18.2981844  38.9258944  66.2182868  18.3483890
  29.5999554  63.7973745  24.0900960  28.7345074  63.7859435  23.9783731
  29.6998370  63.6103967  24.9372099  29.4873721  63.7679806  24.1989904
  35.2256564  73.5671643  27.6631065  35.5403123  74.3808032  27.6708847
  35.6349978  73.1821862  28.3313224  35.3324662  73.6300346  27.7635157
  42.1781084  68.9841690  25.2334877  42.6492262  69.6981953  25.4024862
  42.5141262  68.3840440  25.7694746  42.2976199  69.0013154  25.3367253
  44.2658068  70.5943003  37.4126949  44.3755034  69.8051564  37.7683696
  44.5948965  70.5048939  36.6101287  44.3310474  70.4648856  37.3469340
  42.8155030  68.7759624  31.9962570  42.2675976  68.1517508  31.7282635
  43.2768059  68.9653896  31.2806649  42.8022240  68.7118674  31.8513001
  38.1643694  55.7585573  19.6572437  38.9859388  55.9283886  19.4154132
  37.7013345  55.9132834  18.9338734  38.2174856  55.8067306  19.5144081
  32.5669584  67.5144752  27.3109673  33.1714442  67.4740586  26.6823494
  32.3596897  68.3615904  27.3413729  32.6258482  67.6332754  27.2225790
  42.3813357  69.7810697  28.5271911  43.2011730  69.6373663  28.7888206
  42.1007434  70.4056896  29.0688349  42.4610100  69.8521049  28.6459850
  27.8020867  66.4979369  27.1808597  27.7045145  65.6875641  27.4898653
  28.5849736  66.4771162  26.7954865  27.9037003  66.3746459  27.1695459
  58.8527007  77.4375548  21.4914787  58.8221011  78.2920185  21.6633057
  59.4508356  77.1370841  22.0500931  58.9364165  77.5192045  21.5989589
  52.0526692  76.5251199  26.2467718  51.1964587  76.6859698  26.2976834
  52.0994345  75.6543263  26.2672779  51.9325803  76.4202001  26.2573784
  55.3620408  82.7937725  35.8528174  56.0687176  82.2989756  35.9815108
  55.5508344  83.2346807  35.1230832  55.4948314  82.7856075  35.7637219
  54.8978513  78.5843243  28.8899369  55.4434473  79.2628330  28.9493339
  54.8395389  78.4430704  28.0300951  54.9694427  78.6635245  28.7711430
  43.5107719  74.2638327  26.8004363  42.8912751  73.6730974  26.6314378
  43.4091583  74.8549762  26.1668686  43.4045395  74.2642409  26.6809353
  50.6075615  76.0037868  21.1336826  51.3055780  76.1825996  21.6258289
  50.9227948  75.4808208  20.5107215  50.7570952  75.9531641  21.1138836
  43.2376852  77.8090608  29.0447932  43.1135549  78.3953054  29.6797751
  43.8895137  77.3150804  29.3460207  43.3150502  77.8229413  29.1833861
  48.2635193  80.9852325  28.3235443  48.9084196  80.4924768  28.0046392
  48.5036970  81.1277112  29.1501521  48.3945778  80.9329768  28.3984976
  50.8021285  83.8307231  27.9742336  51.0844528  83.0358637  27.7529092
  51.5307445  84.3087819  27.9947397  50.9510848  83.7841828  27.9445351
  48.7802479  71.3730265  25.2158101  48.4505809  71.8241409  24.5461799
  48.1047480  71.2946428  25.7631107  48.6312915  71.4281400  25.1981324
  55.9878886  67.3615788  23.4607711  55.6732327  68.0519267  23.8928134
  55.4705828  67.3060570  22.7593212  55.8643357  67.4550677  23.4204661
  46.9858433  69.4342554  20.6981048  47.7404401  69.8020871  20.4598099
  46.8085967  69.8082108  21.4660228  47.0712911  69.5440741  20.7765937
  60.2793331  75.5836994  28.7428588  59.4421752  75.6539181  28.9776182
  60.2481562  75.5861489  27.8702890  60.1511614  75.5947221  28.6488136
  46.6758060  77.7270030  34.4576956  46.8478564  77.6175924  35.3062238
  47.2127418  78.3724435  34.2208149  46.7803064  77.8062031  34.5482053
  45.3415497  71.8412872  17.3959161  45.1591071  72.0584753  16.5700154
  46.2041110  71.9551885  17.4517776  45.4420087  71.8902770  17.2813649
  51.0215216  68.8439283  20.4308185  51.7501377  68.6655238  19.9846342
  51.1110109  69.6857363  20.6415363  51.1421879  68.9423162  20.3961703
  55.0023517  79.7792671  24.3340479  55.7581032  80.2124185  24.3729388
  55.1085842  79.1297440  24.9075115  55.1293688  79.7470154  24.4238505
  40.9819777  80.3201961  29.2929876  40.7158193  79.5041077  29.4520867
  40.9958341  80.3655116  28.4225392  40.9444500  80.2058866  29.1883358
  57.9601171  70.6479776  27.3272310  58.6027080  70.7177880  27.9134225
  58.2124192  69.9808999  26.8251852  58.0923303  70.5606124  27.3399589
  44.8877524  75.1187045  15.9081635  44.1735701  74.8325225  16.3204067
  45.3721493  75.4583671  16.5488022  44.8536888  75.1268695  16.0637269
  45.7318384  73.8580339  31.9396884  45.0390180  73.3877319  32.1857616
  46.3478711  73.6318644  32.5138591  45.7202914  73.7547471  32.0606037
  41.3913191  81.1060740  26.5741621  41.2088764  81.0807626  25.7213913
  42.1262860  81.5759678  26.6130529  41.4727255  81.1722102  26.4539539
  44.4558943  77.8245743  33.0823729  45.1798915  77.8098774  33.5688624
  44.5575079  78.5341098  32.5845698  44.5777152  77.9270446  33.0802516
  51.8303892  81.3044828  37.9472676  51.0376873  81.6188339  38.1325296
  51.9452819  81.5196296  37.1093461  51.7299303  81.3828664  37.8511011
  54.5035211  78.0278819  22.2367692  54.5982065  78.7668113  22.6907318
  53.8794055  77.5996294  22.6702257  54.4244241  78.0740139  22.3675840
  52.7587685  81.2065031  32.8857973  53.3326547  80.5692276  33.0406537
  52.6802489  81.2069114  32.0167631  52.8320920  81.1130143  32.7804384
  41.3584101  77.9854241  26.7240687  41.9357604  77.8490692  27.3632933
  40.6598163  77.5290025  26.9786272  41.3405123  77.8976507  26.8562977
  48.1151403  79.6388296  24.9379171  47.8570648  78.8060031  24.9110470
  48.1699886  79.8645909  24.0971671  48.0851181  79.5486068  24.8099307
  53.1952454  71.7416747  25.0383263  52.4908780  71.2525933  25.1967182
  53.2437428  71.7539222  24.1671708  53.0982505  71.6706395  24.9322603
  47.0886116  77.1926059  25.4244065  46.5135707  77.3518227  26.0608026
  46.7121792  76.5561468  24.9612516  46.9488928  77.1223872  25.4498624
  50.7559404  75.6649408  30.2836444  50.3673837  75.2403626  29.6288635
  50.0914103  75.9131558  30.7913470  50.6006332  75.6388129  30.2624312
  60.3982673  75.4224413  23.0584274  60.1419238  74.6104354  22.8682157
  61.2411987  75.4301980  22.8314461  60.4848699  75.3036410  22.9969091
  36.8342935  76.8366134  23.4388506  36.9203186  76.4598002  24.2202036
  37.4618732  76.4626579  22.9608464  36.9399486  76.7251616  23.4833983
  54.5785766  69.3624037  27.7960428  54.9596278  68.6802208  28.1828302
  53.7749050  69.0733639  27.6136092  54.5162228  69.2191085  27.8264484
  47.7306251  83.3669530  23.6085563  48.3680198  83.1281278  24.1537356
  48.1561322  83.5706689  22.8738723  47.8882417  83.3620540  23.5802720
  48.3709066  78.5871820  17.9460452  48.7554219  78.3679527  18.6976997
  48.1220686  79.4134765  18.0761528  48.3911138  78.6769966  18.0761529
  48.5377606  71.8678235  37.6623036  48.2231047  72.6377798  37.3992599
  48.2167539  71.3048491  37.0775263  48.4436525  71.8988504  37.5364386
  50.1127723  83.8441953  25.2879349  50.1866731  83.6817125  26.1421199
  50.9297229  84.0332142  25.0439831  50.2444081  83.8478695  25.3777375
  46.0909503  70.2568757  23.2769233  45.2231929  70.3291356  23.3426842
  46.3784708  71.0590836  23.4657208  46.0049251  70.3862904  23.3143999
  55.2142392  70.4046616  31.6080554  55.9595984  70.2156426  31.1943980
  54.7979697  70.9304854  31.0494411  55.2627366  70.4548761  31.4645128
  62.5904663  77.7755845  26.5586059  63.1412584  77.1423914  26.7983152
  62.5748778  78.3071237  27.2501564  62.6689859  77.7604793  26.6964918
  49.2427054  81.6094442  31.1045953  48.7438747  82.3210210  31.1830841
  50.0527278  81.9295108  31.0664115  49.2883160  81.7621290  31.1102521
  45.5055171  80.8717395  25.3508674  45.2168420  80.2454866  25.8854401
  46.3738519  80.8137682  25.4173354  45.5915423  80.7704939  25.4399628
  56.2933069  76.0152178  25.6690656  55.9497835  75.2942513  26.0197905
  56.3926112  75.8066029  24.8269014  56.2575112  75.8776382  25.5962336
  45.7087445  82.5112646  21.2751039  46.4633413  82.8925685  21.4886501
  45.1158057  82.9623790  21.7297735  45.7324158  82.6341473  21.3733917
  48.1694112  74.4675486  36.4008251  47.3593887  74.7733266  36.2898093
  48.6468798  75.1881069  36.5160835  48.1197590  74.6190087  36.4015322
  47.0285671  83.6821207  26.6491154  46.5066425  83.8221499  27.3343019
  47.4159692  82.9231872  26.8393272  47.0089372  83.5906731  26.7792231
  44.0176855  73.7327016  20.7186109  43.7301651  73.3628286  19.9818056
  44.7047324  74.2021871  20.4569814  44.0765753  73.7473985  20.5701185
  48.4551997  80.7125226  22.0472645  48.2594780  81.3199961  21.4532948
  48.6786342  80.0193170  21.5664319  48.4586638  80.7002752  21.8888726
  46.8530527  77.5979964  22.1653514  47.5753179  77.7621122  21.7057320
  46.3738520  78.3189629  22.0592853  46.8894258  77.7278194  22.0819128
  54.8124034  73.9343763  27.5450199  53.9735135  73.9605042  27.3088462
  54.8828402  74.5814498  28.1255545  54.6992428  74.0339889  27.5959315
  44.5038144  80.0038037  31.2707653  45.0159241  80.2822290  30.6216413
  44.2174486  80.7427331  31.6370467  44.5373007  80.1540390  31.2297532
  53.2593313  70.8329140  22.2777814  53.9619666  70.6336888  21.7997773
  52.9937501  70.0605082  22.5846658  53.3239945  70.6892106  22.2523256
  58.6881558  79.1411750  24.8311440  58.6015533  79.2967176  25.6846219
  58.2332038  79.7849825  24.4570845  58.6084815  79.2587505  24.9018547
  41.5905050  74.5108228  21.5671390  41.6921186  75.3134390  21.8952365
  42.3860937  74.3095564  21.2694471  41.7232956  74.5994127  21.5706745
  48.0221869  72.0964425  31.3308695  47.8305066  72.1119560  32.1808119
  48.8720465  72.2928100  31.3075350  48.1197591  72.1278776  31.4531990
  42.4068782  74.6255407  29.3092512  42.2654274  73.7739347  29.4337019
  42.6909345  74.6684067  28.4854718  42.4276628  74.5055157  29.2060136
  52.5607374  76.4622497  23.4537000  52.3142089  76.3818248  24.2873789
  52.8892497  75.6775965  23.2599527  52.5728618  76.3348762  23.5484523
  54.7933508  79.4702232  33.4946163  54.7881547  78.5982048  33.4988589
  55.4994502  79.6690401  33.0215618  54.8978512  79.3706106  33.4253198
  48.5204402  79.1979215  32.8659983  48.6647777  79.7780424  32.2303093
  48.8680050  79.5755512  33.5709838  48.5931863  79.3399920  32.8758978
  50.6924319  78.3969384  30.6485114  49.9447633  78.5900398  30.2433393
  50.8465844  77.5714603  30.4109236  50.6046747  78.3034495  30.5530520
  50.9326096  72.2919935  31.5380518  51.3898710  73.0243909  31.6653310
  51.0082425  71.8686400  32.2967774  51.0117066  72.3377173  31.6681595
  43.1759087  72.5385754  32.6269962  42.6401277  71.9266112  32.9430729
  43.2376852  73.1133890  33.2803629  43.1054720  72.5332682  32.7705389
  55.4053422  65.4709810  25.4074361  55.5236990  65.9286273  24.6741664
  55.2315598  64.6655071  25.1210579  55.3972593  65.4203582  25.2575295
  48.8108474  74.2822039  28.3822342  48.0204549  74.1013499  28.7039678
  49.2069097  73.5048991  28.3652637  48.7525350  74.1409499  28.4274891
  54.1952160  81.9164469  26.1081788  53.5197162  81.6849701  26.6095175
  54.2044536  81.3085652  25.4823893  54.0970665  81.7923394  26.0897940
  51.3246304  76.7582298  32.8645841  51.2605445  77.6192254  32.7365978
  51.4643492  76.4414291  32.0641392  51.3361774  76.8382464  32.7274054
  50.0065398  79.4514437  27.0062044  49.5827647  79.6518936  26.2701062
  49.8310253  78.6043285  27.1186344  49.9176279  79.3563218  26.9135734
  45.2947843  79.9466488  22.4390017  45.4512462  79.8813291  23.2946009
  45.6348436  80.7215041  22.2268696  45.3681078  80.0515687  22.5344611
  51.8326988  79.3224372  21.3083380  52.3742533  78.8194753  21.7722000
  52.1473547  79.2689567  20.4972865  51.9591385  79.2403793  21.2567192
  52.9816257  74.2160676  31.3605680  53.1958227  73.5771591  30.8069034
  52.3650156  74.6606500  30.9313542  52.9221586  74.1870820  31.2156111
  41.8682105  77.1301439  22.7550784  42.2481069  77.5485984  22.0911051
  41.2937469  77.7114895  23.0619627  41.8393429  77.2779298  22.7027525
  55.1455345  75.8249742  32.2988987  54.3332027  75.5175632  32.3802160
  55.6045280  75.3448742  32.8631700  55.0935730  75.7086234  32.3943582
  52.2408853  77.2309813  37.0817690  52.7108484  77.8551930  37.4685564
  52.2870733  76.5626789  37.6410904  52.3176728  77.2244493  37.2217761
  49.3980126  69.3366841  27.8066493  48.8818615  68.6447032  27.9318072
  48.8374055  70.0037618  27.7529092  49.2386639  69.3330098  27.8172559
  51.4672360  69.8759801  29.6359346  51.0804113  69.9008832  30.4172876
  50.9805297  69.3101479  29.1833863  51.3384869  69.7955551  29.6847250
  57.4422339  76.4422456  28.2599048  57.0149947  76.3548804  27.5047148
  56.8048392  76.5500231  28.8453892  57.2851946  76.4455115  28.2344490
  50.9343416  71.5497981  34.1996018  51.7616846  71.2783130  34.2554632
  50.9551262  72.3458823  34.5559836  51.0596266  71.6277735  34.2611200
  45.5112906  78.6961844  27.3866278  44.6700913  78.5965718  27.5945172
  45.7202914  79.4657324  27.7380599  45.4177599  78.7953887  27.4693593
  42.9888473  76.3181381  25.2151029  42.5945171  76.3924392  24.4401138
  42.4328590  76.7039327  25.7659391  42.8491285  76.3863155  25.1818689
  54.6253420  69.2962675  24.8954908  54.8303013  69.2284982  25.7411905
  54.2979844  70.1021496  24.8276085  54.6068668  69.4048615  25.0114563
  49.3229571  76.6243243  26.6363876  49.0192708  76.0699231  27.2374283
  48.6208992  76.8035453  26.1491910  49.1745781  76.5688025  26.6533581
  48.3795668  73.9343763  21.2008578  48.6555402  73.2162675  20.7886145
  48.9794337  74.5328683  20.9929684  48.5088933  73.9164133  21.1089339
  57.8787108  69.8494439  24.3757673  57.2661421  70.3364841  24.7611405
  57.9751282  69.1737930  24.9195324  57.8025005  69.8212748  24.5136531
  45.4021714  81.0905606  28.8057911  44.8109647  81.7315104  28.7760926
  46.1642738  81.5143223  28.7789211  45.4269975  81.2481444  28.7973058
  45.7982337  72.2507604  29.4725929  46.2583818  72.3246533  30.2101052
  45.8438444  73.0488858  29.1225750  45.8732892  72.3801751  29.5298685
  47.4465687  72.9174299  34.0397956  47.0551252  72.2707646  34.4753734
  47.6151549  73.5085734  34.6592211  47.4136597  72.9088566  34.1960662
  49.2219209  78.3099814  20.5800180  49.9661254  78.6974091  20.8183130
  49.3679905  77.4657240  20.7440668  49.3529794  78.2430287  20.6394149
  51.1398784  70.1050073  25.6132041  50.2934829  70.2772881  25.4873391
  51.1369916  69.2999417  25.9497870  51.0145934  70.0111102  25.6443168
  52.2097084  73.8825288  26.4794099  51.7357039  73.3567050  26.9899410
  52.5815220  73.3354760  25.9108961  52.1946973  73.7241284  26.4709246
  42.5870115  75.8796794  31.8477645  43.4495728  75.7792504  31.7614975
  42.2561898  75.2991504  31.2863217  42.6655311  75.7788421  31.7523051
  58.4733815  78.9427663  27.8900880  58.2332038  78.1034078  27.8943306
  58.9525822  79.0227830  28.6141653  58.5085999  78.8309063  27.9975682
  54.1380584  74.7761842  19.5419853  53.6103603  74.8590586  18.8525562
  54.5976292  75.5179714  19.5384498  54.1282435  74.8982505  19.4394548
  60.4739002  75.7229121  25.8430139  60.2348772  75.6824955  25.0050923
  60.6372903  76.5700273  25.9695860  60.4629305  75.8421206  25.7383621
  57.0785032  80.1079070  31.7735184  57.8019231  79.6551596  31.5946204
  56.8134994  80.3883735  30.9907512  57.1466305  80.0830038  31.6313899
  45.9471901  74.7039243  28.5088063  45.3224971  74.7157635  27.9014016
  45.6117495  75.1799418  29.1579303  45.8057392  74.7757760  28.5144632
  46.1313649  73.0464362  14.5660748  45.7826454  73.6984087  15.0292297
  45.6510095  73.0321475  13.8384619  46.0083893  73.1407415  14.5271839
  52.8603822  80.2062948  29.9230199  52.2460815  79.6620998  30.2178834
  53.3771107  79.6927185  29.4436015  52.8459484  80.0499357  29.8954427
  52.1000119  81.2767218  27.6574498  51.6727727  80.6516937  27.2239933
  52.0925063  80.9942140  28.4833505  52.0359260  81.1419999  27.7154325
  45.2162646  76.3132391  30.7262932  45.3756133  75.5575715  31.1314653
  45.0355540  76.8623331  31.3803669  45.2128005  76.2826205  30.8825638
  53.1582949  68.4793627  31.2813721  52.6623510  68.6757301  30.5905288
  53.9152011  68.8786295  31.1102523  53.1969774  68.5671361  31.1533858
  50.4285829  72.1535973  27.8717032  50.4528316  71.6196085  27.1829812
  50.6797302  71.6453281  28.5342622  50.4695747  71.9996877  27.8681676
  37.9393418  79.4367468  27.3060176  37.8336867  79.3914312  26.4412260
  37.1893638  79.7821248  27.5874461  37.8129021  79.4808376  27.2197505
  46.7087151  70.8806791  27.2522776  46.7485522  71.3815997  27.9657483
  45.8836815  70.9717185  26.9828699  46.5926677  70.9688607  27.3173314
  48.8916764  80.4467531  35.3543070  48.0412394  80.5839245  35.4900715
  49.0544891  79.7131309  35.7990772  48.7900627  80.3581632  35.4398670
  48.1301514  77.3967301  29.5496675  47.2993444  77.5641119  29.3431923
  48.0753031  77.0203251  30.3345560  47.9990929  77.3657032  29.6345203
  45.9385297  70.8876194  35.1853086  46.5638001  70.3438326  35.4582518
  45.4835777  70.4071111  34.6160876  45.9633558  70.7365675  35.1414679
  46.5037558  75.6722892  20.0786793  46.6440519  76.1695356  20.7815434
  47.0020091  74.9709187  20.2201006  46.5978639  75.6424871  20.2038372
  46.5337780  76.5390003  17.4079369  47.1682860  77.1350428  17.3428831
  46.6163391  76.2393461  18.2225240  46.6394331  76.5830911  17.5182456
  59.5120346  79.0705481  30.2765734  60.1038186  79.7102731  30.3083932
  59.9479341  78.3728517  30.5657800  59.6638777  79.0623831  30.3246566
  48.1116763  72.4703979  17.3824811  48.4332604  71.9907061  16.7284074
  48.3743707  73.2803625  17.1915623  48.1982789  72.5193877  17.2580303
  51.3413736  83.4922853  30.9023628  50.8338827  84.0458700  31.3464258
  51.0440382  83.5531143  30.0842402  51.2218621  83.5829164  30.8472084
  53.5075918  71.8576173  29.7448291  53.9330990  71.4048699  29.1331817
  52.8932911  71.3036243  30.0213078  53.4804564  71.7090149  29.6953316
  43.0390768  78.7357844  20.6768915  43.5482998  79.3322352  21.0580221
  43.5125041  78.4683818  19.9945335  43.1834144  78.7843659  20.6323438
  51.9470141  68.3291272  23.1538868  51.3038459  68.1788919  23.7224006
  51.6069548  68.0833618  22.3887972  51.8015218  68.2703395  23.1241883
  56.5369487  76.2850699  22.5768876  55.8660677  76.8280402  22.4481942
  57.2309238  76.7545555  22.3350571  56.5398355  76.4348970  22.5224404
  56.6997615  72.7406583  25.4859249  57.0525225  72.3136306  26.1605048
  55.8412416  72.6557426  25.6160326  56.6247060  72.6651324  25.6054260
  45.3981300  75.3714103  23.5442096  44.6793289  75.7878235  23.8114959
  45.7693662  75.9368341  22.9933734  45.3473232  75.5163384  23.5024903
  54.6980881  76.0041951  29.4344092  54.6778808  75.8225247  30.2878870
  54.7460081  76.8753970  29.4103675  54.7015522  76.1058490  29.5567386
  52.6427211  82.5929143  35.3592568  52.6023065  81.9478820  34.7737724
  53.4550529  82.5365761  35.6717980  52.7570364  82.4888110  35.3189517
  51.1727874  74.4112102  18.8815475  50.5792714  74.7329099  18.3300042
  51.2103152  73.5653198  18.6736581  51.0902263  74.3336431  18.7698247
  58.1321675  67.8624995  26.4143562  57.6252540  67.1554134  26.3464739
  58.9289109  67.5318184  26.5444638  58.1748914  67.7098146  26.4242557
  54.0485691  74.3691607  22.3117226  53.8199384  74.3924308  21.4695584
  54.3083767  73.5449074  22.4312236  54.0531879  74.2507687  22.2042423
  48.3304919  76.2226080  31.9142326  47.8183822  75.6147263  32.2727357
  48.1584415  76.9382673  32.3816302  48.2294556  76.2389379  32.0358549
  43.1770634  74.6663655  34.5644688  43.0073224  75.3265030  34.0192894
  42.7336584  74.8770217  35.2857177  43.0869968  74.7949637  34.5906317
  47.1030453  72.9068153  23.6071421  47.5787820  73.2685233  22.9721602
  46.6019053  73.5624621  23.8871564  47.0995812  73.0562342  23.5548162
  52.2073990  74.1450325  34.3544581  52.7645420  73.9164134  33.7223047
  51.8835055  74.9055990  34.0779794  52.2420400  74.2234161  34.2201078
  40.0772699  77.5710521  29.8233177  39.5299418  76.9011166  29.9414046
  40.8665077  77.2040369  29.8876645  40.1124882  77.4175507  29.8501878
  49.9257107  77.2317978  35.3196588  50.6768434  77.5469655  35.6336143
  50.1179683  77.0297149  34.4930510  50.0648521  77.2485360  35.2439984
  49.1457107  75.0509353  16.9744805  49.5256071  75.0688982  16.1895920
  48.4049703  75.4963342  16.8535653  49.0925944  75.1191128  16.8408373
  56.7742397  73.3591544  22.5620384  56.7736624  73.2040201  23.4204660
  56.5698577  74.2054531  22.5061769  56.7442175  73.4612165  22.6808323
  38.8359668  76.7831329  26.9779200  38.6581429  76.3307938  27.7034116
  38.5478690  77.5857490  27.1617678  38.7672621  76.8353887  27.1122703
  54.4983249  78.0389046  26.2156591  54.9936914  77.3212041  26.1760611
  53.6883025  77.7359844  26.1011078  54.4527142  77.8886692  26.1930317
  40.5732138  79.3159052  24.0900960  39.7077657  79.3044743  23.9783731
  40.6730954  79.1289275  24.9372099  40.4606305  79.2865114  24.1989904
  56.5635068  80.7892734  28.9033720  56.9890140  80.2667155  28.3504145
  56.1991988  81.3873571  28.3822342  56.5721671  80.8002961  28.7442729
  53.1513667  84.5026998  25.2334877  53.6224846  85.2167260  25.4024862
  53.4873846  83.9025748  25.7694746  53.2708782  84.5198462  25.3367253
  50.0683162  69.2754468  32.1892972  50.2011068  68.4785462  32.5173947
  50.4528315  69.8020871  32.7691247  50.1439491  69.2354385  32.3236475
  53.7887614  84.2944932  31.9962570  53.2408560  83.6702816  31.7282635
  54.2500643  84.4839204  31.2806649  53.7754823  84.2303982  31.8513001
  56.5981478  72.3630286  29.3813762  56.0144467  72.8639493  28.9691329
  56.9185772  71.8559843  28.7478085  56.5594653  72.3622121  29.2272269
  49.1376277  71.2770881  19.6572437  49.9591972  71.4469194  19.4154132
  48.6745928  71.4318142  18.9338734  49.1907440  71.3252614  19.5144081
  47.7271609  69.2713643  30.4370866  48.2716022  68.9304770  31.0275207
  47.7808545  70.1299105  30.5792150  47.8160729  69.3468903  30.5452739
  22.1373481  13.1759932  22.7868221  22.8440249  12.6811963  22.9155155
  22.3261417  13.6169014  22.0570879  22.2701387  13.1678283  22.6977266
  19.2765776  16.5987469  20.6782296  19.3649122  16.4113609  21.5260506
  19.7055488  15.9524899  20.2787143  19.3527878  16.4750477  20.7454047
  16.8436236  15.8818629  19.6599958  16.2807070  15.4691239  20.1839619
  17.6057259  15.8071535  20.0793101  16.8730684  15.8096030  19.7992958
  13.4511134   8.1092237  21.3917003  13.6231637   7.9998132  22.2402285
  13.9880491   8.7546643  21.1548196  13.5556138   8.1884239  21.4822100
  19.3885835  16.0296488  23.3426079  20.1726252  16.1427336  23.7081822
  19.1882430  15.2037625  23.5384765  19.4751860  15.9243207  23.4260465
  19.5456228  17.9406590  16.9892535  18.7471474  17.7006090  17.2466404
  19.9942240  17.9920983  17.7359583  19.4930840  17.9128981  17.1377459
  18.6056965  11.6867035  24.8812723  17.8129946  12.0010547  25.0665343
  18.7205892  11.9018503  24.0433508  18.5052376  11.7650872  24.7851058
  19.5340758  11.5887239  19.8198020  20.1079620  10.9514483  19.9746584
  19.4555562  11.5891321  18.9507678  19.6073993  11.4952350  19.7144431
  24.8560906  12.9596216  19.8282873  24.6199543  12.1284281  19.7094934
  25.5004135  12.9081824  20.4137717  24.9155577  12.8293904  19.8968767
  25.8797327  12.7440665  15.8911168  25.5743144  13.4768722  16.2524483
  25.1603542  12.3378595  15.6103954  25.7284669  12.7922398  15.9024305
  31.5799119   9.3833666  15.2179512  31.5123619   9.4029625  14.3482098
  31.5654781  10.2263993  15.4435182  31.5677875   9.5107400  15.1231989
  16.0180127  11.9916649  18.0386000  15.5191821  12.7032417  18.1170888
  16.8280351  12.3117316  18.0004162  16.0636234  12.1443498  18.0442568
  14.9447185   4.8497694  23.3348298  14.1346961   5.1555473  23.2238140
  15.4221872   5.5703276  23.4500882  14.8950664   5.0012295  23.3355369
  21.5686582   9.8524439  20.4286210  21.5634620   8.9804256  20.4328636
  22.2747575  10.0512608  19.9555665  21.6731586   9.7528313  20.3593245
  15.2957475   9.5801423  19.8000030  15.4400851  10.1602631  19.1643140
  15.6433123   9.9577720  20.5049884  15.3684936   9.7222127  19.8099025
  14.3685230  17.7704195  16.6661057  14.5174794  17.2107111  16.0134461
  15.1485232  17.8496196  17.0493575  14.5059323  17.6989760  16.6258006
  16.8938530  17.9418838  17.9445547  16.8182202  17.2727648  18.4996336
  16.8228390  18.6436626  18.4586214  16.8719137  17.9463745  18.1022395
  16.2830165  21.3487157  16.4023548  16.7726095  20.6497947  16.2199213
  15.7114397  21.0511027  16.9899605  16.2714695  21.2013381  16.4624589
  22.4797168  13.9149227  25.3550339  23.2932034  13.6434376  25.5155471
  22.3192135  13.6156767  24.5510535  22.5767117  13.8304153  25.2595745
  21.9208418   6.2071949  19.2329034  21.1085100   5.8997839  19.3142207
  22.3798353   5.7270949  19.7971746  21.8688803   6.0908441  19.3283628
  19.0161926   7.6132021  24.0157736  19.4861557   8.2374137  24.4025611
  19.0623806   6.9448996  24.5750951  19.0929802   7.6066701  24.1557808
  22.4918412  14.9755517  20.6273179  23.1298133  14.4815713  20.2935635
  21.8492504  14.9032917  20.0425406  22.4912639  14.8914526  20.4915534
  22.5472669  15.6675325  17.2678536  23.3365047  15.3164390  17.3880618
  22.7216267  16.4811714  17.0055170  22.6892951  15.7361182  17.2466404
  14.1600995  14.2215171  18.2776020  14.0521350  14.2317233  19.1438078
  14.3696777  15.0469951  18.0880974  14.1751106  14.3456246  18.3780112
  28.2965209  11.3033583  16.7375236  28.3548332  11.7520232  17.4835213
  27.6631676  11.7132396  16.3005316  28.2116504  11.4307318  16.7827784
  21.9364303  16.9237125  13.1729982  21.7383992  17.4127939  12.4786194
  21.3152014  17.1278366  13.7514116  21.8151868  17.0253663  13.1553206
  23.8538105  10.4901277  18.7075231  24.5772304  10.0373804  18.5286251
  23.5888068  10.7705943  17.9247559  23.9219379  10.4652246  18.5653946
  15.6669837  10.8289738  22.2883117  14.8165467  10.9661453  22.4240762
  15.8297965  10.0953516  22.7330819  15.5653700  10.7403839  22.3738716
  26.2873419   9.4527688  17.2105780  26.8791260  10.0924939  17.2423978
  26.7232414   8.7550725  17.4997847  26.4391851   9.4446038  17.2586613
  18.1166809  13.8745060  17.8363674  17.6091900  14.4280907  18.2804305
  17.8193455  13.9353350  17.0182449  17.9971694  13.9651372  17.7812131
  17.3609294  18.8069619  14.7420681  17.1374949  18.0488448  15.1104708
  16.8719138  18.8367640  14.0201121  17.2552743  18.6991843  14.6897422
  19.4180284  12.9751351  22.2932615  19.3776139  12.3301028  21.7077771
  20.2303602  12.9187968  22.6058027  19.5323437  12.8710318  22.2529564
  18.9827063   4.5272532  21.2884628  19.5398493   4.2986342  20.6563094
  18.6588128   5.2878198  21.0119841  19.0173473   4.6056369  21.1541125
  16.7010180   7.6140185  22.2536635  17.4521507   7.9291862  22.5676189
  16.8932757   7.4119356  21.4270557  16.8401594   7.6307567  22.1780031
  23.3388141  11.1714941  15.8373766  23.7643213  10.6489363  15.2844191
  22.9745061  11.7695778  15.3162389  23.3474744  11.1825168  15.6782776
  12.9742221  19.4679158  14.5971112  13.2888780  20.2815547  14.6048894
  13.3835634  19.0829377  15.2653271  13.0810319  19.5307861  14.6975203
  22.0143725  16.4950519  24.3466996  22.1240691  15.7059079  24.7023743
  22.3434622  16.4056455  23.5441334  22.0796131  16.3656372  24.2809387
  20.5640687  14.6767139  18.9302616  20.0161633  14.0525023  18.6622682
  21.0253716  14.8661411  18.2146696  20.5507896  14.6126190  18.7853048
  20.1299013  15.6818212  15.4611958  20.9497387  15.5381178  15.7228253
  19.8493091  16.3064411  16.0028396  20.2095757  15.7528564  15.5799897
  36.6012664  23.3383064   8.4254834  36.5706668  24.1927700   8.5973103
  37.1994012  23.0378356   8.9840978  36.6849822  23.4199560   8.5329636
  29.8012349  22.4258715  13.1807764  28.9450244  22.5867213  13.2316881
  29.8480002  21.5550779  13.2012825  29.6811460  22.3209517  13.1913830
  24.1853488  31.9621433   8.9444996  23.4336388  31.5836971   8.7161041
  24.6339500  31.9939866   8.1963806  24.1403155  31.9107040   8.8002498
  29.6378448  32.3846802   4.3730543  29.3029817  33.0623724   3.9374765
  30.1505319  31.9952113   3.7847415  29.6644029  32.4271380   4.2217335
  29.1782739  34.3361071  10.3141655  29.5622119  34.9047969   9.7746430
  29.1141881  33.6110581   9.8347471  29.2256167  34.3136534  10.1635517
  32.6464170  24.4850759  15.8239416  33.1920130  25.1635845  15.8833386
  32.5881046  24.3438220  14.9640998  32.7180084  24.5642760  15.7051477
  25.7638244  31.9739825  11.2107768  25.8648607  31.1640179  11.5204896
  25.1679990  31.8796771  10.5807447  25.6910783  31.8404853  11.1634007
  34.4229238  25.9135366   6.6973144  34.3068764  26.6643052   7.1265282
  35.2185125  25.6559319   6.9469231  34.5233828  25.9870213   6.7977235
  25.6038984  36.8917414  12.6122625  26.2476439  37.3330578  13.0018783
  25.9295240  36.0870840  12.5252883  25.7470813  36.8382609  12.6568102
  18.9603289  27.9960111  10.8360102  18.7253473  27.1627764  10.7292371
  19.0988929  28.2764777  10.0221303  18.9458951  27.9143615  10.7002457
  21.2593376  20.1645842  13.7344410  20.6398408  19.5738489  13.5654425
  21.1577240  20.7557277  13.1008733  21.1531052  20.1649924  13.6149399
  26.3059564  29.9029389   7.9842486  26.6275405  30.4434596   7.3803794
  26.9531660  29.3326160   8.1164776  26.4485619  29.8988564   7.9149522
  28.3561272  21.9045384   8.0676873  29.0541436  22.0833511   8.5598336
  28.6713604  21.3815723   7.4447262  28.5056609  21.8539156   8.0478883
  20.9862509  23.7098124  15.9787979  20.8621206  24.2960569  16.6137798
  21.6380794  23.2158319  16.2800254  21.0636159  23.7236928  16.1173908
  28.5449207  28.2915829   8.0556664  28.9842843  27.6832929   8.5011437
  28.3953870  27.9123202   7.2842129  28.5870673  28.1454300   8.0075832
  26.0120850  26.8859841  15.2575490  26.6569853  26.3932284  14.9386438
  26.2522627  27.0284627  16.0841568  26.1431435  26.8337283  15.3325023
  28.5506942  29.7314746  14.9082382  28.8330184  28.9366152  14.6869138
  29.2793102  30.2095334  14.9287443  28.6996505  29.6849343  14.8785398
  26.5288135  17.2737780  12.1498148  26.1991465  17.7248924  11.4801846
  25.8533137  17.1953944  12.6971154  26.3798572  17.3288916  12.1321371
  32.1458544  26.6443010   5.0087434  32.0609839  27.5003977   5.1537002
  32.6342927  26.3687334   5.6769593  32.2047441  26.7300331   5.1289515
  33.7364543  13.2623303  10.3947758  33.4217984  13.9526782  10.8268181
  33.2191485  13.2068086   9.6933259  33.6129014  13.3558192  10.3544707
  33.0776977  23.2627804   6.5085169  32.5488448  23.4787438   7.1682475
  33.6001997  23.9563943   6.4286138  33.0765430  23.3970941   6.5940768
  38.5325030  28.8374109  11.8818213  37.7022733  29.0484752  12.0451630
  38.4834282  28.0111163  11.6060497  38.4031765  28.7463715  11.8655579
  20.5220613  32.8745782  12.1116308  20.0388192  33.5996272  12.0875892
  21.3343932  33.1721912  12.2226466  20.5711361  33.0248136  12.1243588
  26.5934767  31.6677963  14.7166123  26.0761709  31.3085378  14.1127431
  27.2909159  31.1440137  14.7272189  26.6200349  31.5375651  14.6296381
  27.8168819  31.4003937  19.6599958  27.2539654  30.9876547  20.1839619
  28.5789843  31.3256843  20.0793101  27.8463268  31.3281337  19.7992958
  23.3764811  33.3901958  12.2636588  24.0785390  32.8753947  12.3209345
  23.2962294  33.7176109  13.0683463  23.4688571  33.3616184  12.3909380
  38.0278988  21.4844509  15.6768635  37.1907409  21.5546696  15.9116229
  37.9967219  21.4869004  14.8042937  37.8997271  21.4954736  15.5828183
  24.4243717  23.6277545  21.3917003  24.5964221  23.5183440  22.2402285
  24.9613075  24.2731950  21.1548196  24.5288721  23.7069547  21.4822100
  22.7015586  29.5808310  11.7722196  23.5404485  29.8131243  11.8195958
  22.7327355  28.7112621  11.7029232  22.8297304  29.4865257  11.7686841
  23.3268289  30.0009185  16.0735502  23.8666514  29.8580316  16.7438874
  22.6438235  30.4005936  16.4419528  23.3060443  30.0388856  16.2269923
  32.7509174  25.6800186  11.2680526  33.5066689  26.1131700  11.3069435
  32.8571498  25.0304956  11.8415162  32.8779345  25.6477670  11.3578552
  35.7889345  29.5073463  12.0182929  35.3524577  29.5110206  12.7741900
  35.4552261  30.1878962  11.5862507  35.6751965  29.6085919  12.0663762
  18.7305434  26.2209476  16.2269923  18.4643849  25.4048593  16.3860914
  18.7443998  26.2662632  15.3565439  18.6930156  26.1066381  16.1223405
  35.7086828  16.5487291  14.2612357  36.3512736  16.6185396  14.8474272
  35.9609849  15.8816514  13.7591899  35.8408960  16.4613640  14.2739636
  23.4804041  19.7587854  18.8736931  22.7875837  19.2884834  19.1197663
  24.0964368  19.5326159  19.4478638  23.4688570  19.6554986  18.9946084
  30.5188812  33.4591898  16.9892535  29.7204058  33.2191398  17.2466404
  30.9674824  33.5106291  17.7359583  30.4663423  33.4314289  17.1377459
  38.9233691  26.2254383  10.9102566  39.5850125  25.6645051  10.8098475
  38.2825103  25.7306414  11.2355257  38.9262559  26.0690792  10.9434906
  29.8110499  29.5224514   3.2183490  30.2261648  29.1909538   2.5267985
  28.9802429  29.2893417   3.0903626  29.7498508  29.4395770   3.0974337
  19.1398848  27.0068255  13.5081668  18.9574421  26.9815141  12.6553960
  19.8748517  27.4767193  13.5470576  19.2212912  27.0729618  13.3879586
  35.2098522  27.2419765  10.6514555  35.4454111  27.3864964   9.8241406
  35.3588086  28.0062173  11.0446069  35.2664325  27.3758820  10.5878159
  22.2044599  23.7253258  20.0163776  22.9284572  23.7106289  20.5028671
  22.3060736  24.4348614  19.5185744  22.3262809  23.8277962  20.0142563
  37.0388979  26.0821431   8.4884159  37.3697196  26.6149072   7.8824254
  37.6122067  26.1360319   9.1446110  37.1722658  26.1691000   8.4961941
  32.2520868  23.9286334   9.1707739  32.3467722  24.6675628   9.6247364
  31.6279711  23.5003810   9.6042304  32.1729898  23.9747655   9.3015887
  30.5073342  27.1072547  19.8198020  31.0812203  26.4699791  19.9746584
  30.4288145  27.1076629  18.9507678  30.5806577  27.0137658  19.7144431
  19.1069758  23.8861756  13.6580734  19.6843261  23.7498207  14.2972979
  18.4083820  23.4297540  13.9126318  19.0890780  23.7984022  13.7903024
  25.8637060  25.5395812  11.8719217  25.6056305  24.7067547  11.8450517
  25.9185543  25.7653425  11.0311718  25.8336838  25.4493583  11.7439354
  30.9438110  17.6424262  11.9723310  30.2394437  17.1533448  12.1307229
  30.9923085  17.6546737  11.1011754  30.8468162  17.5713910  11.8662650
  24.8371772  23.0933574  12.3584112  24.2621364  23.2525743  12.9948073
  24.4607449  22.4568983  11.8952563  24.6974585  23.0231387  12.3838670
  28.5045061  21.5656924  17.2176490  28.1159494  21.1411141  16.5628682
  27.8399759  21.8139073  17.7253517  28.3491989  21.5395645  17.1964358
  38.1468330  21.3231928   9.9924321  37.8904895  20.5111870   9.8022203
  38.9897644  21.3309495   9.7654508  38.2334356  21.2043926   9.9309138
  32.3271423  15.2631552  14.7300475  32.7081934  14.5809723  15.1168349
  31.5234707  14.9741154  14.5476139  32.2647884  15.1198601  14.7604531
  29.6083999  25.7955528   5.4153297  30.4224638  26.0870421   5.3036069
  29.5443141  25.1415390   4.8411590  29.7186738  25.7420723   5.3142135
  25.4791908  29.2677046  10.5425610  26.1165855  29.0288793  11.0877403
  25.9046979  29.4714205   9.8078770  25.6368074  29.2628056  10.5142767
  20.1704550  31.5065382  14.4259913  20.2108695  31.7780233  13.5979693
  20.7299074  32.0307290  14.8417701  20.2587896  31.6241137  14.3651801
  26.2863263  17.7685751  24.5963083  25.9716704  18.5385313  24.3332646
  25.9653196  17.2056007  24.0115310  26.1922182  17.7996019  24.4704433
  36.8529910  28.2625973  15.8911168  36.5475727  28.9954030  16.2524483
  36.1336126  27.8563903  15.6103954  36.7017252  28.3107706  15.9024305
  27.8613380  29.7449468  12.2219396  27.9352388  29.5824640  13.0761246
  28.6782886  29.9339658  11.9779877  27.9929738  29.7486211  12.3117421
  42.5531702  24.9018974  15.2179512  42.4856203  24.9214933  14.3482098
  42.5387365  25.7449301  15.4435182  42.5410459  25.0292708  15.1231989
  21.6219136  30.0907331   9.2513839  20.7957254  30.3369068   9.1248118
  21.6831127  30.0119412  10.1175897  21.5093303  30.1152280   9.3602784
  32.9628049  16.3054131  18.5420601  33.7081641  16.1163942  18.1284027
  32.5465353  16.8312369  17.9834458  33.0113023  16.3556277  18.3985175
  26.4017965  32.7084211   6.9532869  26.6916264  32.3173193   6.2292096
  27.1321446  32.8900916   7.3938144  26.5524849  32.6778025   6.9115676
  40.3390320  23.6763360  13.4926106  40.8898241  23.0431429  13.7323198
  40.3234435  24.2078753  14.1841611  40.4175516  23.6612308  13.6304964
  26.9912710  27.5101957  18.0386000  26.4924404  28.2217725  18.1170888
  27.8012935  27.8302624  18.0004162  27.0368817  27.6628806  18.0442568
  24.3423881  34.6851594  10.0193019  24.1224176  34.3948948  10.8119686
  24.1218403  34.0266549   9.4910931  24.2771475  34.5451302  10.0581928
  23.2540828  26.7724910  12.2848721  22.9654077  26.1462381  12.8194448
  24.1224176  26.7145198  12.3513401  23.3401080  26.6712454  12.3739675
  34.0418726  21.9159694  12.6030702  33.6983492  21.1950029  12.9537952
  34.1411768  21.7073545  11.7609061  34.0060769  21.7783897  12.5302382
  26.5091837  36.0580984   8.8023711  27.1615895  35.5257426   9.0314737
  25.8117445  35.7049636   9.1891585  26.5022555  35.9270507   8.8935879
  23.4573101  28.4120161   8.2091086  24.2119069  28.7933200   8.4226548
  22.8643714  28.8631305   8.6637782  23.4809815  28.5348989   8.3073964
  34.5031755  28.3785398   8.1454691  35.0689788  29.0378608   8.0613234
  33.8559658  28.7235096   8.6171093  34.4910511  28.5267339   8.2027447
  25.9179768  20.3683002  23.3348298  25.1079544  20.6740781  23.2238140
  26.3954455  21.0888584  23.4500882  25.8683247  20.5197603  23.3355369
  24.7771328  29.5828723  13.5831201  24.2552082  29.7229014  14.2683066
  25.1645348  28.8239387  13.7733318  24.7575029  29.4914246  13.7132278
  30.9738333  31.3224182   7.5691770  30.7325009  30.5892043   7.1618835
  31.1539666  31.8711039   6.9158103  30.9645957  31.2946573   7.4121993
  26.2037654  26.6132742   8.9812692  26.0080436  27.2207476   8.3872995
  26.4271999  25.9200686   8.5004366  26.2072295  26.6010267   8.8228773
  24.6016184  23.4987480   9.0993560  25.3238836  23.6628638   8.6397366
  24.1224176  24.2197144   8.9932900  24.6379914  23.6285709   9.0159174
  32.5609691  19.8351278  14.4790245  31.7220792  19.8612557  14.2428509
  32.6314059  20.4822014  15.0595592  32.4478085  19.9347404  14.5299362
  22.2523800  25.9045552  18.2047700  22.7644897  26.1829805  17.5556460
  21.9660143  26.6434846  18.5710513  22.2858664  26.0547906  18.1637578
  31.0078970  16.7336655   9.2117861  31.7105322  16.5344404   8.7337820
  30.7423158  15.9612598   9.5186705  31.0725602  16.5899621   9.1863303
  36.4367215  25.0419265  11.7651487  36.3501190  25.1974691  12.6186266
  35.9817695  25.6857341  11.3910892  36.3570472  25.1595020  11.8358594
  25.7707526  17.9971941  18.2648742  25.5790723  18.0127075  19.1148165
  26.6206122  18.1935615  18.2415397  25.8683248  18.0286292  18.3872037
  20.1554439  20.5262922  16.2432558  20.0139931  19.6746863  16.3677066
  20.4395002  20.5691583  15.4194764  20.1762285  20.4062672  16.1400182
  30.3093031  22.3630012  10.3877047  30.0627745  22.2825763  11.2213836
  30.6378154  21.5783480  10.1939574  30.3214275  22.2356278  10.4824570
  34.2041080  29.0713372  14.1763828  34.0655439  29.7694417  14.6812570
  33.4241078  28.9162028  13.8200010  34.0684307  29.1513538  14.1990102
  26.2690058  25.0986731  19.8000030  26.4133434  25.6787939  19.1643140
  26.6165707  25.4763028  20.5049884  26.3417520  25.2407435  19.8099025
  28.4409976  24.2976899  17.5825161  27.6933290  24.4907914  17.1773439
  28.5951501  23.4722119  17.3449283  28.3532403  24.2042011  17.4870567
  25.3417813  33.2889503  16.6661057  25.4907377  32.7292419  16.0134461
  26.1217815  33.3681504  17.0493575  25.4791907  33.2175068  16.6258006
  35.6994453  28.4291625   4.9380327  35.3201262  27.6428763   4.9309616
  35.0360698  28.9778482   4.7951971  35.5452928  28.3936449   4.9161124
  27.8671114  33.4604146  17.9445547  27.7914785  32.7912956  18.4996336
  27.7960973  34.1621934  18.4586214  27.8451721  33.4649053  18.1022395
  28.6811753  18.1927450  18.4720565  29.1384367  18.9251424  18.5993357
  28.7568082  17.7693915  19.2307821  28.7602723  18.2384688  18.6021642
  20.9244744  18.4393270  19.5610009  20.3886934  17.8273628  19.8770776
  20.9862509  19.0141406  20.2143675  20.8540377  18.4340197  19.7045435
  33.1539079  11.3717325  12.3414408  33.2722647  11.8293788  11.6081711
  32.9801254  10.5662586  12.0550626  33.1458250  11.3211097  12.1915342
  28.5241361  31.9805144   8.7769153  29.2891252  31.7114788   8.4551818
  28.4219451  31.4955155   9.4939216  28.6222856  31.8694709   8.8348981
  26.5594131  20.1829554  15.3162389  25.7690205  20.0021014  15.6379725
  26.9554754  19.4056506  15.2992684  26.5011007  20.0417015  15.3614937
  31.9437817  27.8171984  13.0421835  31.2682819  27.5857216  13.5435222
  31.9530193  27.2093167  12.4163940  31.8456322  27.6930909  13.0237987
  29.0731961  22.6589813  19.7985888  29.0091102  23.5199769  19.6706025
  29.2129149  22.3421806  18.9981439  29.0847431  22.7389980  19.6614101
  33.9454552  30.6737116   5.2732013  34.0274389  31.4804103   4.9493464
  34.4304294  30.6933076   5.9972786  34.0291709  30.7957779   5.3318912
  27.7551055  25.3521952  13.9402091  27.3313304  25.5526451  13.2041109
  27.5795910  24.5050800  14.0526391  27.6661936  25.2570734  13.8475781
  27.2562748  36.8672465  16.4023548  27.7458679  36.1683255  16.2199213
  26.6846981  36.5696335  16.9899605  27.2447278  36.7198689  16.4624589
  23.0433500  25.8474004   9.3730063  23.1998119  25.7820807  10.2286055
  23.3834093  26.6222556   9.1608743  23.1166735  25.9523202   9.4684658
  29.5812644  25.2231887   8.2423427  30.1228190  24.7202268   8.7062047
  29.8959204  25.1697082   7.4312912  29.7077042  25.1411308   8.1907239
  27.7499094  30.6149239   5.5263455  27.8191914  29.7563777   5.6656455
  28.5287549  30.8321120   5.1982479  27.8751944  30.5202103   5.4980612
  30.7301914  20.1168192  18.2945727  30.9443883  19.4779106  17.7409081
  30.1135813  20.5614016  17.8653589  30.6707243  20.0878336  18.1496158
  32.1406582  33.0386940   9.7399948  31.7486373  32.7353655   9.0222814
  32.2959654  33.8756030   9.5504902  32.1060172  33.1170777   9.6056445
  32.8941002  21.7257257  19.2329034  32.0817684  21.4183147  19.3142207
  33.3530936  21.2456257  19.7971746  32.8421387  21.6093749  19.3283628
  32.3046257  29.6036929   9.6805979  31.9460911  29.7751572  10.4570011
  31.8184967  30.0650135   9.1233977  32.1804953  29.6975900   9.7131248
  30.1216643  13.2268127  13.2833070  29.2510200  13.2006849  13.2366379
  30.3756984  13.0545320  12.4658916  30.0310203  13.1978271  13.1553207
  29.9894509  23.1317328  24.0157736  30.4594141  23.7559445  24.4025611
  30.0356390  22.4634304  24.5750951  30.0662385  23.1252009  24.1557808
  27.1465783  15.2374356  14.7406540  26.6304272  14.5454547  14.8658119
  26.5859712  15.9045133  14.6869139  26.9872296  15.2337614  14.7512606
  29.2158016  15.7767316  16.5699393  28.8289770  15.8016347  17.3512923
  28.7290954  15.2108995  16.1173909  29.0870525  15.6963067  16.6187297
  35.1907996  22.3429971  15.1939095  34.7635604  22.2556319  14.4387195
  34.5534049  22.4507746  15.7793939  35.0337603  22.3462631  15.1684537
  28.8815158  12.6634301  18.8609653  29.5108276  13.1994601  18.5830723
  29.0501021  12.5711660  19.7123218  28.9992953  12.7295664  18.9458181
  28.6829073  17.4505496  21.1336064  29.5102502  17.1790645  21.1894679
  28.7036919  18.2466338  21.4899882  28.8081923  17.5285250  21.1951247
  33.5205252  31.1860633  17.2678536  34.3097631  30.8349698  17.3880618
  33.6948850  31.9997022  17.0055170  33.6625534  31.2546490  17.2466404
  23.2598563  24.5969359  14.3206325  22.4186569  24.4973233  14.5285219
  23.4688571  25.3664839  14.6720646  23.1663255  24.6961402  14.4033640
  20.7374130  22.2188896  12.1491076  20.3430828  22.2931908  11.3741185
  20.1814247  22.6046842  12.6999437  20.5976942  22.2870671  12.1158735
  32.3739077  15.1970190  11.8294955  32.5788670  15.1292498  12.6751952
  32.0465501  16.0029011  11.7616132  32.3554325  15.3056130  11.9454610
  27.0715228  22.5250758  13.5703923  26.7678365  21.9706746  14.1714330
  26.3694649  22.7042968  13.0831957  26.9231438  22.4695540  13.5873628
  25.1333579  29.7400479  18.2776020  25.0253934  29.7502541  19.1438078
  25.3429360  30.5655259  18.0880974  25.1483690  29.8641554  18.3780112
  35.6272764  15.7501954  11.3097720  35.0147078  16.2372356  11.6951452
  35.7236939  15.0745445  11.8535371  35.5510662  15.7220263  11.4476578
  23.1507371  26.9913121  15.7397958  22.5595304  27.6322619  15.7100973
  23.9128394  27.4150739  15.7129257  23.1755631  27.1488960  15.7313105
  23.5467994  18.1515119  16.4065975  24.0069475  18.2254048  17.1441099
  23.5924100  18.9496373  16.0565797  23.6218549  18.2809266  16.4638732
  25.1951343  18.8181814  20.9738003  24.8036908  18.1715161  21.4093780
  25.3637206  19.4093249  21.5932258  25.1622254  18.8096082  21.1300709
  39.2697792  26.8218891  16.7375236  39.3280916  27.2705540  17.4835213
  38.6364260  27.2317704  16.3005316  39.1849087  26.9492626  16.7827784
  32.9096887  32.4422433  13.1729982  32.7116576  32.9313247  12.4786194
  32.2884598  32.6463674  13.7514116  32.7884451  32.5438971  13.1553206
  26.9704865  24.2107330   7.5140227  27.7146910  24.5981606   7.7523176
  27.1165562  23.3664755   7.6780714  27.1015450  24.1437802   7.5734196
  28.8884441  16.0057589  12.5472088  28.0420486  16.1780396  12.4213438
  28.8855573  15.2006932  12.8837916  28.7631591  15.9118618  12.5783215
  29.9582741  19.7832803  13.4134146  29.4842695  19.2574565  13.9239457
  30.3300877  19.2362276  12.8449007  29.9432630  19.6248800  13.4049293
  20.3355771  21.7804310  18.7817692  21.1981384  21.6800019  18.6955022
  20.0047554  21.1999019  18.2203264  20.4140968  21.6795936  18.6863098
  36.2219472  24.8435179  14.8240926  35.9817695  24.0041594  14.8283353
  36.7011479  24.9235345  15.5481700  36.2571655  24.7316578  14.9315729
  38.2224659  21.6236636  12.7770186  37.9834429  21.5832470  11.9390970
  38.3858560  22.4707788  12.9035907  38.2114962  21.7428721  12.6723668
  34.8270689  26.0086585  18.7075231  35.5504888  25.5559112  18.5286251
  34.5620651  26.2891251  17.9247559  34.8951962  25.9837554  18.5653946
  23.6957557  20.6046759  15.4428110  23.0710627  20.6165151  14.8354063
  23.3603152  21.0806934  16.0919350  23.5543049  20.6765276  15.4484678
  20.4083233  28.6647219  16.8831874  19.8783157  27.9739658  16.9326849
  20.6808326  28.6557404  16.0544583  20.3707955  28.5614351  16.7679290
  31.4403323  29.2472921   5.6069557  32.1637522  29.7131034   5.4634130
  31.0003914  29.3146531   4.8567154  31.4819016  29.3256758   5.4754338
  30.6089478  26.1070463  16.8570246  29.9946472  25.5628514  17.1518881
  31.1256763  25.5934700  16.3776062  30.5945141  25.9506872  16.8294474
  29.8485776  27.1774733  14.5914544  29.4213384  26.5524452  14.1579980
  29.8410720  26.8949655  15.4173552  29.7844917  27.0427514  14.6494372
  22.9648303  22.2139906  17.6602978  23.1241789  21.4583231  18.0654700
  22.7841196  22.7630846  18.3143716  22.9613662  22.1833720  17.8165684
  30.9068606  14.3801142  18.2153768  30.4109167  14.5764816  17.5245335
  31.6637668  14.7793810  18.0442570  30.9455430  14.4678876  18.0873905
  28.1771485  18.0543488  14.8057078  28.2013972  17.5203600  14.1169858
  28.4282959  17.5460797  15.4682669  28.2181404  17.9004392  14.8021723
  15.6879075  25.3374983  14.2400222  15.5822524  25.2921827  13.3752307
  14.9379295  25.6828763  14.5214507  15.5614678  25.3815891  14.1537552
  24.4572808  16.7814306  14.1862823  24.4971179  17.2823513  14.8997530
  23.6322472  16.8724700  13.9168746  24.3412333  16.8696123  14.2513361
  26.6402420  26.3475046  22.2883117  25.7898051  26.4846760  22.4240762
  26.8030548  25.6138824  22.7330819  26.5386284  26.2589147  22.3738716
  25.8787171  23.2974816  16.4836722  25.0479101  23.4648634  16.2771970
  25.8238688  22.9210767  17.2685607  25.7476586  23.2664547  16.5685250
  23.6870954  16.7883709  22.1193132  24.3123658  16.2445842  22.3922565
  23.2321434  16.3078627  21.5500923  23.7119215  16.6373190  22.0754726
  37.2606003  24.9712996  17.2105780  37.8523843  25.6110247  17.2423978
  37.6964997  24.2736033  17.4997847  37.4124434  24.9631346  17.2586613
  29.0899393  29.3930368  17.8363674  28.5824484  29.9466215  18.2804305
  28.7926039  29.4538658  17.0182449  28.9704278  29.4836680  17.7812131
  31.2561575  17.7583688  16.6788337  31.6816647  17.3056214  16.0671864
  30.6418568  17.2043759  16.9553125  31.2290220  17.6097664  16.6293363
  31.7007173  33.3093626   5.7667618  30.9836483  33.1354488   5.3014855
  32.3513911  33.0746198   5.2343104  31.6909024  33.2489419   5.6196836
  34.2855144  22.1858215   9.5108923  33.6146334  22.7287917   9.3821988
  34.9794895  22.6553070   9.2690618  34.2884012  22.3356486   9.4564451
  28.3341878  34.3254927  14.7420681  28.1107532  33.5673756  15.1104708
  27.8451721  34.3552948  14.0201121  28.2285327  34.2177151  14.6897422
  34.4483272  18.6414098  12.4199296  34.8010882  18.2143821  13.0945095
  33.5898073  18.5564942  12.5500373  34.3732716  18.5658839  12.5394307
  23.1466957  21.2721618  10.4782143  22.4278946  21.6885750  10.7455006
  23.5179319  21.8375857   9.9273781  23.0958889  21.4170899  10.4364950
  32.4466538  21.9049467  16.3684138  32.4264465  21.7232762  17.2218917
  32.4945738  22.7761485  16.3443722  32.4501179  22.0066005  16.4907433
  30.3912867  28.4936659  22.2932615  30.3508722  27.8486336  21.7077771
  31.2036186  28.4373276  22.6058027  30.5056021  28.3895626  22.2529564
  26.9820335  34.5455385  12.1957766  26.5680734  33.8829515  11.8061608
  27.6667709  34.6933243  11.6753460  27.0218707  34.4696043  12.0614263
  30.3485629  33.7045470  12.9481382  29.9501912  33.8147740  12.1802203
  29.7336849  33.9127536  13.5307942  30.1984518  33.7519038  12.9212682
  35.8807332  13.7632510  13.3483609  35.3738196  13.0561650  13.2804786
  36.6774766  13.4325699  13.4784685  35.9234571  13.6105661  13.3582604
  31.7971348  20.2699122   9.2457272  31.5685041  20.2931824   8.4035631
  32.0569424  19.4456589   9.3652283  31.8017536  20.1515202   9.1382470
  20.9256291  20.5671171  21.4984734  20.7558881  21.2272545  20.9532941
  20.4822241  20.7777732  22.2197223  20.8355624  20.6957153  21.5246364
  24.8516110  18.8075669  10.5411468  25.3273476  19.1692748   9.9061649
  24.3504710  19.4632136  10.8211611  24.8481469  18.9569857  10.4888209
  38.0827472  28.2797437   6.3324473  38.4661078  29.0288793   6.5622570
  37.2871585  28.5263256   6.0736462  38.0221254  28.4267131   6.3282047
  29.9559646  20.0457840  21.2884628  30.5131077  19.8171650  20.6563094
  29.6320711  20.8063506  21.0119841  29.9906057  20.1241677  21.1541125
  17.8258355  23.4718036  16.7573224  17.2785075  22.8018682  16.8754093
  18.6150734  23.1047884  16.8216691  17.8610539  23.3183023  16.7841925
  27.6742764  23.1325493  22.2536635  28.4254091  23.4477170  22.5676189
  27.8665340  22.9304664  21.4270557  27.8134178  23.1492875  22.1780031
  34.5228054  19.2599060   9.4960431  34.5222280  19.1047716  10.3544707
  34.3184234  20.1062047   9.4401816  34.4927832  19.3619680   9.6148370
  16.5845325  22.6838844  13.9119247  16.4067086  22.2315453  14.6374163
  16.2964347  23.4865005  14.0957725  16.5158278  22.7361402  14.0462750
  32.2468906  23.9396561  13.1496638  32.7422571  23.2219556  13.1100658
  31.4368682  23.6367359  13.0351125  32.2012799  23.7894208  13.1270363
  27.6927517  27.7894375   5.2993642  26.8838840  27.4661048   5.2526952
  28.2002426  27.0827597   5.2321891  27.6477184  27.6375691   5.2823936
  18.3217795  25.2166568  11.0241006  17.4563314  25.2052258  10.9123778
  18.4216611  25.0296791  11.8712146  18.2091962  25.1872629  11.1329951
  34.3120725  26.6900249  15.8373766  34.7375796  26.1674671  15.2844191
  33.9477645  27.2881086  15.3162389  34.3207327  26.7010476  15.6782776
  23.9474805  34.9864466  14.5971112  24.2621364  35.8000855  14.6048894
  24.3568218  34.6014685  15.2653271  24.0542903  35.0493169  14.6975203
  30.8999324  30.4034513  12.1674924  31.3710502  31.1174776  12.3364909
  31.2359503  29.8033263  12.7034793  31.0194439  30.4205977  12.2707300
  27.8168819  15.1761984  19.1233019  27.9496725  14.3792977  19.4513994
  28.2013972  15.7028387  19.7031294  27.8925148  15.1361900  19.2576522
  31.5373271  30.1952447  18.9302616  30.9894217  29.5710331  18.6622682
  31.9986299  30.3846719  18.2146696  31.5240480  30.1311497  18.7853048
  30.8901174  12.0992310  15.7214112  30.0847138  11.9890040  16.0381950
  30.7607910  12.2004766  14.8643978  30.7521307  12.0975980  15.6422152
  34.3467135  18.2637802  16.3153809  33.7630124  18.7647008  15.9031376
  34.6671429  17.7567358  15.6818132  34.3080310  18.2629637  16.1612316
  25.4757266  15.1721159  17.3710912  26.0201679  14.8312286  17.9615254
  25.5294202  16.0306620  17.5132197  25.5646385  15.2476418  17.4792786
  21.2887825  28.9337575  14.2449720  21.8932682  28.8933409  13.6163541
  21.0815137  29.7808727  14.2753776  21.3476722  29.0525577  14.1565837
  31.1031597  31.2003520  15.4611958  31.9229971  31.0566486  15.7228253
  30.8225675  31.8249719  16.0028396  31.1828340  31.2713872  15.5799897
  16.5239107  27.9172192  14.1148643  16.4263385  27.1068464  14.4238700
  17.3067977  27.8963986  13.7294911  16.6255244  27.7939283  14.1035506
  47.5745247  38.8568372   8.4254834  47.5439252  39.7113008   8.5973103
  48.1726596  38.5563664   8.9840978  47.6582405  38.9384868   8.5329636
  40.7744932  37.9444023  13.1807764  39.9182828  38.1052521  13.2316881
  40.8212586  37.0736087  13.2012825  40.6544044  37.8394825  13.1913830
  35.1586072  47.4806741   8.9444996  34.4068971  47.1022279   8.7161041
  35.6072083  47.5125174   8.1963806  35.1135739  47.4292348   8.8002498
  40.6111032  47.9032110   4.3730543  40.2762400  48.5809032   3.9374765
  41.1237902  47.5137421   3.7847415  40.6376613  47.9456688   4.2217335
  40.1515323  49.8546379  10.3141655  40.5354702  50.4233277   9.7746430
  40.0874464  49.1295889   9.8347471  40.1988750  49.8321842  10.1635517
  43.6196753  40.0036067  15.8239416  44.1652713  40.6821153  15.8833386
  43.5613629  39.8623528  14.9640998  43.6912667  40.0828068  15.7051477
  36.7370828  47.4925133  11.2107768  36.8381191  46.6825487  11.5204896
  36.1412573  47.3982079  10.5807447  36.6643367  47.3590161  11.1634007
  45.3961822  41.4320674   6.6973144  45.2801348  42.1828360   7.1265282
  46.1917708  41.1744627   6.9469231  45.4966411  41.5055521   6.7977235
  36.5771568  52.4102722  12.6122625  37.2209023  52.8515886  13.0018783
  36.9027823  51.6056148  12.5252883  36.7203396  52.3567917  12.6568102
  29.9335872  43.5145419  10.8360102  29.6986057  42.6813072  10.7292371
  30.0721513  43.7950085  10.0221303  29.9191535  43.4328923  10.7002457
  32.2325960  35.6831150  13.7344410  31.6130991  35.0923797  13.5654425
  32.1309823  36.2742585  13.1008733  32.1263635  35.6835232  13.6149399
  37.2792147  45.4214697   7.9842486  37.6007988  45.9619904   7.3803794
  37.9264244  44.8511468   8.1164776  37.4218202  45.4173872   7.9149522
  39.3293855  37.4230692   8.0676873  40.0274020  37.6018819   8.5598336
  39.6446188  36.9001031   7.4447262  39.4789193  37.3724464   8.0478883
  31.9595093  39.2283432  15.9787979  31.8353790  39.8145877  16.6137798
  32.6113377  38.7343627  16.2800254  32.0368742  39.2422236  16.1173908
  39.5181791  43.8101137   8.0556664  39.9575426  43.2018237   8.5011437
  39.3686454  43.4308510   7.2842129  39.5603256  43.6639608   8.0075832
  36.9853434  42.4045149  15.2575490  37.6302436  41.9117592  14.9386438
  37.2255211  42.5469935  16.0841568  37.1164019  42.3522591  15.3325023
  39.5239525  45.2500054  14.9082382  39.8062768  44.4551460  14.6869138
  40.2525685  45.7280642  14.9287443  39.6729089  45.2034651  14.8785398
  37.5020719  32.7923088  12.1498148  37.1724049  33.2434232  11.4801846
  36.8265721  32.7139252  12.6971154  37.3531155  32.8474224  12.1321371
  43.1191127  42.1628318   5.0087434  43.0342422  43.0189285   5.1537002
  43.6075511  41.8872642   5.6769593  43.1780025  42.2485639   5.1289515
  44.7097127  28.7808611  10.3947758  44.3950568  29.4712090  10.8268181
  44.1924068  28.7253394   9.6933259  44.5861597  28.8743500  10.3544707
  44.0509561  38.7813112   6.5085169  43.5221032  38.9972746   7.1682475
  44.5734580  39.4749251   6.4286138  44.0498013  38.9156249   6.5940768
  49.5057613  44.3559417  11.8818213  48.6755317  44.5670060  12.0451630
  49.4566866  43.5296471  11.6060497  49.3764349  44.2649023  11.8655579
  35.9409168  42.6776329   5.3092637  35.3566384  43.1826360   5.7158501
  35.5379263  42.4518716   4.5689229  35.7948472  42.7184577   5.2597662
  31.4953197  48.3931090  12.1116308  31.0120775  49.1181580  12.0875892
  32.3076515  48.6907220  12.2226466  31.5443945  48.5433444  12.1243588
  37.5667351  47.1863271  14.7166123  37.0494293  46.8270686  14.1127431
  38.2641742  46.6625445  14.7272189  37.5932932  47.0560959  14.6296381
  41.2230943  47.6358085  20.6782296  41.3114289  47.4484225  21.5260506
  41.6520656  46.9895514  20.2787143  41.2993045  47.5121093  20.7454047
  38.7901403  46.9189245  19.6599958  38.2272238  46.5061855  20.1839619
  39.5522426  46.8442150  20.0793101  38.8195851  46.8466645  19.7992958
  40.3986383  38.9241981   3.7861557  40.6382386  39.1319965   2.9736900
  40.7202224  38.1199490   3.8950502  40.4823541  38.8356082   3.6822110
  35.7076673  30.8535377   7.6321095  36.4622641  31.2213694   7.3938145
  35.5304208  31.2274931   8.4000275  35.7931151  30.9633565   7.7105984
  34.3497394  48.9087266  12.2636588  35.0517973  48.3939255  12.3209345
  34.2694877  49.2361417  13.0683463  34.4421155  48.8801492  12.3909380
  49.0011572  37.0029817  15.6768635  48.1639993  37.0732004  15.9116229
  48.9699803  37.0054312  14.8042937  48.8729854  37.0140044  15.5828183
  35.3976301  39.1462853  21.3917003  35.5696804  39.0368748  22.2402285
  35.9345658  39.7917258  21.1548196  35.5021305  39.2254855  21.4822100
  34.0633738  33.2605696   4.3299208  33.8809311  33.4777577   3.5040201
  34.9259351  33.3744708   4.3857823  34.1638327  33.3095594   4.2153695
  33.6748170  45.0993618  11.7722196  34.5137069  45.3316551  11.8195958
  33.7059939  44.2297929  11.7029232  33.8029887  45.0050564  11.7686841
  34.3000873  45.5194493  16.0735502  34.8399098  45.3765624  16.7438874
  33.6170819  45.9191244  16.4419528  34.2793027  45.5574164  16.2269923
  39.7433457  30.2632106   7.3648232  40.4719617  30.0848061   6.9186388
  39.8328350  31.1050186   7.5755410  39.8640119  30.3615985   7.3301750
  43.7241758  41.1985494  11.2680526  44.4799273  41.6317008  11.3069435
  43.8304082  40.5490264  11.8415162  43.8511928  41.1662978  11.3578552
  46.7621929  45.0258771  12.0182929  46.3257161  45.0295513  12.7741900
  46.4284844  45.7064270  11.5862507  46.6484549  45.1271227  12.0663762
  29.7038018  41.7394784  16.2269923  29.4376433  40.9233901  16.3860914
  29.7176582  41.7847940  15.3565439  29.6662740  41.6251689  16.1223405
  46.6819412  32.0672599  14.2612357  47.3245320  32.1370703  14.8474272
  46.9342432  31.4001822  13.7591899  46.8141544  31.9798948  14.2739636
  33.6095765  36.5379868   2.8421681  32.8953942  36.2518048   3.2544114
  34.0939733  36.8776494   3.4828069  33.5755128  36.5461518   2.9977316
  34.4536624  35.2773162  18.8736931  33.7608421  34.8070142  19.1197663
  35.0696951  35.0511467  19.4478638  34.4421154  35.1740294  18.9946084
  41.4921396  48.9777206  16.9892535  40.6936641  48.7376706  17.2466404
  41.9407407  49.0291599  17.7359583  41.4396007  48.9499597  17.1377459
  49.8966275  41.7439691  10.9102566  50.5582709  41.1830359  10.8098475
  49.2557687  41.2491722  11.2355257  49.8995142  41.5876100  10.9434906
  40.7843083  45.0409822   3.2183490  41.1994231  44.7094846   2.5267985
  39.9535012  44.8078725   3.0903626  40.7231091  44.9581078   3.0974337
  30.1131431  42.5253563  13.5081668  29.9307005  42.5000449  12.6553960
  30.8481100  42.9952501  13.5470576  30.1945495  42.5914926  13.3879586
  46.1831106  42.7605073  10.6514555  46.4186695  42.9050272   9.8241406
  46.3320669  43.5247481  11.0446069  46.2396909  42.8944128  10.5878159
  33.1777183  39.2438566  20.0163776  33.9017155  39.2291597  20.5028671
  33.2793320  39.9533921  19.5185744  33.2995392  39.3463269  20.0142563
  48.0121562  41.6006739   8.4884159  48.3429779  42.1334379   7.8824254
  48.5854650  41.6545627   9.1446110  48.1455241  41.6876308   8.4961941
  43.2253451  39.4471642   9.1707739  43.3200306  40.1860936   9.6247364
  42.6012295  39.0189117   9.6042304  43.1462482  39.4932963   9.3015887
  41.4805925  42.6257855  19.8198020  42.0544787  41.9885099  19.9746584
  41.4020729  42.6261937  18.9507678  41.5539160  42.5322966  19.7144431
  30.0802342  39.4047064  13.6580734  30.6575844  39.2683515  14.2972979
  29.3816403  38.9482848  13.9126318  30.0623363  39.3169330  13.7903024
  43.4776473  41.2920382   2.4044691  43.3956635  41.3622569   3.2699678
  44.1156193  41.8550126   2.2128432  43.5596310  41.3859353   2.5034640
  36.8369644  41.0581120  11.8719217  36.5788888  40.2252855  11.8450517
  36.8918127  41.2838733  11.0311718  36.8069422  40.9678891  11.7439354
  41.9170694  33.1609570  11.9723310  41.2127021  32.6718756  12.1307229
  41.9655668  33.1732045  11.1011754  41.8200746  33.0899218  11.8662650
  35.8104356  38.6118882  12.3584112  35.2353947  38.7711051  12.9948073
  35.4340032  37.9754291  11.8952563  35.6707168  38.5416695  12.3838670
  39.4777645  37.0842231  17.2176490  39.0892077  36.6596449  16.5628682
  38.8132343  37.3324381  17.7253517  39.3224572  37.0580953  17.1964358
  49.1200914  36.8417236   9.9924321  48.8637479  36.0297178   9.8022203
  49.9630228  36.8494803   9.7654508  49.2066939  36.7229234   9.9309138
  25.5561175  38.2558957  10.3728553  25.6421427  37.8790825  11.1542083
  26.1836972  37.8819403   9.8948511  25.6617726  38.1444439  10.4174030
  43.3004006  30.7816860  14.7300475  43.6814518  30.0995031  15.1168349
  42.4967290  30.4926462  14.5476139  43.2380468  30.6383909  14.7604531
  40.5816583  41.3140836   5.4153297  41.3957222  41.6055729   5.3036069
  40.5175724  40.6600698   4.8411590  40.6919322  41.2606031   5.3142135
  46.8026073  43.9966832  19.8282873  46.5664710  43.1654897  19.7094934
  47.4469302  43.9452439  20.4137717  46.8620744  43.8664520  19.8968767
  36.4524491  44.7862354  10.5425610  37.0898438  44.5474101  11.0877403
  36.8779563  44.9899512   9.8078770  36.6100657  44.7813364  10.5142767
  31.1437134  47.0250690  14.4259913  31.1841279  47.2965541  13.5979693
  31.7031658  47.5492598  14.8417701  31.2320479  47.1426445  14.3651801
  37.0927306  40.0064643   4.8800499  37.4772459  39.7872350   5.6317044
  36.8438927  40.8327589   5.0101575  37.1129379  40.0962790   5.0101575
  47.8262494  43.7811281  15.8911168  47.5208311  44.5139338  16.2524483
  47.1068709  43.3749210  15.6103954  47.6749836  43.8293014  15.9024305
  38.8345963  45.2634776  12.2219396  38.9084971  45.1009948  13.0761246
  39.6515469  45.4524966  11.9779877  38.9662322  45.2671519  12.3117421
  53.5264286  40.4204282  15.2179512  53.4588786  40.4400241  14.3482098
  53.5119948  41.2634609  15.4435182  53.5143042  40.5478016  15.1231989
  32.5951720  45.6092639   9.2513839  31.7689837  45.8554376   9.1248118
  32.6563711  45.5304720  10.1175897  32.4825887  45.6337588   9.3602784
  34.8127744  31.6761580  10.2109279  33.9450169  31.7484179  10.2766889
  35.1002948  32.4783659  10.3997255  34.7267492  31.8055727  10.2484046
  43.9360632  31.8239439  18.5420601  44.6814224  31.6349250  18.1284027
  43.5197937  32.3497677  17.9834458  43.9845607  31.8741585  18.3985175
  37.3750549  48.2269519   6.9532869  37.6648847  47.8358501   6.2292096
  38.1054030  48.4086224   7.3938144  37.5257433  48.1963333   6.9115676
  51.3122903  39.1948668  13.4926106  51.8630825  38.5616737  13.7323198
  51.2967019  39.7264061  14.1841611  51.3908100  39.1797616  13.6304964
  37.9645294  43.0287265  18.0386000  37.4656988  43.7403033  18.1170888
  38.7745518  43.3487932  18.0004162  38.0101401  43.1814114  18.0442568
  35.3156464  50.2036902  10.0193019  35.0956760  49.9134256  10.8119686
  35.0950986  49.5451857   9.4910931  35.2504059  50.0636610  10.0581928
  34.2273412  42.2910218  12.2848721  33.9386660  41.6647689  12.8194448
  35.0956760  42.2330506  12.3513401  34.3133664  42.1897762  12.3739675
  45.0151309  37.4345002  12.6030702  44.6716075  36.7135337  12.9537952
  45.1144352  37.2258853  11.7609061  44.9793352  37.2969205  12.5302382
  37.4824420  51.5766292   8.8023711  38.1348478  51.0442734   9.0314737
  36.7850029  51.2234944   9.1891585  37.4755138  51.4455815   8.8935879
  34.4305685  43.9305469   8.2091086  35.1851653  44.3118508   8.4226548
  33.8376298  44.3816613   8.6637782  34.4542399  44.0534297   8.3073964
  45.4764338  43.8970706   8.1454691  46.0422371  44.5563915   8.0613234
  44.8292242  44.2420404   8.6171093  45.4643095  44.0452647   8.2027447
  36.8912352  35.8868310  23.3348298  36.0812128  36.1926089  23.2238140
  37.3687039  36.6073892  23.4500882  36.8415831  36.0382911  23.3355369
  35.7503912  45.1014031  13.5831201  35.2284665  45.2414322  14.2683066
  36.1377932  44.3424695  13.7733318  35.7307613  45.0099554  13.7132278
  32.7395096  35.1519839   7.6526156  32.4519891  34.7821110   6.9158103
  33.4265564  35.6214695   7.3909861  32.7983993  35.1666809   7.5041231
  41.9470917  46.8409490   7.5691770  41.7057593  46.1077350   7.1618835
  42.1272249  47.3896347   6.9158103  41.9378541  46.8131881   7.4121993
  37.1770237  42.1318050   8.9812692  36.9813020  42.7392784   8.3872995
  37.4004583  41.4385994   8.5004366  37.1804878  42.1195575   8.8228773
  35.5748767  39.0172788   9.0993560  36.2971419  39.1813946   8.6397366
  35.0956760  39.7382452   8.9932900  35.6112498  39.1471017   9.0159174
  43.5342275  35.3536586  14.4790245  42.6953375  35.3797865  14.2428509
  43.6046642  36.0007322  15.0595592  43.4210668  35.4532712  14.5299362
  33.2256384  41.4230860  18.2047700  33.7377481  41.7015113  17.5556460
  32.9392727  42.1620154  18.5710513  33.2591247  41.5733214  18.1637578
  41.9811553  32.2521963   9.2117861  42.6837906  32.0529712   8.7337820
  41.7155742  31.4797906   9.5186705  42.0458185  32.1084929   9.1863303
  47.4099799  40.5604573  11.7651487  47.3233773  40.7159999  12.6186266
  46.9550279  41.2042649  11.3910892  47.3303055  40.6780328  11.8358594
  30.3123290  35.9301052   8.5011437  30.4139427  36.7327213   8.8292412
  31.1079177  35.7288388   8.2034517  30.4451196  36.0186951   8.5046792
  36.7440109  33.5157248  18.2648742  36.5523306  33.5312383  19.1148165
  37.5938705  33.7120923  18.2415397  36.8415831  33.5471600  18.3872037
  31.1287022  36.0448230  16.2432558  30.9872514  35.1932171  16.3677066
  31.4127586  36.0876891  15.4194764  31.1494868  35.9247980  16.1400182
  41.2825615  37.8815320  10.3877047  41.0360329  37.8011071  11.2213836
  41.6110738  37.0968788  10.1939574  41.2946858  37.7541585  10.4824570
  45.1773664  44.5898679  14.1763828  45.0388023  45.2879725  14.6812570
  44.3973661  44.4347336  13.8200010  45.0416890  44.6698846  14.1990102
  43.5151749  40.8895055  20.4286210  43.5099787  40.0174871  20.4328636
  44.2212743  41.0883224  19.9555665  43.6196753  40.7898929  20.3593245
  37.2422642  40.6172039  19.8000030  37.3866018  41.1973247  19.1643140
  37.5898291  40.9948335  20.5049884  37.3150103  40.7592743  19.8099025
  39.4142559  39.8162207  17.5825161  38.6665873  40.0093222  17.1773439
  39.5684085  38.9907427  17.3449283  39.3264987  39.7227319  17.4870567
  36.3150397  48.8074811  16.6661057  36.4639961  48.2477726  16.0134461
  37.0950399  48.8866812  17.0493575  36.4524491  48.7360376  16.6258006
  46.6727036  43.9476933   4.9380327  46.2933845  43.1614071   4.9309616
  46.0093282  44.4963790   4.7951971  46.5185511  43.9121757   4.9161124
  38.8403698  48.9789453  17.9445547  38.7647369  48.3098264  18.4996336
  38.7693557  49.6807242  18.4586214  38.8184305  48.9834361  18.1022395
  39.6544336  33.7112758  18.4720565  40.1116950  34.4436732  18.5993357
  39.7300665  33.2879223  19.2307821  39.7335306  33.7569996  18.6021642
  31.8977328  33.9578578  19.5610009  31.3619517  33.3458936  19.8770776
  31.9595092  34.5326714  20.2143675  31.8272960  33.9525505  19.7045435
  44.1271662  26.8902633  12.3414408  44.2455230  27.3479096  11.6081711
  43.9533838  26.0847894  12.0550626  44.1190833  26.8396405  12.1915342
  39.4973945  47.4990452   8.7769153  40.2623836  47.2300096   8.4551818
  39.3952035  47.0140463   9.4939216  39.5955440  47.3880017   8.8348981
  37.5326714  35.7014862  15.3162389  36.7422789  35.5206322  15.6379725
  37.9287337  34.9241814  15.2992684  37.4743591  35.5602323  15.3614937
  42.0192605  44.5302636   0.7569103  42.7865590  44.5902761   0.3474954
  41.5723914  43.9583078   0.2725421  42.0666032  44.4539212   0.6246813
  42.9170401  43.3357292  13.0421835  42.2415402  43.1042524  13.5435222
  42.9262777  42.7278475  12.4163940  42.8188905  43.2116217  13.0237987
  40.0464545  38.1775121  19.7985888  39.9823686  39.0385077  19.6706025
  40.1861732  37.8607114  18.9981439  40.0580015  38.2575288  19.6614101
  44.9187135  46.1922424   5.2732013  45.0006973  46.9989410   4.9493464
  45.4036877  46.2118384   5.9972786  45.0024293  46.3143087   5.3318912
  38.7283638  40.8707260  13.9402091  38.3045888  41.0711759  13.2041109
  38.5528494  40.0236108  14.0526391  38.6394519  40.7756042  13.8475781
  34.0166083  41.3659312   9.3730063  34.1730703  41.3006114  10.2286055
  34.3566677  42.1407864   9.1608743  34.0899318  41.4708510   9.4684658
  40.5545228  40.7417195   8.2423427  41.0960774  40.2387576   8.7062047
  40.8691787  40.6882390   7.4312912  40.6809625  40.6596616   8.1907239
  38.7231678  46.1334547   5.5263455  38.7924498  45.2749085   5.6656455
  39.5020133  46.3506428   5.1982479  38.8484528  46.0387411   5.4980612
  41.7034497  35.6353500  18.2945727  41.9176467  34.9964414  17.7409081
  41.0868397  36.0799324  17.8653589  41.6439827  35.6063643  18.1496158
  43.1139165  48.5572248   9.7399948  42.7218957  48.2538963   9.0222814
  43.2692238  49.3941338   9.5504902  43.0792755  48.6356085   9.6056445
  30.5900345  38.5494262   9.6890831  30.9699310  38.9678807   9.0251098
  30.0155710  39.1307718   9.9959674  30.5611670  38.6972121   9.6367572
  43.8673585  37.2442565  19.2329034  43.0550267  36.9368455  19.3142207
  44.3263520  36.7641565  19.7971746  43.8153970  37.1279057  19.3283628
  43.2778840  45.1222237   9.6805979  42.9193495  45.2936880  10.4570011
  42.7917551  45.5835443   9.1233977  43.1537537  45.2161208   9.7131248
  41.0949226  28.7453435  13.2833070  40.2242784  28.7192157  13.2366379
  41.3489567  28.5730628  12.4658916  41.0042786  28.7163579  13.1553207
  38.0667206  40.8021402   2.2206213  38.3559730  41.5786285   2.4949787
  38.1539004  40.2910134   2.9220712  38.1221462  40.8413321   2.3648711
  38.1198367  30.7559664  14.7406540  37.6036855  30.0639855  14.8658119
  37.5592295  31.4230441  14.6869139  37.9604880  30.7522921  14.7512606
  40.1890600  31.2952624  16.5699393  39.8022353  31.3201655  17.3512923
  39.7023537  30.7294303  16.1173909  40.0603109  31.2148375  16.6187297
  46.1640580  37.8615279  15.1939095  45.7368188  37.7741627  14.4387195
  45.5266633  37.9693054  15.7793939  46.0070187  37.8647939  15.1684537
  39.8547742  28.1819609  18.8609653  40.4840860  28.7179909  18.5830723
  40.0233604  28.0896968  19.7123218  39.9725536  28.2480972  18.9458181
  39.6561657  32.9690804  21.1336064  40.4835086  32.6975953  21.1894679
  39.6769503  33.7651646  21.4899882  39.7814507  33.0470558  21.1951247
  44.4937836  46.7045941  17.2678536  45.2830214  46.3535006  17.3880618
  44.6681434  47.5182330  17.0055170  44.6358118  46.7731798  17.2466404
  34.2331146  40.1154667  14.3206325  33.3919153  40.0158541  14.5285219
  34.4421154  40.8850147  14.6720646  34.1395839  40.2146710  14.4033640
  31.7106713  37.7374204  12.1491076  31.3163411  37.8117216  11.3741185
  31.1546830  38.1232150  12.6999437  31.5709526  37.8055978  12.1158735
  43.3471660  30.7155498  11.8294955  43.5521254  30.6477806  12.6751952
  43.0198084  31.5214319  11.7616132  43.3286908  30.8241438  11.9454610
  38.0447811  38.0436066  13.5703923  37.7410949  37.4892054  14.1714330
  37.3427232  38.2228276  13.0831957  37.8964021  37.9880848  13.5873628
  37.1013908  35.3536586   8.1348624  37.3773643  34.6355498   7.7226192
  37.7012578  35.9521506   7.9269730  37.2307173  35.3356957   8.0429386
  36.1066162  45.2585787  18.2776020  35.9986517  45.2687849  19.1438078
  36.3161944  46.0840567  18.0880974  36.1216273  45.3826862  18.3780112
  46.6005348  31.2687262  11.3097720  45.9879662  31.7557664  11.6951452
  46.6969523  30.5930753  11.8535371  46.5243246  31.2405571  11.4476578
  40.6024429  33.0250103   6.4095219  41.0568175  33.1960664   7.1343064
  41.0764475  32.4118214   6.0092995  40.7392749  32.9600988   6.4568981
  34.1239954  42.5098429  15.7397958  33.5327888  43.1507927  15.7100973
  34.8860978  42.9336046  15.7129257  34.1488215  42.6674268  15.7313105
  34.5200577  33.6700427  16.4065975  34.9802059  33.7439356  17.1441099
  34.5656684  34.4681681  16.0565797  34.5951132  33.7994574  16.4638732
  36.1683927  34.3367122  20.9738003  35.7769492  33.6900469  21.4093780
  36.3369790  34.9278557  21.5932258  36.1354837  34.3281390  21.1300709
  50.2430376  42.3404199  16.7375236  50.3013500  42.7890848  17.4835213
  49.6096843  42.7503012  16.3005316  50.1581671  42.4677934  16.7827784
  43.8829471  47.9607741  13.1729982  43.6849159  48.4498555  12.4786194
  43.2617182  48.1648982  13.7514116  43.7617035  48.0624279  13.1553206
  37.9437449  39.7292638   7.5140227  38.6879494  40.1166914   7.7523176
  38.0898145  38.8850063   7.6780714  38.0748034  39.6623110   7.5734196
  39.8617024  31.5242897  12.5472088  39.0153069  31.6965704  12.4213438
  39.8588157  30.7192240  12.8837916  39.7364174  31.4303925  12.5783215
  40.9315325  35.3018111  13.4134146  40.4575279  34.7759873  13.9239457
  41.3033461  34.7547584  12.8449007  40.9165214  35.1434108  13.4049293
  31.3088355  37.2989618  18.7817692  32.1713968  37.1985327  18.6955022
  30.9780138  36.7184327  18.2203264  31.3873551  37.1981244  18.6863098
  47.1952055  40.3620487  14.8240926  46.9550278  39.5226902  14.8283353
  47.6744063  40.4420653  15.5481700  47.2304239  40.2501886  14.9315729
  42.8598824  36.1954665   6.4759900  42.3321843  36.2783409   5.7865609
  43.3194533  36.9372537   6.4724544  42.8500675  36.3175328   6.3734595
  49.1957242  37.1421944  12.7770186  48.9567012  37.1017778  11.9390970
  49.3591144  37.9893096  12.9035907  49.1847546  37.2614029  12.6723668
  45.8003273  41.5271893  18.7075231  46.5237471  41.0744419  18.5286251
  45.5353235  41.8076559  17.9247559  45.8684546  41.5022862  18.5653946
  34.6690141  36.1232067  15.4428110  34.0443211  36.1350459  14.8354063
  34.3335736  36.5992242  16.0919350  34.5275633  36.1950584  15.4484678
  34.8531890  34.4657185   1.5000795  34.5044694  35.1176910   1.9632344
  34.3728335  34.4514298   0.7724666  34.7302134  34.5600239   1.4611886
  31.3815816  44.1832527  16.8831874  30.8515741  43.4924966  16.9326849
  31.6540910  44.1742712  16.0544583  31.3440539  44.0799659  16.7679290
  42.4135907  44.7658229   5.6069557  43.1370106  45.2316342   5.4634130
  41.9736498  44.8331839   4.8567154  42.4551599  44.8442066   5.4754338
  41.5822062  41.6255771  16.8570246  40.9679055  41.0813822  17.1518881
  42.0989347  41.1120008  16.3776062  41.5677724  41.4692180  16.8294474
  40.8218359  42.6960041  14.5914544  40.3945967  42.0709760  14.1579980
  40.8143304  42.4134963  15.4173552  40.7577500  42.5612822  14.6494372
  33.9380886  37.7325214  17.6602978  34.0974373  36.9768539  18.0654700
  33.7573780  38.2816154  18.3143716  33.9346245  37.7019028  17.8165684
  41.8801189  29.8986450  18.2153768  41.3841751  30.0950124  17.5245335
  42.6370251  30.2979118  18.0442570  41.9188014  29.9864184  18.0873905
  39.1504069  33.5728796  14.8057078  39.1746556  33.0388908  14.1169858
  39.4015542  33.0646105  15.4682669  39.1913988  33.4189700  14.8021723
  26.6611659  40.8560291  14.2400222  26.5555108  40.8107135  13.3752307
  25.9111879  41.2014071  14.5214507  26.5347262  40.9001199  14.1537552
  35.4305391  32.2999614  14.1862823  35.4703763  32.8008821  14.8997530
  34.6055056  32.3910008  13.9168746  35.3144917  32.3881430  14.2513361
  37.6135004  41.8660354  22.2883117  36.7630635  42.0032068  22.4240762
  37.7763132  41.1324132  22.7330819  37.5118868  41.7774455  22.3738716
  36.8519754  38.8160124  16.4836722  36.0211684  38.9833942  16.2771970
  36.7971272  38.4396075  17.2685607  36.7209169  38.7849855  16.5685250
  35.2255798  37.0915716   7.0126839  35.3658759  37.5888180   7.7155481
  35.7238331  36.3902010   7.1541053  35.3196879  37.0617694   7.1378418
  35.2556021  37.9582827   4.3419416  35.8901100  38.5543252   4.2768878
  35.3381632  37.6586284   5.1565286  35.3612572  38.0023735   4.4522503
  48.2338586  40.4898304  17.2105780  48.8256427  41.1295555  17.2423978
  48.6697581  39.7921341  17.4997847  48.3857018  40.4816654  17.2586613
  36.8335004  33.8896802   4.3164858  37.1550845  33.4099884   3.6624121
  37.0961947  34.6996448   4.1255670  36.9201029  33.9386700   4.1920350
  40.0631976  44.9115676  17.8363674  39.5557067  45.4651523  18.2804305
  39.7658623  44.9723966  17.0182449  39.9436861  45.0021987  17.7812131
  42.2294159  33.2768996  16.6788337  42.6549230  32.8241522  16.0671864
  41.6151152  32.7229067  16.9553125  42.2022804  33.1282972  16.6293363
  31.7609009  40.1550667   7.6108962  32.2701238  40.7515175   7.9920268
  32.2343281  39.8876641   6.9285382  31.9052384  40.2036483   7.5663485
  42.6739757  48.8278934   5.7667618  41.9569066  48.6539796   5.3014855
  43.3246494  48.5931506   5.2343104  42.6641607  48.7674726   5.6196836
  40.6688381  29.7484096  10.0878914  40.0256699  29.5981742  10.6564053
  40.3287788  29.5026441   9.3228019  40.5233459  29.6896218  10.0581929
  45.2587728  37.7043523   9.5108923  44.5878918  38.2473225   9.3821988
  45.9527478  38.1738378   9.2690618  45.2616595  37.8541794   9.4564451
  39.3074462  49.8440235  14.7420681  39.0840116  49.0859064  15.1104708
  38.8184305  49.8738256  14.0201121  39.2017911  49.7362459  14.6897422
  45.4215855  34.1599406  12.4199296  45.7743465  33.7329129  13.0945095
  44.5630657  34.0750250  12.5500373  45.3465300  34.0844147  12.5394307
  34.1199540  36.7906926  10.4782143  33.4011529  37.2071058  10.7455006
  34.4911903  37.3561165   9.9273781  34.0691472  36.9356207  10.4364950
  43.4199121  37.4234775  16.3684138  43.3997048  37.2418070  17.2218917
  43.4678322  38.2946793  16.3443722  43.4233762  37.5251313  16.4907433
  41.3645451  44.0121967  22.2932615  41.3241306  43.3671644  21.7077771
  42.1768769  43.9558584  22.6058027  41.4788605  43.9080934  22.2529564
  37.9552919  50.0640693  12.1957766  37.5413317  49.4014823  11.8061608
  38.6400293  50.2118551  11.6753460  37.9951290  49.9881351  12.0614263
  41.3218213  49.2230778  12.9481382  40.9234496  49.3333048  12.1802203
  40.7069432  49.4312844  13.5307942  41.1717102  49.2704346  12.9212682
  39.8946115  35.8304926   5.8155522  39.3010954  36.1521922   5.2640089
  39.9321392  34.9846021   5.6076628  39.8120504  35.7529254   5.7038293
  46.8539915  29.2817818  13.3483609  46.3470780  28.5746958  13.2804786
  47.6507349  28.9511007  13.4784685  46.8967155  29.1290969  13.3582604
  42.7703931  35.7884430   9.2457272  42.5417624  35.8117132   8.4035631
  43.0302007  34.9641897   9.3652283  42.7750119  35.6700510   9.1382470
  37.0523160  37.6418903  18.8482373  36.5402063  37.0340086  19.2067404
  36.8802656  38.3575496  19.3156348  36.9512797  37.6582203  18.9698596
  35.8248694  34.3260977  10.5411468  36.3006060  34.6878056   9.9061649
  35.3237293  34.9817444  10.8211611  35.8214053  34.4755165  10.4888209
  49.0560055  43.7982745   6.3324473  49.4393661  44.5474101   6.5622570
  48.2604169  44.0448564   6.0736462  48.9953838  43.9452438   6.3282047
  40.9292230  35.5643148  21.2884628  41.4863660  35.3356957  20.6563094
  40.6053295  36.3248814  21.0119841  40.9638640  35.6426985  21.1541125
  28.7990939  38.9903344  16.7573224  28.2517658  38.3203990  16.8754093
  29.5883317  38.6233192  16.8216691  28.8343123  38.8368331  16.7841925
  38.6475347  38.6510801  22.2536635  39.3986674  38.9662478  22.5676189
  38.8397924  38.4489972  21.4270557  38.7866761  38.6678183  22.1780031
  37.8675347  36.4702176   3.9084852  38.2474312  36.4881806   3.1235967
  37.1267943  36.9156165   3.7875699  37.8144185  36.5383951   3.7748420
  45.4960637  34.7784368   9.4960431  45.4954864  34.6233024  10.3544707
  45.2916818  35.6247355   9.4401816  45.4660415  34.8804988   9.6148370
  27.5577908  38.2024152  13.9119247  27.3799670  37.7500761  14.6374163
  27.2696931  39.0050313  14.0957725  27.4890862  38.2546710  14.0462750
  43.2201490  39.4581869  13.1496638  43.7155155  38.7404864  13.1100658
  42.4101265  39.1552667  13.0351125  43.1745383  39.3079516  13.1270363
  38.6660101  43.3079683   5.2993642  37.8571424  42.9846356   5.2526952
  39.1735010  42.6012905   5.2321891  38.6209768  43.1560999   5.2823936
  29.2950378  40.7351876  11.0241006  28.4295898  40.7237566  10.9123778
  29.3949194  40.5482099  11.8712146  29.1824545  40.7057937  11.1329951
  45.2853308  42.2085557  15.8373766  45.7108380  41.6859979  15.2844191
  44.9210228  42.8066394  15.3162389  45.2939911  42.2195784  15.6782776
  34.9207388  50.5049774  14.5971112  35.2353947  51.3186163  14.6048894
  35.3300802  50.1199993  15.2653271  35.0275486  50.5678477  14.6975203
  41.8731908  45.9219821  12.1674924  42.3443086  46.6360084  12.3364909
  42.2092086  45.3218571  12.7034793  41.9927023  45.9391285  12.2707300
  38.7901403  30.6947292  19.1233019  38.9229308  29.8978285  19.4513994
  39.1746556  31.2213695  19.7031294  38.8657732  30.6547208  19.2576522
  42.5105854  45.7137755  18.9302616  41.9626800  45.0895639  18.6622682
  42.9718883  45.9032027  18.2146696  42.4973064  45.6496805  18.7853048
  41.8633758  27.6177618  15.7214112  41.0579722  27.5075347  16.0381950
  41.7340493  27.7190074  14.8643978  41.7253891  27.6161288  15.6422152
  45.3199718  33.7823110  16.3153809  44.7362707  34.2832316  15.9031376
  45.6404013  33.2752666  15.6818132  45.2812894  33.7814945  16.1612316
  37.8594518  32.6963705   6.5912484  38.6810212  32.8662017   6.3494178
  37.3964169  32.8510965   5.8678781  37.9125680  32.7445437   6.4484128
  36.4489850  30.6906467  17.3710912  36.9934263  30.3497594  17.9615254
  36.5026785  31.5491928  17.5132197  36.5378969  30.7661726  17.4792786
  32.2620408  44.4522883  14.2449720  32.8665266  44.4118717  13.6163541
  32.0547721  45.2994035  14.2753776  32.3209306  44.5710885  14.1565837
  42.0764180  46.7188828  15.4611958  42.8962554  46.5751794  15.7228253
  41.7958258  47.3435027  16.0028396  42.1560924  46.7899180  15.5799897
  27.4971691  43.4357500  14.1148643  27.3995969  42.6253772  14.4238700
  28.2800560  43.4149294  13.7294911  27.5987827  43.3124590  14.1035506
  58.5477831  54.3753680   8.4254834  58.5171835  55.2298316   8.5973103
  59.1459180  54.0748972   8.9840978  58.6314989  54.4570176   8.5329636
  51.7477516  53.4629331  13.1807764  50.8915411  53.6237829  13.2316881
  51.7945169  52.5921395  13.2012825  51.6276627  53.3580133  13.1913830
  46.1318655  62.9992049   8.9444996  45.3801555  62.6207587   8.7161041
  46.5804667  63.0310482   8.1963806  46.0868322  62.9477656   8.8002498
  55.0571232  59.7315856  22.7868221  55.7637999  59.2367887  22.9155155
  55.2459168  60.1724938  22.0570879  55.1899138  59.7234207  22.6977266
  54.5929337  55.5221375  15.8239416  55.1385297  56.2006461  15.8833386
  54.5346213  55.3808835  14.9640998  54.6645251  55.6013376  15.7051477
  47.7103412  63.0110441  11.2107768  47.8113774  62.2010795  11.5204896
  47.1145157  62.9167387  10.5807447  47.6375950  62.8775469  11.1634007
  47.5504151  67.9288030  12.6122625  48.1941607  68.3701194  13.0018783
  47.8760407  67.1241456  12.5252883  47.6935980  67.8753225  12.6568102
  40.9068456  59.0330727  10.8360102  40.6718640  58.1998380  10.7292371
  41.0454097  59.3135393  10.0221303  40.8924118  58.9514231  10.7002457
  43.2058543  51.2016458  13.7344410  42.5863575  50.6109105  13.5654425
  43.1042407  51.7927893  13.1008733  43.0996219  51.2020540  13.6149399
  50.3026439  52.9416000   8.0676873  51.0006604  53.1204127   8.5598336
  50.6178771  52.4186339   7.4447262  50.4521776  52.8909772   8.0478883
  42.9327676  54.7468740  15.9787979  42.8086373  55.3331185  16.6137798
  43.5845961  54.2528935  16.2800254  43.0101326  54.7607544  16.1173908
  50.4914374  59.3286445   8.0556664  50.9308010  58.7203545   8.5011437
  50.3419037  58.9493818   7.2842129  50.5335840  59.1824916   8.0075832
  47.9586017  57.9230457  15.2575490  48.6035020  57.4302900  14.9386438
  48.1987794  58.0655243  16.0841568  48.0896602  57.8707899  15.3325023
  50.4972109  60.7685362  14.9082382  50.7795352  59.9736768  14.6869138
  51.2258269  61.2465950  14.9287443  50.6461672  60.7219959  14.8785398
  48.4753303  48.3108396  12.1498148  48.1456633  48.7619540  11.4801846
  47.7998304  48.2324560  12.6971154  48.3263739  48.3659531  12.1321371
  55.6829710  44.2993919  10.3947758  55.3683151  44.9897398  10.8268181
  55.1656652  44.2438701   9.6933259  55.5594181  44.3928808  10.3544707
  60.4790197  59.8744725  11.8818213  59.6487900  60.0855368  12.0451630
  60.4299449  59.0481779  11.6060497  60.3496932  59.7834331  11.8655579
  42.4685781  63.9116398  12.1116308  41.9853359  64.6366888  12.0875892
  43.2809099  64.2092528  12.2226466  42.5176528  64.0618752  12.1243588
  48.5399935  62.7048579  14.7166123  48.0226876  62.3455994  14.1127431
  49.2374326  62.1810753  14.7272189  48.5665516  62.5746267  14.6296381
  52.1963527  63.1543393  20.6782296  52.2846872  62.9669533  21.5260506
  52.6253239  62.5080822  20.2787143  52.2725629  63.0306400  20.7454047
  49.7633986  62.4374553  19.6599958  49.2004821  62.0247163  20.1839619
  50.5255010  62.3627458  20.0793101  49.7928435  62.3651953  19.7992958
  46.6809257  46.3720685   7.6321095  47.4355225  46.7399002   7.3938145
  46.5036791  46.7460239   8.4000275  46.7663735  46.4818873   7.7105984
  45.3229978  64.4272574  12.2636588  46.0250557  63.9124563  12.3209345
  45.2427461  64.7546725  13.0683463  45.4153738  64.3986800  12.3909380
  59.9744155  52.5215125  15.6768635  59.1372576  52.5917312  15.9116229
  59.9432386  52.5239620  14.8042937  59.8462438  52.5325352  15.5828183
  45.0366321  48.7791004   4.3299208  44.8541894  48.9962885   3.5040201
  45.8991934  48.8930016   4.3857823  45.1370911  48.8280902   4.2153695
  44.6480753  60.6178926  11.7722196  45.4869653  60.8501859  11.8195958
  44.6792522  59.7483237  11.7029232  44.7762471  60.5235872  11.7686841
  45.2733456  61.0379801  16.0735502  45.8131681  60.8950932  16.7438874
  44.5903402  61.4376552  16.4419528  45.2525610  61.0759472  16.2269923
  50.7166040  45.7817414   7.3648232  51.4452201  45.6033369   6.9186388
  50.8060933  46.6235494   7.5755410  50.8372702  45.8801293   7.3301750
  54.6974341  56.7170802  11.2680526  55.4531856  57.1502316  11.3069435
  54.8036666  56.0675571  11.8415162  54.8244512  56.6848286  11.3578552
  57.7354512  60.5444079  12.0182929  57.2989744  60.5480821  12.7741900
  57.4017428  61.2249578  11.5862507  57.6217132  60.6456535  12.0663762
  40.6770601  57.2580092  16.2269923  40.4109017  56.4419209  16.3860914
  40.6909165  57.3033247  15.3565439  40.6395324  57.1436997  16.1223405
  57.6551995  47.5857907  14.2612357  58.2977904  47.6556011  14.8474272
  57.9075016  46.9187130  13.7591899  57.7874127  47.4984255  14.2739636
  44.5828348  52.0565176   2.8421681  43.8686525  51.7703356   3.2544114
  45.0672317  52.3961802   3.4828069  44.5487712  52.0646826   2.9977316
  52.4653979  64.4962514  16.9892535  51.6669225  64.2562014  17.2466404
  52.9139991  64.5476907  17.7359583  52.4128590  64.4684905  17.1377459
  60.8698858  57.2624999  10.9102566  61.5315293  56.7015667  10.8098475
  60.2290270  56.7677030  11.2355257  60.8727726  57.1061408  10.9434906
  41.0864015  58.0438871  13.5081668  40.9039588  58.0185757  12.6553960
  41.8213684  58.5137809  13.5470576  41.1678079  58.1100234  13.3879586
  57.1563689  58.2790381  10.6514555  57.3919278  58.4235580   9.8241406
  57.3053253  59.0432789  11.0446069  57.2129492  58.4129436  10.5878159
  54.1986035  54.9656950   9.1707739  54.2932889  55.7046244   9.6247364
  53.5744879  54.5374425   9.6042304  54.1195065  55.0118271   9.3015887
  52.4538509  58.1443163  19.8198020  53.0277370  57.5070407  19.9746584
  52.3753313  58.1447245  18.9507678  52.5271744  58.0508274  19.7144431
  41.0534925  54.9232372  13.6580734  41.6308428  54.7868823  14.2972979
  40.3548987  54.4668156  13.9126318  41.0355947  54.8354638  13.7903024
  47.8102227  56.5766428  11.8719217  47.5521472  55.7438163  11.8450517
  47.8650710  56.8024041  11.0311718  47.7802005  56.4864199  11.7439354
  52.8903278  48.6794878  11.9723310  52.1859604  48.1904064  12.1307229
  52.9388252  48.6917353  11.1011754  52.7933329  48.6084526  11.8662650
  46.7836940  54.1304190  12.3584112  46.2086531  54.2896358  12.9948073
  46.4072616  53.4939599  11.8952563  46.6439752  54.0602003  12.3838670
  50.4510228  52.6027539  17.2176490  50.0624661  52.1781757  16.5628682
  49.7864927  52.8509689  17.7253517  50.2957156  52.5766261  17.1964358
  60.0933497  52.3602544   9.9924321  59.8370062  51.5482486   9.8022203
  60.9362811  52.3680111   9.7654508  60.1799523  52.2414542   9.9309138
  36.5293758  53.7744265  10.3728553  36.6154010  53.3976133  11.1542083
  37.1569556  53.4004711   9.8948511  36.6350309  53.6629747  10.4174030
  54.2736590  46.3002168  14.7300475  54.6547102  45.6180339  15.1168349
  53.4699874  46.0111770  14.5476139  54.2113052  46.1569217  14.7604531
  57.7758657  59.5152140  19.8282873  57.5397294  58.6840205  19.7094934
  58.4201886  59.4637747  20.4137717  57.8353327  59.3849828  19.8968767
  47.4257075  60.3047661  10.5425610  48.0631022  60.0659409  11.0877403
  47.8512146  60.5084820   9.8078770  47.5833241  60.2998672  10.5142767
  42.1169717  62.5435998  14.4259913  42.1573862  62.8150849  13.5979693
  42.6764241  63.0677906  14.8417701  42.2053063  62.6611753  14.3651801
  48.0659890  55.5249951   4.8800499  48.4505043  55.3057658   5.6317044
  47.8171510  56.3512897   5.0101575  48.0861962  55.6148097   5.0101575
  58.7995077  59.2996589  15.8911168  58.4940894  60.0324646  16.2524483
  58.0801293  58.8934518  15.6103954  58.6482420  59.3478322  15.9024305
  49.8078547  60.7820084  12.2219396  49.8817555  60.6195256  13.0761246
  50.6248053  60.9710274  11.9779877  49.9394905  60.7856826  12.3117421
  64.4996869  55.9389590  15.2179512  64.4321370  55.9585549  14.3482098
  64.4852532  56.7819917  15.4435182  64.4875626  56.0663324  15.1231989
  43.5684303  61.1277947   9.2513839  42.7422421  61.3739684   9.1248118
  43.6296295  61.0490028  10.1175897  43.4558470  61.1522896   9.3602784
  45.7860327  47.1946888  10.2109279  44.9182753  47.2669487  10.2766889
  46.0735531  47.9968967  10.3997255  45.7000075  47.3241035  10.2484046
  54.9093216  47.3424747  18.5420601  55.6546808  47.1534558  18.1284027
  54.4930521  47.8682985  17.9834458  54.9578190  47.3926893  18.3985175
  62.2855487  54.7133976  13.4926106  62.8363408  54.0802045  13.7323198
  62.2699602  55.2449369  14.1841611  62.3640683  54.6982924  13.6304964
  48.9377878  58.5472573  18.0386000  48.4389571  59.2588341  18.1170888
  49.7478102  58.8673240  18.0004162  48.9833984  58.6999422  18.0442568
  46.2889048  65.7222210  10.0193019  46.0689343  65.4319564  10.8119686
  46.0683570  65.0637165   9.4910931  46.2236642  65.5821918  10.0581928
  45.2005995  57.8095526  12.2848721  44.9119244  57.1832997  12.8194448
  46.0689343  57.7515813  12.3513401  45.2866247  57.7083070  12.3739675
  55.9883893  52.9530309  12.6030702  55.6448659  52.2320645  12.9537952
  56.0876936  52.7444161  11.7609061  55.9525936  52.8154513  12.5302382
  45.4038269  59.4490777   8.2091086  46.1584237  59.8303816   8.4226548
  44.8108881  59.9001921   8.6637782  45.4274982  59.5719604   8.3073964
  46.7236495  60.6199338  13.5831201  46.2017249  60.7599630  14.2683066
  47.1110515  59.8610003  13.7733318  46.7040196  60.5284862  13.7132278
  43.7127679  50.6705147   7.6526156  43.4252475  50.3006418   6.9158103
  44.3998147  51.1400003   7.3909861  43.7716577  50.6852117   7.5041231
  48.1502821  57.6503358   8.9812692  47.9545603  58.2578092   8.3872995
  48.3737166  56.9571301   8.5004366  48.1537462  57.6380883   8.8228773
  46.5481351  54.5358095   9.0993560  47.2704003  54.6999254   8.6397366
  46.0689344  55.2567760   8.9932900  46.5845081  54.6656325   9.0159174
  54.5074858  50.8721894  14.4790245  53.6685959  50.8983173  14.2428509
  54.5779226  51.5192630  15.0595592  54.3943252  50.9718020  14.5299362
  52.9544137  47.7707271   9.2117861  53.6570489  47.5715020   8.7337820
  52.6888325  46.9983214   9.5186705  53.0190769  47.6270237   9.1863303
  58.3832382  56.0789881  11.7651487  58.2966357  56.2345307  12.6186266
  57.9282862  56.7227957  11.3910892  58.3035639  56.1965636  11.8358594
  41.2855874  51.4486360   8.5011437  41.3872010  52.2512521   8.8292412
  42.0811761  51.2473696   8.2034517  41.4183779  51.5372258   8.5046792
  42.1019606  51.5633538  16.2432558  41.9605098  50.7117479  16.3677066
  42.3860169  51.6062199  15.4194764  42.1227452  51.4433288  16.1400182
  52.2558198  53.4000628  10.3877047  52.0092913  53.3196379  11.2213836
  52.5843321  52.6154096  10.1939574  52.2679442  53.2726893  10.4824570
  56.1506247  60.1083987  14.1763828  56.0120606  60.8065033  14.6812570
  55.3706245  59.9532644  13.8200010  56.0149474  60.1884154  14.1990102
  54.4884332  56.4080363  20.4286210  54.4832371  55.5360179  20.4328636
  55.1945326  56.6068532  19.9555665  54.5929336  56.3084237  20.3593245
  50.3875143  55.3347515  17.5825161  49.6398457  55.5278529  17.1773439
  50.5416668  54.5092735  17.3449283  50.2997571  55.2412626  17.4870567
  47.2882981  64.3260118  16.6661057  47.4372544  63.7663034  16.0134461
  48.0682983  64.4052120  17.0493575  47.4257074  64.2545684  16.6258006
  49.8136281  64.4974761  17.9445547  49.7379952  63.8283572  18.4996336
  49.7426140  65.1992550  18.4586214  49.7916888  64.5019669  18.1022395
  50.6276920  49.2298066  18.4720565  51.0849534  49.9622040  18.5993357
  50.7033249  48.8064531  19.2307821  50.7067890  49.2755304  18.6021642
  48.5059298  51.2200170  15.3162389  47.7155373  51.0391630  15.6379725
  48.9019921  50.4427122  15.2992684  48.4476174  51.0787631  15.3614937
  53.8902984  58.8542600  13.0421835  53.2147986  58.6227832  13.5435222
  53.8995360  58.2463783  12.4163940  53.7921489  58.7301525  13.0237987
  51.0197128  53.6960429  19.7985888  50.9556269  54.5570385  19.6706025
  51.1594316  53.3792422  18.9981439  51.0312598  53.7760595  19.6614101
  49.7016222  56.3892568  13.9402091  49.2778471  56.5897067  13.2041109
  49.5261077  55.5421416  14.0526391  49.6127103  56.2941350  13.8475781
  49.2027916  67.9043081  16.4023548  49.6923846  67.2053870  16.2199213
  48.6312148  67.6066951  16.9899605  49.1912445  67.7569305  16.4624589
  44.9898667  56.8844620   9.3730063  45.1463286  56.8191422  10.2286055
  45.3299260  57.6593172   9.1608743  45.0631902  56.9893818   9.4684658
  51.5277812  56.2602503   8.2423427  52.0693357  55.7572884   8.7062047
  51.8424371  56.2067698   7.4312912  51.6542209  56.1781924   8.1907239
  55.3994919  60.4705151  25.3550339  56.2129784  60.1990299  25.5155471
  55.2389885  60.1712690  24.5510535  55.4964868  60.3860077  25.2595745
  52.6767081  51.1538808  18.2945727  52.8909051  50.5149722  17.7409081
  52.0600980  51.5984632  17.8653589  52.6172410  51.1248951  18.1496158
  41.5632929  54.0679570   9.6890831  41.9431893  54.4864115   9.0251098
  40.9888293  54.6493026   9.9959674  41.5344253  54.2157429   9.6367572
  54.8406169  52.7627873  19.2329034  54.0282851  52.4553763  19.3142207
  55.2996104  52.2826873  19.7971746  54.7886554  52.6464365  19.3283628
  52.0681810  44.2638743  13.2833070  51.1975368  44.2377464  13.2366379
  52.3222151  44.0915936  12.4658916  51.9775370  44.2348887  13.1553207
  49.0930950  46.2744972  14.7406540  48.5769439  45.5825163  14.8658119
  48.5324879  46.9415749  14.6869139  48.9337463  46.2708229  14.7512606
  51.1623184  46.8137932  16.5699393  50.7754937  46.8386963  17.3512923
  50.6756121  46.2479610  16.1173909  51.0335693  46.7333683  16.6187297
  55.4116163  61.5311441  20.6273179  56.0495884  61.0371636  20.2935635
  54.7690255  61.4588841  20.0425406  55.4110390  61.4470449  20.4915534
  57.1373163  53.3800587  15.1939095  56.7100771  53.2926935  14.4387195
  56.4999216  53.4878362  15.7793939  56.9802770  53.3833247  15.1684537
  50.8280325  43.7004917  18.8609653  51.4573443  44.2365217  18.5830723
  50.9966188  43.6082276  19.7123218  50.9458120  43.7666280  18.9458181
  55.4670420  62.2231249  17.2678536  56.2562798  61.8720314  17.3880618
  55.6414017  63.0367637  17.0055170  55.6090701  62.2917106  17.2466404
  45.2063730  55.6339975  14.3206325  44.3651737  55.5343849  14.5285219
  45.4153738  56.4035455  14.6720646  45.1128423  55.7332018  14.4033640
  42.6839297  53.2559512  12.1491076  42.2895995  53.3302524  11.3741185
  42.1279414  53.6417458  12.6999437  42.5442109  53.3241286  12.1158735
  54.3204244  46.2340806  11.8294955  54.5253837  46.1663114  12.6751952
  53.9930668  47.0399627  11.7616132  54.3019492  46.3426746  11.9454610
  49.0180395  53.5621374  13.5703923  48.7143532  53.0077362  14.1714330
  48.3159816  53.7413584  13.0831957  48.8696605  53.5066156  13.5873628
  48.0746492  50.8721894   8.1348624  48.3506226  50.1540806   7.7226192
  48.6745161  51.4706814   7.9269730  48.2039757  50.8542265   8.0429386
  47.0798746  60.7771095  18.2776020  46.9719101  60.7873157  19.1438078
  47.2894527  61.6025875  18.0880974  47.0948857  60.9012170  18.3780112
  57.5737932  46.7872570  11.3097720  56.9612245  47.2742972  11.6951452
  57.6702106  46.1116061  11.8535371  57.4975829  46.7590879  11.4476578
  51.5757013  48.5435411   6.4095219  52.0300759  48.7145972   7.1343064
  52.0497058  47.9303522   6.0092995  51.7125333  48.4786296   6.4568981
  45.0972538  58.0283737  15.7397958  44.5060471  58.6693235  15.7100973
  45.8593561  58.4521354  15.7129257  45.1220799  58.1859576  15.7313105
  45.4933161  49.1885735  16.4065975  45.9534642  49.2624664  17.1441099
  45.5389267  49.9866989  16.0565797  45.5683716  49.3179882  16.4638732
  61.2162959  57.8589507  16.7375236  61.2746083  58.3076156  17.4835213
  60.5829427  58.2688320  16.3005316  61.1314255  57.9863241  16.7827784
  54.8562054  63.4793049  13.1729982  54.6581743  63.9683863  12.4786194
  54.2349765  63.6834290  13.7514116  54.7349619  63.5809587  13.1553206
  48.9170033  55.2477946   7.5140227  49.6612077  55.6352222   7.7523176
  49.0630729  54.4035371   7.6780714  49.0480618  55.1808418   7.5734196
  50.8349608  47.0428204  12.5472088  49.9885653  47.2151012  12.4213438
  50.8320740  46.2377548  12.8837916  50.7096758  46.9489233  12.5783215
  51.9047908  50.8203419  13.4134146  51.4307863  50.2945181  13.9239457
  52.2766044  50.2732892  12.8449007  51.8897797  50.6619415  13.4049293
  58.1684639  55.8805795  14.8240926  57.9282862  55.0412210  14.8283353
  58.6476646  55.9605961  15.5481700  58.2036823  55.7687194  14.9315729
  53.8331408  51.7139973   6.4759900  53.3054427  51.7968717   5.7865609
  54.2927116  52.4557845   6.4724544  53.8233258  51.8360636   6.3734595
  60.1689826  52.6607252  12.7770186  59.9299596  52.6203086  11.9390970
  60.3323727  53.5078404  12.9035907  60.1580129  52.7799337  12.6723668
  56.7735856  57.0457201  18.7075231  57.4970055  56.5929727  18.5286251
  56.5085818  57.3261867  17.9247559  56.8417129  57.0208170  18.5653946
  45.6422724  51.6417375  15.4428110  45.0175795  51.6535767  14.8354063
  45.3068319  52.1177550  16.0919350  45.5008216  51.7135892  15.4484678
  45.8264473  49.9842493   1.5000795  45.4777278  50.6362218   1.9632344
  45.3460919  49.9699606   0.7724666  45.7034717  50.0785547   1.4611886
  42.3548400  59.7017835  16.8831874  41.8248325  59.0110274  16.9326849
  42.6273493  59.6928020  16.0544583  42.3173122  59.5984966  16.7679290
  52.5554646  57.1441079  16.8570246  51.9411639  56.5999130  17.1518881
  53.0721931  56.6305316  16.3776062  52.5410308  56.9877488  16.8294474
  51.7950943  58.2145349  14.5914544  51.3678551  57.5895068  14.1579980
  51.7875887  57.9320271  15.4173552  51.7310084  58.0798130  14.6494372
  44.9113470  53.2510522  17.6602978  45.0706957  52.4953846  18.0654700
  44.7306363  53.8001462  18.3143716  44.9078829  53.2204336  17.8165684
  52.8533773  45.4171758  18.2153768  52.3574334  45.6135432  17.5245335
  53.6102835  45.8164426  18.0442570  52.8920598  45.5049492  18.0873905
  50.1236652  49.0914104  14.8057078  50.1479140  48.5574216  14.1169858
  50.3748126  48.5831413  15.4682669  50.1646571  48.9375008  14.8021723
  37.6344242  56.3745599  14.2400222  37.5287691  56.3292443  13.3752307
  36.8844462  56.7199379  14.5214507  37.5079845  56.4186507  14.1537552
  46.4037975  47.8184922  14.1862823  46.4436346  48.3194129  14.8997530
  45.5787639  47.9095316  13.9168746  46.2877501  47.9066738  14.2513361
  47.8252338  54.3345432  16.4836722  46.9944268  54.5019250  16.2771970
  47.7703855  53.9581383  17.2685607  47.6941753  54.3035163  16.5685250
  46.1988382  52.6101023   7.0126839  46.3391343  53.1073488   7.7155481
  46.6970915  51.9087318   7.1541053  46.2929463  52.5803002   7.1378418
  46.2288604  53.4768134   4.3419416  46.8633684  54.0728559   4.2768878
  46.3114215  53.1771592   5.1565286  46.3345155  53.5209043   4.4522503
  59.2071170  56.0083612  17.2105780  59.7989010  56.6480863  17.2423978
  59.6430165  55.3106649  17.4997847  59.3589601  56.0001962  17.2586613
  47.8067587  49.4082110   4.3164858  48.1283428  48.9285192   3.6624121
  48.0694531  50.2181756   4.1255670  47.8933613  49.4572008   4.1920350
  51.0364560  60.4300984  17.8363674  50.5289651  60.9836831  18.2804305
  50.7391206  60.4909274  17.0182449  50.9169445  60.5207295  17.7812131
  53.2026742  48.7954304  16.6788337  53.6281814  48.3426830  16.0671864
  52.5883735  48.2414375  16.9553125  53.1755388  48.6468280  16.6293363
  42.7341592  55.6735975   7.6108962  43.2433822  56.2700483   7.9920268
  43.2075864  55.4061949   6.9285382  42.8784968  55.7221791   7.5663485
  51.6420965  45.2669404  10.0878914  50.9989283  45.1167050  10.6564053
  51.3020372  45.0211749   9.3228019  51.4966042  45.2081526  10.0581929
  56.2320311  53.2228830   9.5108923  55.5611501  53.7658533   9.3821988
  56.9260062  53.6923686   9.2690618  56.2349179  53.3727102   9.4564451
  50.2807045  65.3625542  14.7420681  50.0572700  64.6044372  15.1104708
  49.7916888  65.3923564  14.0201121  50.1750494  65.2547767  14.6897422
  56.3948439  49.6784714  12.4199296  56.7476049  49.2514437  13.0945095
  55.5363240  49.5935558  12.5500373  56.3197884  49.6029455  12.5394307
  45.0932124  52.3092234  10.4782143  44.3744113  52.7256366  10.7455006
  45.4644486  52.8746473   9.9273781  45.0424056  52.4541515  10.4364950
  54.3931705  52.9420083  16.3684138  54.3729632  52.7603378  17.2218917
  54.4410905  53.8132101  16.3443722  54.3966346  53.0436621  16.4907433
  52.3378035  59.5307275  22.2932615  52.2973889  58.8856952  21.7077771
  53.1501353  59.4743892  22.6058027  52.4521188  59.4266242  22.2529564
  48.9285502  65.5826001  12.1957766  48.5145901  64.9200131  11.8061608
  49.6132876  65.7303859  11.6753460  48.9683874  65.5066659  12.0614263
  52.2950796  64.7416086  12.9481382  51.8967079  64.8518356  12.1802203
  51.6802016  64.9498152  13.5307942  52.1449686  64.7889654  12.9212682
  50.8678698  51.3490234   5.8155522  50.2743538  51.6707230   5.2640089
  50.9053976  50.5031329   5.6076628  50.7853087  51.2714562   5.7038293
  57.8272499  44.8003126  13.3483609  57.3203364  44.0932265  13.2804786
  58.6239933  44.4696315  13.4784685  57.8699738  44.6476277  13.3582604
  53.7436515  51.3069738   9.2457272  53.5150208  51.3302440   8.4035631
  54.0034591  50.4827205   9.3652283  53.7482703  51.1885818   9.1382470
  46.7981277  49.8446284  10.5411468  47.2738644  50.2063364   9.9061649
  46.2969877  50.5002752  10.8211611  46.7946636  49.9940473  10.4888209
  51.9024814  51.0828456  21.2884628  52.4596244  50.8542265  20.6563094
  51.5785879  51.8434121  21.0119841  51.9371224  51.1612293  21.1541125
  48.8407930  51.9887484   3.9084852  49.2206895  52.0067113   3.1235967
  48.1000527  52.4341473   3.7875699  48.7876768  52.0569259   3.7748420
  56.4693221  50.2969675   9.4960431  56.4687447  50.1418332  10.3544707
  56.2649401  51.1432663   9.4401816  56.4392999  50.3990296   9.6148370
  38.5310492  53.7209460  13.9119247  38.3532253  53.2686069  14.6374163
  38.2429514  54.5235621  14.0957725  38.4623445  53.7732018  14.0462750
  54.1934073  54.9767177  13.1496638  54.6887738  54.2590172  13.1100658
  53.3833849  54.6737975  13.0351125  54.1477966  54.8264824  13.1270363
  40.2682962  56.2537184  11.0241006  39.4028481  56.2422874  10.9123778
  40.3681778  56.0667407  11.8712146  40.1557129  56.2243245  11.1329951
  56.2585892  57.7270865  15.8373766  56.6840963  57.2045287  15.2844191
  55.8942812  58.3251702  15.3162389  56.2672495  57.7381092  15.6782776
  45.8939972  66.0235082  14.5971112  46.2086531  66.8371471  14.6048894
  46.3033385  65.6385301  15.2653271  46.0008070  66.0863785  14.6975203
  52.8464491  61.4405129  12.1674924  53.3175670  62.1545392  12.3364909
  53.1824670  60.8403879  12.7034793  52.9659606  61.4576593  12.2707300
  54.9341476  63.0506442  24.3466996  55.0438441  62.2615003  24.7023743
  55.2632373  62.9612379  23.5441334  54.9993882  62.9212295  24.2809387
  53.4838438  61.2323063  18.9302616  52.9359384  60.6080947  18.6622682
  53.9451466  61.4217335  18.2146696  53.4705647  61.1682113  18.7853048
  52.8366342  43.1362926  15.7214112  52.0312305  43.0260655  16.0381950
  52.7073077  43.2375381  14.8643978  52.6986474  43.1346596  15.6422152
  56.2932302  49.3008418  16.3153809  55.7095291  49.8017624  15.9031376
  56.6136596  48.7937974  15.6818132  56.2545477  49.3000253  16.1612316
  48.8327101  48.2149012   6.5912484  49.6542796  48.3847325   6.3494178
  48.3696752  48.3696273   5.8678781  48.8858263  48.2630745   6.4484128
  47.4222433  46.2091775  17.3710912  47.9666846  45.8682901  17.9615254
  47.4759369  47.0677236  17.5132197  47.5111553  46.2847034  17.4792786
  43.2352992  59.9708191  14.2449720  43.8397849  59.9304025  13.6163541
  43.0280304  60.8179343  14.2753776  43.2941889  60.0896193  14.1565837
  53.0496764  62.2374136  15.4611958  53.8695138  62.0937102  15.7228253
  52.7690842  62.8620335  16.0028396  53.1293507  62.3084488  15.5799897
  38.4704274  58.9542808  14.1148643  38.3728552  58.1439080  14.4238700
  39.2533144  58.9334602  13.7294911  38.5720411  58.8309898  14.1035506
  53.9060260  70.2654047  15.9787979  53.7818957  70.8516493  16.6137798
  54.5578544  69.7714243  16.2800254  53.9833909  70.2792852  16.1173908
  57.3441468  70.1833469  21.3917003  57.5161972  70.0739363  22.2402285
  57.8810825  70.8287874  21.1548196  57.4486472  70.2625470  21.4822100
  56.4001791  66.3143778  18.8736931  55.7073588  65.8440758  19.1197663
  57.0162119  66.0882083  19.4478638  56.3886321  66.2110910  18.9946084
  55.1242350  70.2809182  20.0163776  55.8482323  70.2662213  20.5028671
  55.2258487  70.9904537  19.5185744  55.2460559  70.3833885  20.0142563
  62.4987300  73.7608267  24.8812723  61.7060280  74.0751779  25.0665343
  62.6136227  73.9759735  24.0433508  62.3982710  73.8392103  24.7851058
  61.4242812  68.1212847  17.2176490  61.0357245  67.6967065  16.5628682
  60.7597510  68.3694997  17.7253517  61.2689740  68.0951568  17.1964358
  59.2061014  64.3241674  24.5963083  58.8914455  65.0941237  24.3332646
  58.8850946  63.7611930  24.0115310  59.1119933  64.3551943  24.4704433
  65.8825799  62.8610055  18.5420601  66.6279391  62.6719866  18.1284027
  65.4663104  63.3868293  17.9834458  65.9310774  62.9112201  18.3985175
  58.8377519  66.9238925  23.3348298  58.0277295  67.2296705  23.2238140
  59.3152206  67.6444508  23.4500882  58.7880998  67.0753527  23.3355369
  55.1721551  72.4601476  18.2047700  55.6842648  72.7385729  17.5556460
  54.8857894  73.1990770  18.5710513  55.2056414  72.6103829  18.1637578
  58.6905276  64.5527864  18.2648742  58.4988474  64.5682999  19.1148165
  59.5403872  64.7491539  18.2415397  58.7880998  64.5842216  18.3872037
  53.0752189  67.0818846  16.2432558  52.9337681  66.2302786  16.3677066
  53.3592753  67.1247506  15.4194764  53.0960036  66.9618596  16.1400182
  59.1887809  71.6542655  19.8000030  59.3331185  72.2343863  19.1643140
  59.5363458  72.0318951  20.5049884  59.2615270  71.7963359  19.8099025
  61.6009504  64.7483374  18.4720565  62.0582118  65.4807348  18.5993357
  61.6765832  64.3249839  19.2307821  61.6800473  64.7940612  18.6021642
  53.8442495  64.9949193  19.5610009  53.3084684  64.3829552  19.8770776
  53.9060259  65.5697329  20.2143675  53.7738127  64.9896121  19.7045435
  61.9929712  69.2145737  19.7985888  61.9288853  70.0755693  19.6706025
  62.1326899  68.8977730  18.9981439  62.0045182  69.2945903  19.6614101
  63.6499665  66.6724116  18.2945727  63.8641634  66.0335030  17.7409081
  63.0333564  67.1169939  17.8653589  63.5904994  66.6434259  18.1496158
  65.8138753  68.2813181  19.2329034  65.0015434  67.9739071  19.3142207
  66.2728687  67.8012181  19.7971746  65.7619137  68.1649673  19.3283628
  62.9092260  69.6873252  24.0157736  63.3791891  70.3115369  24.4025611
  62.9554140  69.0190228  24.5750951  62.9860136  69.6807933  24.1557808
  60.0663534  61.7930280  14.7406540  59.5502022  61.1010471  14.8658119
  59.5057463  62.4601057  14.6869139  59.9070047  61.7893537  14.7512606
  62.1355767  62.3323240  16.5699393  61.7487520  62.3572271  17.3512923
  61.6488704  61.7664918  16.1173909  62.0068276  62.2518991  16.6187297
  61.8012909  59.2190225  18.8609653  62.4306027  59.7550525  18.5830723
  61.9698772  59.1267584  19.7123218  61.9190703  59.2851587  18.9458181
  61.6026824  64.0061420  21.1336064  62.4300253  63.7346569  21.1894679
  61.6234670  64.8022262  21.4899882  61.7279674  64.0841174  21.1951247
  56.4665744  64.7071043  16.4065975  56.9267226  64.7809972  17.1441099
  56.5121851  65.5052297  16.0565797  56.5416300  64.8365190  16.4638732
  58.1149094  65.3737738  20.9738003  57.7234659  64.7271085  21.4093780
  58.2834957  65.9649173  21.5932258  58.0820004  65.3652006  21.1300709
  53.2553522  68.3360233  18.7817692  54.1179135  68.2355943  18.6955022
  52.9245305  67.7554943  18.2203264  53.3338718  68.2351860  18.6863098
  56.6155308  67.1602682  15.4428110  55.9908378  67.1721074  14.8354063
  56.2800903  67.6362858  16.0919350  56.4740800  67.2321199  15.4484678
  55.8846053  68.7695830  17.6602978  56.0439540  68.0139154  18.0654700
  55.7038947  69.3186770  18.3143716  55.8811412  68.7389644  17.8165684
  63.8266356  60.9357066  18.2153768  63.3306918  61.1320740  17.5245335
  64.5835418  61.3349734  18.0442570  63.8653181  61.0234800  18.0873905
  57.3770558  63.3370230  14.1862823  57.4168930  63.8379437  14.8997530
  56.5520223  63.4280624  13.9168746  57.2610084  63.4252046  14.2513361
  59.5600171  72.9030970  22.2883117  58.7095802  73.0402684  22.4240762
  59.7228299  72.1694748  22.7330819  59.4584035  72.8145071  22.3738716
  56.6068705  63.3439633  22.1193132  57.2321408  62.8001766  22.3922565
  56.1519185  62.8634550  21.5500923  56.6316966  63.1929114  22.0754726
  64.1759326  64.3139612  16.6788337  64.6014397  63.8612138  16.0671864
  63.5616319  63.7599682  16.9553125  64.1487971  64.1653588  16.6293363
  63.3110618  75.0492583  22.2932615  63.2706473  74.4042260  21.7077771
  64.1233936  74.9929200  22.6058027  63.4253772  74.9451549  22.2529564
  58.9988327  68.6789519  18.8482373  58.4867230  68.0710702  19.2067404
  58.8267823  69.3946112  19.3156348  58.8977964  68.6952818  18.9698596
  53.8454042  67.1227094  21.4984734  53.6756632  67.7828469  20.9532941
  53.4019991  67.3333656  22.2197223  53.7553375  67.2513077  21.5246364
  62.8757397  66.6013764  21.2884628  63.4328827  66.3727573  20.6563094
  62.5518462  67.3619429  21.0119841  62.9103807  66.6797600  21.1541125
  50.7456106  70.0273960  16.7573224  50.1982826  69.3574606  16.8754093
  51.5348484  69.6603808  16.8216691  50.7808290  69.8738946  16.7841925
  60.5940514  69.6881417  22.2536635  61.3451841  70.0033094  22.5676189
  60.7863091  69.4860588  21.4270557  60.7331929  69.7048799  22.1780031
  49.5043076  69.2394768  13.9119247  49.3264837  68.7871377  14.6374163
  49.2162098  70.0420929  14.0957725  49.4356029  69.2917326  14.0462750
  60.7366570  61.7317908  19.1233019  60.8694476  60.9348901  19.4513994
  61.1211723  62.2584311  19.7031294  60.8122899  61.6917824  19.2576522
  63.8098925  58.6548234  15.7214112  63.0044889  58.5445963  16.0381950
  63.6805661  58.7560689  14.8643978  63.6719058  58.6531904  15.6422152
  58.3955017  61.7277083  17.3710912  58.9399430  61.3868209  17.9615254
  58.4491952  62.5862544  17.5132197  58.4844136  61.8032342  17.4792786
  43.7789473  21.1508680   9.7208267  44.4856240  20.6560710   9.8495202
  43.9677408  21.5917761   8.9910925  43.9117378  21.1427030   9.6317313
  36.2722392  29.3480853  -0.4537329  36.9159847  29.7894017  -0.0641170
  36.5978647  28.5434279  -0.5407070  36.4154220  29.2946048  -0.4091851
  40.9181767  24.5736216   7.6122343  41.0065113  24.3862356   8.4600553
  41.3471479  23.9273646   7.2127189  40.9943869  24.4499224   7.6794094
  38.4852227  23.8567376   6.5940005  37.9223061  23.4439986   7.1179666
  39.2473250  23.7820282   7.0133148  38.5146675  23.7844777   6.7333005
  35.0927125  16.0840984   8.3257050  35.2647628  15.9746879   9.1742331
  35.6296482  16.7295390   8.0888242  35.1972129  16.1632986   8.4162147
  41.0301826  24.0045235  10.2766126  41.8142243  24.1176083  10.6421868
  40.8298421  23.1786372  10.4724812  41.1167852  23.8991954  10.3600512
  41.1872220  25.9155337   3.9232582  40.3887465  25.6754837   4.1806450
  41.6358231  25.9669730   4.6699629  41.1346831  25.8877728   4.0717506
  40.2472956  19.6615782  11.8152770  39.4545937  19.9759294  12.0005390
  40.3621884  19.8767250  10.9773555  40.1468367  19.7399619  11.7191105
  41.1756749  19.5635986   6.7538067  41.7495611  18.9263230   6.9086631
  41.0971553  19.5640068   5.8847724  41.2489984  19.4701097   6.6484478
  46.4976897  20.9344963   6.7622920  46.2615534  20.1033028   6.6434981
  47.1420126  20.8830571   7.3477764  46.5571568  20.8042651   6.8308813
  36.9546671  10.2249190  11.5303130  36.6400112  10.9948752  11.2672693
  36.6336603   9.6619446  10.9455357  36.8605590  10.2559458  11.4044480
  47.5213318  20.7189412   2.8251214  47.2159135  21.4517469   3.1864530
  46.8019533  20.3127342   2.5444000  47.3700660  20.7671145   2.8364352
  53.2215110  17.3582413   2.1519559  53.1539610  17.3778372   1.2822145
  53.2070772  18.2012740   2.3775229  53.2093866  17.4856147   2.0572036
  37.6596118  19.9665396   4.9726046  37.1607812  20.6781164   5.0510935
  38.4696342  20.2866063   4.9344209  37.7052225  20.1192245   4.9782615
  36.5863176  12.8246441  10.2688345  35.7762952  13.1304220  10.1578187
  37.0637863  13.5452023  10.3840929  36.5366655  12.9761042  10.2695416
  44.8724487  21.5276811   1.1103875  44.7338847  22.2257856   1.6152617
  44.0924485  21.3725467   0.7540056  44.7367714  21.6076977   1.1330149
  43.2102573  17.8273186   7.3626256  43.2050611  16.9553003   7.3668683
  43.9163566  18.0261355   6.8895712  43.3147577  17.7277060   7.2933292
  36.9373466  17.5550170   6.7340077  37.0816842  18.1351378   6.0983187
  37.2849114  17.9326467   7.4389931  37.0100927  17.6970874   6.7439071
  36.0101221  25.7452942   3.6001103  36.1590785  25.1855858   2.9474508
  36.7901223  25.8244943   3.9833622  36.1475315  25.6738507   3.5598052
  38.5354522  25.9167585   4.8785594  38.4598193  25.2476395   5.4336382
  38.4644381  26.6185373   5.3926260  38.5135128  25.9212492   5.0362442
  39.7415369  15.1153252   6.7325935  39.6774510  15.9763208   6.6046071
  39.8812556  14.7985245   5.9321486  39.7530839  15.1953419   6.5954148
  37.9246156  29.3235904   3.3363595  38.4142086  28.6246694   3.1539260
  37.3530388  29.0259774   3.9239652  37.9130686  29.1762128   3.3964636
  44.1213159  21.8897974  12.2890386  44.9348025  21.6183123  12.4495518
  43.9608126  21.5905514  11.4850582  44.2183108  21.8052900  12.1935791
  43.5624409  14.1820696   6.1669081  42.7501091  13.8746586   6.2482254
  44.0214344  13.7019696   6.7311793  43.5104794  14.0657188   6.2623675
  40.6577917  15.5880768  10.9497783  41.1277548  16.2122884  11.3365657
  40.7039797  14.9197743  11.5090998  40.7345793  15.5815448  11.0897855
  44.1334403  22.9504264   7.5613226  44.7714124  22.4564460   7.2275682
  43.4908495  22.8781665   6.9765453  44.1328630  22.8663273   7.4255581
  44.1888660  23.6424072   4.2018583  44.9781038  23.2913137   4.3220665
  44.3632258  24.4560461   3.9395217  44.3308942  23.7109929   4.1806451
  35.8016986  22.1963918   5.2116067  35.6937341  22.2065980   6.0778125
  36.0112768  23.0218698   5.0221021  35.8167097  22.3204993   5.3120159
  49.9381200  19.2782330   3.6715283  49.9964324  19.7268979   4.4175259
  49.3047667  19.6881143   3.2345363  49.8532495  19.4056065   3.7167831
  43.5780295  24.8985872   0.1070029  43.3799983  25.3876686  -0.5873760
  42.9568006  25.1027113   0.6854163  43.4567859  25.0002410   0.0893252
  45.4954096  18.4650024   5.6415277  46.2188295  18.0122551   5.4626297
  45.2304059  18.7454690   4.8587605  45.5635370  18.4400993   5.4993993
  41.2772886  18.5633902   3.7910293  40.6629879  18.0191953   4.0858928
  41.7940171  18.0498139   3.3116109  41.2628548  18.4070312   3.7634521
  37.3085828  18.8038485   9.2223164  36.4581458  18.9410200   9.3580809
  37.4713956  18.0702264   9.6670866  37.2069691  18.7152586   9.3078763
  47.9289410  17.4276435   4.1445827  48.5207251  18.0673686   4.1764025
  48.3648405  16.7299472   4.4337894  48.0807842  17.4194785   4.1926660
  39.7582800  21.8493807   4.7703721  39.2507891  22.4029654   5.2144352
  39.4609446  21.9102097   3.9522496  39.6387685  21.9400119   4.7152178
  39.0025286  26.7818366   1.6760728  38.7790940  26.0237195   2.0444754
  38.5135129  26.8116387   0.9541168  38.8968735  26.6740590   1.6237469
  41.0596275  20.9500098   9.2272662  41.0192130  20.3049775   8.6417818
  41.8719593  20.8936715   9.5398074  41.1739428  20.8459065   9.1869611
  41.0169037  26.1608909  -0.1178571  40.6185320  26.2711179  -0.8857750
  40.4020256  26.3690975   0.4647989  40.8667926  26.2082477  -0.1447271
  40.6243054  12.5021279   8.2224675  41.1814484  12.2735089   7.5903140
  40.3004119  13.2626945   7.9459887  40.6589464  12.5805116   8.0881172
  38.3426171  15.5888932   9.1876682  39.0937498  15.9040609   9.5016236
  38.5348748  15.3868103   8.3610604  38.4817585  15.6056314   9.1120078
  44.9804132  19.1463688   2.7713813  45.4059204  18.6238110   2.2184238
  44.6161052  19.7444525   2.2502436  44.9890735  19.1573915   2.6122823
  34.6158212  27.4427906   1.5311159  34.9304771  28.2564294   1.5388940
  35.0251625  27.0578124   2.1993318  34.7226310  27.5056608   1.6315250
  43.6559716  24.4699266  11.2807043  43.7656682  23.6807826  11.6363790
  43.9850613  24.3805202  10.4781381  43.7212122  24.3405119  11.2149433
  42.2056678  22.6515886   5.8642663  41.6577624  22.0273770   5.5962729
  42.6669707  22.8410158   5.1486743  42.1923888  22.5874937   5.7193094
  41.7715004  23.6566959   2.3952004  42.5913378  23.5129925   2.6568300
  41.4909082  24.2813158   2.9368442  41.8511748  23.7277311   2.5139944
  51.4428340  30.4007462   0.1147811  50.5866235  30.5615960   0.1656928
  51.4895993  29.5299526   0.1352872  51.3227451  30.2958264   0.1253877
  45.8269479  39.9370180  -4.1214957  45.0752379  39.5585718  -4.3498912
  46.2755491  39.9688613  -4.8696147  45.7819146  39.8855787  -4.2657455
  54.7522056  36.6693987   9.7208267  55.4588823  36.1746018   9.8495202
  54.9409992  37.1103069   8.9910925  54.8849962  36.6612338   9.6317313
  54.2880161  32.4599506   2.7579463  54.8336121  33.1384592   2.8173433
  54.2297037  32.3186967   1.8981044  54.3596075  32.5391507   2.6391523
  47.4054235  39.9488572  -1.8552185  47.5064598  39.1388926  -1.5455057
  46.8095981  39.8545518  -2.4852506  47.3326774  39.8153600  -1.9025946
  47.2454975  44.8666161  -0.4537329  47.8892431  45.3079325  -0.0641170
  47.5711231  44.0619587  -0.5407070  47.3886804  44.8131356  -0.4091851
  42.9009367  28.1394589   0.6684457  42.2814399  27.5487236   0.4994471
  42.7993231  28.7306024   0.0348780  42.7947043  28.1398672   0.5489446
  49.9977263  29.8794131  -4.9983080  50.6957428  30.0582258  -4.5061617
  50.3129595  29.3564470  -5.6212691  50.1472600  29.8287903  -5.0181070
  42.6278500  31.6846871   2.9128026  42.5037197  32.2709316   3.5477844
  43.2796785  31.1907066   3.2140301  42.7052150  31.6985675   3.0513955
  50.1865198  36.2664576  -5.0103289  50.6258834  35.6581676  -4.5648516
  50.0369861  35.8871949  -5.7817824  50.2286664  36.1203047  -5.0584121
  47.6536841  34.8608588   2.1915537  48.2985844  34.3681031   1.8726485
  47.8938618  35.0033374   3.0181615  47.7847426  34.8086030   2.2665070
  50.1922933  37.7063494   1.8422429  50.4746175  36.9114899   1.6209185
  50.9209093  38.1844081   1.8627490  50.3412496  37.6598090   1.8125444
  48.1704126  25.2486527  -0.9161806  47.8407456  25.6997671  -1.5858107
  47.4949128  25.1702691  -0.3688799  48.0214563  25.3037663  -0.9338582
  60.1741021  36.8122856  -1.1841740  59.3438724  37.0233499  -1.0208323
  60.1250273  35.9859910  -1.4599456  60.0447756  36.7212462  -1.2004374
  42.1636604  40.8494529  -0.9543645  41.6804183  41.5745019  -0.9784061
  42.9759923  41.1470659  -0.8433487  42.2127352  40.9996883  -0.9416366
  48.2350759  39.6426710   1.6506170  47.7177700  39.2834125   1.0467478
  48.9325150  39.1188884   1.6612236  48.2616340  39.5124398   1.5636428
  51.8914350  40.0921524   7.6122343  51.9797696  39.9047664   8.4600553
  52.3204063  39.4458954   7.2127189  51.9676453  39.9684532   7.6794094
  49.4584810  39.3752684   6.5940005  48.8955645  38.9625294   7.1179666
  50.2205834  39.3005590   7.0133148  49.4879259  39.3030084   6.7333005
  45.0180802  41.3650705  -0.8023365  45.7201381  40.8502694  -0.7450608
  44.9378285  41.6924856   0.0023510  45.1104562  41.3364931  -0.6750573
  59.6694979  29.4593256   2.6108681  58.8323400  29.5295443   2.8456276
  59.6383210  29.4617751   1.7382984  59.5413262  29.4703483   2.5168229
  46.0659708  31.6026292   8.3257050  46.2380212  31.4932187   9.1742331
  46.6029066  32.2480697   8.0888242  46.1704712  31.6818294   8.4162147
  44.3431577  37.5557057  -1.2937757  45.1820477  37.7879990  -1.2463995
  44.3743346  36.6861369  -1.3630722  44.4713295  37.4614004  -1.2973112
  44.9684280  37.9757932   3.0075549  45.5082505  37.8329063   3.6778921
  44.2854226  38.3754683   3.3759575  44.9476434  38.0137603   3.1609970
  54.3925165  33.6548933  -1.7979427  55.1482680  34.0880447  -1.7590518
  54.4987489  33.0053703  -1.2244791  54.5195336  33.6226417  -1.7081402
  57.4305336  37.4822210  -1.0477024  56.9940568  37.4858953  -0.2918053
  57.0968252  38.1627709  -1.4797447  57.3167956  37.5834666  -0.9996192
  52.0034410  39.5230543  10.2766126  52.7874826  39.6361391  10.6421868
  51.8031004  38.6971680  10.4724812  52.0900435  39.4177262  10.3600512
  40.3721425  34.1958223   3.1609970  40.1059840  33.3797340   3.3200960
  40.3859989  34.2411379   2.2905486  40.3346148  34.0815128   3.0563452
  57.3502819  24.5236038   1.1952404  57.9928727  24.5934143   1.7814319
  57.6025840  23.8565261   0.6931946  57.4824951  24.4362387   1.2079683
  45.1220032  27.7336601   5.8076978  44.4291828  27.2633581   6.0537709
  45.7380359  27.5074906   6.3818685  45.1104562  27.6303733   5.9286130
  60.5649682  34.2003130  -2.1557387  61.2266116  33.6393799  -2.2561478
  59.9241094  33.7055161  -1.8304696  60.5678550  34.0439539  -2.1225047
  40.7814839  34.9817003   0.4421714  40.5990412  34.9563889  -0.4105993
  41.5164508  35.4515940   0.4810623  40.8628903  35.0478365   0.3219633
  56.8514513  35.2168512  -2.4145398  57.0870102  35.3613711  -3.2418547
  57.0004077  35.9810920  -2.0213884  56.9080316  35.3507567  -2.4781794
  43.8460591  31.7002005   6.9503823  44.5700563  31.6855036   7.4368718
  43.9476727  32.4097361   6.4525791  43.9678800  31.8026709   6.9482610
  51.2205540  35.1801090  11.8152770  50.4278521  35.4944602  12.0005390
  51.3354467  35.3952558  10.9773555  51.1200951  35.2584927  11.7191105
  53.8936859  31.9035081  -3.8952214  53.9883713  32.6424375  -3.4412589
  53.2695702  31.4752557  -3.4617650  53.8145889  31.9496402  -3.7644067
  52.1489333  35.0821294   6.7538067  52.7228194  34.4448538   6.9086631
  52.0704136  35.0825376   5.8847724  52.2222568  34.9886405   6.6484478
  40.7485749  31.8610503   0.5920781  41.3259252  31.7246954   1.2313026
  40.0499811  31.4046287   0.8466365  40.7306771  31.7732769   0.7243071
  47.5053051  33.5144559  -1.1940736  47.2472296  32.6816294  -1.2209436
  47.5601534  33.7402172  -2.0348236  47.4752829  33.4242330  -1.3220599
  52.5854102  25.6173010  -1.0936643  51.8810428  25.1282195  -0.9352724
  52.6339076  25.6295484  -1.9648199  52.4884153  25.5462657  -1.1997303
  46.4787764  31.0682321  -0.7075841  45.9037355  31.2274490  -0.0711880
  46.1023440  30.4317730  -1.1707391  46.3390576  30.9980134  -0.6821283
  50.1461052  29.5405671   4.1516537  49.7575485  29.1159888   3.4968729
  49.4815751  29.7887820   4.6593564  49.9907980  29.5144392   4.1304405
  53.9687414  23.2380299   1.6640522  54.3497925  22.5558470   2.0508396
  53.1650698  22.9489901   1.4816186  53.9063875  23.0947348   1.6944577
  57.4709481  36.4530271   6.7622920  57.2348118  35.6218336   6.6434981
  58.1152710  36.4015879   7.3477764  57.5304151  36.3227959   6.8308813
  47.1207899  37.2425793  -2.5234344  47.7581846  37.0037540  -1.9782550
  47.5462970  37.4462952  -3.2581183  47.2784065  37.2376803  -2.5517186
  41.8120541  39.4814129   1.3599960  41.8524686  39.7528980   0.5319740
  42.3715065  40.0056037   1.7757748  41.9003887  39.5989884   1.2991848
  47.9279254  25.7434498  11.5303130  47.6132695  26.5134060  11.2672693
  47.6069187  25.1804754  10.9455357  47.8338173  25.7744766  11.4044480
  58.4945901  36.2374720   2.8251214  58.1891718  36.9702777   3.1864530
  57.7752117  35.8312650   2.5444000  58.3433244  36.2856453   2.8364352
  49.5029371  37.7198215  -0.8440557  49.5768379  37.5573387   0.0101293
  50.3198877  37.9088405  -1.0880076  49.6345729  37.7234958  -0.7542532
  64.1947693  32.8767721   2.1519559  64.1272194  32.8963680   1.2822145
  64.1803356  33.7198048   2.3775229  64.1826450  33.0041455   2.0572036
  43.2635127  38.0656078  -3.8146114  42.4373245  38.3117815  -3.9411835
  43.3247119  37.9868159  -2.9484056  43.1509294  38.0901027  -3.7057169
  54.6044040  24.2802878   5.4760648  55.3497632  24.0912689   5.0624074
  54.1881344  24.8061116   4.9174504  54.6529014  24.3305024   5.3325221
  61.9806311  31.6512107   0.4266153  62.5314232  31.0180176   0.6663245
  61.9650426  32.1827500   1.1181657  62.0591507  31.6361055   0.5645011
  48.6328702  35.4850704   4.9726046  48.1340395  36.1966472   5.0510935
  49.4428926  35.8051371   4.9344209  48.6784808  35.6377553   4.9782615
  45.9839872  42.6600341  -3.0466934  45.7640167  42.3697695  -2.2540267
  45.7634394  42.0015296  -3.5749022  45.9187466  42.5200049  -3.0078026
  44.8956819  34.7473657  -0.7811233  44.6070068  34.1211128  -0.2465505
  45.7640167  34.6893945  -0.7146552  44.9817071  34.6461201  -0.6920278
  55.6834717  29.8908441  -0.4629251  55.3399483  29.1698776  -0.1122001
  55.7827759  29.6822292  -1.3050892  55.6476760  29.7532644  -0.5357571
  45.0989093  36.3868908  -4.8568868  45.8535061  36.7681947  -4.6433405
  44.5059705  36.8380052  -4.4022171  45.1225806  36.5097736  -4.7585989
  47.5595760  28.3431749  10.2688345  46.7495535  28.6489528  10.1578187
  48.0370446  29.0637331  10.3840929  47.5099238  28.4946350  10.2695416
  46.4187319  37.5577470   0.5171248  45.8968073  37.6977761   1.2023113
  46.8061339  36.7988134   0.7073365  46.3991020  37.4662993   0.6472324
  47.8453645  34.5881489  -4.0847261  47.6496427  35.1956223  -4.6786958
  48.0687990  33.8949433  -4.5655587  47.8488286  34.5759014  -4.2431180
  46.2432175  31.4736227  -3.9666393  46.9654827  31.6377385  -4.4262587
  45.7640168  32.1945891  -4.0727053  46.2795905  31.6034456  -4.0500779
  54.2025682  27.8100025   1.4130292  53.3636783  27.8361304   1.1768555
  54.2730050  28.4570761   1.9935639  54.0894076  27.9096151   1.4639409
  43.8939791  33.8794299   5.1387747  44.4060888  34.1578552   4.4896507
  43.6076134  34.6183593   5.5050560  43.9274655  34.0296653   5.0977625
  58.0783206  33.0168012  -1.3008466  57.9917181  33.1723438  -0.4473687
  57.6233686  33.6606088  -1.6749061  57.9986463  33.1343767  -1.2301359
  47.4123517  25.9720688   5.1988789  47.2206714  25.9875822   6.0488212
  48.2622113  26.1684362   5.1755444  47.5099239  26.0035039   5.3212083
  41.7970430  28.5011669   3.1772605  41.6555922  27.6495610   3.3017113
  42.0810993  28.5440330   2.3534811  41.8178276  28.3811419   3.0740229
  51.9509022  30.3378759  -2.6782907  51.7043737  30.2574510  -1.8446118
  52.2794145  29.5532227  -2.8720379  51.9630266  30.2105025  -2.5835383
  55.8457071  37.0462119   1.1103875  55.7071430  37.7443164   1.6152617
  55.0657069  36.8910775   0.7540056  55.7100298  37.1262285   1.1330149
  54.1835156  33.3458494   7.3626256  54.1783195  32.4738310   7.3668683
  54.8896150  33.5446663   6.8895712  54.2880160  33.2462368   7.2933292
  47.9106050  33.0735478   6.7340077  48.0549425  33.6536686   6.0983187
  48.2581698  33.4511775   7.4389931  47.9833511  33.2156182   6.7439071
  50.0825967  32.2725646   4.5165208  49.3349281  32.4656661   4.1113486
  50.2367492  31.4470866   4.2789329  49.9948394  32.1790758   4.4210614
  46.9833804  41.2638250   3.6001103  47.1323368  40.7041166   2.9474508
  47.7633807  41.3430251   3.9833622  47.1207898  41.1923815   3.5598052
  49.5087105  41.4352893   4.8785594  49.4330776  40.7661703   5.4336382
  49.4376964  42.1370681   5.3926260  49.4867712  41.4397800   5.0362442
  50.3227744  26.1676197   5.4060612  50.7800358  26.9000171   5.5333404
  50.3984073  25.7442662   6.1647868  50.4018714  26.2133435   5.5361688
  42.5660735  26.4142017   6.4950056  42.0302925  25.8022375   6.8110823
  42.6278500  26.9890153   7.1483722  42.4956368  26.4088944   6.6385482
  48.2010122  28.1578301   2.2502436  47.4106197  27.9769761   2.5719772
  48.5970745  27.3805253   2.2332730  48.1426998  28.0165762   2.2954984
  53.5853808  35.7920731  -0.0238118  52.9098810  35.5605963   0.4775269
  53.5946184  35.1841914  -0.6496013  53.4872313  35.6679656  -0.0421966
  50.7147952  30.6338560   6.7325935  50.6507093  31.4948516   6.6046071
  50.8545140  30.3170553   5.9321486  50.7263422  30.7138727   6.5954148
  49.3967046  33.3270699   0.8742138  48.9729295  33.5275198   0.1381156
  49.2211901  32.4799547   0.9866438  49.3077927  33.2319481   0.7815828
  48.8978739  44.8421212   3.3363595  49.3874670  44.1432002   3.1539260
  48.3262972  44.5445082   3.9239652  48.8863269  44.6947436   3.3964636
  44.6849491  33.8222751  -3.6929890  44.8414110  33.7569554  -2.8373898
  45.0250084  34.5971303  -3.9051210  44.7582726  33.9271949  -3.5975296
  51.2228636  33.1980634  -4.8236527  51.7644181  32.6951015  -4.3597906
  51.5375195  33.1445829  -5.6347041  51.3493033  33.1160055  -4.8752715
  55.0945743  37.4083282  12.2890386  55.9080608  37.1368431  12.4495518
  54.9340709  37.1090822  11.4850582  55.1915691  37.3238208  12.1935791
  52.3717905  28.0916939   5.2285774  52.5859875  27.4527853   4.6749128
  51.7551804  28.5362763   4.7993636  52.3123234  28.0627083   5.0836205
  41.2583752  31.0057701  -3.3769123  41.6382717  31.4242246  -4.0408855
  40.6839117  31.5871157  -3.0700279  41.2295077  31.1535560  -3.4292382
  54.5356993  29.7006004   6.1669081  53.7233675  29.3931894   6.2482254
  54.9946928  29.2205004   6.7311793  54.4837378  29.5842496   6.2623675
  51.7632634  21.2016875   0.2173117  50.8926192  21.1755596   0.1706426
  52.0172975  21.0294067  -0.6001038  51.6726194  21.1727018   0.0893253
  51.6310500  31.1066075  10.9497783  52.1010132  31.7308192  11.3365657
  51.6772381  30.4383051  11.5090998  51.7078376  31.1000756  11.0897855
  48.7881774  23.2123103   1.6746587  48.2720263  22.5203294   1.7998166
  48.2275703  23.8793880   1.6209186  48.6288287  23.2086361   1.6852653
  50.8574008  23.7516063   3.5039440  50.4705761  23.7765094   4.2852970
  50.3706945  23.1857742   3.0513956  50.7286516  23.6711814   3.5527343
  55.1066987  38.4689572   7.5613226  55.7446707  37.9749768   7.2275682
  54.4641079  38.3966972   6.9765453  55.1061214  38.3848580   7.4255581
  56.8323987  30.3178718   2.1279142  56.4051595  30.2305067   1.3727241
  56.1950040  30.4256493   2.7133986  56.6753594  30.3211378   2.1024583
  50.5231149  20.6383048   5.7949700  51.1524267  21.1743349   5.5170770
  50.6917012  20.5460407   6.6463265  50.6408944  20.7044411   5.8798228
  50.3245064  25.4254243   8.0676111  51.1518493  25.1539392   8.1234726
  50.3452910  26.2215085   8.4239929  50.4497914  25.5033997   8.1291294
  55.1621244  39.1609380   4.2018583  55.9513622  38.8098445   4.3220665
  55.3364841  39.9745769   3.9395217  55.3041525  39.2295237   4.1806451
  44.9014554  32.5718106   1.2546372  44.0602561  32.4721980   1.4625266
  45.1104562  33.3413586   1.6060692  44.8079247  32.6710149   1.3373687
  42.3790121  30.1937643  -0.9168878  41.9846819  30.2680655  -1.6918768
  41.8230238  30.5795589  -0.3660516  42.2392933  30.2619418  -0.9501218
  54.0155068  23.1718937  -1.2364999  54.2204661  23.1041245  -0.3908001
  53.6881492  23.9777758  -1.3043821  53.9970316  23.2804877  -1.1205344
  48.7131219  30.4999505   0.5043969  48.4094356  29.9455493   1.1054377
  48.0110640  30.6791715   0.0172004  48.5647429  30.4444288   0.5213675
  46.7749570  37.7149226   5.2116067  46.6669925  37.7251288   6.0778125
  46.9845351  38.5404006   5.0221021  46.7899681  37.8390301   5.3120159
  44.7923362  34.9661868   2.6738005  44.2011295  35.6071366   2.6441020
  45.5544385  35.3899486   2.6469304  44.8171622  35.1237707   2.6653152
  45.1883985  26.1263866   3.3406022  45.6485466  26.2002795   4.0781146
  45.2340091  26.9245120   2.9905844  45.2634540  26.2558013   3.3978779
  46.8367334  26.7930561   7.9078049  46.4452900  26.1463908   8.3433827
  47.0053197  27.3841996   8.5272305  46.8038245  26.7844829   8.0640755
  60.9113783  34.7967638   3.6715283  60.9696907  35.2454287   4.4175259
  60.2780251  35.2066451   3.2345363  60.8265079  34.9241373   3.7167831
  54.5512878  40.4171180   0.1070029  54.3532567  40.9061994  -0.5873760
  53.9300589  40.6212421   0.6854163  54.4300443  40.5187718   0.0893252
  48.6120856  32.1856077  -5.5519727  49.3562901  32.5730353  -5.3136777
  48.7581553  31.3413502  -5.3879239  48.7431442  32.1186549  -5.4925757
  50.5300432  23.9806336  -0.5187865  49.6836477  24.1529143  -0.6446515
  50.5271564  23.1755679  -0.1822037  50.4047582  23.8867365  -0.4876738
  51.5998732  27.7581550   0.3474193  51.1258687  27.2323312   0.8579504
  51.9716868  27.2111023  -0.2210946  51.5848621  27.5997547   0.3389340
  41.9771762  29.7553057   5.7157739  42.8397375  29.6548766   5.6295068
  41.6463545  29.1747766   5.1543311  42.0556959  29.6544683   5.6203144
  57.8635463  32.8183926   1.7580973  57.6233686  31.9790341   1.7623400
  58.3427470  32.8984092   2.4821747  57.8987647  32.7065325   1.8655776
  59.8640650  29.5985383  -0.2889768  59.6250420  29.5581217  -1.1268983
  60.0274551  30.4456535  -0.1624047  59.8530953  29.7177468  -0.3936286
  56.4686680  33.9835332   5.6415277  57.1920879  33.5307859   5.4626297
  56.2036642  34.2639998   4.8587605  56.5367953  33.9586301   5.4993993
  45.3373548  28.5795506   2.3768157  44.7126619  28.5913898   1.7694109
  45.0019143  29.0555681   3.0259397  45.1959040  28.6514023   2.3824725
  42.0499224  36.6395966   3.8171921  41.5199148  35.9488405   3.8666896
  42.3224317  36.6306151   2.9884630  42.0123946  36.5363098   3.7019337
  52.2505470  34.0819210   3.7910293  51.6362463  33.5377261   4.0858928
  52.7672754  33.5683447   3.3116109  52.2361132  33.9255619   3.7634521
  51.4901767  35.1523480   1.5254591  51.0629375  34.5273199   1.0920027
  51.4826711  34.8698402   2.3513598  51.4260908  35.0176261   1.5834419
  44.6064294  30.1888653   4.5943025  44.7657781  29.4331978   4.9994747
  44.4257187  30.7379593   5.2483763  44.6029653  30.1582467   4.7505731
  52.5484597  22.3549889   5.1493815  52.0525158  22.5513563   4.4585381
  53.3053659  22.7542557   4.9782616  52.5871421  22.4427623   5.0213951
  49.8187476  26.0292235   1.7397125  49.8429964  25.4952347   1.0509905
  50.0698950  25.5209544   2.4022716  49.8597395  25.8753139   1.7361770
  37.3295066  33.3123730   1.1740269  37.2238515  33.2670574   0.3092353
  36.5795286  33.6577511   1.4554554  37.2030669  33.3564638   1.0877599
  46.0988799  24.7563053   1.1202870  46.1387170  25.2572260   1.8337577
  45.2738463  24.8473447   0.8508793  45.9828325  24.8444870   1.1853408
  48.2818412  34.3223793   9.2223164  47.4314042  34.4595507   9.3580809
  48.4446539  33.5887571   9.6670866  48.1802275  34.2337894   9.3078763
  47.5203162  31.2723563   3.4176769  46.6895092  31.4397381   3.2112017
  47.4654679  30.8959514   4.2025654  47.3892577  31.2413294   3.5025297
  45.3286945  24.7632456   9.0533179  45.9539649  24.2194589   9.3262612
  44.8737425  24.2827374   8.4840970  45.3535206  24.6121937   9.0094773
  58.9021994  32.9461743   4.1445827  59.4939834  33.5858994   4.1764025
  59.3380989  32.2484780   4.4337894  59.0540425  32.9380093   4.1926660
  50.7315384  37.3679115   4.7703721  50.2240475  37.9214962   5.2144352
  50.4342030  37.4287405   3.9522496  50.6120269  37.4585427   4.7152178
  52.8977566  25.7332435   3.6128384  53.3232638  25.2804961   3.0011911
  52.2834559  25.1792506   3.8893172  52.8706211  25.5846411   3.5633409
  55.9271135  30.1606962  -3.5551030  55.2562325  30.7036664  -3.6837965
  56.6210886  30.6301817  -3.7969335  55.9300003  30.3105233  -3.6095502
  49.9757869  42.3003674   1.6760728  49.7523524  41.5422503   2.0444754
  49.4867712  42.3301695   0.9541168  49.8701318  42.1925898   1.6237469
  56.0899263  26.6162845  -0.6460657  56.4426873  26.1892568   0.0285142
  55.2314064  26.5313689  -0.5159581  56.0148707  26.5407586  -0.5265647
  44.7882948  29.2470365  -2.5877810  44.0694937  29.6634498  -2.3204947
  45.1595310  29.8124604  -3.1386172  44.7374880  29.3919646  -2.6295004
  54.0882529  29.8798214   3.3024185  54.0680456  29.6981509   4.1558964
  54.1361729  30.7510232   3.2783769  54.0917170  29.9814752   3.4247480
  52.0328859  36.4685406   9.2272662  51.9924713  35.8235083   8.6417818
  52.8452177  36.4122023   9.5398074  52.1472012  36.3644373   9.1869611
  48.6236326  42.5204132  -0.8702187  48.2096725  41.8578262  -1.2598346
  49.3083700  42.6681991  -1.3906493  48.6634698  42.4444790  -1.0045690
  51.9901620  41.6794217  -0.1178571  51.5917903  41.7896487  -0.8857750
  51.3752840  41.8876283   0.4647989  51.8400509  41.7267785  -0.1447271
  53.4387339  28.2447869  -3.8202681  53.2101032  28.2680571  -4.6624323
  53.6985415  27.4205336  -3.7007670  53.4433527  28.1263949  -3.9277483
  47.7206567  30.0982342   5.7822419  47.2085470  29.4903525   6.1407451
  47.5486063  30.8138935   6.2496395  47.6196204  30.1145642   5.9038643
  42.5672282  28.5419918   8.4324781  42.3974872  29.2021293   7.8872988
  42.1238232  28.7526479   9.1537270  42.4771616  28.6705900   8.4586411
  46.4932101  26.7824416  -2.5248485  46.9689468  27.1441495  -3.1598304
  45.9920701  27.4380883  -2.2448342  46.4897460  26.9318604  -2.5771744
  51.5975638  28.0206587   8.2224675  52.1547068  27.7920397   7.5903140
  51.2736703  28.7812253   7.9459887  51.6322048  28.0990424   8.0881172
  39.4674346  31.4466783   3.6913271  38.9201066  30.7767429   3.8094139
  40.2566725  31.0796631   3.7556738  39.5026530  31.2931770   3.7181972
  49.3158755  31.1074240   9.1876682  50.0670082  31.4225917   9.5016236
  49.5081331  30.9053411   8.3610604  49.4550169  31.1241622   9.1120078
  56.1644045  27.2347807  -3.5699522  56.1638271  27.0796463  -2.7115246
  55.9600225  28.0810794  -3.6258137  56.1343823  27.3368427  -3.4511583
  38.2261316  30.6587591   0.8459294  38.0483077  30.2064200   1.5714210
  37.9380338  31.4613752   1.0297772  38.1574269  30.7110149   0.9802797
  53.8884897  31.9145308   0.0836684  54.3838562  31.1968303   0.0440705
  53.0784673  31.6116106  -0.0308829  53.8428790  31.7642955   0.0610410
  39.9633786  33.1915315  -2.0418947  39.0979305  33.1801005  -2.1536176
  40.0632602  33.0045538  -1.1947808  39.8507953  33.1621376  -1.9330002
  55.9536716  34.6648996   2.7713813  56.3791787  34.1423418   2.2184238
  55.5893636  35.2629833   2.2502436  55.9623318  34.6759223   2.6122823
  45.5890796  42.9613213   1.5311159  45.9037355  43.7749602   1.5388940
  45.9984209  42.5763432   2.1993318  45.6958894  43.0241916   1.6315250
  52.5415315  38.3783260  -0.8985029  53.0126494  39.0923523  -0.7295044
  52.8775494  37.7782010  -0.3625160  52.6610430  38.3954724  -0.7952653
  54.6292300  39.9884574  11.2807043  54.7389265  39.1993134  11.6363790
  54.9583197  39.8990510  10.4781381  54.6944706  39.8590426  11.2149433
  49.4584810  23.1510731   6.0573065  49.5912716  22.3541724   6.3854041
  49.8429963  23.6777134   6.6371341  49.5341139  23.1110647   6.1916568
  53.1789262  38.1701194   5.8642663  52.6310208  37.5459078   5.5962729
  53.6402290  38.3595466   5.1486743  53.1656471  38.1060245   5.7193094
  52.5317165  20.0741057   2.6554159  51.7263129  19.9638787   2.9721997
  52.4023901  20.1753513   1.7984024  52.3937298  20.0724727   2.5762199
  55.9883126  26.2386549   3.2493856  55.4046115  26.7395755   2.8371423
  56.3087420  25.7316105   2.6158179  55.9496301  26.2378384   3.0952363
  47.1173257  23.1469906   4.3050959  47.6617670  22.8061033   4.8955301
  47.1710193  24.0055367   4.4472244  47.2062376  23.2225165   4.4132833
  42.9303816  36.9086322   1.1789767  43.5348673  36.8682156   0.5503588
  42.7231128  37.7557474   1.2093823  42.9892713  37.0274324   1.0905884
  52.7447588  39.1752267   2.3952004  53.5645962  39.0315233   2.6568300
  52.4641666  39.7998466   2.9368442  52.8244331  39.2462619   2.5139944
  38.1655098  35.8920939   1.0488690  38.0679376  35.0817211   1.3578747
  38.9483968  35.8712733   0.6634958  38.2671235  35.7688030   1.0375553
  53.8741951  43.6579897   0.6684457  53.2546982  43.0672544   0.4994471
  53.7725814  44.2491332   0.0348780  53.7679626  43.6583979   0.5489446
  53.6011084  47.2032179   2.9128026  53.4769781  47.7894624   3.5477844
  54.2529368  46.7092374   3.2140301  53.6784733  47.2170983   3.0513955
  57.0392292  47.1211600   8.3257050  57.2112796  47.0117495   9.1742331
  57.5761649  47.7666005   8.0888242  57.1437296  47.2003602   8.4162147
  62.9766993  55.0415851  10.2766126  63.7607410  55.1546699  10.6421868
  62.7763588  54.2156988  10.4724812  63.0633019  54.9362570  10.3600512
  51.3454009  49.7143531   3.1609970  51.0792424  48.8982648   3.3200960
  51.3592573  49.7596687   2.2905486  51.3078731  49.6000436   3.0563452
  56.0952615  43.2521909   5.8076978  55.4024412  42.7818889   6.0537709
  56.7112942  43.0260214   6.3818685  56.0837145  43.1489041   5.9286130
  54.8193174  47.2187313   6.9503823  55.5433146  47.2040344   7.4368718
  54.9209311  47.9282669   6.4525791  54.9411383  47.3212016   6.9482610
  62.1938124  50.6986398  11.8152770  61.4011104  51.0129910  12.0005390
  62.3087051  50.9137866  10.9773555  62.0933534  50.7770235  11.7191105
  61.1193636  45.0590979   4.1516537  60.7308069  44.6345196   3.4968729
  60.4548334  45.3073128   4.6593564  60.9640564  45.0329700   4.1304405
  64.9419997  38.7565607   1.6640522  65.3230509  38.0743778   2.0508396
  64.1383282  38.4675209   1.4816186  64.8796459  38.6132656   1.6944577
  58.9011838  41.2619806  11.5303130  58.5865279  42.0319368  11.2672693
  58.5801770  40.6990062  10.9455357  58.8070757  41.2930074  11.4044480
  65.5776623  39.7988186   5.4760648  66.3230215  39.6097997   5.0624074
  65.1613928  40.3246424   4.9174504  65.6261598  39.8490332   5.3325221
  58.5328343  43.8617057  10.2688345  57.7228119  44.1674836  10.1578187
  59.0103030  44.5822639  10.3840929  58.4831822  44.0131658  10.2695416
  54.8672375  49.3979607   5.1387747  55.3793472  49.6763860   4.4896507
  54.5808718  50.1368901   5.5050560  54.9007238  49.5481961   5.0977625
  58.3856100  41.4905996   5.1988789  58.1939297  41.5061130   6.0488212
  59.2354696  41.6869670   5.1755444  58.4831822  41.5220347   5.3212083
  52.7703013  44.0196977   3.1772605  52.6288505  43.1680918   3.3017113
  53.0543577  44.0625638   2.3534811  52.7910860  43.8996727   3.0740229
  58.8838633  48.5920786   6.7340077  59.0282009  49.1721994   6.0983187
  59.2314282  48.9697082   7.4389931  58.9566094  48.7341490   6.7439071
  61.2960327  41.6861505   5.4060612  61.7532942  42.4185479   5.5333404
  61.3716656  41.2627970   6.1647868  61.3751297  41.7318743   5.5361688
  53.5393319  41.9327325   6.4950056  53.0035508  41.3207683   6.8110823
  53.6011083  42.5075461   7.1483722  53.4688951  41.9274252   6.6385482
  59.1742705  43.6763609   2.2502436  58.3838780  43.4955069   2.5719772
  59.5703328  42.8990561   2.2332730  59.1159582  43.5351070   2.2954984
  61.6880536  46.1523868   6.7325935  61.6239677  47.0133824   6.6046071
  61.8277723  45.8355861   5.9321486  61.6996006  46.2324035   6.5954148
  66.0678327  52.9268590  12.2890386  66.8813192  52.6553738  12.4495518
  65.9073293  52.6276130  11.4850582  66.1648275  52.8423516  12.1935791
  63.3450489  43.6102247   5.2285774  63.5592458  42.9713161   4.6749128
  62.7284388  44.0548071   4.7993636  63.2855818  43.5812390   5.0836205
  65.5089577  45.2191312   6.1669081  64.6966258  44.9117202   6.2482254
  65.9679511  44.7390312   6.7311793  65.4569961  45.1027804   6.2623675
  62.7365217  36.7202182   0.2173117  61.8658775  36.6940904   0.1706426
  62.9905558  36.5479375  -0.6001038  62.6458777  36.6912326   0.0893253
  62.6043084  46.6251383  10.9497783  63.0742715  47.2493500  11.3365657
  62.6504964  45.9568359  11.5090998  62.6810960  46.6186064  11.0897855
  59.7614358  38.7308411   1.6746587  59.2452846  38.0388602   1.7998166
  59.2008287  39.3979188   1.6209186  59.6020871  38.7271669   1.6852653
  61.8306591  39.2701371   3.5039440  61.4438344  39.2950402   4.2852970
  61.3439528  38.7043050   3.0513956  61.7019100  39.1897122   3.5527343
  61.4963733  36.1568356   5.7949700  62.1256851  36.6928656   5.5170770
  61.6649596  36.0645715   6.6463265  61.6141527  36.2229719   5.8798228
  61.2977648  40.9439551   8.0676111  62.1251077  40.6724700   8.1234726
  61.3185494  41.7400393   8.4239929  61.4230498  41.0219305   8.1291294
  56.1616568  41.6449174   3.3406022  56.6218050  41.7188103   4.0781146
  56.2072675  42.4430428   2.9905844  56.2367124  41.7743321   3.3978779
  57.8099918  42.3115869   7.9078049  57.4185483  41.6649216   8.3433827
  57.9785781  42.9027304   8.5272305  57.7770828  42.3030137   8.0640755
  52.9504346  45.2738365   5.7157739  53.8129959  45.1734074   5.6295068
  52.6196129  44.6933074   5.1543311  53.0289542  45.1729991   5.6203144
  56.3106132  44.0980814   2.3768157  55.6859202  44.1099206   1.7694109
  55.9751727  44.5740989   3.0259397  56.1691624  44.1699331   2.3824725
  55.5796877  45.7073961   4.5943025  55.7390364  44.9517286   4.9994747
  55.3989771  46.2564901   5.2483763  55.5762236  45.6767775   4.7505731
  63.5217180  37.8735197   5.1493815  63.0257742  38.0698871   4.4585381
  64.2786242  38.2727865   4.9782616  63.5604005  37.9612931   5.0213951
  60.7920060  41.5477543   1.7397125  60.8162547  41.0137655   1.0509905
  61.0431534  41.0394852   2.4022716  60.8329979  41.3938447   1.7361770
  48.3027650  48.8309038   1.1740269  48.1971099  48.7855882   0.3092353
  47.5527870  49.1762818   1.4554554  48.1763253  48.8749946   1.0877599
  57.0721382  40.2748361   1.1202870  57.1119754  40.7757568   1.8337577
  56.2471047  40.3658755   0.8508793  56.9560908  40.3630177   1.1853408
  59.2550995  49.8409101   9.2223164  58.4046626  49.9780815   9.3580809
  59.4179123  49.1072879   9.6670866  59.1534859  49.7523202   9.3078763
  58.4935746  46.7908871   3.4176769  57.6627675  46.9582689   3.2112017
  58.4387263  46.4144822   4.2025654  58.3625160  46.7598602   3.5025297
  56.3019529  40.2817764   9.0533179  56.9272232  39.7379897   9.3262612
  55.8470009  39.8012681   8.4840970  56.3267789  40.1307245   9.0094773
  63.8710150  41.2517743   3.6128384  64.2965221  40.7990269   3.0011911
  63.2567143  40.6977814   3.8893172  63.8438795  41.1031719   3.5633409
  63.0061442  51.9870714   9.2272662  62.9657297  51.3420391   8.6417818
  63.8184760  51.9307331   9.5398074  63.1204596  51.8829681   9.1869611
  58.6939151  45.6167650   5.7822419  58.1818054  45.0088833   6.1407451
  58.5218647  46.3324243   6.2496395  58.5928788  45.6330950   5.9038643
  53.5404866  44.0605226   8.4324781  53.3707456  44.7206600   7.8872988
  53.0970815  44.2711787   9.1537270  53.4504199  44.1891208   8.4586411
  62.5708221  43.5391895   8.2224675  63.1279651  43.3105704   7.5903140
  62.2469286  44.2997561   7.9459887  62.6054631  43.6175732   8.0881172
  50.4406930  46.9652091   3.6913271  49.8933649  46.2952737   3.8094139
  51.2299308  46.5981939   3.7556738  50.4759114  46.8117078   3.7181972
  60.2891338  46.6259548   9.1876682  61.0402665  46.9411225   9.5016236
  60.4813915  46.4238719   8.3610604  60.4282753  46.6426930   9.1120078
  49.1993899  46.1772899   0.8459294  49.0215661  45.7249508   1.5714210
  48.9112922  46.9799060   1.0297772  49.1306853  46.2295457   0.9802797
  60.4317394  38.6696039   6.0573065  60.5645299  37.8727032   6.3854041
  60.8162547  39.1962442   6.6371341  60.5073723  38.6295955   6.1916568
  63.5049749  35.5926365   2.6554159  62.6995713  35.4824094   2.9721997
  63.3756485  35.6938821   1.7984024  63.3669882  35.5910035   2.5762199
  58.0905841  38.6655214   4.3050959  58.6350254  38.3246341   4.8955301
  58.1442776  39.5240675   4.4472244  58.1794960  38.7410473   4.4132833
   1.8130678  59.1133696  36.2533025   1.4984119  59.8037175  36.6853447
   1.2957619  59.0578478  35.5518526   1.6895148  59.2068585  36.2129974
   6.1045123  67.3354902  41.5353901   5.2673544  67.4057089  41.7701496
   6.0733354  67.3379397  40.6628204   5.9763405  67.3465129  41.4413449
   3.7852963  62.3997684  40.1197624   4.4278871  62.4695788  40.7059539
   4.0375983  61.7326907  39.6177166   3.9175095  62.3124032  40.1324903
   6.2234465  67.1742321  35.8509587   5.9671030  66.3622263  35.6607470
   7.0663779  67.1819888  35.6239775   6.3100490  67.0554319  35.7894404
   1.0394183  62.1564524  44.4005868   1.7847775  61.9674335  43.9869294
   0.6231488  62.6822762  43.8419724   1.0879158  62.2066670  44.2570441
   8.4156454  69.5273753  39.3511373   8.9664376  68.8941822  39.5908465
   8.4000570  70.0589146  40.0426877   8.4941651  69.5122701  39.4890231
   2.1184861  67.7670086  38.4615969   1.7749626  67.0460422  38.8123219
   2.2177903  67.5583938  37.6194328   2.0826903  67.6294290  38.3887649
   1.2305213  57.2227718  38.1999675   1.3488782  57.6804181  37.4666977
   1.0567389  56.4172979  37.9135892   1.2224384  57.1721490  38.0500608
   3.2674131  68.1940364  41.0524362   2.8401739  68.1066712  40.2972461
   2.6300184  68.3018139  41.6379206   3.1103738  68.1973024  41.0269803
   3.7038899  61.6012347  37.1682987   3.0913213  62.0882749  37.5536719
   3.8003074  60.9255838  37.7120638   3.6276797  61.5730656  37.3061845
   6.2990793  67.4747029  38.6355452   6.0600563  67.4342863  37.7976237
   6.4624695  68.3218181  38.7621173   6.2881097  67.5939114  38.5308934
   2.5249406  64.4924491  38.2784563   2.8777017  64.0654214  38.9530362
   1.6664208  64.4075335  38.4085639   2.4498851  64.4169232  38.3979573
   3.9573467  59.6142903  39.2068875   3.4504331  58.9072042  39.1390053
   4.7540900  59.2836092  39.3369952   4.0000706  59.4616054  39.2167870
   2.5994189  65.1109452  35.3545698   2.5988415  64.9558109  36.2129974
   2.3950369  65.9572440  35.2987083   2.5693966  65.2130073  35.4733637
   2.4233270  64.1148195  42.1739076   1.8396258  64.6157401  41.7616643
   2.7437564  63.6077751  41.5403399   2.3846445  64.1140030  42.0197583
   4.3729622  46.1271588  21.2180148   4.3423627  46.9816225  21.3898417
   4.9710971  45.8266880  21.7766291   4.4566780  46.2088084  21.3254950
   0.8823024  51.4833764  35.5793534   1.5889791  50.9885795  35.7080469
   1.0710959  51.9242846  34.8496192   1.0150929  51.4752115  35.4902580
   2.1946197  48.7023890  19.4898458   2.0785723  49.4531576  19.9190596
   2.9902083  48.4447843  19.7394545   2.2950786  48.7758737  19.5902549
   1.5081502  36.0511827  23.1873072   1.1934943  36.7415306  23.6193494
   0.9908443  35.9956610  22.4858573   1.3845972  36.1446716  23.1470021
   6.3041988  51.6262633  24.6743527   5.4739692  51.8373276  24.8376943
   6.2551241  50.7999687  24.3985810   6.1748724  51.5352239  24.6580892
   5.7995947  44.2733033  28.4693948   4.9624368  44.3435220  28.7041543
   5.7684178  44.2757528  27.5968251   5.6714229  44.2843260  28.3753496
   0.5226133  48.4688710  24.0605840   1.2783648  48.9020224  24.0994748
   0.6288457  47.8193480  24.6340476   0.6496303  48.4366194  24.1503865
   3.5606304  52.2961987  24.8108243   3.1241536  52.2998730  25.5667214
   3.2269219  52.9767486  24.3787820   3.4468924  52.3974443  24.8589075
   3.4803787  39.3375815  27.0537671   4.1229695  39.4073920  27.6399586
   3.7326807  38.6705038  26.5517213   3.6125919  39.2502164  27.0664950
   6.6950650  49.0142907  23.7027880   7.3567084  48.4533576  23.6023788
   6.0542062  48.5194938  24.0280571   6.6979517  48.8579316  23.7360220
   2.9815481  50.0308289  23.4439869   3.2171070  50.1753488  22.6166719
   3.1305044  50.7950697  23.8371382   3.0381284  50.1647344  23.3803473
   4.8105937  48.8709955  21.2809473   5.1414154  49.4037596  20.6749567
   5.3839025  48.9248843  21.9371423   4.9439616  48.9579524  21.2887254
   5.9185289  44.1120452  22.7849634   5.6621854  43.3000394  22.5947517
   6.7614603  44.1198019  22.5579821   6.0051314  43.9932450  22.7234451
   3.6010448  51.2670048  32.6208187   3.3649086  50.4358113  32.5020247
   4.2453677  51.2155655  33.2063031   3.6605119  51.1367736  32.6894080
   4.6246869  51.0514497  28.6836481   4.3192686  51.7842554  29.0449797
   3.9053084  50.6452427  28.4029267   4.4734211  51.0996230  28.6949618
  10.3248661  47.6907498  28.0104825  10.2573161  47.7103457  27.1407412
  10.3104323  48.5337825  28.2360496  10.3127417  47.8181232  27.9157302
   8.1107278  46.4651884  26.2851420   8.6615200  45.8319953  26.5248512
   8.0951394  46.9967277  26.9766924   8.1892475  46.4500832  26.4230278
   1.8135684  44.7048218  25.3956016   1.4700450  43.9838553  25.7463266
   1.9128727  44.4962069  24.5534374   1.7777727  44.5672421  25.3227696
   2.2748714  51.1673922  20.9380004   2.8406746  51.8267132  20.8538547
   1.6276617  51.5123620  21.4096406   2.2627470  51.3155863  20.9952761
   4.2084174  47.8307789  24.5576801   4.1218148  47.9863215  25.4111580
   3.7534654  48.4745865  24.1836206   4.1287430  47.9483544  24.6283908
   1.9758039  51.8601896  26.9689142   1.8372398  52.5582941  27.4737884
   1.1958036  51.7050552  26.6125323   1.8401265  51.9402062  26.9915416
   3.4711411  51.2180149  17.7305641   3.0918220  50.4317287  17.7234930
   2.8077657  51.7667006  17.5877285   3.3169886  51.1824973  17.7086438
   0.9256037  34.1605849  25.1339722   1.0439605  34.6182312  24.4007024
   0.7518213  33.3551110  24.8475939   0.9175208  34.1099621  24.9840655
   1.7171510  53.4625640  18.0657327   1.7991348  54.2692627  17.7418777
   2.2021252  53.4821600  18.7898100   1.8008668  53.5846303  18.1244225
   1.2246711  52.2223059  38.1475652   2.0381576  51.9508208  38.3080785
   1.0641677  51.9230599  37.3435848   1.3216659  52.1377985  38.0521058
   1.2367955  53.2829349  33.4198493   1.8747675  52.7889545  33.0860949
   0.5942046  53.2106749  32.8350720   1.2362181  53.1988357  33.2840848
   2.9624955  45.1318495  27.9864409   2.5352563  45.0444844  27.2312508
   2.3251008  45.2396270  28.5719253   2.8054562  45.1351155  27.9609850
   1.2922211  53.9749157  30.0603850   2.0814589  53.6238222  30.1805931
   1.4665809  54.7885546  29.7980484   1.4342493  54.0435014  30.0391718
   3.3989723  38.5390478  24.1023034   2.7864037  39.0260880  24.4876766
   3.4953898  37.8633969  24.6460685   3.3227621  38.5108787  24.2401892
   7.0414751  49.6107415  29.5300550   7.0997875  50.0594064  30.2760526
   6.4081219  50.0206228  29.0930630   6.9566046  49.7381150  29.5753098
   3.9936430  47.6323703  27.6166240   3.7534653  46.7930118  27.6208667
   4.4728438  47.7123869  28.3407014   4.0288614  47.5205102  27.7241042
   5.9941617  44.4125160  25.5695499   5.7551387  44.3720994  24.7316284
   6.1575519  45.2596312  25.6961220   5.9831921  44.5317245  25.4648981
   2.5987648  48.7975109  31.5000544   3.3221846  48.3447636  31.3211564
   2.3337610  49.0779775  30.7172872   2.6668921  48.7726078  31.3579260
   5.0322962  47.7601520  30.0031094   5.6240802  48.3998771  30.0349292
   5.4681956  47.0624557  30.2923161   5.1841393  47.7519870  30.0511927
   2.0572103  44.9746739  22.3034237   1.3863293  45.5176441  22.1747302
   2.7511853  45.4441594  22.0615931   2.0600970  45.1245010  22.2489764
   2.2200230  41.4302622  25.2124610   2.5727840  41.0032345  25.8870409
   1.3615032  41.3453466  25.3425686   2.1449675  41.3547363  25.3319620
   3.6524290  36.5521034  26.1408922   3.1455155  35.8450174  26.0730100
   4.4491724  36.2214223  26.2709999   3.6951530  36.3994185  26.1507917
   5.8544430  51.0685961  19.1249787   6.2378036  51.8177317  19.3547884
   5.0588544  51.3151780  18.8661776   5.7938213  51.2155655  19.1207360
   2.2945012  42.0487584  22.2885744   2.2939239  41.8936240  23.1470021
   2.0901193  42.8950571  22.2327130   2.2644790  42.1508204  22.4073684
   2.0837683  49.4788773  28.6299080   2.5092755  48.9563195  28.0769505
   1.7194603  50.0769610  28.1087703   2.0924286  49.4899000  28.4708090
   0.7593267  54.8024351  37.1392310   0.8690233  54.0132911  37.4949057
   1.0884164  54.7130287  36.3366648   0.8245673  54.6730203  37.0734700
   2.1184094  41.0526326  29.1079122   1.5347082  41.5535532  28.6956690
   2.4388388  40.5455882  28.4743446   2.0797269  41.0518161  28.9537630
  15.3462206  61.6456896  21.2180148  15.3156210  62.5001532  21.3898417
  15.9443555  61.3452188  21.7766291  15.4299364  61.7273392  21.3254950
   8.5461891  60.7332547  25.9733078   7.6899786  60.8941045  26.0242195
   8.5929544  59.8624611  25.9938139   8.4261002  60.6283349  25.9839144
  11.8555607  67.0019072  35.5793534  12.5622375  66.5071103  35.7080469
  12.0443543  67.4428154  34.8496192  11.9883513  66.9937423  35.4902580
  11.3913712  62.7924591  28.6164730  11.9369672  63.4709677  28.6758699
  11.3330588  62.6512052  27.7566311  11.4629626  62.8716592  28.4976790
  13.1678780  64.2209198  19.4898458  13.0518306  64.9716884  19.9190596
  13.9634667  63.9633151  19.7394545  13.2683370  64.2944045  19.5902549
   7.1010814  60.2119216  20.8602187   7.7990979  60.3907343  21.3523650
   7.4163146  59.6889555  20.2372576   7.2506151  60.1612988  20.8404197
   7.2898749  66.5989661  20.8481978   7.7292385  65.9906761  21.2936751
   7.1403412  66.2197034  20.0767443   7.3320215  66.4528132  20.8001145
   4.7570392  65.1933673  28.0500804   5.4019395  64.7006116  27.7311752
   4.9972169  65.3358459  28.8766882   4.8880977  65.1411115  28.1250337
   7.2956484  68.0388578  27.7007696   7.5779727  67.2439984  27.4794452
   8.0242644  68.5169166  27.7212757   7.4446047  67.9923175  27.6710711
   5.2737678  55.5811612  24.9423461   4.9441008  56.0322756  24.2727160
   4.5982679  55.5027776  25.4896468   5.1248114  55.6362748  24.9246685
  10.8908086  64.9516842  17.8012747  10.8059381  65.8077809  17.9462316
  11.3792469  64.6761166  18.4694906  10.9496983  65.0374163  17.9214829
  12.4814085  51.5697135  23.1873072  12.1667526  52.2600614  23.6193494
  11.9641027  51.5141918  22.4858573  12.3578556  51.6632024  23.1470021
  11.8226519  61.5701636  19.3010482  11.2937991  61.7861270  19.9607789
  12.3451539  62.2637775  19.2211452  11.8214972  61.7044773  19.3866082
  17.2774572  67.1447941  24.6743527  16.4472275  67.3558584  24.8376943
  17.2283824  66.3184995  24.3985810  17.1481307  67.0537547  24.6580892
   8.9947902  70.4246609  33.4707609   9.0831247  70.2372749  34.3185820
   9.4237614  69.7784038  33.0712456   9.0710004  70.3009617  33.5379361
   8.1703341  61.7130505  16.5786871   8.4099345  61.9208489  15.7662214
   8.4919182  60.9088014  16.6875816   8.2540499  61.6244606  16.4747424
   3.4793632  53.6423901  20.4246409   4.2339600  54.0102218  20.1863459
   3.3021166  54.0163455  21.1925589   3.5648110  53.7522089  20.5031297
  16.7728530  59.7918341  28.4693948  15.9356951  59.8620528  28.7041543
  16.7416761  59.7942836  27.5968251  16.6446813  59.8028568  28.3753496
   3.1693259  61.9351377  34.1842317   3.3413763  61.8257272  35.0327598
   3.7062617  62.5805782  33.9473509   3.2738263  62.0143379  34.2747414
   1.8350696  56.0494220  17.1224522   1.6526269  56.2666101  16.2965515
   2.6976309  56.1633233  17.1783136   1.9355286  56.0984118  17.0079009
   1.4465128  67.8882142  24.5647510   2.2854028  68.1205075  24.6121271
   1.4776897  67.0186453  24.4954545   1.5746846  67.7939088  24.5612155
   7.5150415  53.0520630  20.1573546   8.2436576  52.8736585  19.7111702
   7.6045308  53.8938710  20.3680724   7.6357078  53.1504509  20.1227063
  11.4958716  63.9874018  24.0605840  12.2516231  64.4205532  24.0994748
  11.6021041  63.3378788  24.6340476  11.6228887  63.9551502  24.1503865
  14.5338887  67.8147295  24.8108243  14.0974119  67.8184038  25.5667214
  14.2001803  68.4952794  24.3787820  14.4201507  67.9159751  24.8589075
   9.1067961  69.8555628  36.1351393   9.8908377  69.9686476  36.5007135
   8.9064555  69.0296765  36.3310079   9.1933986  69.7502347  36.2185779
  14.4536370  54.8561123  27.0537671  15.0962279  54.9259228  27.6399586
  14.7059391  54.1890346  26.5517213  14.5858502  54.7687472  27.0664950
   2.2253583  58.0661686  31.6662245   1.5325379  57.5958666  31.9122976
   2.8413910  57.8399991  32.2403952   2.2138113  57.9628818  31.7871397
  17.6683233  64.5328215  23.7027880  18.3299668  63.9718883  23.6023788
  17.0274645  64.0380246  24.0280571  17.6712101  64.3764624  23.7360220
  13.9548064  65.5493597  23.4439869  14.1903653  65.6938796  22.6166719
  14.1037628  66.3136005  23.8371382  14.0113867  65.6832652  23.3803473
   0.9494142  62.0327090  32.8089090   1.6734114  62.0180121  33.2953985
   1.0510278  62.7422446  32.3111058   1.0712351  62.1351793  32.8067877
  15.7838521  64.3895263  21.2809473  16.1146738  64.9222903  20.6749567
  16.3571609  64.4434151  21.9371423  15.9172200  64.4764832  21.2887254
   8.3239091  65.5126175  37.6738037   7.5312072  65.8269687  37.8590656
   8.4388018  65.7277643  36.8358821   8.2234502  65.5910012  37.5776372
  10.9970410  62.2360166  21.9633053  11.0917264  62.9749460  22.4172678
  10.3729254  61.8077641  22.3967617  10.9179440  62.2821487  22.0941200
   9.2522884  65.4146379  32.6123334   9.8261746  64.7773623  32.7671897
   9.1737688  65.4150461  31.7432991   9.3256119  65.3211490  32.5069744
  11.2493431  64.0808906  15.1970005  11.1673594  64.1511093  16.0624992
  11.8873152  64.6438650  15.0053745  11.3313269  64.1747877  15.2959954
   4.6086602  63.8469644  24.6644531   4.3505847  63.0141379  24.6375830
   4.6635085  64.0727257  23.8237031   4.5786380  63.7567415  24.5364668
   9.6887653  55.9498094  24.7648624   8.9843979  55.4607280  24.9232543
   9.7372627  55.9620569  23.8937068   9.5917704  55.8787742  24.6587963
   3.5821315  61.4007406  25.1509426   3.0070906  61.5599575  25.7873387
   3.2056991  60.7642815  24.6877876   3.4424127  61.3305219  25.1763984
   7.2494603  59.8730756  30.0101804   6.8609036  59.4484973  29.3553995
   6.5849302  60.1212905  30.5178831   7.0941531  59.8469477  29.9889672
  16.8917872  59.6305760  22.7849634  16.6354437  58.8185702  22.5947517
  17.7347186  59.6383327  22.5579821  16.9783898  59.5117758  22.7234451
  11.0720965  53.5705384  27.5225788  11.4531477  52.8883555  27.9093663
  10.2684249  53.2814986  27.3401453  11.0097427  53.4272433  27.5529844
   8.3533542  64.1029360  18.2078611   9.1674180  64.3944253  18.0961382
   8.2892683  63.4489222  17.6336904   8.4636281  64.0494555  18.1067448
  14.5743032  66.7855356  32.6208187  14.3381669  65.9543421  32.5020247
  15.2186261  66.7340963  33.2063031  14.6337702  66.6553044  32.6894080
   4.2241450  67.5750878  23.3350923   4.8615397  67.3362625  23.8802717
   4.6496521  67.7788036  22.6004084   4.3817616  67.5701888  23.3068080
   5.0312805  56.0759583  37.3888397   4.7166246  56.8459145  37.1257959
   4.7102738  55.5129839  36.8040624   4.9371724  56.1069851  37.2629747
  15.5979452  66.5699805  28.6836481  15.2925269  67.3027862  29.0449797
  14.8785668  66.1637734  28.4029267  15.4466795  66.6181538  28.6949618
   6.6062922  68.0523300  25.0144709   6.6801930  67.8898472  25.8686559
   7.4232428  68.2413490  24.7705191   6.7379280  68.0560043  25.1042735
  21.2981244  63.2092806  28.0104825  21.2305745  63.2288765  27.1407412
  21.2836907  64.0523133  28.2360496  21.2860001  63.3366540  27.9157302
   2.5844702  54.4650104  23.0034593   1.7167128  54.5372703  23.0692202
   2.8719907  55.2672183  23.1922568   2.4984450  54.5944251  23.0409360
  11.7077591  54.6127963  31.3345915  12.4531183  54.4237774  30.9209340
  11.2914896  55.1386201  30.7759771  11.7562565  54.6630109  31.1910488
  19.0839862  61.9837192  26.2851420  19.6347783  61.3505261  26.5248512
  19.0683977  62.5152585  26.9766924  19.1625058  61.9686140  26.4230278
   5.7362253  65.8175789  30.8311313   5.2373946  66.5291557  30.9096202
   6.5462477  66.1376456  30.7929476   5.7818359  65.9702638  30.8367882
   1.9990370  65.0798742  25.0774034   1.7103619  64.4536213  25.6119762
   2.8673718  65.0219030  25.1438715   2.0850622  64.9786286  25.1664989
  12.7868268  60.2233526  25.3956016  12.4433034  59.5023861  25.7463266
  12.8861311  60.0147377  24.5534374  12.7510311  60.0857729  25.3227696
  13.2481297  66.6859230  20.9380004  13.8139330  67.3452440  20.8538547
  12.6009201  67.0308928  21.4096406  13.2360054  66.8341171  20.9952761
   4.6629311  58.6756834  36.1273612   3.8529086  58.9814613  36.0163454
   5.1403997  59.3962416  36.2426196   4.6132789  58.8271435  36.1280683
   3.5220870  67.8902555  26.3756515   3.0001624  68.0302846  27.0608379
   3.9094891  67.1313219  26.5658632   3.5024571  67.7988078  26.5057591
   9.7187875  69.6298014  20.3617083   9.4774551  68.8965874  19.9544148
   9.8989208  70.1784871  19.7083417   9.7095499  69.6020405  20.2047306
   4.9487196  64.9206574  21.7738006   4.7529978  65.5281308  21.1798309
   5.1721541  64.2274518  21.2929680   4.9521837  64.9084099  21.6154087
   3.3465726  61.8061312  21.8918874   4.0688378  61.9702470  21.4322680
   2.8673719  62.5270976  21.7858214   3.3829457  61.9359541  21.8084488
  11.3059233  58.1425110  27.2715559  10.4670334  58.1686389  27.0353822
  11.3763601  58.7895846  27.8520906  11.1927627  58.2421236  27.3224676
   0.9973343  64.2119384  30.9973014   1.5094439  64.4903637  30.3481774
   0.7109685  64.9508678  31.3635827   1.0308206  64.3621738  30.9562892
   9.7528512  55.0410487  22.0043175  10.4554865  54.8418236  21.5263133
   9.4872700  54.2686430  22.3112018   9.8175144  54.8973453  21.9788617
  15.1816757  63.3493097  24.5576801  15.0950732  63.5048523  25.4111580
  14.7267237  63.9931173  24.1836206  15.1020014  63.4668852  24.6283908
   4.5157068  56.3045773  31.0574056   4.3240265  56.3200907  31.9073479
   5.3655664  56.5009447  31.0340710   4.6132790  56.3360124  31.1797350
   9.0542573  60.6703844  23.1802360   8.8077288  60.5899595  24.0139149
   9.3827696  59.8857312  22.9864888   9.0663817  60.5430110  23.2749883
  12.9490622  67.3787204  26.9689142  12.8104981  68.0768249  27.4737884
  12.1690620  67.2235860  26.6125323  12.8133849  67.4587370  26.9915416
  11.2868707  63.6783579  33.2211523  11.2816746  62.8063395  33.2253950
  11.9929701  63.8771748  32.7480979  11.3913711  63.5787453  33.1518559
   5.0139601  63.4060563  32.5925343   5.1582976  63.9861771  31.9568453
   5.3615249  63.7836859  33.2975198   5.0867062  63.5481267  32.6024338
   7.1859518  62.6050731  30.3750475   6.4382832  62.7981746  29.9698753
   7.3401043  61.7795951  30.1374596   7.0981946  62.5115843  30.2795881
  14.4443995  66.7365457  17.7305641  14.0650804  65.9502595  17.7234930
  13.7810240  67.2852314  17.5877285  14.2902470  66.7010281  17.7086438
   7.4261295  56.5001282  31.2645879   7.8833909  57.2325256  31.3918671
   7.5017624  56.0767747  32.0233134   7.5052265  56.5458520  31.3946955
  11.8988621  49.6791157  25.1339722  12.0172189  50.1367620  24.4007024
  11.7250797  48.8736418  24.8475939  11.8907792  49.6284929  24.9840655
   5.3043673  58.4903386  28.1087703   4.5139748  58.3094846  28.4305038
   5.7004296  57.7130338  28.0917997   5.2460549  58.3490847  28.1540251
  10.6887359  66.1245816  25.8347149  10.0132361  65.8931048  26.3360536
  10.6979735  65.5166999  25.2089254  10.5905864  66.0004741  25.8163301
   7.8181503  60.9663645  32.5911202   7.7540644  61.8273601  32.4631338
   7.9578691  60.6495638  31.7906753   7.8296973  61.0463812  32.4539414
  12.6904094  68.9810948  18.0657327  12.7723931  69.7877935  17.7418777
  13.1753836  69.0006908  18.7898100  12.7741252  69.1031611  18.1244225
   6.5000597  63.6595784  26.7327405   6.0762846  63.8600283  25.9966423
   6.3245452  62.8124632  26.8451704   6.4111478  63.5644566  26.6401095
   1.7883042  64.1547836  22.1655377   1.9447661  64.0894638  23.0211369
   2.1283635  64.9296388  21.9534057   1.8616277  64.2597034  22.2609971
   8.3262187  63.5305719  21.0348740   8.8677732  63.0276100  21.4987361
   8.6408746  63.4770914  20.2238226   8.4526584  63.4485140  20.9832552
  12.1979294  67.7408367  38.1475652  13.0114159  67.4693515  38.3080785
  12.0374260  67.4415907  37.3435848  12.2949243  67.6563293  38.0521058
   9.4751456  58.4242024  31.0871041   9.6893426  57.7852938  30.5334395
   8.8585355  58.8687848  30.6578902   9.4156785  58.3952167  30.9421472
  11.6390544  60.0331089  32.0254348  10.8267226  59.7256979  32.1067521
  12.0980479  59.5530089  32.5897060  11.5870929  59.9167581  32.1208942
  11.0495799  67.9110761  22.4731292  10.6910453  68.0825404  23.2495325
  10.5634510  68.3723967  21.9159291  10.9254496  68.0049732  22.5056561
   8.8666185  51.5341959  26.0758384   7.9959743  51.5080681  26.0291693
   9.1206526  51.3619152  25.2584229   8.7759745  51.5052103  25.9478520
   8.7344052  61.4391160  36.8083050   9.2043683  62.0633277  37.1950924
   8.7805932  60.7708136  37.3676265   8.8111927  61.4325841  36.9483122
   5.8915325  53.5448188  27.5331854   5.3753814  52.8528379  27.6583433
   5.3309254  54.2118965  27.4794453   5.7321838  53.5411446  27.5437920
   7.9607559  54.0841148  29.3624706   7.5739312  54.1090179  30.1438236
   7.4740496  53.5182827  28.9099223   7.8320068  54.0036899  29.4112610
  12.2100538  68.8014657  33.4198493  12.8480259  68.3074853  33.0860949
  11.5674630  68.7292057  32.8350720  12.2094765  68.7173665  33.2840848
  13.9357538  60.6503803  27.9864409  13.5085146  60.5630151  27.2312508
  13.2983591  60.7581578  28.5719253  13.7787145  60.6536463  27.9609850
   7.6264700  50.9708133  31.6534966   8.2557818  51.5068433  31.3756037
   7.7950563  50.8785492  32.5048532   7.7442495  51.0369496  31.7383495
   7.4278615  55.7579328  33.9261378   8.2552045  55.4864477  33.9819992
   7.4486461  56.5540170  34.2825196   7.5531465  55.8359082  33.9876561
  12.2654795  69.4934465  30.0603850  13.0547173  69.1423530  30.1805931
  12.4398393  70.3070854  29.7980484  12.4075076  69.5620322  30.0391718
   2.0048105  62.9043191  27.1131639   1.1636112  62.8047065  27.3210532
   2.2138113  63.6738671  27.4645959   1.9112798  63.0035234  27.1958954
  11.1188619  53.5044022  24.6220268  11.3238212  53.4366330  25.4677265
  10.7915043  54.3102843  24.5541446  11.1003867  53.6129962  24.7379923
   5.8164770  60.8324590  26.3629236   5.5127907  60.2780578  26.9639644
   5.1144191  61.0116800  25.8757270   5.6680980  60.7769372  26.3798942
   4.8730867  58.1425110  20.9273938   5.1490601  57.4244022  20.5151506
   5.4729536  58.7410030  20.7195044   5.0024132  58.1245481  20.8354699
  14.3722307  54.0575786  24.1023034  13.7596620  54.5446188  24.4876766
  14.4686481  53.3819277  24.6460685  14.2960204  54.0294095  24.2401892
   8.3741388  55.8138627  19.2020533   8.8285134  55.9849188  19.9268378
   8.8481433  55.2006738  18.8018309   8.5109708  55.7489512  19.2494295
   1.8956913  65.2986953  28.5323272   1.3044846  65.9396451  28.5026287
   2.6577937  65.7224570  28.5054571   1.9205174  65.4562792  28.5238419
   2.2917536  56.4588951  29.1991289   2.7519017  56.5327880  29.9366413
   2.3373642  57.2570205  28.8491111   2.3668091  56.5883098  29.2564046
   3.9400885  57.1255646  33.7663316   3.5486451  56.4788993  34.2019094
   4.1086748  57.7167081  34.3857572   3.9071796  57.1169914  33.9226022
  18.0147335  65.1292723  29.5300550  18.0730458  65.5779372  30.2760526
  17.3813802  65.5391536  29.0930630  17.9298630  65.2566458  29.5753098
  11.6546429  70.7496265  25.9655296  11.4566118  71.2387079  25.2711507
  11.0334140  70.9537506  26.5439429  11.5333994  70.8512803  25.9478519
   5.7154408  62.5181162  20.3065540   6.4596452  62.9055438  20.5448490
   5.8615104  61.6738587  20.4706028   5.8464993  62.4511634  20.3659510
   7.6333983  54.3131421  25.3397402   6.7870028  54.4854228  25.2138751
   7.6305115  53.5080764  25.6763230   7.5081133  54.2192449  25.3708529
   8.7032283  58.0906635  26.2059460   8.2292238  57.5648397  26.7164771
   9.0750419  57.5436108  25.6374321   8.6882172  57.9322632  26.1974607
  14.9669014  63.1509011  27.6166240  14.7267237  62.3115426  27.6208667
  15.4461021  63.2309177  28.3407014  15.0021198  63.0390410  27.7241042
  10.6315783  58.9843190  19.2685213  10.1038802  59.0671933  18.5790922
  11.0911491  59.7261061  19.2649858  10.6217634  59.1063852  19.1659909
  16.9674201  59.9310468  25.5695499  16.7283971  59.8906302  24.7316284
  17.1308102  60.7781620  25.6961220  16.9564504  60.0502553  25.4648981
  13.5720231  64.3160417  31.5000544  14.2954430  63.8632944  31.3211564
  13.3070193  64.5965083  30.7172872  13.6401504  64.2911386  31.3579260
   2.4407100  58.9120591  28.2353424   1.8160170  58.9238983  27.6279376
   2.1052694  59.3880766  28.8844664   2.2992591  58.9839108  28.2409992
  10.1852866  67.5546753  18.3994870  10.9087064  68.0204866  18.2559444
   9.7453457  67.6220363  17.6492467  10.2268558  67.6330590  18.2679652
   9.3539021  64.4144295  29.6495559   8.7396014  63.8702346  29.9444195
   9.8706306  63.9008532  29.1701376   9.3394683  64.2580704  29.6219788
   8.5935318  65.4848565  27.3839858   8.1662926  64.8598284  26.9505293
   8.5860262  65.2023487  28.2098865   8.5294459  65.3501346  27.4419686
   1.7097845  60.5213738  30.4528292   1.8691332  59.7657063  30.8580014
   1.5290739  61.0704678  31.1069030   1.7063204  60.4907552  30.6090998
   9.6518148  52.6874974  31.0079082   9.1558709  52.8838648  30.3170648
  10.4087210  53.0867642  30.8367883   9.6904973  52.7752708  30.8799218
   6.9221027  56.3617320  27.5982392   6.9463515  55.8277432  26.9095172
   7.1732501  55.8534629  28.2607983   6.9630946  56.2078224  27.5947037
   3.2022350  55.0888138  26.9788136   3.2420721  55.5897345  27.6922844
   2.3772014  55.1798532  26.7094059   3.0861876  55.1769954  27.0438675
   5.3851963  64.6548878  35.0808431   4.5347593  64.7920592  35.2166076
   5.5480090  63.9212656  35.5256133   5.2835826  64.5662979  35.1664030
   4.6236713  61.6048648  29.2762035   3.7928643  61.7722466  29.0697283
   4.5688230  61.2284599  30.0610921   4.4926128  61.5738379  29.3610564
   2.4320496  55.0957541  34.9118446   3.0573200  54.5519674  35.1847878
   1.9770976  54.6152458  34.3426236   2.4568757  54.9447022  34.8680040
   2.9972757  59.8804240  19.8052153   3.1375718  60.3776704  20.5080794
   3.4955290  59.1790534  19.9466367   3.0913838  59.8506218  19.9303732
  16.0055545  63.2786828  30.0031094  16.5973385  63.9184079  30.0349292
  16.4414540  62.5809865  30.2923161  16.1573976  63.2705178  30.0511927
   4.6051962  56.6785326  17.1090172   4.9267803  56.1988408  16.4549434
   4.8678906  57.4884972  16.9180984   4.6917988  56.7275224  16.9845664
   7.8348935  67.7004200  30.6288988   7.3274026  68.2540047  31.0729619
   7.5375581  67.7612490  29.8107763   7.7153820  67.7910511  30.5737445
  10.0011117  56.0657520  29.4713651  10.4266189  55.6130046  28.8597177
   9.3868110  55.5117591  29.7478438   9.9739763  55.9171496  29.4218676
   8.4405340  52.5372620  22.8804228   7.7973658  52.3870266  23.4489366
   8.1004747  52.2914965  22.1153333   8.2950417  52.4784742  22.8507243
  13.0304686  60.4932047  22.3034237  12.3595876  61.0361749  22.1747302
  13.7244437  60.9626902  22.0615931  13.0333554  60.6430318  22.2489764
  13.1932814  56.9487930  25.2124610  13.5460424  56.5217653  25.8870409
  12.3347615  56.8638774  25.3425686  13.1182259  56.8732671  25.3319620
   1.8916499  59.5795450  23.2707456   1.1728488  59.9959582  23.5380320
   2.2628861  60.1449689  22.7199095   1.8408431  59.7244731  23.2290263
  11.1916080  60.2123299  29.1609452  11.1714007  60.0306594  30.0144231
  11.2395280  61.0835317  29.1369036  11.1950721  60.3139837  29.2832747
   9.1362410  66.8010491  35.0857929   9.0958264  66.1560168  34.5003084
   9.9485728  66.7447108  35.3983341   9.2505563  66.6969458  35.0454878
   7.6663073  58.6193450  18.6080836   7.0727913  58.9410446  18.0565403
   7.7038351  57.7734545  18.4001942   7.5837462  58.5417778  18.4963607
  14.6256874  52.0706342  26.1408922  14.1187739  51.3635482  26.0730100
  15.4224308  51.7399531  26.2709999  14.6684113  51.9179493  26.1507917
  10.5420890  58.5772954  22.0382586  10.3134583  58.6005656  21.1960944
  10.8018966  57.7530421  22.1577597  10.5467078  58.4589034  21.9307784
   4.8240118  60.4307427  31.6407686   4.3119021  59.8228610  31.9992718
   4.6519614  61.1464020  32.1081662   4.7229755  60.4470727  31.7623910
   3.5965652  57.1149501  23.3336782   4.0723019  57.4766580  22.6986963
   3.0954252  57.7705968  23.6136924   3.5931011  57.2643689  23.2813523
  16.8277014  66.5871269  19.1249787  17.2110620  67.3362625  19.3547884
  16.0321127  66.8337088  18.8661776  16.7670796  66.7340962  19.1207360
   8.7009189  58.3531672  34.0809942   9.2580619  58.1245481  33.4488407
   8.3770254  59.1137338  33.8045154   8.7355599  58.4315509  33.9466439
   6.4192306  61.4399325  35.0461949   7.1703633  61.7551002  35.3601503
   6.6114882  61.2378496  34.2195871   6.5583720  61.4566707  34.9705345
   5.6392306  59.2590700  16.7010166   6.0191270  59.2770330  15.9161280
   4.8984902  59.7044689  16.5801013   5.5861143  59.3272475  16.5673734
  13.2677596  57.5672892  22.2885744  13.2671822  57.4121548  23.1470021
  13.0633776  58.4135879  22.2327130  13.2377374  57.6693512  22.4073684
  10.9918448  62.2470393  25.9421951  11.4872113  61.5293388  25.9025972
  10.1818224  61.9441191  25.8276438  10.9462341  62.0968040  25.9195677
  13.0570267  64.9974081  28.6299080  13.4825339  64.4748503  28.0769505
  12.6927187  65.5954918  28.1087703  13.0656870  65.0084308  28.4708090
   9.6448866  68.7108345  24.9600237  10.1160045  69.4248608  25.1290223
   9.9809045  68.1107095  25.4960107   9.7643981  68.7279809  25.0632613
  11.7325851  70.3209658  37.1392310  11.8422816  69.5318219  37.4949057
  12.0616748  70.2315595  36.3366648  11.7978257  70.1915511  37.0734700
   6.5618361  53.4835816  31.9158332   6.6946267  52.6866809  32.2439308
   6.9463514  54.0102219  32.4956608   6.6374690  53.4435732  32.0501835
  10.2822813  68.5026279  31.7227930   9.7343759  67.8784163  31.4547995
  10.7435841  68.6920551  31.0072009  10.2690022  68.4385329  31.5778361
   9.6350717  50.4066142  28.5139426   8.8296680  50.2963871  28.8307264
   9.5057452  50.5078598  27.6569291   9.4970849  50.4049812  28.4347466
  13.0916677  56.5711634  29.1079122  12.5079666  57.0720840  28.6956690
  13.4120971  56.0641190  28.4743446  13.0529852  56.5703469  28.9537630
   5.6311476  55.4852229  19.3837797   6.4527171  55.6550541  19.1419492
   5.1681127  55.6399490  18.6604095   5.6842639  55.5333962  19.2409442
   4.2206808  53.4794991  30.1636226   4.7651221  53.1386118  30.7540568
   4.2743744  54.3380452  30.3057511   4.3095928  53.5550250  30.2718099
   9.8481139  69.5077352  28.2537271  10.6679513  69.3640318  28.5153566
   9.5675217  70.1323551  28.7953709   9.9277882  69.5787704  28.3725211
  16.2470261  71.0996920  24.9423461  15.9173591  71.5508064  24.2727160
  15.5715263  71.0213084  25.4896468  16.0980697  71.1548056  24.9246685
  23.4546669  67.0882443  23.1873072  23.1400110  67.7785922  23.6193494
  22.9373611  67.0327225  22.4858573  23.3311139  67.1817332  23.1470021
  14.4526215  69.1609209  20.4246409  15.2072183  69.5287526  20.1863459
  14.2753750  69.5348763  21.1925589  14.5380694  69.2707397  20.5031297
  27.7461114  75.3103649  28.4693948  26.9089535  75.3805836  28.7041543
  27.7149345  75.3128144  27.5968251  27.6179396  75.3213876  28.3753496
  12.8083280  71.5679528  17.1224522  12.6258853  71.7851409  16.2965515
  13.6708893  71.6818540  17.1783136  12.9087869  71.6169426  17.0079009
  18.4882999  68.5705938  20.1573546  19.2169159  68.3921893  19.7111702
  18.5777892  69.4124018  20.3680724  18.6089661  68.6689817  20.1227063
  25.4268954  70.3746431  27.0537671  26.0694862  70.4444535  27.6399586
  25.6791974  69.7075654  26.5517213  25.5591086  70.2872779  27.0664950
  20.6620236  71.4683402  24.7648624  19.9576563  70.9792588  24.9232543
  20.7105211  71.4805877  23.8937068  20.5650288  71.3973050  24.6587963
  27.8650456  75.1491068  22.7849634  27.6087021  74.3371010  22.5947517
  28.7079770  75.1568635  22.5579821  27.9516481  75.0303066  22.7234451
  22.0453548  69.0890692  27.5225788  22.4264060  68.4068863  27.9093663
  21.2416833  68.8000294  27.3401453  21.9830010  68.9457741  27.5529844
  16.0045389  71.5944890  37.3888397  15.6898830  72.3644453  37.1257959
  15.6835321  71.0315146  36.8040624  15.9104308  71.6255159  37.2629747
  13.5577286  69.9835412  23.0034593  12.6899711  70.0558011  23.0692202
  13.8452490  70.7857491  23.1922568  13.4717034  70.1129559  23.0409360
  22.6810175  70.1313271  31.3345915  23.4263767  69.9423082  30.9209340
  22.2647479  70.6571509  30.7759771  22.7295149  70.1815417  31.1910488
  23.7600852  75.7418833  25.3956016  23.4165617  75.0209169  25.7463266
  23.8593894  75.5332685  24.5534374  23.7242894  75.6043037  25.3227696
  22.2791817  73.6610418  27.2715559  21.4402918  73.6871697  27.0353822
  22.3496184  74.3081154  27.8520906  22.1660210  73.7606544  27.3224676
  20.7261095  70.5595795  22.0043175  21.4287448  70.3603544  21.5263133
  20.4605284  69.7871738  22.3112018  20.7907728  70.4158761  21.9788617
  15.4889652  71.8231080  31.0574056  15.2972849  71.8386215  31.9073479
  16.3388247  72.0194755  31.0340710  15.5865373  71.8545432  31.1797350
  18.3993879  72.0186590  31.2645879  18.8566493  72.7510564  31.3918671
  18.4750207  71.5953055  32.0233134  18.4784848  72.0643828  31.3946955
  22.8721204  65.1976465  25.1339722  22.9904773  65.6552928  24.4007024
  22.6983380  64.3921726  24.8475939  22.8640375  65.1470237  24.9840655
  20.4484040  73.9427332  31.0871041  20.6626009  73.3038246  30.5334395
  19.8317939  74.3873156  30.6578902  20.3889369  73.9137475  30.9421472
  19.8398768  67.0527267  26.0758384  18.9692326  67.0265988  26.0291693
  20.0939110  66.8804460  25.2584229  19.7492328  67.0237411  25.9478520
  16.8647909  69.0633496  27.5331854  16.3486397  68.3713687  27.6583433
  16.3041838  69.7304273  27.4794453  16.7054422  69.0596753  27.5437920
  18.9340142  69.6026456  29.3624706  18.5471895  69.6275487  30.1438236
  18.4473080  69.0368134  28.9099223  18.8052651  69.5222207  29.4112610
  18.5997284  66.4893441  31.6534966  19.2290402  67.0253741  31.3756037
  18.7683147  66.3970800  32.5048532  18.7175079  66.5554804  31.7383495
  18.4011199  71.2764636  33.9261378  19.2284628  71.0049785  33.9819992
  18.4219045  72.0725478  34.2825196  18.5264049  71.3544390  33.9876561
  22.0921202  69.0229330  24.6220268  22.2970796  68.9551638  25.4677265
  21.7647626  69.8288151  24.5541446  22.0736450  69.1315270  24.7379923
  25.3454890  69.5761094  24.1023034  24.7329204  70.0631496  24.4876766
  25.4419065  68.9004585  24.6460685  25.2692788  69.5479403  24.2401892
  19.3473971  71.3323935  19.2020533  19.8017718  71.5034496  19.9268378
  19.8214017  70.7192046  18.8018309  19.4842291  71.2674820  19.2494295
  18.6066567  69.8316728  25.3397402  17.7602612  70.0039536  25.2138751
  18.6037699  69.0266072  25.6763230  18.4813717  69.7377757  25.3708529
  19.6764867  73.6091943  26.2059460  19.2024821  73.0833705  26.7164771
  20.0483003  73.0621416  25.6374321  19.6614756  73.4507939  26.1974607
  27.9406785  75.4495776  25.5695499  27.7016555  75.4091610  24.7316284
  28.1040686  76.2966928  25.6961220  27.9297088  75.5687861  25.4648981
  20.6250731  68.2060282  31.0079082  20.1291293  68.4023956  30.3170648
  21.3819794  68.6052950  30.8367883  20.6637556  68.2938016  30.8799218
  17.8953611  71.8802628  27.5982392  17.9196098  71.3462740  26.9095172
  18.1465085  71.3719937  28.2607983  17.9363530  71.7263532  27.5947037
  14.1754933  70.6073446  26.9788136  14.2153305  71.1082653  27.6922844
  13.3504598  70.6983840  26.7094059  14.0594459  70.6955262  27.0438675
  13.4053080  70.6142849  34.9118446  14.0305783  70.0704982  35.1847878
  12.9503560  70.1337766  34.3426236  13.4301341  70.4632330  34.8680040
  20.9743701  71.5842828  29.4713651  21.3998772  71.1315354  28.8597177
  20.3600694  71.0302899  29.7478438  20.9472346  71.4356804  29.4218676
  19.4137924  68.0557928  22.8804228  18.7706242  67.9055574  23.4489366
  19.0737331  67.8100273  22.1153333  19.2683001  67.9970050  22.8507243
  24.1665398  72.4673238  25.2124610  24.5193008  72.0402961  25.8870409
  23.3080199  72.3824082  25.3425686  24.0914842  72.3917979  25.3319620
  25.5989458  67.5891650  26.1408922  25.0920322  66.8820790  26.0730100
  26.3956891  67.2584839  26.2709999  25.6416697  67.4364801  26.1507917
  21.5153473  74.0958262  22.0382586  21.2867166  74.1190964  21.1960944
  21.7751550  73.2715729  22.1577597  21.5199661  73.9774342  21.9307784
  24.2410180  73.0858199  22.2885744  24.2404406  72.9306856  23.1470021
  24.0366360  73.9321187  22.2327130  24.2109957  73.1878820  22.4073684
  17.5350945  69.0021124  31.9158332  17.6678851  68.2052117  32.2439308
  17.9196098  69.5287527  32.4956608  17.6107274  68.9621040  32.0501835
  20.6083300  65.9251450  28.5139426  19.8029264  65.8149179  28.8307264
  20.4790036  66.0263905  27.6569291  20.4703433  65.9235120  28.4347466
  24.0649261  72.0896942  29.1079122  23.4812250  72.5906148  28.6956690
  24.3853555  71.5826498  28.4743446  24.0262436  72.0888777  28.9537630
  16.6044060  71.0037536  19.3837797  17.4259754  71.1735849  19.1419492
  16.1413711  71.1584797  18.6604095  16.6575222  71.0519269  19.2409442
  15.1939392  68.9980299  30.1636226  15.7383805  68.6571426  30.7540568
  15.2476327  69.8565760  30.3057511  15.2828511  69.0735558  30.2718099
   0.5773848  28.4211896  22.5133581   1.2840615  27.9263926  22.6420515
   0.7661783  28.8620977  21.7836239   0.7101753  28.4130246  22.4242626
   3.2961272  28.2048179  19.5548234   3.0599909  27.3736244  19.4360294
   3.9404501  28.1533787  20.1403078   3.3555943  28.0745867  19.6234127
   4.3197693  27.9892628  15.6176528   4.0143510  28.7220685  15.9789844
   3.6003908  27.5830558  15.3369314   4.1685035  28.0374361  15.6289665
  10.0199485  24.6285629  14.9444872   9.9523985  24.6481588  14.0747459
  10.0055147  25.4715956  15.1700543  10.0078241  24.7559364  14.8497349
   0.9197534  29.1601190  25.0815699   1.7332400  28.8886339  25.2420832
   0.7592501  28.8608730  24.2775895   1.0167483  29.0756116  24.9861105
   0.9873035  30.9127288  16.9943897   1.7765413  30.5616353  17.1145978
   1.1616633  31.7263677  16.7320530   1.1293317  30.9813146  16.9731765
   6.7365575  26.5485546  16.4640597   6.7948699  26.9972195  17.2100573
   6.1032042  26.9584359  16.0270677   6.6516870  26.6759281  16.5093145
   2.2938471  25.7353240  18.4340591   3.0172670  25.2825767  18.2551611
   2.0288434  26.0157906  17.6512919   2.3619745  25.7104209  18.2919307
   4.7273785  24.6979651  16.9371141   5.3191626  25.3376902  16.9689339
   5.1632780  24.0002688  17.2263208   4.8792217  24.6898002  16.9851974
   1.7788507  26.4166904  15.5639127   2.2043579  25.8941326  15.0109552
   1.4145427  27.0147742  15.0427750   1.7875110  26.4277131  15.4048137
   0.4544091  31.7402482  24.0732356   0.5641057  30.9511042  24.4289104
   0.7834988  31.6508418  23.2706694   0.5196497  31.6108335  24.0074747
  15.0413030  38.5835027   8.1520194  15.0107034  39.4379664   8.3238464
  15.6394379  38.2830319   8.7106338  15.1250188  38.6651523   8.2594997
   8.2412715  37.6710678  12.9073125   7.3850610  37.8319176  12.9582242
   8.2880368  36.8002742  12.9278186   8.1211826  37.5661480  12.9179191
  11.5506431  43.9397204  22.5133581  12.2573198  43.4449234  22.6420515
  11.7394367  44.3806285  21.7836239  11.6834337  43.9315554  22.4242626
   7.6183106  49.5813034  10.0407015   8.0022485  50.1499933   9.5011790
   7.5542247  48.8562544   9.5612831   7.6656533  49.5588497   9.8900878
  11.0864536  39.7302722  15.5504776  11.6320496  40.4087808  15.6098746
  11.0281412  39.5890183  14.6906358  11.1580450  39.8094724  15.4316837
   4.2038611  47.2191788  10.9373129   4.3048973  46.4092142  11.2470257
   3.6080356  47.1248734  10.3072807   4.1311149  47.0856816  10.8899367
  12.8629604  41.1587329   6.4238504  12.7469130  41.9095015   6.8530642
  13.6585491  40.9011282   6.6734591  12.9634194  41.2322176   6.5242596
   4.0439350  52.1369377  12.3387985   4.6876806  52.5782541  12.7284143
   4.3695606  51.3322803  12.2518244   4.1871179  52.0834572  12.3833462
   6.7961638  37.1497347   7.7942233   7.4941803  37.3285474   8.2863697
   7.1113970  36.6267686   7.1712623   6.9456975  37.0991119   7.7744244
   6.9849573  43.5367792   7.7822025   7.4243209  42.9284892   8.2276798
   6.8354236  43.1575165   7.0107490   7.0271039  43.3906263   7.7341192
   4.4521216  42.1311804  14.9840850   5.0970219  41.6384247  14.6651799
   4.6922993  42.2736590  15.8106929   4.5831801  42.0789246  15.0590384
   6.9907308  44.9766710  14.6347743   7.2730550  44.1818115  14.4134499
   7.7193468  45.4547297  14.6552804   7.1396871  44.9301307  14.6050758
   4.9688501  32.5189744  11.8763508   4.6391832  32.9700887  11.2067207
   4.2933503  32.4405907  12.4236514   4.8198938  32.5740879  11.8586731
  10.5858910  41.8894973   4.7352794  10.5010205  42.7455940   4.8802363
  11.0743293  41.6139297   5.4034953  10.6447807  41.9752295   4.8554876
  11.5177343  38.5079767   6.2350529  10.9888815  38.7239401   6.8947835
  12.0402363  39.2015906   6.1551499  11.5165796  38.6422904   6.3206128
  16.9725396  44.0826072  11.6083574  16.1423099  44.2936716  11.7716990
  16.9234648  43.2563126  11.3325857  16.8432131  43.9915678  11.5920939
   5.0335134  46.9129926  14.4431483   4.5162075  46.5537341  13.8392791
   5.7309525  46.3892100  14.4537549   5.0600715  46.7827614  14.3561742
   8.6898726  47.3624740  20.4047656   8.7782071  47.1750880  21.2525867
   9.1188438  46.7162170  20.0052503   8.7660828  47.2387748  20.4719408
   6.2569185  46.6455900  19.3865318   5.6940020  46.2328510  19.9104980
   7.0190209  46.5708806  19.8058462   6.2863634  46.5733301  19.5258319
   1.8165177  48.6353921  11.9901949   2.5185756  48.1205910  12.0474705
   1.7362660  48.9628073  12.7948824   1.9088937  48.6068147  12.1174741
  16.4679354  36.7296472  15.4033995  15.6307775  36.7998660  15.6381590
  16.4367585  36.7320967  14.5308297  16.3397637  36.7406700  15.3093543
   2.8644083  38.8729508  21.1182364   3.0364587  38.7635403  21.9667645
   3.4013441  39.5183914  20.8813556   2.9689087  38.9521510  21.2087460
   1.1415952  44.8260273  11.4987557   1.9804852  45.0583206  11.5461318
   1.1727721  43.9564585  11.4294592   1.2697670  44.7317220  11.4952201
   1.7668655  45.2461148  15.8000862   2.3066880  45.1032279  16.4704235
   1.0838601  45.6457899  16.1684888   1.7460809  45.2840819  15.9535284
  11.1909540  40.9252149  10.9945887  11.9467055  41.3583663  11.0334795
  11.2971865  40.2756919  11.5680523  11.3179711  40.8929633  11.0843912
  14.2289711  44.7525426  11.7448289  13.7924943  44.7562169  12.5007261
  13.8952627  45.4330925  11.3127867  14.1152331  44.8537882  11.7929122
   8.8018785  46.7933759  23.0691440   9.5859201  46.9064607  23.4347182
   8.6015379  45.9674896  23.2650126   8.8884810  46.6880479  23.1525826
  14.1487194  31.7939254  13.9877717  14.7913103  31.8637359  14.5739633
  14.4010215  31.1268477  13.4857259  14.2809326  31.7065603  14.0004997
   1.9204407  35.0039817  18.6002291   1.2276203  34.5336797  18.8463023
   2.5364734  34.7778122  19.1743999   1.9088937  34.9006949  18.7211444
   8.9589178  48.7043861  16.7157895   8.1604424  48.4643361  16.9731764
   9.4075190  48.7558254  17.4624943   8.9063789  48.6766252  16.8642820
  17.3634057  41.4706346  10.6367927  18.0250491  40.9097015  10.5363835
  16.7225469  40.9758377  10.9620618  17.3662925  41.3142755  10.6700267
  13.6498888  42.4871729  10.3779916  13.8854477  42.6316927   9.5506766
  13.7988452  43.2514137  10.7711429  13.7064691  42.6210783  10.3143519
   0.6444966  38.9705221  19.7429137   1.3684938  38.9558252  20.2294031
   0.7461102  39.6800577  19.2451105   0.7663175  39.0729925  19.7407923
  15.4789345  41.3273394   8.2149519  15.8097562  41.8601035   7.6089614
  16.0522433  41.3812282   8.8711470  15.6123024  41.4142963   8.2227301
   8.0189915  42.4504306  24.6078084   7.2262896  42.7647818  24.7930703
   8.1338842  42.6655774  23.7698868   7.9185326  42.5288143  24.5116418
  10.6921234  39.1738297   8.8973099  10.7868088  39.9127591   9.3512725
  10.0680078  38.7455773   9.3307664  10.6130264  39.2199618   9.0281247
   8.9473708  42.3524510  19.5463380   9.5212569  41.7151754  19.7011944
   8.8688512  42.3528592  18.6773038   9.0206943  42.2589621  19.4409791
   4.3037426  40.7847775  11.5984578   4.0456671  39.9519510  11.5715877
   4.3585909  41.0105388  10.7577078   4.2737204  40.6945546  11.4704715
   9.3838477  32.8876226  11.6988670   8.6794803  32.3985411  11.8572590
   9.4323451  32.8998700  10.8277115   9.2868528  32.8165874  11.5928010
   3.2772139  38.3385537  12.0849473   2.7021730  38.4977706  12.7213433
   2.9007815  37.7020947  11.6217923   3.1374951  38.2683350  12.1104031
   6.9445427  36.8108887  16.9441851   6.5559860  36.3863104  16.2894042
   6.2800126  37.0591036  17.4518878   6.7892355  36.7847608  16.9229719
  16.5868696  36.5683891   9.7189681  16.3305261  35.7563833   9.5287564
  17.4298010  36.5761459   9.4919868  16.6734722  36.4495889   9.6574498
  10.7671789  30.5083515  14.4565835  11.1482301  29.8261687  14.8433709
   9.9635073  30.2193118  14.2741500  10.7048250  30.3650564  14.4869891
   8.0484365  41.0407491   5.1418658   8.8625004  41.3322384   5.0301429
   7.9843507  40.3867354   4.5676951   8.1587105  40.9872686   5.0407495
  14.2693856  43.7233487  19.5548234  14.0332493  42.8921552  19.4360294
  14.9137085  43.6719095  20.1403078  14.3288526  43.5931175  19.6234127
   3.9192274  44.5129009  10.2690970   4.5566221  44.2740756  10.8142763
   4.3447345  44.7166168   9.5344131   4.0768440  44.5080019  10.2408127
   4.7263629  33.0137714  24.3228444   4.4117070  33.7837276  24.0598006
   4.4053562  32.4507970  23.7380671   4.6322548  33.0447982  24.1969794
  15.2930276  43.5077936  15.6176528  14.9876093  44.2405993  15.9789844
  14.5736492  43.1015866  15.3369314  15.1417619  43.5559669  15.6289665
   6.3013746  44.9901431  11.9484756   6.3752754  44.8276603  12.8026606
   7.1183252  45.1791621  11.7045238   6.4330104  44.9938174  12.0382782
  20.9932068  40.1470937  14.9444872  20.9256569  40.1666896  14.0747459
  20.9787731  40.9901264  15.1700543  20.9810825  40.2744672  14.8497349
  11.4028415  31.5506095  18.2685962  12.1482007  31.3615905  17.8549387
  10.9865719  32.0764333  17.7099818  11.4513389  31.6008240  18.1250535
  18.7790686  38.9215323  13.2191467  19.3298607  38.2883392  13.4588559
  18.7634801  39.4530716  13.9106971  18.8575882  38.9064271  13.3570325
   5.4313077  42.7553920  17.7651360   4.9324770  43.4669688  17.8436249
   6.2413301  43.0754587  17.7269523   5.4769183  42.9080769  17.7707929
   1.6941194  42.0176873  12.0114081   1.4054443  41.3914345  12.5459808
   2.5624542  41.9597161  12.0778762   1.7801446  41.9164418  12.1005036
  12.4819092  37.1611657  12.3296063  12.1383858  36.4401992  12.6803313
  12.5812135  36.9525508  11.4874421  12.4461135  37.0235860  12.2567743
  12.9432121  43.6237361   7.8720051  13.5090154  44.2830571   7.7878594
  12.2960024  43.9687059   8.3436453  12.9310877  43.7719302   7.9292808
   4.3580135  35.6134965  23.0613658   3.5479910  35.9192744  22.9503501
   4.8354821  36.3340547  23.1766242   4.3083613  35.7649566  23.0620729
   3.2171694  44.8280686  13.3096562   2.6952448  44.9680977  13.9948426
   3.6045714  44.0691350  13.4998679   3.1975395  44.7366210  13.4397638
   9.4138699  46.5676145   7.2957130   9.1725375  45.8344006   6.8884195
   9.5940032  47.1163002   6.6423464   9.4046323  46.5398536   7.1387353
   4.6438020  41.8584705   8.7078053   4.4480802  42.4659439   8.1138356
   4.8672365  41.1652649   8.2269726   4.6472661  41.8462230   8.5494133
   3.0416550  38.7439443   8.8258921   3.7639202  38.9080601   8.3662727
   2.5624543  39.4649108   8.7198261   3.0780280  38.8737672   8.7424535
  11.0010057  35.0803241  14.2055606  10.1621158  35.1064520  13.9693869
  11.0714425  35.7273977  14.7860952  10.8878451  35.1799367  14.2564723
   0.6924166  41.1497515  17.9313061   1.2045263  41.4281768  17.2821821
   0.4060509  41.8886809  18.2975874   0.7259030  41.2999869  17.8902939
   9.4479336  31.9788618   8.9383222  10.1505688  31.7796367   8.4603180
   9.1823524  31.2064561   9.2452065   9.5125968  31.8351585   8.9128663
  14.8767581  40.2871228  11.4916848  14.7901556  40.4426654  12.3451626
  14.4218061  40.9309304  11.1176253  14.7970838  40.4046983  11.5623954
   4.2107892  33.2423904  17.9914102   4.0191089  33.2579038  18.8413526
   5.0606488  33.4387578  17.9680757   4.3083614  33.2738255  18.1137397
   8.7493397  37.6081975  10.1142407   8.5028112  37.5277726  10.9479196
   9.0778520  36.8235443   9.9204935   8.7614641  37.4808241  10.2089930
  12.6441446  44.3165335  13.9029188  12.5055805  45.0146380  14.4077931
  11.8641444  44.1613991  13.5465370  12.5084673  44.3965501  13.9255462
  10.9819531  40.6161710  20.1551570  10.9767570  39.7441527  20.1593996
  11.6880525  40.8149879  19.6821026  11.0864535  40.5165584  20.0858605
   4.7090425  40.3438694  19.5265390   4.8533800  40.9239902  18.8908500
   5.0566073  40.7214991  20.2315245   4.7817886  40.4859398  19.5364385
   6.8810342  39.5428862  17.3090522   6.1333656  39.7359877  16.9038800
   7.0351867  38.7174082  17.0714643   6.7932769  39.4493974  17.2135928
   3.7818180  48.5341466  16.3926417   3.9307743  47.9744382  15.7399821
   4.5618182  48.6133467  16.7758936   3.9192273  48.4627031  16.3523366
  14.1394819  43.6743588   4.6645688  13.7601628  42.8880726   4.6574977
  13.4761064  44.2230445   4.5217332  13.9853294  43.6388412   4.6426484
   6.3071480  48.7056109  17.6710908   6.2315151  48.0364919  18.2261696
   6.2361339  49.4073897  18.1851574   6.2852087  48.7101016  17.8287756
   7.1212119  33.4379413  18.1985925   7.5784733  34.1703387  18.3258718
   7.1968448  33.0145878  18.9573181   7.2003089  33.4836651  18.3287002
  11.5939445  26.6169288  12.0679768  11.7123013  27.0745752  11.3347071
  11.4201621  25.8114549  11.7815986  11.5858616  26.5663060  11.9180702
   6.9641727  47.2257108   8.5034514   7.7291618  46.9566751   8.1817178
   6.8619817  46.7407118   9.2204577   7.0623223  47.1146672   8.5614341
   4.9994497  35.4281517  15.0427750   4.2090572  35.2472977  15.3645085
   5.3955120  34.6508470  15.0258044   4.9411373  35.2868978  15.0880298
  10.3838183  43.0623947  12.7687195   9.7083185  42.8309179  13.2700582
  10.3930559  42.4545130  12.1429300  10.2856688  42.9382872  12.7503348
   7.5132327  37.9041776  19.5251248   7.4491468  38.7651733  19.3971385
   7.6529515  37.5873769  18.7246800   7.5247797  37.9841943  19.3879461
  12.3854918  45.9189079   4.9997373  12.4674755  46.7256066   4.6758824
  12.8704660  45.9385039   5.7238147  12.4692076  46.0409742   5.0584272
   6.1951421  40.5973915  13.6667451   5.7713670  40.7978414  12.9306470
   6.0196276  39.7502763  13.7791751   6.1062302  40.5022697  13.5741141
   5.6963114  52.1124428  16.1288909   6.1859045  51.4135218  15.9464573
   5.1247347  51.8148298  16.7164966   5.6847644  51.9650652  16.1889949
   1.4833866  41.0925967   9.0995424   1.6398485  41.0272770   9.9551416
   1.8234459  41.8674519   8.8874103   1.5567101  41.1975165   9.1950018
   8.0213011  40.4683850   7.9688787   8.5628556  39.9654232   8.4327408
   8.3359570  40.4149045   7.1578272   8.1477408  40.3863271   7.9172599
  11.8930118  44.6786498  25.0815699  12.7064983  44.4071647  25.2420832
  11.7325084  44.3794038  24.2775895  11.9900066  44.5941424  24.9861105
   9.1702280  35.3620155  18.0211088   9.3844250  34.7231069  17.4674442
   8.5536179  35.8065979  17.5918949   9.1107609  35.3330299  17.8761519
  10.5806948  48.2838903   9.4665308  10.1886740  47.9805618   8.7488175
  10.7360020  49.1207993   9.2770262  10.5460538  48.3622740   9.3321806
  11.3341368  36.9709220  18.9594395  10.5218050  36.6635111  19.0407567
  11.7931303  36.4908220  19.5237107  11.2821753  36.8545713  19.0548989
  10.7446623  44.8488892   9.4071339  10.3861277  45.0203535  10.1835371
  10.2585333  45.3102098   8.8499337  10.6205320  44.9427863   9.4396608
   8.5617009  28.4720091  13.0098430   7.6910567  28.4458812  12.9631740
   8.8157350  28.2997283  12.1924276   8.4710569  28.4430234  12.8818567
   8.4294876  38.3769292  23.7423097   8.8994507  39.0011408  24.1290971
   8.4756756  37.7086267  24.3016312   8.5062751  38.3703972  23.8823168
   5.5866149  30.4826319  14.4671901   5.0704638  29.7906511  14.5923480
   5.0260078  31.1497096  14.4134499   5.4272662  30.4789577  14.4777967
   7.6558383  31.0219279  16.2964753   7.2690136  31.0468311  17.0778283
   7.1691320  30.4560958  15.8439270   7.5270891  30.9415030  16.3452657
  11.9051362  45.7392788  20.3538540  12.5431083  45.2452984  20.0200996
  11.2625454  45.6670189  19.7690767  11.9045589  45.6551797  20.2180895
  13.6308362  37.5881934  14.9204455  13.2035970  37.5008283  14.1652555
  12.9934415  37.6959710  15.5059300  13.4737969  37.5914594  14.8949897
   7.3215524  27.9086265  18.5875013   7.9508642  28.4446565  18.3096084
   7.4901387  27.8163624  19.4388579   7.4393319  27.9747627  18.6723541
   7.1229439  32.6957459  20.8601425   7.9502869  32.4242608  20.9160039
   7.1437285  33.4918301  21.2165243   7.2482289  32.7737214  20.9216608
  11.9605619  46.4312596  16.9943897  12.7497997  46.0801661  17.1145978
  12.1349216  47.2448985  16.7320530  12.1025900  46.4998453  16.9731765
   1.6998929  39.8421322  14.0471685   0.8586936  39.7425196  14.2550579
   1.9088937  40.6116802  14.3986006   1.6063622  39.9413365  14.1299000
  10.8139443  30.4422153  11.5560315  11.0189036  30.3744461  12.4017312
  10.4865867  31.2480974  11.4881492  10.7954691  30.5508093  11.6719970
   5.5115594  37.7702721  13.2969283   5.2078731  37.2158710  13.8979691
   4.8095015  37.9494931  12.8097317   5.3631804  37.7147504  13.3138989
   3.5733945  44.9852442  18.0041381   3.4654300  44.9954504  18.8703439
   3.7829726  45.8107222  17.8146335   3.5884056  45.1093517  18.1045472
  14.0673130  30.9953917  11.0363080  13.4547444  31.4824319  11.4216812
  14.1637305  30.3197408  11.5800732  13.9911028  30.9672226  11.1741939
   1.5907737  42.2365084  15.4663318   0.9995670  42.8774583  15.4366333
   2.3528760  42.6602702  15.4394618   1.6155998  42.3940923  15.4578466
   1.9868360  33.3967082  16.1331336   2.4469841  33.4706012  16.8706460
   2.0324466  34.1948336  15.7831157   2.0618915  33.5261229  16.1904092
   3.6351709  34.0633777  20.7003363   3.2437275  33.4167124  21.1359141
   3.8037572  34.6545212  21.3197618   3.6022620  34.0548045  20.8566069
  17.7098158  42.0670854  16.4640597  17.7681282  42.5157503  17.2100573
  17.0764626  42.4769667  16.0270677  17.6249454  42.1944589  16.5093145
  11.3497253  47.6874396  12.8995343  11.1516942  48.1765210  12.2051554
  10.7284964  47.8915637  13.4779476  11.2284818  47.7890934  12.8818566
   5.4105231  39.4559293   7.2405587   6.1547276  39.8433569   7.4788537
   5.5565928  38.6116718   7.4046075   5.5415817  39.3889766   7.2999557
   7.3284807  31.2509552  12.2737448   6.4820852  31.4232359  12.1478798
   7.3255939  30.4458895  12.6103277   7.2031957  31.1570581  12.3048575
   8.3983107  35.0284766  13.1399506   7.9243062  34.5026528  13.6504817
   8.7701243  34.4814239  12.5714368   8.3832996  34.8700763  13.1314654
  14.6619838  40.0887142  14.5506287  14.4218061  39.2493557  14.5548713
  15.1411845  40.1687308  15.2747060  14.6972022  39.9768541  14.6581089
  16.6625025  36.8688599  12.5035546  16.4234795  36.8284433  11.6656331
  16.8258926  37.7159751  12.6301267  16.6515328  36.9880684  12.3989028
  13.2671055  41.2538548  18.4340591  13.9905254  40.8011075  18.2551611
  13.0021017  41.5343214  17.6512919  13.3352328  41.2289517  18.2919307
   2.1357923  35.8498722  15.1693470   1.5110994  35.8617114  14.5619423
   1.8003518  36.3258897  15.8184711   1.9943415  35.9217239  15.1750039
   9.8803690  44.4924884   5.3334917  10.6037888  44.9582997   5.1899491
   9.4404281  44.5598494   4.5832514   9.9219382  44.5708721   5.2019699
   9.0489845  41.3522427  16.5835606   8.4346838  40.8080477  16.8784242
   9.5657130  40.8386663  16.1041422   9.0345507  41.1958836  16.5559835
   8.2886142  42.4226697  14.3179905   7.8613750  41.7976415  13.8845340
   8.2811086  42.1401618  15.1438912   8.2245283  42.2879477  14.3759732
   1.4048669  37.4591870  17.3868339   1.5642156  36.7035194  17.7920061
   1.2241562  38.0082809  18.0409077   1.4014028  37.4285683  17.5431045
   9.3468972  29.6253105  17.9419128   8.8509533  29.8216779  17.2510695
  10.1038034  30.0245773  17.7707930   9.3855797  29.7130839  17.8139265
   6.6171851  33.2995451  14.5322439   6.6414339  32.7655563  13.8435219
   6.8683325  32.7912760  15.1948029   6.6581770  33.1456355  14.5287084
   2.8973174  32.0266269  13.9128183   2.9371545  32.5275476  14.6262891
   2.0722838  32.1176663  13.6434106   2.7812700  32.1148086  13.9778721
   5.0802787  41.5927009  22.0148478   4.2298417  41.7298724  22.1506123
   5.2430914  40.8590788  22.4596179   4.9786650  41.5041111  22.1004077
   4.3187537  38.5426779  16.2102082   3.4879467  38.7100597  16.0037330
   4.2639054  38.1662730  16.9950967   4.1876952  38.5116510  16.2950610
   2.1271320  32.0335672  21.8458493   2.7524024  31.4897805  22.1187925
   1.6721800  31.5530590  21.2766283   2.1519581  31.8825153  21.8020087
  15.7006369  40.2164959  16.9371141  16.2924209  40.8562210  16.9689339
  16.1365364  39.5187996  17.2263208  15.8524800  40.2083309  16.9851974
   7.5299759  44.6382331  17.5629035   7.0224850  45.1918178  18.0069665
   7.2326405  44.6990621  16.7447809   7.4104644  44.7288643  17.5077492
   9.6961941  33.0035651  16.4053698  10.1217013  32.5508178  15.7937224
   9.0818934  32.4495722  16.6818485   9.6690586  32.8549627  16.3558723
  12.7255510  37.4310178   9.2374283  12.0546700  37.9739880   9.1087349
  13.4195261  37.9005033   8.9955978  12.7284378  37.5808449   9.1829811
   6.7742244  49.5706890  14.4686042   6.5507899  48.8125719  14.8370068
   6.2852087  49.6004911  13.7466481   6.6685693  49.4629114  14.4162783
  12.8883638  33.8866061  12.1464657  13.2411248  33.4595784  12.8210455
  12.0298439  33.8016905  12.2765733  12.8133083  33.8110802  12.2659667
   1.5867323  36.5173581  10.2047503   0.8679312  36.9337714  10.4720367
   1.9579685  37.0827820   9.6539141   1.5359255  36.6622862  10.1630310
  10.8866904  37.1501430  16.0949499  10.8664831  36.9684725  16.9484278
  10.9346104  38.0213448  16.0709083  10.8901545  37.2517968  16.2172794
   8.8313234  43.7388622  22.0197975   8.7909088  43.0938299  21.4343131
   9.6436552  43.6825239  22.3323387   8.9456387  43.6347589  21.9794925
   5.4220701  49.7907348  11.9223126   5.0081100  49.1281478  11.5326968
   6.1068075  49.9385207  11.4018820   5.4619073  49.7148006  11.7879623
   8.7885995  48.9497433  12.6746743   8.3902278  49.0599703  11.9067563
   8.1737215  49.1579499  13.2573303   8.6384885  48.9971001  12.6478042
  14.3207698  29.0084473  13.0748969  13.8138563  28.3013613  13.0070147
  15.1175132  28.6777662  13.2050046  14.3634937  28.8557625  13.0847964
  10.2371714  35.5151085   8.9722633  10.0085407  35.5383787   8.1300991
  10.4969790  34.6908552   9.0917643  10.2417902  35.3967165   8.8647831
   4.5190942  37.3685558  18.5747733   4.0069845  36.7606741  18.9332764
   4.3470438  38.0842151  19.0421709   4.4180579  37.3848858  18.6963957
   3.2916476  34.0527632  10.2676829   3.7673843  34.4144712   9.6327010
   2.7905076  34.7084099  10.5476971   3.2881835  34.2021820  10.2153569
  16.5227838  43.5249400   6.0589834  16.9061444  44.2740756   6.2887931
  15.7271951  43.7715219   5.8001823  16.4621620  43.6719094   6.0547407
   8.3960013  35.2909803  21.0149989   8.9531443  35.0623613  20.3828454
   8.0721078  36.0515469  20.7385201   8.4306423  35.3693640  20.8806486
   6.1143130  38.3777456  21.9801996   6.8654457  38.6929133  22.2941550
   6.3065706  38.1756627  21.1535917   6.2534544  38.3944838  21.9045391
  12.9628420  34.5051023   9.2225791  12.9622646  34.3499679  10.0810068
  12.7584600  35.3514010   9.1667177  12.9328198  34.6071643   9.3413731
  10.6869272  39.1848525  12.8761998  11.1822937  38.4671520  12.8366018
   9.8769048  38.8819322  12.7616485  10.6413165  39.0346171  12.8535724
  12.7521091  41.9352212  15.5639127  13.1776162  41.4126634  15.0109552
  12.3878011  42.5333049  15.0427750  12.7607693  41.9462439  15.4048137
   2.3875171  50.2316430  14.3236472   2.7021730  51.0452818  14.3314254
   2.7968584  49.8466648  14.9918631   2.4943269  50.2945132  14.4240564
   9.3399690  45.6486476  11.8940284   9.8110869  46.3626739  12.0630269
   9.6759869  45.0485226  12.4300154   9.4594805  45.6657941  11.9972660
  11.4276675  47.2587790  24.0732356  11.5373640  46.4696350  24.4289104
  11.7567572  47.1693726  23.2706694  11.4929081  47.1293643  24.0074747
   6.2569185  30.4213947  18.8498379   6.3897091  29.6244940  19.1779355
   6.6414338  30.9480350  19.4296655   6.3325514  30.3813864  18.9841882
   9.9773637  45.4404410  18.6567977   9.4294583  44.8162294  18.3888042
  10.4386665  45.6298682  17.9412056   9.9640846  45.3763461  18.5118408
   9.3301540  27.3444273  15.4479472   8.5247504  27.2342003  15.7647311
   9.2008276  27.4456729  14.5909338   9.1921673  27.3427943  15.3687513
  12.7867501  33.5089765  16.0419169  12.2030490  34.0098971  15.6296737
  13.1071795  33.0019321  15.4083493  12.7480676  33.5081600  15.8877676
   3.9157632  30.4173122  17.0976273   4.4602045  30.0764249  17.6880615
   3.9694568  31.2758583  17.2397557   4.0046751  30.4928381  17.2058146
   9.5431963  46.4455483  15.1877318  10.3630337  46.3018449  15.4493613
   9.2626041  47.0701682  15.7293756   9.6228706  46.5165835  15.3065258
  26.0145613  54.1020335   8.1520194  25.9839618  54.9564972   8.3238464
  26.6126962  53.8015627   8.7106338  26.0982771  54.1836831   8.2594997
  19.2145298  53.1895986  12.9073125  18.3583194  53.3504484  12.9582242
  19.2612952  52.3188050  12.9278186  19.0944410  53.0846788  12.9179191
  22.5239015  59.4582511  22.5133581  23.2305782  58.9634542  22.6420515
  22.7126950  59.8991593  21.7836239  22.6566920  59.4500862  22.4242626
  18.5915689  65.0998342  10.0407015  18.9755068  65.6685241   9.5011790
  18.5274830  64.3747852   9.5612831  18.6389116  65.0773805   9.8900878
  22.0597119  55.2488030  15.5504776  22.6053079  55.9273116  15.6098746
  22.0013996  55.1075491  14.6906358  22.1313034  55.3280031  15.4316837
  15.1771194  62.7377096  10.9373129  15.2781557  61.9277450  11.2470257
  14.5812939  62.6434042  10.3072807  15.1043733  62.6042124  10.8899367
  23.8362188  56.6772637   6.4238504  23.7201714  57.4280323   6.8530642
  24.6318075  56.4196590   6.6734591  23.9366777  56.7507484   6.5242596
  15.0171934  67.6554685  12.3387985  15.6609389  68.0967849  12.7284143
  15.3428189  66.8508111  12.2518244  15.1603762  67.6019880  12.3833462
  10.6726326  50.9283113  13.4609770  10.0531357  50.3375760  13.2919785
  10.5710189  51.5194548  12.8274094  10.5664001  50.9287196  13.3414760
  17.7694221  52.6682655   7.7942233  18.4674386  52.8470782   8.2863697
  18.0846554  52.1452994   7.1712623  17.9189559  52.6176427   7.7744244
  10.3995459  54.4735395  15.7053339  10.2754156  55.0597840  16.3403158
  11.0513743  53.9795590  16.0065614  10.4769108  54.4874199  15.8439269
  17.9582157  59.0553100   7.7822025  18.3975792  58.4470200   8.2276798
  17.8086820  58.6760473   7.0107490  18.0003623  58.9091571   7.7341192
  15.4253800  57.6497112  14.9840850  16.0702802  57.1569555  14.6651799
  15.6655577  57.7921898  15.8106929  15.5564385  57.5974554  15.0590384
  17.9639891  60.4952018  14.6347743  18.2463134  59.7003423  14.4134499
  18.6926052  60.9732605  14.6552804  18.1129455  60.4486614  14.6050758
  15.9421085  48.0375052  11.8763508  15.6124415  48.4886195  11.2067207
  15.2666087  47.9591215  12.4236514  15.7931521  48.0926187  11.8586731
  21.5591493  57.4080281   4.7352794  21.4742789  58.2641248   4.8802363
  22.0475877  57.1324605   5.4034953  21.6180391  57.4937603   4.8554876
  23.1497493  44.0260574  10.1213119  22.8350934  44.7164053  10.5533541
  22.6324434  43.9705357   9.4198619  23.0261963  44.1195463  10.0810068
  22.4909927  54.0265075   6.2350529  21.9621398  54.2424709   6.8947835
  23.0134947  54.7201214   6.1551499  22.4898380  54.1608212   6.3206128
  27.9457980  59.6011380  11.6083574  27.1155683  59.8122023  11.7716990
  27.8967232  58.7748434  11.3325857  27.8164715  59.5100986  11.5920939
  16.0067717  62.4315234  14.4431483  15.4894659  62.0722649  13.8392791
  16.7042108  61.9077408  14.4537549  16.0333298  62.3012922  14.3561742
  19.6631309  62.8810048  20.4047656  19.7514655  62.6936188  21.2525867
  20.0921022  62.2347478  20.0052503  19.7393411  62.7573056  20.4719408
  17.2301769  62.1641208  19.3865318  16.6672604  61.7513818  19.9104980
  17.9922792  62.0894114  19.8058462  17.2596217  62.0918608  19.5258319
  18.8386749  54.1693944   3.5126918  19.0782753  54.3771928   2.7002261
  19.1602590  53.3651453   3.6215862  18.9223907  54.0808045   3.4087471
  14.1477039  46.0987340   7.3586456  14.9023007  46.4665657   7.1203506
  13.9704574  46.4726894   8.1265635  14.2331518  46.2085528   7.4371344
  12.7897760  64.1539229  11.9901949  13.4918340  63.6391218  12.0474705
  12.7095243  64.4813380  12.7948824  12.8821521  64.1253455  12.1174741
  27.4411938  52.2481780  15.4033995  26.6040359  52.3183967  15.6381590
  27.4100169  52.2506275  14.5308297  27.3130220  52.2592007  15.3093543
  13.8376667  54.3914816  21.1182364  14.0097171  54.2820711  21.9667645
  14.3746024  55.0369222  20.8813556  13.9421671  54.4706818  21.2087460
  12.5034104  48.5057659   4.0564569  12.3209677  48.7229540   3.2305562
  13.3659717  48.6196672   4.1123183  12.6038693  48.5547557   3.9419056
  12.1148536  60.3445581  11.4987557  12.9537435  60.5768514  11.5461318
  12.1460305  59.4749893  11.4294592  12.2430253  60.2502528  11.4952201
  12.7401239  60.7646456  15.8000862  13.2799464  60.6217587  16.4704235
  12.0571185  61.1643207  16.1684888  12.7193393  60.8026127  15.9535284
  18.1833823  45.5084070   7.0913593  18.9119983  45.3300025   6.6451749
  18.2728716  46.3502149   7.3020771  18.3040485  45.6067948   7.0567110
  22.1642124  56.4437457  10.9945887  22.9199639  56.8768971  11.0334795
  22.2704448  55.7942227  11.5680523  22.2912294  56.4114941  11.0843912
  25.2022295  60.2710734  11.7448289  24.7657527  60.2747477  12.5007261
  24.8685210  60.9516233  11.3127867  25.0884915  60.3723190  11.7929122
  19.7751368  62.3119067  23.0691440  20.5591785  62.4249915  23.4347182
  19.5747963  61.4860204  23.2650126  19.8617394  62.2065786  23.1525826
   8.1438384  56.9846747  15.9535284   7.8776799  56.1685864  16.1126274
   8.1576948  57.0299903  15.0830799   8.1063106  56.8703652  15.8488766
  25.1219778  47.3124562  13.9877717  25.7645686  47.3822667  14.5739633
  25.3742798  46.6453785  13.4857259  25.2541910  47.2250911  14.0004997
  12.8936990  50.5225125  18.6002291  12.2008787  50.0522105  18.8463023
  13.5097318  50.2963430  19.1743999  12.8821520  50.4192257  18.7211444
  19.9321762  64.2229169  16.7157895  19.1337007  63.9828669  16.9731764
  20.3807773  64.2743562  17.4624943  19.8796373  64.1951560  16.8642820
  28.3366641  56.9891654  10.6367927  28.9983075  56.4282323  10.5363835
  27.6958053  56.4943685  10.9620618  28.3395508  56.8328063  10.6700267
   8.5531797  57.7705527  13.2347028   8.3707371  57.7452413  12.3819320
   9.2881466  58.2404464  13.2735937   8.6345861  57.8366889  13.1144946
  24.6231472  58.0057036  10.3779916  24.8587061  58.1502235   9.5506766
  24.7721035  58.7699445  10.7711429  24.6797275  58.1396091  10.3143519
  11.6177549  54.4890529  19.7429137  12.3417521  54.4743560  20.2294031
  11.7193686  55.1985885  19.2451105  11.7395758  54.5915233  19.7407923
  26.4521928  56.8458702   8.2149519  26.7830146  57.3786343   7.6089614
  27.0255017  56.8997590   8.8711470  26.5855608  56.9328271   8.2227301
  18.9922499  57.9689614  24.6078084  18.1995479  58.2833126  24.7930703
  19.1071426  58.1841082  23.7698868  18.8917909  58.0473451  24.5116418
  21.6653818  54.6923605   8.8973099  21.7600672  55.4312899   9.3512725
  21.0412661  54.2641081   9.3307664  21.5862848  54.7384926   9.0281247
  19.9206291  57.8709818  19.5463380  20.4945153  57.2337062  19.7011944
  19.8421095  57.8713900  18.6773038  19.9939526  57.7774929  19.4409791
   8.5202708  54.6499027  13.3846095   9.0976210  54.5135478  14.0238340
   7.8216770  54.1934811  13.6391679   8.5023729  54.5621293  13.5168384
  21.9176839  56.5372345   2.1310051  21.8357001  56.6074532   2.9965038
  22.5556559  57.1002089   1.9393792  21.9996676  56.6311316   2.2300001
  15.2770010  56.3033083  11.5984578  15.0189254  55.4704818  11.5715877
  15.3318493  56.5290696  10.7577078  15.2469788  56.2130854  11.4704715
  20.3571060  48.4061534  11.6988670  19.6527387  47.9170719  11.8572590
  20.4056034  48.4184008  10.8277115  20.2601112  48.3351182  11.5928010
  14.2504722  53.8570845  12.0849473  13.6754313  54.0163014  12.7213433
  13.8740398  53.2206254  11.6217923  14.1107535  53.7868658  12.1104031
  17.9178011  52.3294195  16.9441851  17.5292444  51.9048412  16.2894042
  17.2532709  52.5776344  17.4518878  17.7624939  52.3032916  16.9229719
  27.5601280  52.0869199   9.7189681  27.3037845  51.2749141   9.5287564
  28.4030594  52.0946766   9.4919868  27.6467305  51.9681197   9.6574498
  21.7404372  46.0268823  14.4565835  22.1214884  45.3446994  14.8433709
  20.9367657  45.7378425  14.2741500  21.6780834  45.8835872  14.4869891
  19.0216949  56.5592799   5.1418658  19.8357588  56.8507692   5.0301429
  18.9576090  55.9052662   4.5676951  19.1319688  56.5057994   5.0407495
  25.2426439  59.2418795  19.5548234  25.0065077  58.4106860  19.4360294
  25.8869668  59.1904403  20.1403078  25.3021110  59.1116483  19.6234127
  14.8924857  60.0314317  10.2690970  15.5298804  59.7926064  10.8142763
  15.3179929  60.2351476   9.5344131  15.0501024  60.0265327  10.2408127
   9.5837500  62.2702653  14.1525274   9.6241645  62.5417504  13.3245053
  10.1432024  62.7944561  14.5683062   9.6720846  62.3878408  14.0917162
  15.6996213  48.5323022  24.3228444  15.3849654  49.3022584  24.0598006
  15.3786145  47.9693278  23.7380671  15.6055132  48.5633290  24.1969794
  26.2662860  59.0263244  15.6176528  25.9608677  59.7591301  15.9789844
  25.5469076  58.6201174  15.3369314  26.1150202  59.0744977  15.6289665
  17.2746329  60.5086739  11.9484756  17.3485338  60.3461911  12.8026606
  18.0915836  60.6976929  11.7045238  17.4062688  60.5123482  12.0382782
  31.9664652  55.6656245  14.9444872  31.8989152  55.6852204  14.0747459
  31.9520314  56.5086572  15.1700543  31.9543408  55.7929979  14.8497349
  13.2528110  46.9213543   9.9374640  12.3850535  46.9936143  10.0032249
  13.5403314  47.7235622  10.1262615  13.1667858  47.0507690   9.9749407
  22.3760998  47.0691402  18.2685962  23.1214590  46.8801213  17.8549387
  21.9598303  47.5949640  17.7099818  22.4245973  47.1193548  18.1250535
  29.7523269  54.4400631  13.2191467  30.3031191  53.8068700  13.4588559
  29.7367385  54.9716024  13.9106971  29.8308466  54.4249579  13.3570325
  16.4045660  58.2739228  17.7651360  15.9057354  58.9854996  17.8436249
  17.2145884  58.5939895  17.7269523  16.4501767  58.4266077  17.7707929
  12.6673778  57.5362181  12.0114081  12.3787026  56.9099653  12.5459808
  13.5357126  57.4782469  12.0778762  12.7534030  57.4349726  12.1005036
  23.4551676  52.6796965  12.3296063  23.1116441  51.9587300  12.6803313
  23.5544718  52.4710816  11.4874421  23.4193718  52.5421168  12.2567743
  23.9164705  59.1422669   7.8720051  24.4822737  59.8015879   7.7878594
  23.2692608  59.4872367   8.3436453  23.9043461  59.2904610   7.9292808
  15.3312718  51.1320273  23.0613658  14.5212494  51.4378052  22.9503501
  15.8087405  51.8525855  23.1766242  15.2816197  51.2834874  23.0620729
  14.1904278  60.3465994  13.3096562  13.6685031  60.4866285  13.9948426
  14.5778298  59.5876658  13.4998679  14.1707979  60.2551517  13.4397638
  11.1795462  50.3971802   7.3791516  10.8920258  50.0273073   6.6423463
  11.8665930  50.8666658   7.1175221  11.2384359  50.4118772   7.2306592
  20.3871283  62.0861453   7.2957130  20.1457959  61.3529314   6.8884195
  20.5672616  62.6348310   6.6423464  20.3778907  62.0583844   7.1387353
  15.6170603  57.3770013   8.7078053  15.4213386  57.9844747   8.1138356
  15.8404949  56.6837957   8.2269726  15.6205244  57.3647538   8.5494133
  14.0149133  54.2624751   8.8258921  14.7371785  54.4265909   8.3662727
  13.5357126  54.9834415   8.7198261  14.0512864  54.3922980   8.7424535
  21.9742641  50.5988549  14.2055606  21.1353742  50.6249828  13.9693869
  22.0447008  51.2459285  14.7860952  21.8611034  50.6984675  14.2564723
  11.6656750  56.6682823  17.9313061  12.1777847  56.9467076  17.2821821
  11.3793093  57.4072117  18.2975874  11.6991613  56.8185177  17.8902939
  20.4211919  47.4973926   8.9383222  21.1238272  47.2981675   8.4603180
  20.1556108  46.7249869   9.2452065  20.4858552  47.3536892   8.9128663
  25.8500165  55.8056536  11.4916848  25.7634139  55.9611962  12.3451626
  25.3950645  56.4494612  11.1176253  25.7703421  55.9232291  11.5623954
   8.7523656  51.1753015   8.2276797   8.8539793  51.9779176   8.5557773
   9.5479543  50.9740351   7.9299878   8.8851562  51.2638914   8.2312153
  15.1840475  48.7609212  17.9914102  14.9923672  48.7764346  18.8413526
  16.0339071  48.9572886  17.9680757  15.2816197  48.7923563  18.1137397
   9.5687388  51.2900193  15.9697919   9.4272880  50.4384134  16.0942427
   9.8527952  51.3328854  15.1460125   9.5895235  51.1699943  15.8665543
  19.7225981  53.1267283  10.1142407  19.4760695  53.0463034  10.9479196
  20.0511104  52.3420751   9.9204935  19.7347224  52.9993549  10.2089930
  23.6174030  59.8350643  13.9029188  23.4788389  60.5331688  14.4077931
  22.8374028  59.6799299  13.5465370  23.4817257  59.9150809  13.9255462
  21.9552115  56.1347018  20.1551570  21.9500153  55.2626835  20.1593996
  22.6613109  56.3335187  19.6821026  22.0597119  56.0350892  20.0858605
  15.6823008  55.8624002  19.5265390  15.8266384  56.4425210  18.8908500
  16.0298657  56.2400299  20.2315245  15.7550469  56.0044706  19.5364385
  17.8542925  55.0614170  17.3090522  17.1066240  55.2545185  16.9038800
  18.0084451  54.2359390  17.0714643  17.7665353  54.9679282  17.2135928
  14.7550763  64.0526774  16.3926417  14.9040327  63.4929690  15.7399821
  15.5350765  64.1318775  16.7758936  14.8924857  63.9812339  16.3523366
  25.1127403  59.1928896   4.6645688  24.7334211  58.4066034   4.6574977
  24.4493648  59.7415753   4.5217332  24.9585877  59.1573720   4.6426484
  17.2804064  64.2241417  17.6710908  17.2047735  63.5550227  18.2261696
  17.2093923  64.9259205  18.1851574  17.2584671  64.2286324  17.8287756
  18.0944703  48.9564721  18.1985925  18.5517317  49.6888695  18.3258718
  18.1701031  48.5331186  18.9573181  18.1735672  49.0021959  18.3287002
  10.3377694  49.2030541  19.2875369   9.8019883  48.5910899  19.6036136
  10.3995458  49.7778677  19.9409036  10.2673326  49.1977468  19.4310796
  22.5672028  42.1354596  12.0679768  22.6855597  42.5931059  11.3347071
  22.3934204  41.3299857  11.7815986  22.5591199  42.0848368  11.9180702
  17.9374311  62.7442415   8.5034514  18.7024202  62.4752059   8.1817178
  17.8352401  62.2592426   9.2204577  18.0355806  62.6331980   8.5614341
  15.9727080  50.9466825  15.0427750  15.1823155  50.7658285  15.3645085
  16.3687703  50.1693777  15.0258044  15.9143957  50.8054286  15.0880298
  21.3570767  58.5809255  12.7687195  20.6815769  58.3494487  13.2700582
  21.3663143  57.9730438  12.1429300  21.2589271  58.4568180  12.7503348
  18.4864911  53.4227084  19.5251248  18.4224052  54.2837040  19.3971385
  18.6262098  53.1059077  18.7246800  18.4980381  53.5027251  19.3879461
  23.3587501  61.4374387   4.9997373  23.4407339  62.2441374   4.6758824
  23.8437243  61.4570347   5.7238147  23.4424659  61.5595050   5.0584272
  17.1684005  56.1159223  13.6667451  16.7446254  56.3163722  12.9306470
  16.9928860  55.2688071  13.7791751  17.0794885  56.0208005  13.5741141
  16.6695698  67.6309736  16.1288909  17.1591628  66.9320526  15.9464573
  16.0979930  67.3333606  16.7164966  16.6580228  67.4835960  16.1889949
  12.4566450  56.6111275   9.0995424  12.6131069  56.5458078   9.9551416
  12.7967043  57.3859827   8.8874103  12.5299684  56.7160473   9.1950018
  18.9945594  55.9869158   7.9688787  19.5361140  55.4839539   8.4327408
  19.3092153  55.9334353   7.1578272  19.1209991  55.9048579   7.9172599
  22.8662702  60.1971806  25.0815699  23.6797567  59.9256955  25.2420832
  22.7057668  59.8979346  24.2775895  22.9632650  60.1126732  24.9861105
  20.1434864  50.8805463  18.0211088  20.3576833  50.2416377  17.4674442
  19.5268763  51.3251287  17.5918949  20.0840193  50.8515607  17.8761519
  21.5539531  63.8024211   9.4665308  21.1619323  63.4990926   8.7488175
  21.7092604  64.6393301   9.2770262  21.5193121  63.8808048   9.3321806
   9.0300711  53.7946225   9.4156191   9.4099676  54.2130770   8.7516458
   8.4556076  54.3759681   9.7225034   9.0012036  53.9424084   9.3632932
  22.3073952  52.4894528  18.9594395  21.4950633  52.1820418  19.0407567
  22.7663886  52.0093528  19.5237107  22.2554336  52.3731020  19.0548989
  21.7179206  60.3674200   9.4071339  21.3593861  60.5388843  10.1835371
  21.2317917  60.8287406   8.8499337  21.5937903  60.4613171   9.4396608
  19.5349592  43.9905399  13.0098430  18.6643150  43.9644120  12.9631740
  19.7889933  43.8182591  12.1924276  19.4443152  43.9615542  12.8818567
  19.4027459  53.8954600  23.7423097  19.8727090  54.5196716  24.1290971
  19.4489339  53.2271575  24.3016312  19.4795335  53.8889280  23.8823168
  16.5598733  46.0011627  14.4671901  16.0437221  45.3091818  14.5923480
  15.9992662  46.6682404  14.4134499  16.4005246  45.9974885  14.4777967
  18.6290966  46.5404587  16.2964753  18.2422719  46.5653619  17.0778283
  18.1423903  45.9746266  15.8439270  18.5003475  46.4600338  16.3452657
  22.8783946  61.2578096  20.3538540  23.5163666  60.7638292  20.0200996
  22.2358037  61.1855496  19.7690767  22.8778172  61.1737104  20.2180895
  24.6040946  53.1067242  14.9204455  24.1768554  53.0193591  14.1652555
  23.9666999  53.2145017  15.5059300  24.4470553  53.1099902  14.8949897
  18.2948108  43.4271573  18.5875013  18.9241226  43.9631873  18.3096084
  18.4633971  43.3348931  19.4388579  18.4125902  43.4932935  18.6723541
  18.0962023  48.2142767  20.8601425  18.9235452  47.9427916  20.9160039
  18.1169869  49.0103609  21.2165243  18.2214873  48.2922521  20.9216608
  22.9338202  61.9497904  16.9943897  23.7230580  61.5986969  17.1145978
  23.1081800  62.7634293  16.7320530  23.0758484  62.0183761  16.9731765
  12.6731513  55.3606630  14.0471685  11.8319519  55.2610504  14.2550579
  12.8821521  56.1302110  14.3986006  12.5796205  55.4598673  14.1299000
  10.1507080  52.9826167  11.8756436   9.7563777  53.0569179  11.1006546
   9.5947196  53.3684113  12.4264798  10.0109892  53.0507942  11.8424096
  21.7872026  45.9607461  11.5560315  21.9921620  45.8929769  12.4017312
  21.4598450  46.7666282  11.4881492  21.7687274  46.0693401  11.6719970
  16.4848177  53.2888029  13.2969283  16.1811315  52.7344017  13.8979691
  15.7827598  53.4680239  12.8097317  16.3364387  53.2332812  13.3138989
  15.5414275  50.5988549   7.8613985  15.8174009  49.8807462   7.4491552
  16.1412944  51.1973469   7.6535091  15.6707539  50.5808920   7.7694746
  14.5466528  60.5037750  18.0041381  14.4386883  60.5139812  18.8703439
  14.7562310  61.3292530  17.8146335  14.5616640  60.6278825  18.1045472
  25.0405714  46.5139225  11.0363080  24.4280028  47.0009627  11.4216812
  25.1369889  45.8382716  11.5800732  24.9643612  46.4857534  11.1741939
  19.0424795  48.2702066   6.1360580  19.4968542  48.4412627   6.8608424
  19.5164841  47.6570177   5.7358356  19.1793115  48.2052952   6.1834341
  12.5640320  57.7550392  15.4663318  11.9728254  58.3959890  15.4366333
  13.3261344  58.1788010  15.4394618  12.5888581  57.9126231  15.4578466
  12.9600943  48.9152390  16.1331336  13.4202425  48.9891319  16.8706460
  13.0057050  49.7133644  15.7831157  13.0351499  49.0446537  16.1904092
  14.6084293  49.5819085  20.7003363  14.2169858  48.9352432  21.1359141
  14.7770156  50.1730520  21.3197618  14.5755203  49.5733353  20.8566069
  28.6830742  57.5856162  16.4640597  28.7413866  58.0342811  17.2100573
  28.0497210  57.9954975  16.0270677  28.5982037  57.7129897  16.5093145
  22.3229837  63.2059704  12.8995343  22.1249525  63.6950518  12.2051554
  21.7017548  63.4100945  13.4779476  22.2017401  63.3076242  12.8818566
  16.3837815  54.9744601   7.2405587  17.1279860  55.3618877   7.4788537
  16.5298511  54.1302026   7.4046075  16.5148400  54.9075074   7.2999557
  18.3017391  46.7694860  12.2737448  17.4553436  46.9417667  12.1478798
  18.2988523  45.9644203  12.6103277  18.1764540  46.6755889  12.3048575
  19.3715691  50.5470074  13.1399506  18.8975645  50.0211836  13.6504817
  19.7433827  49.9999547  12.5714368  19.3565580  50.3886071  13.1314654
   9.7488721  52.5441581  18.5083052  10.6114334  52.4437290  18.4220382
   9.4180504  51.9636290  17.9468624   9.8273917  52.4433207  18.4128458
  25.6352422  55.6072450  14.5506287  25.3950644  54.7678865  14.5548713
  26.1144429  55.6872616  15.2747060  25.6704605  55.4953849  14.6581089
  21.2999191  51.4406629   6.2025260  20.7722209  51.5235373   5.5130969
  21.7594899  52.1824500   6.1989905  21.2901041  51.5627291   6.0999955
  27.6357609  52.3873907  12.5035546  27.3967378  52.3469741  11.6656331
  27.7991510  53.2345059  12.6301267  27.6247912  52.5065992  12.3989028
  24.2403639  56.7723856  18.4340591  24.9637838  56.3196383  18.2551611
  23.9753601  57.0528522  17.6512919  24.3084912  56.7474825  18.2919307
  13.1090507  51.3684030  15.1693470  12.4843577  51.3802422  14.5619423
  12.7736102  51.8444205  15.8184711  12.9675999  51.4402547  15.1750039
   9.8216183  59.4284490  16.6097235   9.2916107  58.7376929  16.6592209
  10.0941276  59.4194675  15.7809943   9.7840905  59.3251622  16.4944651
  20.8536273  60.0110192   5.3334917  21.5770472  60.4768305   5.1899491
  20.4136864  60.0783802   4.5832514  20.8951965  60.0894029   5.2019699
  20.0222428  56.8707734  16.5835606  19.4079421  56.3265785  16.8784242
  20.5389713  56.3571971  16.1041422  20.0078091  56.7144143  16.5559835
  19.2618725  57.9412004  14.3179905  18.8346333  57.3161723  13.8845340
  19.2543670  57.6586926  15.1438912  19.1977867  57.8064785  14.3759732
  12.3781252  52.9777178  17.3868339  12.5374739  52.2220502  17.7920061
  12.1974146  53.5268117  18.0409077  12.3746611  52.9470991  17.5431045
  20.3201555  45.1438413  17.9419128  19.8242117  45.3402087  17.2510695
  21.0770617  45.5431081  17.7707930  20.3588380  45.2316147  17.8139265
  17.5904435  48.8180759  14.5322439  17.6146922  48.2840871  13.8435219
  17.8415909  48.3098068  15.1948029  17.6314354  48.6641663  14.5287084
  13.8705757  47.5451577  13.9128183  13.9104129  48.0460784  14.6262891
  13.0455422  47.6361971  13.6434106  13.7545283  47.6333394  13.9778721
  16.0535370  57.1112317  22.0148478  15.2031001  57.2484031  22.1506123
  16.2163498  56.3776095  22.4596179  15.9519234  57.0226418  22.1004077
  15.2920121  54.0612087  16.2102082  14.4612050  54.2285905  16.0037330
  15.2371638  53.6848038  16.9950967  15.1609536  54.0301818  16.2950610
  13.1003904  47.5520980  21.8458493  13.7256607  47.0083113  22.1187925
  12.6454384  47.0715898  21.2766283  13.1252164  47.4010461  21.8020087
  13.6656164  52.3367679   6.7392200  13.8059126  52.8340143   7.4420841
  14.1638697  51.6353973   6.8806414  13.7597245  52.3069657   6.8643779
  26.6738953  55.7350267  16.9371141  27.2656793  56.3747518  16.9689339
  27.1097947  55.0373304  17.2263208  26.8257384  55.7268617  16.9851974
  15.2735370  49.1348765   4.0430219  15.5951211  48.6551848   3.3889481
  15.5362313  49.9448411   3.8521030  15.3601395  49.1838663   3.9185711
  18.5032342  60.1567639  17.5629035  17.9957434  60.7103486  18.0069665
  18.2058989  60.2175929  16.7447809  18.3837227  60.2473951  17.5077492
  20.6694525  48.5220959  16.4053698  21.0949596  48.0693485  15.7937224
  20.0551518  47.9681030  16.6818485  20.6423170  48.3734935  16.3558723
  19.1088748  44.9936059   9.8144275  18.4657065  44.8433705  10.3829413
  18.7688155  44.7478404   9.0493379  18.9633825  44.9348181   9.7847290
  23.6988094  52.9495486   9.2374283  23.0279284  53.4925188   9.1087349
  24.3927844  53.4190341   8.9955978  23.7016962  53.0993757   9.1829811
  17.7474828  65.0892198  14.4686042  17.5240482  64.3311027  14.8370068
  17.2584671  65.1190219  13.7466481  17.6418277  64.9814422  14.4162783
  23.8616221  49.4051369  12.1464657  24.2143832  48.9781092  12.8210455
  23.0031023  49.3202213  12.2765733  23.7865666  49.3296110  12.2659667
  12.5599906  52.0358889  10.2047503  11.8411896  52.4523022  10.4720367
  12.9312269  52.6013128   9.6539141  12.5091838  52.1808170  10.1630310
  21.8599487  52.6686738  16.0949499  21.8397415  52.4870033  16.9484278
  21.9078688  53.5398756  16.0709083  21.8634128  52.7703276  16.2172794
  19.8045817  59.2573930  22.0197975  19.7641672  58.6123607  21.4343131
  20.6169135  59.2010547  22.3323387  19.9188971  59.1532897  21.9794925
  16.3953285  65.3092656  11.9223126  15.9813683  64.6466786  11.5326968
  17.0800659  65.4570515  11.4018820  16.4351656  65.2333314  11.7879623
  19.7618579  64.4682741  12.6746743  19.3634862  64.5785011  11.9067563
  19.1469798  64.6764807  13.2573303  19.6117468  64.5156309  12.6478042
  18.3346481  51.0756889   5.5420883  17.7411320  51.3973885   4.9905450
  18.3721759  50.2297984   5.3341989  18.2520870  50.9981217   5.4303654
  25.2940282  44.5269781  13.0748969  24.7871146  43.8198921  13.0070147
  26.0907715  44.1962970  13.2050046  25.3367521  44.3742932  13.0847964
  21.2104297  51.0336393   8.9722633  20.9817990  51.0569095   8.1300991
  21.4702374  50.2093860   9.0917643  21.2150485  50.9152473   8.8647831
  15.4923526  52.8870866  18.5747733  14.9802429  52.2792049  18.9332764
  15.3203022  53.6027459  19.0421709  15.3913163  52.9034166  18.6963957
  10.3389241  51.3308442  21.2250095  10.1691831  51.9909817  20.6798301
   9.8955190  51.5415003  21.9462584  10.2488574  51.4594424  21.2511724
  14.2649060  49.5712940  10.2676829  14.7406426  49.9330019   9.6327010
  13.7637660  50.2269407  10.5476971  14.2614419  49.7207128  10.2153569
  27.4960421  59.0434708   6.0589834  27.8794027  59.7926064   6.2887931
  26.7004535  59.2900527   5.8001823  27.4354204  59.1904402   6.0547407
  19.3692596  50.8095111  21.0149989  19.9264026  50.5808921  20.3828454
  19.0453661  51.5700777  20.7385201  19.4039006  50.8878948  20.8806486
   7.2391305  54.2355307  16.4838585   6.6918024  53.5655953  16.6019453
   8.0283683  53.8685155  16.5482052   7.2743489  54.0820294  16.5107285
  17.0875713  53.8962764  21.9801996  17.8387040  54.2114441  22.2941550
  17.2798290  53.6941935  21.1535917  17.2267128  53.9130146  21.9045391
  16.3075713  51.7154139   3.6350212  16.6874678  51.7333769   2.8501327
  15.5668309  52.1608128   3.5141060  16.2544551  51.7835914   3.5013781
  23.9361004  50.0236331   9.2225791  23.9355230  49.8684987  10.0810068
  23.7317184  50.8699318   9.1667177  23.9060781  50.1256951   9.3413731
   5.9978275  53.4476115  13.6384608   5.8200036  52.9952724  14.3639523
   5.7097297  54.2502276  13.8223085   5.9291228  53.4998673  13.7728111
  21.6601856  54.7033832  12.8761998  22.1555521  53.9856827  12.8366018
  20.8501631  54.4004630  12.7616485  21.6145749  54.5531479  12.8535724
  23.7253675  57.4537520  15.5639127  24.1508746  56.9311942  15.0109552
  23.3610594  58.0518357  15.0427750  23.7340277  57.4647747  15.4048137
  13.3607754  65.7501737  14.3236472  13.6754313  66.5638126  14.3314254
  13.7701168  65.3651956  14.9918631  13.4675852  65.8130440  14.4240564
  20.3132274  61.1671784  11.8940284  20.7843452  61.8812047  12.0630269
  20.6492452  60.5670534  12.4300154  20.4327389  61.1843248  11.9972660
  22.4009259  62.7773098  24.0732356  22.5106224  61.9881658  24.4289104
  22.7300155  62.6879034  23.2706694  22.4661664  62.6478951  24.0074747
  17.2301769  45.9399255  18.8498379  17.3629675  45.1430248  19.1779355
  17.6146922  46.4665658  19.4296655  17.3058098  45.8999171  18.9841882
  20.9506220  60.9589718  18.6567977  20.4027166  60.3347602  18.3888042
  21.4119249  61.1483990  17.9412056  20.9373430  60.8948769  18.5118408
  20.3034124  42.8629581  15.4479472  19.4980088  42.7527311  15.7647311
  20.1740860  42.9642037  14.5909338  20.1654257  42.8613251  15.3687513
  23.7600085  49.0275073  16.0419169  23.1763073  49.5284279  15.6296737
  24.0804379  48.5204629  15.4083493  23.7213260  49.0266908  15.8877676
  16.2994884  47.9415668   6.3177844  17.1210578  48.1113981   6.0759539
  15.8364535  48.0962929   5.5944142  16.3526046  47.9897401   6.1749488
  14.8890216  45.9358430  17.0976273  15.4334629  45.5949557  17.6880615
  14.9427151  46.7943891  17.2397557  14.9779335  46.0113689  17.2058146
  10.7020774  59.6974846  13.9715081  11.3065632  59.6570680  13.3428901
  10.4948087  60.5445998  14.0019137  10.7609672  59.8162848  13.8831197
  20.5164547  61.9640791  15.1877318  21.3362920  61.8203757  15.4493613
  20.2358624  62.5886990  15.7293756  20.5961290  62.0351143  15.3065258
  36.9878197  69.6205643   8.1520194  36.9572201  70.4750279   8.3238464
  37.5859546  69.3200935   8.7106338  37.0715355  69.7022139   8.2594997
  30.1877882  68.7081294  12.9073125  29.3315777  68.8689792  12.9582242
  30.2345536  67.8373358  12.9278186  30.0676993  68.6032096  12.9179191
  33.4971598  74.9767819  22.5133581  34.2038366  74.4819850  22.6420515
  33.6859534  75.4176901  21.7836239  33.6299504  74.9686170  22.4242626
  33.0329703  70.7673338  15.5504776  33.5785663  71.4458424  15.6098746
  32.9746579  70.6260799  14.6906358  33.1045617  70.8465339  15.4316837
  21.6458909  66.4468421  13.4609770  21.0263941  65.8561068  13.2919785
  21.5442773  67.0379856  12.8274094  21.5396585  66.4472503  13.3414760
  28.7426805  68.1867963   7.7942233  29.4406970  68.3656090   8.2863697
  29.0579138  67.6638302   7.1712623  28.8922142  68.1361735   7.7744244
  21.3728042  69.9920703  15.7053339  21.2486739  70.5783148  16.3403158
  22.0246327  69.4980898  16.0065614  21.4501692  70.0059507  15.8439269
  26.3986383  73.1682420  14.9840850  27.0435386  72.6754863  14.6651799
  26.6388160  73.3107206  15.8106929  26.5296969  73.1159862  15.0590384
  28.9372475  76.0137325  14.6347743  29.2195718  75.2188731  14.4134499
  29.6658635  76.4917913  14.6552804  29.0862039  75.9671922  14.6050758
  26.9153669  63.5560359  11.8763508  26.5856999  64.0071503  11.2067207
  26.2398670  63.4776523  12.4236514  26.7664105  63.6111495  11.8586731
  34.1230076  59.5445882  10.1213119  33.8083517  60.2349361  10.5533541
  33.6057018  59.4890665   9.4198619  33.9994547  59.6380771  10.0810068
  25.1209623  61.6172648   7.3586456  25.8755591  61.9850965   7.1203506
  24.9437157  61.9912202   8.1265635  25.2064101  61.7270836   7.4371344
  38.4144521  67.7667088  15.4033995  37.5772942  67.8369275  15.6381590
  38.3832752  67.7691583  14.5308297  38.2862804  67.7777315  15.3093543
  24.8109250  69.9100124  21.1182364  24.9829754  69.8006019  21.9667645
  25.3478608  70.5554529  20.8813556  24.9154254  69.9892126  21.2087460
  23.4766687  64.0242967   4.0564569  23.2942261  64.2414848   3.2305562
  24.3392300  64.1381980   4.1123183  23.5771277  64.0732865   3.9419056
  29.1566407  61.0269378   7.0913593  29.8852567  60.8485332   6.6451749
  29.2461299  61.8687457   7.3020771  29.2773069  61.1253256   7.0567110
  33.1374707  71.9622765  10.9945887  33.8932222  72.3954279  11.0334795
  33.2437032  71.3127535  11.5680523  33.2644878  71.9300249  11.0843912
  36.1754878  75.7896042  11.7448289  35.7390110  75.7932785  12.5007261
  35.8417794  76.4701541  11.3127867  36.0617498  75.8908498  11.7929122
  30.7483952  77.8304375  23.0691440  31.5324369  77.9435223  23.4347182
  30.5480547  77.0045512  23.2650126  30.8349977  77.7251094  23.1525826
  19.1170967  72.5032055  15.9535284  18.8509383  71.6871172  16.1126274
  19.1309532  72.5485211  15.0830799  19.0795690  72.3888960  15.8488766
  36.0952361  62.8309870  13.9877717  36.7378270  62.9007975  14.5739633
  36.3475382  62.1639093  13.4857259  36.2274493  62.7436219  14.0004997
  23.8669574  66.0410433  18.6002291  23.1741371  65.5707413  18.8463023
  24.4829901  65.8148738  19.1743999  23.8554104  65.9377565  18.7211444
  39.3099225  72.5076962  10.6367927  39.9715659  71.9467630  10.5363835
  38.6690637  72.0128993  10.9620618  39.3128092  72.3513371  10.6700267
  19.5264381  73.2890834  13.2347028  19.3439954  73.2637720  12.3819320
  20.2614050  73.7589772  13.2735937  19.6078445  73.3552197  13.1144946
  22.5910133  70.0075837  19.7429137  23.3150105  69.9928868  20.2294031
  22.6926269  70.7171193  19.2451105  22.7128342  70.1100541  19.7407923
  29.9655082  73.4874922  24.6078084  29.1728063  73.8018434  24.7930703
  30.0804009  73.7026390  23.7698868  29.8650493  73.5658759  24.5116418
  32.6386401  70.2108913   8.8973099  32.7333256  70.9498207   9.3512725
  32.0145245  69.7826389   9.3307664  32.5595431  70.2570234   9.0281247
  30.8938875  73.3895126  19.5463380  31.4677737  72.7522370  19.7011944
  30.8153679  73.3899208  18.6773038  30.9672110  73.2960237  19.4409791
  19.4935291  70.1684335  13.3846095  20.0708794  70.0320786  14.0238340
  18.7949353  69.7120119  13.6391679  19.4756313  70.0806601  13.5168384
  26.2502594  71.8218391  11.5984578  25.9921838  70.9890126  11.5715877
  26.3051076  72.0476004  10.7577078  26.2202371  71.7316162  11.4704715
  31.3303644  63.9246841  11.6988670  30.6259970  63.4356027  11.8572590
  31.3788618  63.9369316  10.8277115  31.2333695  63.8536489  11.5928010
  25.2237306  69.3756153  12.0849473  24.6486897  69.5348322  12.7213433
  24.8472982  68.7391562  11.6217923  25.0840118  69.3053966  12.1104031
  28.8910594  67.8479503  16.9441851  28.5025027  67.4233720  16.2894042
  28.2265293  68.0961652  17.4518878  28.7357522  67.8218224  16.9229719
  38.5333864  67.6054507   9.7189681  38.2770428  66.7934449   9.5287564
  39.3763177  67.6132074   9.4919868  38.6199889  67.4866505   9.6574498
  32.7136956  61.5454131  14.4565835  33.0947468  60.8632302  14.8433709
  31.9100240  61.2563733  14.2741500  32.6513418  61.4021180  14.4869891
  36.2159023  74.7604103  19.5548234  35.9797660  73.9292168  19.4360294
  36.8602252  74.7089710  20.1403078  36.2753694  74.6301791  19.6234127
  25.8657441  75.5499625  10.2690970  26.5031388  75.3111372  10.8142763
  26.2912512  75.7536784   9.5344131  26.0233607  75.5450635  10.2408127
  26.6728796  64.0508330  24.3228444  26.3582237  64.8207892  24.0598006
  26.3518729  63.4878586  23.7380671  26.5787715  64.0818598  24.1969794
  37.2395443  74.5448552  15.6176528  36.9341260  75.2776609  15.9789844
  36.5201659  74.1386482  15.3369314  37.0882786  74.5930285  15.6289665
  28.2478913  76.0272047  11.9484756  28.3217921  75.8647219  12.8026606
  29.0648419  76.2162237  11.7045238  28.3795271  76.0308790  12.0382782
  42.9397236  71.1841553  14.9444872  42.8721736  71.2037512  14.0747459
  42.9252898  72.0271880  15.1700543  42.9275992  71.3115287  14.8497349
  24.2260693  62.4398851   9.9374640  23.3583119  62.5121451  10.0032249
  24.5135898  63.2420930  10.1262615  24.1400441  62.5692998   9.9749407
  33.3493582  62.5876710  18.2685962  34.0947174  62.3986521  17.8549387
  32.9330887  63.1134948  17.7099818  33.3978556  62.6378856  18.1250535
  40.7255853  69.9585939  13.2191467  41.2763774  69.3254008  13.4588559
  40.7099968  70.4901332  13.9106971  40.8041049  69.9434887  13.3570325
  27.3778244  73.7924536  17.7651360  26.8789937  74.5040304  17.8436249
  28.1878468  74.1125203  17.7269523  27.4234350  73.9451385  17.7707929
  23.6406361  73.0547489  12.0114081  23.3519610  72.4284960  12.5459808
  24.5089709  72.9967777  12.0778762  23.7266613  72.9535033  12.1005036
  34.4284259  68.1982273  12.3296063  34.0849025  67.4772608  12.6803313
  34.5277302  67.9896124  11.4874421  34.3926302  68.0606476  12.2567743
  26.3045302  66.6505581  23.0613658  25.4945077  66.9563360  22.9503501
  26.7819988  67.3711163  23.1766242  26.2548781  66.8020182  23.0620729
  25.1636861  75.8651302  13.3096562  24.6417615  76.0051593  13.9948426
  25.5510882  75.1061966  13.4998679  25.1440562  75.7736825  13.4397638
  22.1528045  65.9157110   7.3791516  21.8652841  65.5458381   6.6423463
  22.8398514  66.3851966   7.1175221  22.2116943  65.9304080   7.2306592
  26.5903187  72.8955321   8.7078053  26.3945970  73.5030055   8.1138356
  26.8137533  72.2023265   8.2269726  26.5937828  72.8832846   8.5494133
  24.9881717  69.7810059   8.8258921  25.7104369  69.9451217   8.3662727
  24.5089710  70.5019723   8.7198261  25.0245448  69.9108288   8.7424535
  32.9475225  66.1173857  14.2055606  32.1086325  66.1435136  13.9693869
  33.0179592  66.7644593  14.7860952  32.8343618  66.2169983  14.2564723
  22.6389334  72.1868131  17.9313061  23.1510431  72.4652384  17.2821821
  22.3525676  72.9257425  18.2975874  22.6724197  72.3370485  17.8902939
  31.3944503  63.0159234   8.9383222  32.0970856  62.8166983   8.4603180
  31.1288692  62.2435177   9.2452065  31.4591135  62.8722200   8.9128663
  36.8232748  71.3241844  11.4916848  36.7366723  71.4797270  12.3451626
  36.3683228  71.9679920  11.1176253  36.7436005  71.4417599  11.5623954
  19.7256240  66.6938323   8.2276797  19.8272376  67.4964484   8.5557773
  20.5212127  66.4925659   7.9299878  19.8584146  66.7824222   8.2312153
  26.1573059  64.2794520  17.9914102  25.9656256  64.2949654  18.8413526
  27.0071655  64.4758194  17.9680757  26.2548781  64.3108871  18.1137397
  20.5419972  66.8085501  15.9697919  20.4005464  65.9569442  16.0942427
  20.8260535  66.8514162  15.1460125  20.5627818  66.6885251  15.8665543
  30.6958564  68.6452591  10.1142407  30.4493279  68.5648342  10.9479196
  31.0243687  67.8606059   9.9204935  30.7079808  68.5178857  10.2089930
  34.5906613  75.3535951  13.9029188  34.4520973  76.0516996  14.4077931
  33.8106611  75.1984607  13.5465370  34.4549840  75.4336117  13.9255462
  32.9284698  71.6532326  20.1551570  32.9232737  70.7812142  20.1593996
  33.6345692  71.8520495  19.6821026  33.0329702  71.5536200  20.0858605
  26.6555592  71.3809310  19.5265390  26.7998967  71.9610518  18.8908500
  27.0031240  71.7585607  20.2315245  26.7283053  71.5230014  19.5364385
  28.8275509  70.5799478  17.3090522  28.0798823  70.7730493  16.9038800
  28.9817034  69.7544698  17.0714643  28.7397937  70.4864590  17.2135928
  29.0677286  64.4750029  18.1985925  29.5249900  65.2074003  18.3258718
  29.1433615  64.0516494  18.9573181  29.1468256  64.5207267  18.3287002
  21.3110277  64.7215849  19.2875369  20.7752467  64.1096207  19.6036136
  21.3728042  65.2963985  19.9409036  21.2405910  64.7162776  19.4310796
  33.5404612  57.6539904  12.0679768  33.6588180  58.1116367  11.3347071
  33.3666788  56.8485165  11.7815986  33.5323783  57.6033676  11.9180702
  26.9459664  66.4652133  15.0427750  26.1555739  66.2843593  15.3645085
  27.3420287  65.6879085  15.0258044  26.8876540  66.3239594  15.0880298
  32.3303350  74.0994563  12.7687195  31.6548352  73.8679795  13.2700582
  32.3395726  73.4915746  12.1429300  32.2321855  73.9753488  12.7503348
  29.4597494  68.9412392  19.5251248  29.3956635  69.8022348  19.3971385
  29.5994682  68.6244385  18.7246800  29.4712964  69.0212559  19.3879461
  28.1416588  71.6344531  13.6667451  27.7178837  71.8349030  12.9306470
  27.9661443  70.7873379  13.7791751  28.0527469  71.5393313  13.5741141
  23.4299033  72.1296583   9.0995424  23.5863652  72.0643386   9.9551416
  23.7699626  72.9045135   8.8874103  23.5032268  72.2345781   9.1950018
  29.9678178  71.5054466   7.9688787  30.5093723  71.0024847   8.4327408
  30.2824737  71.4519661   7.1578272  30.0942575  71.4233887   7.9172599
  33.8395285  75.7157114  25.0815699  34.6530150  75.4442263  25.2420832
  33.6790252  75.4164654  24.2775895  33.9365234  75.6312040  24.9861105
  31.1167447  66.3990771  18.0211088  31.3309417  65.7601685  17.4674442
  30.5001346  66.8436595  17.5918949  31.0572776  66.3700914  17.8761519
  20.0033295  69.3131533   9.4156191  20.3832259  69.7316078   8.7516458
  19.4288659  69.8944989   9.7225034  19.9744620  69.4609392   9.3632932
  33.2806535  68.0079836  18.9594395  32.4683217  67.7005726  19.0407567
  33.7396470  67.5278836  19.5237107  33.2286920  67.8916328  19.0548989
  30.5082176  59.5090706  13.0098430  29.6375734  59.4829428  12.9631740
  30.7622517  59.3367899  12.1924276  30.4175736  59.4800850  12.8818567
  30.3760043  69.4139907  23.7423097  30.8459674  70.0382024  24.1290971
  30.4221923  68.7456883  24.3016312  30.4527918  69.4074588  23.8823168
  27.5331316  61.5196935  14.4671901  27.0169805  60.8277126  14.5923480
  26.9725245  62.1867712  14.4134499  27.3737830  61.5160193  14.4777967
  29.6023550  62.0589895  16.2964753  29.2155303  62.0838926  17.0778283
  29.1156487  61.4931574  15.8439270  29.4736059  61.9785646  16.3452657
  33.8516529  76.7763404  20.3538540  34.4896250  76.2823600  20.0200996
  33.2090621  76.7040804  19.7690767  33.8510756  76.6922412  20.2180895
  35.5773529  68.6252550  14.9204455  35.1501137  68.5378898  14.1652555
  34.9399582  68.7330325  15.5059300  35.4203137  68.6285210  14.8949897
  29.2680691  58.9456880  18.5875013  29.8973809  59.4817180  18.3096084
  29.4366554  58.8534239  19.4388579  29.3858486  59.0118243  18.6723541
  29.0694606  63.7328075  20.8601425  29.8968036  63.4613224  20.9160039
  29.0902452  64.5288917  21.2165243  29.1947456  63.8107829  20.9216608
  33.9070786  77.4683212  16.9943897  34.6963164  77.1172277  17.1145978
  34.0814384  78.2819601  16.7320530  34.0491067  77.5369069  16.9731765
  23.6464096  70.8791938  14.0471685  22.8052103  70.7795812  14.2550579
  23.8554104  71.6487418  14.3986006  23.5528789  70.9783981  14.1299000
  21.1239663  68.5011475  11.8756436  20.7296361  68.5754487  11.1006546
  20.5679780  68.8869421  12.4264798  20.9842475  68.5693250  11.8424096
  32.7604610  61.4792769  11.5560315  32.9654203  61.4115077  12.4017312
  32.4331034  62.2851590  11.4881492  32.7419858  61.5878709  11.6719970
  27.4580761  68.8073337  13.2969283  27.1543899  68.2529325  13.8979691
  26.7560182  68.9865547  12.8097317  27.3096971  68.7518119  13.3138989
  26.5146858  66.1173857   7.8613985  26.7906592  65.3992769   7.4491552
  27.1145527  66.7158777   7.6535091  26.6440123  66.0994228   7.7694746
  36.0138298  62.0324533  11.0363080  35.4012611  62.5194935  11.4216812
  36.1102473  61.3568024  11.5800732  35.9376195  62.0042842  11.1741939
  30.0157379  63.7887374   6.1360580  30.4701125  63.9597935   6.8608424
  30.4897424  63.1755485   5.7358356  30.1525699  63.7238260   6.1834341
  23.5372904  73.2735700  15.4663318  22.9460837  73.9145198  15.4366333
  24.2993928  73.6973318  15.4394618  23.5621165  73.4311539  15.4578466
  23.9333527  64.4337698  16.1331336  24.3935008  64.5076627  16.8706460
  23.9789634  65.2318952  15.7831157  24.0084082  64.5631845  16.1904092
  25.5816877  65.1004393  20.7003363  25.1902442  64.4537740  21.1359141
  25.7502739  65.6915828  21.3197618  25.5487787  65.0918661  20.8566069
  39.6563326  73.1041470  16.4640597  39.7146449  73.5528119  17.2100573
  39.0229793  73.5140283  16.0270677  39.5714621  73.2315205  16.5093145
  27.3570399  70.4929909   7.2405587  28.1012444  70.8804185   7.4788537
  27.5031095  69.6487334   7.4046075  27.4880984  70.4260381   7.2999557
  29.2749974  62.2880168  12.2737448  28.4286019  62.4602975  12.1478798
  29.2721107  61.4829511  12.6103277  29.1497124  62.1941196  12.3048575
  30.3448275  66.0655382  13.1399506  29.8708229  65.5397144  13.6504817
  30.7166410  65.5184855  12.5714368  30.3298163  65.9071379  13.1314654
  20.7221305  68.0626889  18.5083052  21.5846918  67.9622598  18.4220382
  20.3913088  67.4821598  17.9468624  20.8006501  67.9618515  18.4128458
  36.6085005  71.1257758  14.5506287  36.3683228  70.2864173  14.5548713
  37.0877012  71.2057924  15.2747060  36.6437189  71.0139157  14.6581089
  32.2731774  66.9591937   6.2025260  31.7454793  67.0420681   5.5130969
  32.7327482  67.7009808   6.1989905  32.2633625  67.0812599   6.0999955
  38.6090192  67.9059215  12.5035546  38.3699962  67.8655049  11.6656331
  38.7724093  68.7530367  12.6301267  38.5980496  68.0251300  12.3989028
  35.2136222  72.2909164  18.4340591  35.9370421  71.8381691  18.2551611
  34.9486185  72.5713830  17.6512919  35.2817496  72.2660133  18.2919307
  24.0823091  66.8869338  15.1693470  23.4576161  66.8987730  14.5619423
  23.7468685  67.3629513  15.8184711  23.9408582  66.9587855  15.1750039
  30.9955012  72.3893042  16.5835606  30.3812005  71.8451093  16.8784242
  31.5122297  71.8757279  16.1041422  30.9810674  72.2329451  16.5559835
  30.2351309  73.4597312  14.3179905  29.8078917  72.8347031  13.8845340
  30.2276253  73.1772234  15.1438912  30.1710450  73.3250093  14.3759732
  23.3513836  68.4962485  17.3868339  23.5107323  67.7405810  17.7920061
  23.1706730  69.0453425  18.0409077  23.3479195  68.4656299  17.5431045
  31.2934139  60.6623721  17.9419128  30.7974700  60.8587395  17.2510695
  32.0503201  61.0616389  17.7707930  31.3320964  60.7501455  17.8139265
  28.5637019  64.3366067  14.5322439  28.5879506  63.8026179  13.8435219
  28.8148492  63.8283376  15.1948029  28.6046937  64.1826971  14.5287084
  24.8438341  63.0636885  13.9128183  24.8836712  63.5646092  14.6262891
  24.0188005  63.1547279  13.6434106  24.7277867  63.1518701  13.9778721
  27.0267954  72.6297625  22.0148478  26.1763584  72.7669339  22.1506123
  27.1896081  71.8961403  22.4596179  26.9251817  72.5411726  22.1004077
  26.2652704  69.5797395  16.2102082  25.4344634  69.7471213  16.0037330
  26.2104221  69.2033346  16.9950967  26.1342119  69.5487126  16.2950610
  24.0736487  63.0706288  21.8458493  24.6989191  62.5268421  22.1187925
  23.6186967  62.5901206  21.2766283  24.0984748  62.9195769  21.8020087
  24.6388748  67.8552987   6.7392200  24.7791709  68.3525451   7.4420841
  25.1371281  67.1539281   6.8806414  24.7329829  67.8254965   6.8643779
  37.6471536  71.2535575  16.9371141  38.2389376  71.8932826  16.9689339
  38.0830531  70.5558612  17.2263208  37.7989967  71.2453925  16.9851974
  26.2467953  64.6534073   4.0430219  26.5683794  64.1737156   3.3889481
  26.5094897  65.4633719   3.8521030  26.3333979  64.7023971   3.9185711
  29.4764926  75.6752947  17.5629035  28.9690017  76.2288794  18.0069665
  29.1791572  75.7361237  16.7447809  29.3569811  75.7659259  17.5077492
  31.6427108  64.0406267  16.4053698  32.0682180  63.5878793  15.7937224
  31.0284101  63.4866338  16.6818485  31.6155754  63.8920243  16.3558723
  30.0821331  60.5121367   9.8144275  29.4389649  60.3619013  10.3829413
  29.7420738  60.2663712   9.0493379  29.9366408  60.4533489   9.7847290
  34.6720678  68.4680794   9.2374283  34.0011867  69.0110496   9.1087349
  35.3660428  68.9375649   8.9955978  34.6749545  68.6179065   9.1829811
  34.8348805  64.9236677  12.1464657  35.1876415  64.4966400  12.8210455
  33.9763607  64.8387521  12.2765733  34.7598250  64.8481418  12.2659667
  23.5332490  67.5544197  10.2047503  22.8144479  67.9708329  10.4720367
  23.9044852  68.1198436   9.6539141  23.4824422  67.6993478  10.1630310
  32.8332071  68.1872046  16.0949499  32.8129998  68.0055341  16.9484278
  32.8811272  69.0584064  16.0709083  32.8366712  68.2888584  16.2172794
  30.7778401  74.7759238  22.0197975  30.7374256  74.1308915  21.4343131
  31.5901719  74.7195855  22.3323387  30.8921554  74.6718205  21.9794925
  29.3079064  66.5942197   5.5420883  28.7143904  66.9159193   4.9905450
  29.3454342  65.7483292   5.3341989  29.2253454  66.5166525   5.4303654
  36.2672865  60.0455089  13.0748969  35.7603730  59.3384229  13.0070147
  37.0640299  59.7148278  13.2050046  36.3100104  59.8928240  13.0847964
  32.1836881  66.5521701   8.9722633  31.9550574  66.5754403   8.1300991
  32.4434957  65.7279168   9.0917643  32.1883069  66.4337781   8.8647831
  26.4656109  68.4056174  18.5747733  25.9535012  67.7977357  18.9332764
  26.2935606  69.1212767  19.0421709  26.3645746  68.4219474  18.6963957
  21.3121824  66.8493750  21.2250095  21.1424414  67.5095124  20.6798301
  20.8687774  67.0600311  21.9462584  21.2221158  66.9779732  21.2511724
  25.2381643  65.0898248  10.2676829  25.7139010  65.4515327   9.6327010
  24.7370243  65.7454715  10.5476971  25.2347002  65.2392436  10.2153569
  30.3425180  66.3280419  21.0149989  30.8996610  66.0994229  20.3828454
  30.0186245  67.0886085  20.7385201  30.3771590  66.4064256  20.8806486
  18.2123889  69.7540615  16.4838585  17.6650608  69.0841261  16.6019453
  19.0016267  69.3870463  16.5482052  18.2476072  69.6005602  16.5107285
  28.0608297  69.4148072  21.9801996  28.8119624  69.7299749  22.2941550
  28.2530874  69.2127243  21.1535917  28.1999711  69.4315454  21.9045391
  27.2808297  67.2339447   3.6350212  27.6607261  67.2519077   2.8501327
  26.5400893  67.6793436   3.5141060  27.2277134  67.3021222   3.5013781
  34.9093587  65.5421639   9.2225791  34.9087814  65.3870295  10.0810068
  34.7049767  66.3884626   9.1667177  34.8793365  65.6442259   9.3413731
  16.9710858  68.9661423  13.6384608  16.7932619  68.5138032  14.3639523
  16.6829880  69.7687584  13.8223085  16.9023811  69.0183981  13.7728111
  32.6334439  70.2219140  12.8761998  33.1288105  69.5042135  12.8366018
  31.8234215  69.9189938  12.7616485  32.5878332  70.0716787  12.8535724
  34.6986258  72.9722828  15.5639127  35.1241330  72.4497250  15.0109552
  34.3343178  73.5703665  15.0427750  34.7072861  72.9833055  15.4048137
  31.2864858  76.6857092  11.8940284  31.7576036  77.3997355  12.0630269
  31.6225036  76.0855842  12.4300154  31.4059973  76.7028556  11.9972660
  33.3741842  78.2958406  24.0732356  33.4838808  77.5066966  24.4289104
  33.7032739  78.2064342  23.2706694  33.4394248  78.1664258  24.0074747
  28.2034352  61.4584563  18.8498379  28.3362258  60.6615556  19.1779355
  28.5879505  61.9850966  19.4296655  28.2790681  61.4184479  18.9841882
  31.9238804  76.4775026  18.6567977  31.3759750  75.8532910  18.3888042
  32.3851833  76.6669298  17.9412056  31.9106013  76.4134076  18.5118408
  31.2766708  58.3814889  15.4479472  30.4712671  58.2712618  15.7647311
  31.1473443  58.4827345  14.5909338  31.1386841  58.3798559  15.3687513
  34.7332668  64.5460381  16.0419169  34.1495657  65.0469587  15.6296737
  35.0536962  64.0389937  15.4083493  34.6945844  64.5452216  15.8877676
  27.2727467  63.4600976   6.3177844  28.0943162  63.6299288   6.0759539
  26.8097118  63.6148237   5.5944142  27.3258630  63.5082709   6.1749488
  25.8622799  61.4543738  17.0976273  26.4067212  61.1134865  17.6880615
  25.9159735  62.3129199  17.2397557  25.9511919  61.5298997  17.2058146
  31.4897130  77.4826099  15.1877318  32.3095504  77.3389065  15.4493613
  31.2091208  78.1072298  15.7293756  31.5693874  77.5536451  15.3065258
  37.6461380  79.5693637  24.3228444  37.3314821  80.3393200  24.0598006
  37.3251312  79.0063894  23.7380671  37.5520299  79.6003906  24.1969794
  44.3226166  78.1062018  18.2685962  45.0679758  77.9171829  17.8549387
  43.9063470  78.6320256  17.7099818  44.3711140  78.1564164  18.1250535
  37.1305643  79.7979827  17.9914102  36.9388840  79.8134962  18.8413526
  37.9804239  79.9943502  17.9680757  37.2281365  79.8294179  18.1137397
  40.0409870  79.9935337  18.1985925  40.4982484  80.7259311  18.3258718
  40.1166198  79.5701802  18.9573181  40.1200840  80.0392575  18.3287002
  38.5063900  77.0382243  14.4671901  37.9902388  76.3462434  14.5923480
  37.9457829  77.7053020  14.4134499  38.3470413  77.0345500  14.4777967
  40.5756133  77.5775203  16.2964753  40.1887886  77.6024234  17.0778283
  40.0889071  77.0116882  15.8439270  40.4468642  77.4970954  16.3452657
  40.2413275  74.4642188  18.5875013  40.8706393  75.0002488  18.3096084
  40.4099138  74.3719547  19.4388579  40.3591070  74.5303551  18.6723541
  40.0427190  79.2513383  20.8601425  40.8700619  78.9798532  20.9160039
  40.0635036  80.0474225  21.2165243  40.1680040  79.3293137  20.9216608
  42.2666723  76.1809029  17.9419128  41.7707284  76.3772703  17.2510695
  43.0235785  76.5801697  17.7707930  42.3053547  76.2686763  17.8139265
  35.8170924  78.5822193  13.9128183  35.8569296  79.0831400  14.6262891
  34.9920589  78.6732587  13.6434106  35.7010450  78.6704009  13.9778721
  35.0469071  78.5891596  21.8458493  35.6721774  78.0453729  22.1187925
  34.5919551  78.1086513  21.2766283  35.0717332  78.4381077  21.8020087
  42.6159692  79.5591575  16.4053698  43.0414763  79.1064101  15.7937224
  42.0016685  79.0051646  16.6818485  42.5888337  79.4105551  16.3558723
  39.1766936  76.9769871  18.8498379  39.3094842  76.1800864  19.1779355
  39.5612089  77.5036274  19.4296655  39.2523265  76.9369787  18.9841882
  42.2499291  73.9000197  15.4479472  41.4445255  73.7897926  15.7647311
  42.1206027  74.0012652  14.5909338  42.1119424  73.8983867  15.3687513
  36.8355383  76.9729046  17.0976273  37.3799796  76.6320173  17.6880615
  36.8892319  77.8314507  17.2397557  36.9244502  77.0484305  17.2058146
  22.2189839  36.3960643   9.4473628  22.9256606  35.9012673   9.5760562
  22.4077774  36.8369724   8.7176286  22.3517744  36.3878993   9.3582673
  19.3582133  39.8188179   7.3387703  19.4465479  39.6314320   8.1865913
  19.7871846  39.1725609   6.9392550  19.4344235  39.6951187   7.4059455
  16.9252593  39.1019339   6.3205365  16.3623428  38.6891949   6.8445026
  17.6873616  39.0272245   6.7398509  16.9547041  39.0296740   6.4598366
  13.5327491  31.3292947   8.0522411  13.7047995  31.2198842   8.9007692
  14.0696848  31.9747353   7.8153603  13.6372495  31.4084949   8.1427507
  19.6272586  41.1607300   3.6497942  18.8287831  40.9206800   3.9071811
  20.0758597  41.2121693   4.3964990  19.5747197  41.1329691   3.7982866
  18.6873323  34.9067745  11.5418130  17.8946303  35.2211257  11.7270750
  18.8022250  35.1219214  10.7038915  18.5868733  34.9851582  11.4456465
  19.6157115  34.8087949   6.4803427  20.1895977  34.1715193   6.6351991
  19.5371919  34.8092031   5.6113085  19.6890350  34.7153060   6.3749838
  24.9377263  36.1796927   6.4888280  24.7015901  35.3484991   6.3700341
  25.5820492  36.1282534   7.0743125  24.9971934  36.0494614   6.5574174
  15.3947037  25.4701153  11.2568490  15.0800478  26.2400716  10.9938053
  15.0736969  24.9071409  10.6720717  15.3005956  25.5011421  11.1309840
  25.9613684  35.9641375   2.5516575  25.6559501  36.6969432   2.9129890
  25.2419899  35.5579305   2.2709361  25.8101026  36.0123108   2.5629712
  31.6615476  32.6034376   1.8784919  31.5939976  32.6230335   1.0087506
  31.6471138  33.4464703   2.1040590  31.6494232  32.7308111   1.7837396
  16.0996484  35.2117359   4.6991407  15.6008178  35.9233127   4.7776295
  16.9096708  35.5318026   4.6609569  16.1452591  35.3644208   4.7047975
  15.0263542  28.0698404   9.9953705  14.2163318  28.3756184   9.8843547
  15.5038229  28.7903986  10.1106289  14.9767021  28.2213005   9.9960776
  23.3124854  36.7728774   0.8369235  23.1739213  37.4709820   1.3417978
  22.5324851  36.6177430   0.4805417  23.1768080  36.8528940   0.8595509
  21.6502939  33.0725149   7.0891617  21.6450977  32.2004966   7.0934043
  22.3563933  33.2713318   6.6161073  21.7547943  32.9729023   7.0198652
  15.3773832  32.8002133   6.4605437  15.5217208  33.3803341   5.8248547
  15.7249481  33.1778430   7.1655292  15.4501293  32.9422837   6.4704432
  14.4501587  40.9904905   3.3266464  14.5991151  40.4307821   2.6739868
  15.2301589  41.0696907   3.7098983  14.5875681  40.9190470   3.2863413
  16.9754888  41.1619548   4.6050955  16.8998559  40.4928358   5.1601743
  16.9044747  41.8637336   5.1191621  16.9535495  41.1664455   4.7627803
  16.3646522  44.5687867   3.0628955  16.8542452  43.8698657   2.8804620
  15.7930754  44.2711737   3.6505013  16.3531052  44.4214091   3.1229996
  22.5613526  37.1349937  12.0155746  23.3748391  36.8635086  12.1760879
  22.4008492  36.8357477  11.2115942  22.6583474  37.0504863  11.9201152
  22.0024776  29.4272659   5.8934441  21.1901457  29.1198550   5.9747614
  22.4614710  28.9471659   6.4577154  21.9505160  29.3109152   5.9889036
  19.0978283  30.8332731  10.6763144  19.5677914  31.4574847  11.0631018
  19.1440163  30.1649706  11.2356358  19.1746159  30.8267411  10.8163215
  22.5734770  38.1956227   7.2878587  23.2114490  37.7016423   6.9541043
  21.9308861  38.1233628   6.7030813  22.5728996  38.1115236   7.1520942
  22.6289026  38.8876035   3.9283943  23.4181404  38.5365100   4.0486025
  22.8032624  39.7012424   3.6660577  22.7709308  38.9561893   3.9071811
  14.2417352  37.4415881   4.9381428  14.1337707  37.4517943   5.8043486
  14.4513134  38.2670661   4.7486381  14.2567463  37.5656956   5.0385519
  28.3781566  34.5234293   3.3980643  28.4364690  34.9720942   4.1440620
  27.7448034  34.9333106   2.9610723  28.2932861  34.6508028   3.4433192
  22.0180661  40.1437835  -0.1664610  21.8200349  40.6328650  -0.8608399
  21.3968372  40.3479077   0.4119523  21.8968225  40.2454373  -0.1841387
  23.9354463  33.7101987   5.3680638  24.6588661  33.2574514   5.1891658
  23.6704425  33.9906653   4.5852966  24.0035736  33.6852956   5.2259353
  15.7486194  34.0490448   8.9488525  14.8981825  34.1862163   9.0846169
  15.9114322  33.3154227   9.3936226  15.6470058  33.9604550   9.0344124
  26.3689777  32.6728398   3.8711188  26.9607617  33.3125649   3.9029386
  26.8048771  31.9751435   4.1603255  26.5208208  32.6646749   3.9192020
  18.1983166  37.0945771   4.4969082  17.6908258  37.6481617   4.9409712
  17.9009813  37.1554060   3.6787856  18.0788051  37.1852082   4.4417538
  17.4425652  42.0270329   1.4026088  17.2191306  41.2689158   1.7710115
  16.9535495  42.0568350   0.6806528  17.3369101  41.9192553   1.3502829
  19.4996641  36.1952061   8.9538022  19.4592496  35.5501738   8.3683178
  20.3119959  36.1388678   9.2663434  19.6139795  36.0911028   8.9134971
  19.0643420  27.7473242   7.9490035  19.6214850  27.5187052   7.3168501
  18.7404485  28.5078908   7.6725248  19.0989830  27.8257079   7.8146533
  16.7826537  30.8340896   8.9142043  17.5337864  31.1492572   9.2281597
  16.9749114  30.6320066   8.0875964  16.9217952  30.8508277   8.8385438
  23.4204498  34.3915651   2.4979174  23.8459570  33.8690073   1.9449599
  23.0561418  34.9896489   1.9767797  23.4291101  34.4025878   2.3388183
  13.0558578  42.6879869   1.2576519  13.3705137  43.5016257   1.2654301
  13.4651992  42.3030087   1.9258678  13.1626676  42.7508571   1.3580611
  22.0960082  39.7151229  11.0072403  22.2057048  38.9259789  11.3629150
  22.4250979  39.6257165  10.2046741  22.1612488  39.5857082  10.9414794
  20.6457044  37.8967850   5.5908024  20.0977990  37.2725733   5.3228089
  21.1070073  38.0862122   4.8752103  20.6324254  37.8326900   5.4458455
  20.2115371  38.9018922   2.1217365  21.0313744  38.7581888   2.3833660
  19.9309448  39.5265121   2.6633803  20.2912114  38.9729274   2.2405304
  36.6829021  46.5583774  -4.9139759  36.6523025  47.4128411  -4.7421489
  37.2810370  46.2579067  -4.3553615  36.7666179  46.6400270  -4.8064956
  29.8828706  45.6459425  -0.1586828  29.0266601  45.8067923  -0.1077712
  29.9296359  44.7751489  -0.1381767  29.7627817  45.5410227  -0.1480762
  33.1922422  51.9145951   9.4473628  33.8989190  51.4197981   9.5760562
  33.3810358  52.3555032   8.7176286  33.3250328  51.9064301   9.3582673
  32.7280527  47.7051469   2.4844823  33.2736487  48.3836555   2.5438793
  32.6697403  47.5638930   1.6246405  32.7996441  47.7843471   2.3656884
  25.8454602  55.1940535  -2.1286824  25.9464965  54.3840889  -1.8189696
  25.2496347  55.0997481  -2.7587146  25.7727140  55.0605563  -2.1760586
  25.6855341  60.1118124  -0.7271968  26.3292797  60.5531288  -0.3375810
  26.0111597  59.3071550  -0.8141709  25.8287170  60.0583319  -0.6826491
  21.3409733  43.3846552   0.3949817  20.7214765  42.7939199   0.2259832
  21.2393597  43.9757987  -0.2385860  21.2347409  43.3850635   0.2754807
  28.4377629  45.1246094  -5.2717720  29.1357794  45.3034221  -4.7796257
  28.7529962  44.6016433  -5.8947330  28.5872966  45.0739866  -5.2915710
  21.0678866  46.9298834   2.6393386  20.9437563  47.5161279   3.2743205
  21.7197151  46.4359030   2.9405661  21.1452516  46.9437638   2.7779315
  28.6265564  51.5116539  -5.2837928  29.0659200  50.9033639  -4.8383156
  28.4770227  51.1323912  -6.0552463  28.6687030  51.3655010  -5.3318761
  26.0937207  50.1060551   1.9180897  26.7386210  49.6132994   1.5991846
  26.3338984  50.2485337   2.7446975  26.2247792  50.0537993   1.9930430
  28.6323299  52.9515457   1.5687790  28.9146542  52.1566862   1.3474546
  29.3609459  53.4296044   1.5892851  28.7812862  52.9050054   1.5390805
  26.6104493  40.4938491  -1.1896445  26.2807823  40.9449634  -1.8592746
  25.9349494  40.4154654  -0.6423439  26.4614929  40.5489626  -1.2073222
  33.8180900  36.4824013  -2.9446834  33.5034341  37.1727492  -2.5126412
  33.3007842  36.4268796  -3.6461334  33.6945371  36.5758902  -2.9849885
  38.6141387  52.0574819  -1.4576379  37.7839090  52.2685463  -1.2942963
  38.5650639  51.2311873  -1.7334096  38.4848122  51.9664425  -1.4739014
  26.6751125  54.8878673   1.3771530  26.1578066  54.5286088   0.7732838
  27.3725516  54.3640847   1.3877596  26.7016706  54.7576361   1.2901789
  30.3314717  55.3373487   7.3387703  30.4198062  55.1499628   8.1865913
  30.7604429  54.6910917   6.9392550  30.4076819  55.2136495   7.4059455
  27.8985176  54.6204647   6.3205365  27.3356011  54.2077257   6.8445026
  28.6606200  54.5457553   6.7398509  27.9279625  54.5482048   6.4598366
  23.4581168  56.6102668  -1.0758005  24.1601747  56.0954657  -1.0185248
  23.3778651  56.9376820  -0.2711129  23.5504928  56.5816894  -0.9485212
  38.1095345  44.7045220   2.3374042  37.2723766  44.7747407   2.5721636
  38.0783576  44.7069714   1.4648344  37.9813628  44.7155447   2.2433590
  24.5060074  46.8478255   8.0522411  24.6780578  46.7384150   8.9007692
  25.0429432  47.4932661   7.8153603  24.6105078  46.9270257   8.1427507
  22.7831943  52.8009020  -1.5672397  23.6220843  53.0331953  -1.5198635
  22.8143712  51.9313332  -1.6365361  22.9113661  52.7065967  -1.5707752
  23.4084646  53.2209895   2.7340909  23.9482871  53.0781026   3.4044281
  22.7254593  53.6206646   3.1024935  23.3876800  53.2589566   2.8875331
  32.8325531  48.9000896  -2.0714067  33.5883046  49.3332410  -2.0325158
  32.9387856  48.2505666  -1.4979431  32.9595702  48.8678380  -1.9816041
  35.8705702  52.7274173  -1.3211664  35.4340934  52.7310916  -0.5652692
  35.5368618  53.4079672  -1.7532086  35.7568322  52.8286629  -1.2730831
  30.4434776  54.7682506  10.0031487  31.2275193  54.8813354  10.3687229
  30.2431370  53.9423643  10.1990172  30.5300801  54.6629226  10.0865873
  18.8121791  49.4410186   2.8875331  18.5460207  48.6249303   3.0466321
  18.8260355  49.4863342   2.0170846  18.7746514  49.3267091   2.7828812
  35.7903185  39.7688001   0.9217764  36.4329094  39.8386106   1.5079680
  36.0426206  39.1017224   0.4197306  35.9225317  39.6814350   0.9345044
  23.5620398  42.9788565   5.5342338  22.8692194  42.5085544   5.7803070
  24.1780725  42.7526869   6.1084045  23.5504928  42.8755696   5.6551491
  30.6005169  56.6792608   3.6497942  29.8020415  56.4392108   3.9071811
  31.0491181  56.7307001   4.3964990  30.5479780  56.6514999   3.7982866
  39.0050048  49.4455093  -2.4292026  39.6666483  48.8845762  -2.5296118
  38.3641460  48.9507124  -2.1039335  39.0078916  49.2891502  -2.3959686
  19.2215205  50.2268966   0.1687075  19.0390778  50.2015852  -0.6840633
  19.9564874  50.6967903   0.2075984  19.3029269  50.2930328   0.0484993
  35.2914879  50.4620476  -2.6880038  35.5270468  50.6065674  -3.5153187
  35.4404443  51.2262884  -2.2948524  35.3480682  50.5959530  -2.7516434
  22.2860957  46.9453968   6.6769183  23.0100929  46.9306999   7.1634078
  22.3877093  47.6549324   6.1791152  22.4079166  47.0478672   6.6747970
  29.6605906  50.4253053  11.5418130  28.8678887  50.7396565  11.7270750
  29.7754833  50.6404522  10.7038915  29.5601317  50.5036890  11.4456465
  32.3337225  47.1487044  -4.1686854  32.4284079  47.8876338  -3.7147228
  31.7096069  46.7204520  -3.7352289  32.2546255  47.1948365  -4.0378706
  30.5889699  50.3273257   6.4803427  31.1628561  49.6900501   6.6351991
  30.5104503  50.3277339   5.6113085  30.6622934  50.2338368   6.3749838
  19.1886115  47.1062466   0.3186141  19.7659618  46.9698917   0.9578387
  18.4900177  46.6498250   0.5731726  19.1707137  47.0184733   0.4508431
  25.9453418  48.7596522  -1.4675375  25.6872662  47.9268257  -1.4944076
  26.0001900  48.9854135  -2.3082875  25.9153195  48.6694293  -1.5955239
  31.0254468  40.8624973  -1.3671283  30.3210794  40.3734158  -1.2087364
  31.0739442  40.8747447  -2.2382838  30.9284519  40.7914621  -1.4731943
  24.9188130  46.3134284  -0.9810481  24.3437721  46.4726453  -0.3446520
  24.5423806  45.6769694  -1.4442030  24.7790942  46.2432097  -0.9555922
  28.5861418  44.7857634   3.8781898  28.1975851  44.3611851   3.2234089
  27.9216117  45.0339783   4.3858924  28.4308346  44.7596355   3.8569766
  38.2284687  44.5432638  -3.3470272  37.9721252  43.7312580  -3.5372389
  39.0714001  44.5510206  -3.5740085  38.3150713  44.4244636  -3.4085455
  32.4087780  38.4832262   1.3905882  32.7898292  37.8010434   1.7773756
  31.6051064  38.1941865   1.2081546  32.3464242  38.3399311   1.4209938
  35.9109847  51.6982234   6.4888280  35.6748484  50.8670299   6.3700341
  36.5553076  51.6467842   7.0743125  35.9704517  51.5679922   6.5574174
  25.5608265  52.4877756  -2.7968983  26.1982212  52.2489503  -2.2517190
  25.9863336  52.6914915  -3.5315823  25.7184431  52.4828766  -2.8251826
  20.2520907  54.7266092   1.0865321  20.2925052  54.9980943   0.2585100
  20.8115431  55.2508000   1.5023108  20.3404253  54.8441847   1.0257209
  26.3679620  40.9886461  11.2568490  26.0533061  41.7586023  10.9938053
  26.0469553  40.4256717  10.6720717  26.2738539  41.0196729  11.1309840
  36.9346267  51.4826683   2.5516575  36.6292084  52.2154740   2.9129890
  36.2152483  51.0764613   2.2709361  36.7833610  51.5308416   2.5629712
  27.9429737  52.9650178  -1.1175197  28.0168745  52.8025350  -0.2633347
  28.7599243  53.1540368  -1.3614715  28.0746095  52.9686921  -1.0277171
  42.6348060  48.1219684   1.8784919  42.5672560  48.1415643   1.0087506
  42.6203722  48.9650011   2.1040590  42.6226816  48.2493419   1.7837396
  33.0444406  39.5254842   5.2026009  33.7897998  39.3364652   4.7889434
  32.6281711  40.0513080   4.6439865  33.0929380  39.5756987   5.0590582
  40.4206677  46.8964070   0.1531514  40.9714598  46.2632139   0.3928606
  40.4050792  47.4279463   0.8447018  40.4991873  46.8813018   0.2910372
  27.0729068  50.7302667   4.6991407  26.5740761  51.4418435   4.7776295
  27.8829292  51.0503334   4.6609569  27.1185174  50.8829516   4.7047975
  23.3357185  49.9925620  -1.0545872  23.0470434  49.3663092  -0.5200145
  24.2040533  49.9345908  -0.9881192  23.4217437  49.8913165  -0.9654918
  34.1235083  45.1360404  -0.7363890  33.7799849  44.4150739  -0.3856641
  34.2228126  44.9274255  -1.5785532  34.0877126  44.9984607  -0.8092210
  25.9996126  43.5883712   9.9953705  25.1895901  43.8941491   9.8843547
  26.4770812  44.3089294  10.1106289  25.9499604  43.7398313   9.9960776
  24.8587685  52.8029433   0.2436608  24.3368439  52.9429724   0.9288473
  25.2461706  52.0440097   0.4338726  24.8391386  52.7114957   0.3737685
  26.2854011  49.8333452  -4.3581901  26.0896794  50.4408186  -4.9521598
  26.5088356  49.1401396  -4.8390227  26.2888652  49.8210977  -4.5165820
  24.6832541  46.7188190  -4.2401032  25.4055193  46.8829348  -4.6997226
  24.2040534  47.4397855  -4.3461693  24.7196272  46.8486419  -4.3235418
  32.6426048  43.0551989   1.1395653  31.8037149  43.0813267   0.9033916
  32.7130416  43.7022724   1.7200999  32.5294442  43.1548114   1.1904769
  22.3340158  49.1246262   4.8653108  22.8461255  49.4030515   4.2161867
  22.0476500  49.8635556   5.2315921  22.3675021  49.2748616   4.8242986
  31.0895327  39.9537366  -4.1276731  31.7921680  39.7545114  -4.6056773
  30.8239515  39.1813308  -3.8207888  31.1541959  39.8100332  -4.1531290
  36.5183572  48.2619975  -1.5743106  36.4317547  48.4175401  -0.7208327
  36.0634052  48.9058051  -1.9483701  36.4386829  48.3795730  -1.5035999
  25.8523883  41.2172651   4.9254149  25.6607080  41.2327785   5.7753573
  26.7022479  41.4136325   4.9020804  25.9499605  41.2487002   5.0477444
  20.2370796  43.7463632   2.9037966  20.0956288  42.8947573   3.0282474
  20.5211359  43.7892293   2.0800172  20.2578642  43.6263382   2.8005590
  30.3909388  45.5830722  -2.9517546  30.1444103  45.5026473  -2.1180757
  30.7194511  44.7984190  -3.1455019  30.4030632  45.4556988  -2.8570023
  34.2857437  52.2914082   0.8369235  34.1471796  52.9895128   1.3417978
  33.5057435  52.1362738   0.4805417  34.1500664  52.3714248   0.8595509
  32.6235522  48.5910457   7.0891617  32.6183561  47.7190274   7.0934043
  33.3296516  48.7898626   6.6161073  32.7280526  48.4914331   7.0198652
  26.3506416  48.3187441   6.4605437  26.4949791  48.8988649   5.8248547
  26.6982064  48.6963738   7.1655292  26.4233877  48.4608145   6.4704432
  28.5226333  47.5177609   4.2430569  27.7749647  47.7108624   3.8378847
  28.6767858  46.6922829   4.0054690  28.4348761  47.4242721   4.1475974
  25.4234171  56.5090213   3.3266464  25.5723734  55.9493129   2.6739868
  26.2034173  56.5882214   3.7098983  25.5608264  56.4375778   3.2863413
  27.9487471  56.6804856   4.6050955  27.8731142  56.0113666   5.1601743
  27.8777330  57.3822644   5.1191621  27.9268078  56.6849763   4.7627803
  28.7628110  41.4128160   5.1325972  29.2200724  42.1452134   5.2598765
  28.8384439  40.9894625   5.8913228  28.8419080  41.4585398   5.2627049
  21.0061101  41.6593980   6.2215416  20.4703291  41.0474338   6.5376183
  21.0678866  42.2342116   6.8749083  20.9356734  41.6540908   6.3650843
  33.2355436  34.5918035  -0.9980185  33.3539004  35.0494499  -1.7312882
  33.0617612  33.7863296  -1.2843967  33.2274607  34.5411807  -1.1479251
  26.6410488  43.4030264   1.9767796  25.8506563  43.2221724   2.2985132
  27.0371111  42.6257217   1.9598091  26.5827364  43.2617725   2.0220345
  32.0254174  51.0372694  -0.2972758  31.3499176  50.8057926   0.2040629
  32.0346550  50.4293877  -0.9230653  31.9272679  50.9131619  -0.3156606
  29.1548318  45.8790523   6.4591295  29.0907459  46.7400480   6.3311432
  29.2945506  45.5622516   5.6586847  29.1663788  45.9590690   6.3219508
  27.8367412  48.5722662   0.6007498  27.4129661  48.7727162  -0.1353484
  27.6612267  47.7251510   0.7131798  27.7478293  48.4771444   0.5081188
  27.3379106  60.0873175   3.0628955  27.8275036  59.3883965   2.8804620
  26.7663338  59.7897045   3.6505013  27.3263636  59.9399399   3.1229996
  23.1249857  49.0674714  -3.9664529  23.2814476  49.0021517  -3.1108537
  23.4650450  49.8423266  -4.1785850  23.1983092  49.1723912  -3.8709935
  29.6629002  48.4432597  -5.0971166  30.2044547  47.9402979  -4.6332546
  29.9775561  48.3897792  -5.9081681  29.7893399  48.3612018  -5.1487354
  33.5346109  52.6535245  12.0155746  34.3480974  52.3820394  12.1760879
  33.3741075  52.3542785  11.2115942  33.6316058  52.5690171  11.9201152
  30.8118271  43.3368902   4.9551134  31.0260241  42.6979816   4.4014488
  30.1952170  43.7814726   4.5258996  30.7523600  43.3079046   4.8101565
  19.6984119  46.2509664  -3.6503762  20.0783083  46.6694209  -4.3143495
  19.1239483  46.8323120  -3.3434919  19.6695443  46.3987523  -3.7027021
  32.9757359  44.9457967   5.8934441  32.1634041  44.6383858   5.9747614
  33.4347294  44.4656967   6.4577154  32.9237744  44.8294460   5.9889036
  30.2033000  36.4468838  -0.0561523  29.3326558  36.4207559  -0.1028213
  30.4573341  36.2746030  -0.8735677  30.1126560  36.4178981  -0.1841386
  30.0710867  46.3518039  10.6763144  30.5410498  46.9760155  11.0631018
  30.1172747  45.6835014  11.2356358  30.1478742  46.3452719  10.8163215
  27.2282140  38.4575066   1.4011948  26.7120629  37.7655258   1.5263527
  26.6676069  39.1245843   1.3474546  27.0688653  38.4538324   1.4118014
  29.2974374  38.9968026   3.2304800  28.9106127  39.0217058   4.0118330
  28.8107311  38.4309705   2.7779317  29.1686883  38.9163777   3.2792704
  33.5467353  53.7141535   7.2878587  34.1847074  53.2201731   6.9541043
  32.9041445  53.6418936   6.7030813  33.5461580  53.6300544   7.1520942
  35.2724353  45.5630681   1.8544502  34.8451961  45.4757030   1.0992602
  34.6350406  45.6708457   2.4399346  35.1153960  45.5663341   1.8289944
  28.9631515  35.8835012   5.5215060  29.5924633  36.4195312   5.2436130
  29.1317378  35.7912371   6.3728626  29.0809310  35.9496374   5.6063588
  28.7645430  40.6706206   7.7941472  29.5918860  40.3991355   7.8500086
  28.7853276  41.4667048   8.1505290  28.8898280  40.7485961   7.8556655
  33.6021610  54.4061343   3.9283943  34.3913988  54.0550408   4.0486025
  33.7765208  55.2197732   3.6660577  33.7441891  54.4747201   3.9071811
  23.3414920  47.8170069   0.9811732  22.5002927  47.7173943   1.1890626
  23.5504928  48.5865549   1.3326053  23.2479613  47.9162112   1.0639047
  20.8190487  45.4389606  -1.1903517  20.4247185  45.5132618  -1.9653407
  20.2630604  45.8247552  -0.6395155  20.6793299  45.5071381  -1.2235857
  32.4555434  38.4170900  -1.5099638  32.6605027  38.3493208  -0.6642641
  32.1281858  39.2229721  -1.5778461  32.4370682  38.5256841  -1.3939983
  27.1531585  45.7451468   0.2309330  26.8494723  45.1907457   0.8319737
  26.4511006  45.9243678  -0.2562636  27.0047795  45.6896251   0.2479035
  25.2149936  52.9601189   4.9381428  25.1070291  52.9703251   5.8043486
  25.4245717  53.7855969   4.7486381  25.2300047  53.0842264   5.0385519
  35.7089122  38.9702664  -2.0296873  35.0963435  39.4573066  -1.6443141
  35.8053296  38.2946155  -1.4859222  35.6327019  38.9420973  -1.8918015
  23.2323728  50.2113831   2.4003365  22.6411661  50.8523330   2.3706380
  23.9944752  50.6351449   2.3734665  23.2571989  50.3689670   2.3918512
  23.6284351  41.3715829   3.0671383  24.0885832  41.4454759   3.8046507
  23.6740458  42.1697083   2.7171204  23.7034906  41.5009976   3.1244139
  25.2767701  42.0382524   7.6343410  24.8853266  41.3915871   8.0699188
  25.4453563  42.6293959   8.2537665  25.2438611  42.0296792   7.7906116
  39.3514150  50.0419601   3.3980643  39.4097273  50.4906250   4.1440620
  38.7180617  50.4518414   2.9610723  39.2665445  50.1693336   3.4433192
  32.9913244  55.6623143  -0.1664610  32.7932933  56.1513957  -0.8608399
  32.3700955  55.8664384   0.4119523  32.8700809  55.7639681  -0.1841387
  27.0521223  47.4308040  -5.8254366  27.7963268  47.8182316  -5.5871416
  27.1981919  46.5865465  -5.6613878  27.1831808  47.3638513  -5.7660396
  28.9700798  39.2258299  -0.7922505  28.1236843  39.3981107  -0.9181155
  28.9671931  38.4207642  -0.4556676  28.8447948  39.1319328  -0.7611378
  30.0399098  43.0033513   0.0739553  29.5659053  42.4775275   0.5844864
  30.4117234  42.4562986  -0.4945585  30.0248987  42.8449510   0.0654700
  20.4172129  45.0005020   5.4423099  21.2797742  44.9000729   5.3560429
  20.0863912  44.4199729   4.8808671  20.4957325  44.8996647   5.3468505
  36.3035829  48.0635889   1.4846334  36.0634052  47.2242304   1.4888760
  36.7827836  48.1436056   2.2087107  36.3388013  47.9517288   1.5921136
  38.3041016  44.8437346  -0.5624407  38.0650786  44.8033180  -1.4003623
  38.4674917  45.6908498  -0.4358686  38.2931320  44.9629431  -0.6670925
  34.9087046  49.2287295   5.3680638  35.6321245  48.7759822   5.1891658
  34.6437008  49.5091961   4.5852966  34.9768319  49.2038264   5.2259353
  23.7773915  43.8247469   2.1033517  23.1526985  43.8365861   1.4959470
  23.4419509  44.3007644   2.7524757  23.6359406  43.8965986   2.1090086
  20.4899590  51.8847929   3.5437281  19.9599515  51.1940368   3.5932256
  20.7624683  51.8758114   2.7149990  20.4524312  51.7815061   3.4284697
  29.9302133  50.3975444   1.2519952  29.5029741  49.7725162   0.8185387
  29.9227077  50.1150365   2.0778959  29.8661274  50.2628224   1.3099779
  23.0464660  45.4340617   4.3208386  23.2058147  44.6783941   4.7260108
  22.8657554  45.9831556   4.9749123  23.0430019  45.4034430   4.4771092
  30.9884963  37.6001852   4.8759175  30.4925524  37.7965526   4.1850742
  31.7454025  37.9994520   4.7047977  31.0271788  37.6879586   4.7479312
  28.2587843  41.2744198   1.4662486  28.2830330  40.7404310   0.7775266
  28.5099316  40.7661507   2.1288076  28.2997761  41.1205102   1.4627130
  24.5389165  40.0015016   0.8468230  24.5787536  40.5024223   1.5602937
  23.7138829  40.0925410   0.5774153  24.4228691  40.0896833   0.9118768
  26.7218778  49.5675756   8.9488525  25.8714408  49.7047471   9.0846169
  26.8846905  48.8339535   9.3936226  26.6202641  49.4789858   9.0344124
  25.9603528  46.5175526   3.1442129  25.1295458  46.6849344   2.9377377
  25.9055045  46.1411477   3.9291014  25.8292943  46.4865257   3.2290657
  23.7687311  40.0084419   8.7798540  24.3940015  39.4646552   9.0527972
  23.3137791  39.5279337   8.2106330  23.7935572  39.8573900   8.7360134
  37.3422360  48.1913706   3.8711188  37.9340200  48.8310957   3.9029386
  37.7781355  47.4936743   4.1603255  37.4940791  48.1832056   3.9192020
  29.1715750  52.6131078   4.4969082  28.6640841  53.1666925   4.9409712
  28.8742396  52.6739368   3.6787856  29.0520635  52.7037390   4.4417538
  31.3377932  40.9784398   3.3393745  31.7633004  40.5256925   2.7277271
  30.7234925  40.4244469   3.6158532  31.3106578  40.8298374   3.2898770
  34.3671502  45.4058925  -3.8285670  33.6962691  45.9488627  -3.9572604
  35.0611252  45.8753780  -4.0703975  34.3700369  45.5557196  -3.8830142
  28.4158235  57.5455637   1.4026088  28.1923890  56.7874466   1.7710115
  27.9268079  57.5753658   0.6806528  28.3101684  57.4377861   1.3502829
  34.5299629  41.8614808  -0.9195297  34.8827239  41.4344531  -0.2449498
  33.6714430  41.7765652  -0.7894220  34.4549074  41.7859549  -0.8000286
  23.2283314  44.4922328  -2.8612450  22.5095303  44.9086461  -2.5939586
  23.5995676  45.0576567  -3.4120812  23.1775246  44.6371609  -2.9029643
  32.5282895  45.1250177   3.0289546  32.5080822  44.9433472   3.8824325
  32.5762096  45.9962195   3.0049129  32.5317536  45.2266715   3.1512840
  30.4729225  51.7137369   8.9538022  30.4325079  51.0687046   8.3683178
  31.2852543  51.6573986   9.2663434  30.5872378  51.6096336   8.9134971
  27.0636692  57.7656095  -1.1436827  26.6497091  57.1030225  -1.5332985
  27.7484066  57.9133954  -1.6641133  27.1035064  57.6896753  -1.2780330
  30.4301986  56.9246180  -0.3913210  30.0318270  57.0348450  -1.1592390
  29.8153206  57.1328246   0.1913349  30.2800876  56.9719748  -0.4181911
  35.9623689  36.9833220   0.0089016  35.4554554  36.2762360  -0.0589807
  36.7591123  36.6526409   0.1390092  36.0050928  36.8306372   0.0188011
  31.8787705  43.4899832  -4.0937320  31.6501398  43.5132534  -4.9358962
  32.1385781  42.6657299  -3.9742310  31.8833893  43.3715912  -4.2012123
  26.1606933  45.3434305   5.5087780  25.6485836  44.7355488   5.8672811
  25.9886430  46.0590898   5.9761756  26.0596570  45.3597605   5.6304004
  21.0072648  43.7871881   8.1590142  20.8375238  44.4473256   7.6138348
  20.5638598  43.9978442   8.8802631  20.9171982  43.9157863   8.1851771
  24.9332467  42.0276379  -2.7983125  25.4089834  42.3893459  -3.4332944
  24.4321067  42.6832846  -2.5182982  24.9297826  42.1770568  -2.8506384
  30.0376004  43.2658550   7.9490035  30.5947434  43.0372360   7.3168501
  29.7137069  44.0264216   7.6725248  30.0722414  43.3442387   7.8146533
  17.9074713  46.6918746   3.4178631  17.3601432  46.0219392   3.5359500
  18.6967091  46.3248594   3.4822099  17.9426896  46.5383733   3.4447332
  27.7559121  46.3526203   8.9142043  28.5070448  46.6677880   9.2281597
  27.9481697  46.1505374   8.0875964  27.8950535  46.3693585   8.8385438
  34.6044411  42.4799770  -3.8434162  34.6038638  42.3248426  -2.9849886
  34.4000591  43.3262757  -3.8992776  34.5744189  42.5820390  -3.7246223
  16.6661682  45.9039554   0.5724655  16.4883443  45.4516163   1.2979570
  16.3780704  46.7065716   0.7563132  16.5974635  45.9562112   0.7068157
  32.3285263  47.1597272  -0.1897955  32.8238928  46.4420267  -0.2293935
  31.5185039  46.8568069  -0.3043468  32.2829156  47.0094918  -0.2124229
  34.3937082  49.9100959   2.4979174  34.8192154  49.3875381   1.9449599
  34.0294002  50.5081796   1.9767797  34.4023685  49.9211186   2.3388183
  24.0291162  58.2065177   1.2576519  24.3437721  59.0201565   1.2654301
  24.4384575  57.8215395   1.9258678  24.1359260  58.2693879   1.3580611
  30.9815681  53.6235223  -1.1719669  31.4526860  54.3375486  -1.0029684
  31.3175860  53.0233973  -0.6359799  31.1010797  53.6406688  -1.0687293
  33.0692666  55.2336537  11.0072403  33.1789632  54.4445097  11.3629150
  33.3983563  55.1442473  10.2046741  33.1345072  55.1042390  10.9414794
  27.8985176  38.3962694   5.7838426  28.0313082  37.5993687   6.1119401
  28.2830329  38.9229097   6.3636701  27.9741505  38.3562611   5.9181929
  31.6189628  53.4153157   5.5908024  31.0710574  52.7911041   5.3228089
  32.0802657  53.6047429   4.8752103  31.6056837  53.3512208   5.4458455
  30.9717532  35.3193020   2.3819519  30.1663495  35.2090750   2.6987357
  30.8424267  35.4205476   1.5249385  30.8337664  35.3176690   2.3027560
  34.4283492  41.4838512   2.9759216  33.8446481  41.9847718   2.5636783
  34.7487786  40.9768068   2.3423539  34.3896667  41.4830347   2.8217723
  21.3704182  52.1538285   0.9055128  21.9749039  52.1134119   0.2768948
  21.1631494  53.0009437   0.9359183  21.4293079  52.2726288   0.8171244
  31.1847954  54.4204230   2.1217365  32.0046328  54.2767196   2.3833660
  30.9042032  55.0450429   2.6633803  31.2644697  54.4914582   2.2405304
  32.0411450  62.4484142   2.6393386  31.9170147  63.0346587   3.2743205
  32.6929734  61.9544337   2.9405661  32.1185099  62.4622946   2.7779315
  35.4792658  62.3663563   8.0522411  35.6513162  62.2569458   8.9007692
  36.0162015  63.0117969   7.8153603  35.5837662  62.4455565   8.1427507
  41.4167359  70.2867814  10.0031487  42.2007776  70.3998662  10.3687229
  41.2163954  69.4608951  10.1990172  41.5033385  70.1814533  10.0865873
  34.5352981  58.4973872   5.5342338  33.8424778  58.0270852   5.7803070
  35.1513309  58.2712177   6.1084045  34.5237511  58.3941004   5.6551491
  33.2593540  62.4639276   6.6769183  33.9833513  62.4492307   7.1634078
  33.3609677  63.1734632   6.1791152  33.3811749  62.5663980   6.6747970
  40.6338490  65.9438361  11.5418130  39.8411470  66.2581873  11.7270750
  40.7487417  66.1589829  10.7038915  40.5333900  66.0222198  11.4456465
  39.5594002  60.3042942   3.8781898  39.1708435  59.8797159   3.2234089
  38.8948700  60.5525091   4.3858924  39.4040930  60.2781663   3.8569766
  43.3820363  54.0017570   1.3905882  43.7630875  53.3195741   1.7773756
  42.5783648  53.7127172   1.2081546  43.3196825  53.8584619   1.4209938
  37.3412204  56.5071769  11.2568490  37.0265645  57.2771331  10.9938053
  37.0202136  55.9442025  10.6720717  37.2471123  56.5382037  11.1309840
  44.0176990  55.0440150   5.2026009  44.7630582  54.8549960   4.7889434
  43.6014294  55.5698387   4.6439865  44.0661964  55.0942295   5.0590582
  36.9728709  59.1069020   9.9953705  36.1628485  59.4126799   9.8843547
  37.4503396  59.8274602  10.1106289  36.9232188  59.2583621   9.9960776
  33.3072741  64.6431570   4.8653108  33.8193838  64.9215823   4.2161867
  33.0209084  65.3820864   5.2315921  33.3407604  64.7933924   4.8242986
  36.8256467  56.7357959   4.9254149  36.6339664  56.7513093   5.7753573
  37.6755063  56.9321633   4.9020804  36.9232188  56.7672310   5.0477444
  31.2103380  59.2648940   2.9037966  31.0688871  58.4132881   3.0282474
  31.4943943  59.3077601   2.0800172  31.2311226  59.1448690   2.8005590
  37.3238999  63.8372749   6.4605437  37.4682375  64.4173957   5.8248547
  37.6714648  64.2149046   7.1655292  37.3966461  63.9793453   6.4704432
  39.7360694  56.9313468   5.1325972  40.1933308  57.6637442   5.2598765
  39.8117022  56.5079933   5.8913228  39.8151663  56.9770706   5.2627049
  31.9793685  57.1779288   6.2215416  31.4435874  56.5659646   6.5376183
  32.0411450  57.7527424   6.8749083  31.9089317  57.1726215   6.3650843
  37.6143072  58.9215572   1.9767796  36.8239146  58.7407032   2.2985132
  38.0103694  58.1442524   1.9598091  37.5559948  58.7803033   2.0220345
  40.1280902  61.3975831   6.4591295  40.0640043  62.2585787   6.3311432
  40.2678090  61.0807824   5.6586847  40.1396372  61.4775998   6.3219508
  44.5078693  68.1720553  12.0155746  45.3213558  67.9005702  12.1760879
  44.3473659  67.8728093  11.2115942  44.6048641  68.0875479  11.9201152
  41.7850855  58.8554210   4.9551134  41.9992824  58.2165124   4.4014488
  41.1684754  59.3000034   4.5258996  41.7256184  58.8264354   4.8101565
  43.9489943  60.4643275   5.8934441  43.1366624  60.1569165   5.9747614
  44.4079877  59.9842275   6.4577154  43.8970327  60.3479767   5.9889036
  41.0443450  61.8703347  10.6763144  41.5143081  62.4945463  11.0631018
  41.0905330  61.2020322  11.2356358  41.1211326  61.8638027  10.8163215
  38.2014724  53.9760374   1.4011948  37.6853212  53.2840565   1.5263527
  37.6408653  54.6431151   1.3474546  38.0421237  53.9723632   1.4118014
  40.2706957  54.5153334   3.2304800  39.8838710  54.5402366   4.0118330
  39.7839895  53.9495013   2.7779317  40.1419466  54.4349085   3.2792704
  39.9364099  51.4020320   5.5215060  40.5657217  51.9380620   5.2436130
  40.1049962  51.3097678   6.3728626  40.0541894  51.4681682   5.6063588
  39.7378014  56.1891514   7.7941472  40.5651443  55.9176663   7.8500086
  39.7585860  56.9852356   8.1505290  39.8630864  56.2671268   7.8556655
  34.6016934  56.8901137   3.0671383  35.0618416  56.9640067   3.8046507
  34.6473041  57.6882391   2.7171204  34.6767490  57.0195284   3.1244139
  36.2500284  57.5567832   7.6343410  35.8585849  56.9101179   8.0699188
  36.4186147  58.1479267   8.2537665  36.2171194  57.5482100   7.7906116
  31.3904712  60.5190328   5.4423099  32.2530325  60.4186037   5.3560429
  31.0596495  59.9385037   4.8808671  31.4689909  60.4181954   5.3468505
  34.7506498  59.3432777   2.1033517  34.1259568  59.3551169   1.4959470
  34.4152093  59.8192952   2.7524757  34.6091990  59.4151294   2.1090086
  34.0197244  60.9525925   4.3208386  34.1790730  60.1969249   4.7260108
  33.8390137  61.5016864   4.9749123  34.0162602  60.9219738   4.4771092
  41.9617546  53.1187160   4.8759175  41.4658108  53.3150834   4.1850742
  42.7186609  53.5179828   4.7047977  42.0004371  53.2064894   4.7479312
  35.5121748  55.5200324   0.8468230  35.5520120  56.0209531   1.5602937
  34.6871413  55.6110718   0.5774153  35.3961274  55.6082141   0.9118768
  37.6951361  65.0861064   8.9488525  36.8446992  65.2232779   9.0846169
  37.8579489  64.3524843   9.3936226  37.5935225  64.9975165   9.0344124
  34.7419895  55.5269727   8.7798540  35.3672598  54.9831860   9.0527972
  34.2870375  55.0464645   8.2106330  34.7668156  55.3759208   8.7360134
  42.3110516  56.4969706   3.3393745  42.7365587  56.0442232   2.7277271
  41.6967509  55.9429777   3.6158532  42.2839161  56.3483682   3.2898770
  41.4461808  67.2322677   8.9538022  41.4057663  66.5872354   8.3683178
  42.2585126  67.1759294   9.2663434  41.5604962  67.1281644   8.9134971
  37.1339517  60.8619613   5.5087780  36.6218420  60.2540796   5.8672811
  36.9619013  61.5776206   5.9761756  37.0329154  60.8782913   5.6304004
  31.9805232  59.3057189   8.1590142  31.8107822  59.9658564   7.6138348
  31.5371182  59.5163750   8.8802631  31.8904565  59.4343171   8.1851771
  41.0108587  58.7843858   7.9490035  41.5680017  58.5557668   7.3168501
  40.6869652  59.5449524   7.6725248  41.0454997  58.8627695   7.8146533
  28.8807296  62.2104054   3.4178631  28.3334016  61.5404700   3.5359500
  29.6699674  61.8433902   3.4822099  28.9159480  62.0569041   3.4447332
  38.7291705  61.8711511   8.9142043  39.4803032  62.1863188   9.2281597
  38.9214281  61.6690682   8.0875964  38.8683119  61.8878893   8.8385438
  27.6394266  61.4224862   0.5724655  27.4616027  60.9701471   1.2979570
  27.3513288  62.2251024   0.7563132  27.5707219  61.4747420   0.7068157
  38.8717760  53.9148002   5.7838426  39.0045666  53.1178995   6.1119401
  39.2562913  54.4414405   6.3636701  38.9474089  53.8747919   5.9181929
  41.9450115  50.8378328   2.3819519  41.1396079  50.7276058   2.6987357
  41.8156851  50.9390784   1.5249385  41.8070248  50.8361998   2.3027560
  36.5306207  53.9107177   4.0316320  37.0750620  53.5698304   4.6220661
  36.5843142  54.7692638   4.1737604  36.6195326  53.9862436   4.1398193
  35.1743482  39.3041694  -5.0137543  35.3463986  39.1947589  -4.1652261
  35.7112839  39.9496100  -5.2506350  35.2788486  39.3833696  -4.9232446
  41.1118183  47.2245945  -3.0628467  41.8958600  47.3376793  -2.6972724
  40.9114778  46.3987082  -2.8669781  41.1984209  47.1192665  -2.9794081
  40.3289314  42.8816492  -1.5241823  39.5362294  43.1960004  -1.3389203
  40.4438241  43.0967961  -2.3621038  40.2284724  42.9600329  -1.6203488
  37.0363028  33.4449900  -1.8091463  36.7216469  34.2149463  -2.0721900
  36.7152960  32.8820156  -2.3939236  36.9421947  33.4760169  -1.9350113
  36.6679533  36.0447151  -3.0706248  35.8579309  36.3504931  -3.1816406
  37.1454220  36.7652733  -2.9553664  36.6183012  36.1961752  -3.0699177
  37.0189823  40.7750880  -6.6054516  37.1633199  41.3552088  -7.2411406
  37.3665472  41.1527177  -5.9004662  37.0917285  40.9171584  -6.5955521
  39.8231726  38.3353962  -6.6068658  39.7590867  39.1963919  -6.7348521
  39.9628913  38.0185955  -7.4073107  39.8347196  38.4154129  -6.7440445
  44.2029517  45.1098684  -1.0504207  45.0164382  44.8383833  -0.8899075
  44.0424483  44.8106224  -1.8544011  44.2999465  45.0253610  -1.1458801
  43.6440767  37.4021406  -7.1725512  42.8317448  37.0947297  -7.0912339
  44.1030701  36.9220406  -6.6082800  43.5921151  37.2857899  -7.0770918
  40.7394274  38.8081478  -2.3896809  41.2093905  39.4323594  -2.0028935
  40.7856154  38.1398453  -1.8303595  40.8162150  38.8016158  -2.2496738
  37.3902185  42.0239195  -4.1171429  36.5397816  42.1610910  -3.9813784
  37.5530313  41.2902974  -3.6723727  37.2886049  41.9353297  -4.0315829
  41.1412632  44.1700808  -4.1121931  41.1008487  43.5250485  -4.6976775
  41.9535950  44.1137425  -3.7996519  41.2555786  44.0659775  -4.1524982
  40.7059411  35.7221989  -5.1169918  41.2630841  35.4935799  -5.7491452
  40.3820476  36.4827655  -5.3934705  40.7405821  35.8005826  -5.2513421
  38.4242528  38.8089643  -4.1517911  39.1753855  39.1241319  -3.8378356
  38.6165105  38.6068813  -4.9783989  38.5633943  38.8257024  -4.2274515
  79.2219595  79.2219595  79.2219595 109.4712190 109.4712190 109.4712190
