default_name
 43986
  38.4326715  30.1934377  23.9260940  38.9214655  30.6360134  24.6911484
  38.1499260  30.9044804  23.2668721  38.9722993  29.3995367  23.6120517
  37.1400562  29.6110504  24.4665528  36.2988682  30.0733021  23.9500015
  37.0642477  28.0955731  24.2658972  36.9814038  27.9199079  23.1933405
  38.0030281  27.6785294  24.6304051  35.8826541  27.4148704  24.9915701
  36.1469315  27.3931922  26.0488252  35.0207494  28.0661189  24.8463195
  35.4480736  25.6880716  24.4322449  34.5316536  26.0396486  22.9240659
  35.1735287  26.5755435  22.2248435  34.2034276  25.1040435  22.4712839
  33.6621010  26.6526273  23.1612086  37.0058082  29.9011720  25.9850964
  35.9010403  30.1139790  26.4885098  37.8106709  32.3716302  27.5179636
  38.5941959  31.9779276  28.0191484  37.4921366  33.7919634  27.7267636
  37.6440555  34.0614051  28.7719531  38.4232803  34.6758141  26.8444392
  38.4593740  34.2707397  25.8331474  38.0369309  35.6945807  26.8136337
  39.6922769  34.6821356  27.3820084  40.2670802  35.2265656  26.8390563
  36.0761953  34.1452152  27.3254453  35.6566511  35.3034855  27.4211302
  35.3525683  33.1647032  26.7708273  35.6907669  32.2133296  26.7955124
  34.0525080  33.4231360  26.1498959  33.8892969  34.4976190  26.0665438
  33.9984504  32.8025866  24.7311496  34.7463697  33.3445601  24.1523744
  34.3176311  31.7681419  24.8582239  32.6371700  32.8361645  23.9792892
  32.7370697  32.2061624  23.0954237  31.8879425  32.4094973  24.6461568
  32.2077077  34.2254319  23.5619663  32.9922633  35.1742153  23.7486006
  31.0773673  34.3350060  23.0477132  32.9690506  32.7498226  27.0230804
  32.8784564  31.4875184  27.0868124  32.1979951  33.5491639  27.7405488
  32.3961488  34.5361421  27.8224537  31.0270772  32.9963567  28.4896047
  31.3725063  32.2831613  29.2380231  30.2547139  34.1274317  29.2048362
  29.9554003  34.8244202  28.4220734  29.3660297  33.7028117  29.6717818
  31.0864997  34.8747131  30.2677948  31.9492577  35.3388599  29.7899693
  30.2097137  35.9794808  30.9475041  29.3469464  35.5160169  31.4259731
  30.8020955  36.5039998  31.6972136  29.8688158  36.6886538  30.1932079
  31.6189526  33.9126407  31.3209741  32.2530270  33.1653948  30.8438237
  32.2015013  34.4657444  32.0577337  30.7840472  33.4170686  31.8163935
  30.0538664  32.2340562  27.5851686  29.7652255  32.6731568  26.4688595
  29.5585622  31.0979982  28.0992845  29.9873712  30.6934044  28.9193613
  28.4231011  30.3803229  27.4737613  28.5484077  30.3529902  26.3913333
  28.2846155  28.9206211  27.9953728  27.4969629  28.4199777  27.4322921
  29.6226046  28.1394445  27.8234888  30.4106837  28.6392654  28.3867029
  29.5003164  27.1221249  28.1952488  29.8937159  28.1099413  26.7681553
  27.9032633  28.9160469  29.3764798  27.8220631  28.0099330  29.6830161
  27.1209672  31.1267981  27.7231967  27.0592198  31.9957098  28.6164686
  26.0822742  30.8543054  26.9070236  26.0088043  30.0964756  25.6375229
  25.8439193  29.0391620  25.8448904  26.9371722  30.2161967  25.0790438
  24.8177231  30.7499608  24.9355539  24.3615819  30.0644454  24.2213391
  25.1209950  31.6615414  24.4206283  23.8686345  31.0658054  26.0896540
  23.2995512  30.1916166  26.4059404  23.1819061  31.8727256  25.8339518
  24.8100336  31.5161390  27.2232661  24.9671203  32.5912018  27.1357332
  24.2864889  31.1862929  28.6398198  23.7823576  32.0964650  29.2992797
  24.4984169  29.9647644  29.1470511  24.9092142  29.2383969  28.5780738
  24.0997623  29.6306689  30.5260629  23.0574559  29.9157291  30.6690217
  24.2445958  28.1438624  30.8317008  25.2057181  27.8151020  30.4364036
  24.2380247  28.0248193  31.9151608  23.1207280  27.2951045  30.2166168
  22.1862423  27.5292666  30.7265241  23.0530032  27.6060914  29.1741199
  23.3735607  25.7896104  30.2832799  24.2147081  25.3406980  31.0967353
  22.6857511  25.0395445  29.5278991  24.9121271  30.4122199  31.5629942
  24.3788765  30.8697929  32.5884599  26.2124892  30.5458564  31.3131550
  26.6634091  30.1200471  30.5159994  27.0322307  31.3021574  32.2464040
  26.8570237  30.9425267  33.2603405  28.5263306  31.1438543  31.9202896
  28.6390584  31.3170154  30.8500527  29.0568591  31.9203850  32.4713246
  29.1102614  29.7728192  32.2800531  29.2280307  29.7085468  33.3617648
  28.4062504  29.0107431  31.9458261  30.4703002  29.5453711  31.6028082
  30.8499650  30.3230195  30.6888922  31.1731511  28.6097068  31.9780723
  26.6103018  32.7802728  32.1728924  26.5005803  33.4268438  33.2055633
  26.3491278  33.3278186  30.9801227  26.3548574  32.7925650  30.1236356
  26.0174397  34.7523565  30.9063943  26.8340215  35.3046998  31.3713785
  25.8038033  35.2974601  29.4769914  25.0050296  34.7094763  29.0249573
  25.4812321  36.3341668  29.5733610  27.0021949  35.2340147  28.6243406
  27.7877349  35.8504077  29.0614759  27.3444447  34.2010696  28.5611619
  26.6698668  35.7516703  27.2122841  25.7815979  35.2640767  26.8106251
  26.5228614  36.8317105  27.2108579  27.8079988  35.4329238  26.3528417
  27.7874290  34.5455614  25.8709036  28.8580760  36.2318159  26.1691953
  28.9204645  37.4534519  26.7675030  28.1623441  37.7618097  27.3593383
  29.7245777  38.0457156  26.6167539  29.8517500  35.8018633  25.3795462
  29.7888671  34.8930459  24.9434307  30.6590249  36.3885885  25.2241127
  24.7382372  35.0396865  31.6270630  24.6203587  36.0765845  32.2731692
  23.7658264  34.1248010  31.5216896  23.8663597  33.3238352  30.9146920
  22.4994499  34.3101509  32.2159663  22.0883580  35.2924954  31.9833679
  21.4943477  33.2429681  31.7768943  21.2629020  33.3576263  30.7179393
  21.9018059  32.2475362  31.9535106  20.3143479  33.4107406  32.5377976
  19.6689702  32.7494674  32.2774034  22.6513982  34.3065447  33.7381925
  22.0891699  35.1596241  34.4398682  23.3888376  33.3302839  34.2303734
  23.7073370  32.6073291  33.6010930  23.7214079  33.2161613  35.6219596
  22.8144954  33.1521939  36.2232225  24.5301464  31.9761507  35.8427985
  23.8792891  31.1312274  35.6178796  25.3505584  32.0031304  35.1256539
  25.0825223  31.8259654  37.2278264  25.9456895  31.1633263  37.1649568
  25.4075846  32.8158078  37.5482102  24.0925763  31.2710688  38.2304523
  22.9186212  30.9521617  37.8643191  24.5242285  31.1547974  39.4023497
  24.4932559  34.4245453  36.1751400  24.2936371  34.7474510  37.3405182
  25.3698422  35.0316488  35.3625325  25.4856557  34.6721400  34.4258149
  26.2432343  36.1303120  35.8004041  26.3080553  36.1295676  36.8884744
  27.6747356  35.9794869  35.2179433  27.4565858  35.9157406  34.1519010
  28.3229296  36.8355981  35.4050750  28.3871764  34.6824607  35.6774659
  27.6806732  33.8558202  35.6025010  29.6152134  34.3819660  34.8190010
  30.3224274  35.2080097  34.8938273  30.0893123  33.4654939  35.1702985
  29.3110644  34.2577574  33.7796907  28.6865426  34.6796850  37.1794620
  27.7536203  34.7656193  37.7365713  29.1858260  33.7490727  37.4492363
  29.3335434  35.5223851  37.4230714  25.7474555  37.5488885  35.5040444
  26.4201801  38.5172006  35.9073016  24.5811348  37.6654337  34.8635265
  24.0375054  36.8354000  34.6748190  24.0418879  38.9576953  34.4428524
  24.6347430  39.3807041  33.6318742  22.6117730  38.7415021  33.9420082
  22.5675915  37.7657860  33.4581433  21.9470492  38.7485345  34.8058328
  22.1805121  39.8011693  32.9707155  22.0078598  40.7464722  33.4852002
  22.9344129  39.9420518  32.1961913  20.8808558  39.3254136  32.3334094
  21.0897809  38.9639778  31.3265263  20.4674795  38.5135548  32.9318281
  19.8677845  40.4761161  32.2635579  18.9710422  40.1096399  31.7639089
  19.6197013  40.7729054  33.2826114  20.4059654  41.6543220  31.5191332
  20.6355052  41.3796262  30.5747003  19.7095372  42.3854919  31.4972637
  21.2366692  41.9943243  31.9821978  23.9991126  39.9400611  35.6149688
  24.4731640  41.0765180  35.5238483  23.4365035  39.4645167  36.7454246
  22.9305264  38.5904259  36.7526304  23.3367268  40.3367593  37.9233484
  23.0375875  41.3319475  37.5943874  22.3087033  39.8298083  38.9630731
  22.5361308  38.7957258  39.2220118  22.3867609  40.4525620  39.8542436
  20.8805874  39.8983596  38.4460251  20.5758218  40.6278866  37.4983831
  19.9733615  39.1099469  39.0702787  19.0099392  39.1162876  38.7671664
  20.2643337  38.5192207  39.8360975  24.6611217  40.7117938  38.5414391
  24.8311969  41.8692471  38.9298941  25.5982116  39.7628940  38.6448835
  25.3750546  38.8001430  38.4365310  26.9375054  40.0727601  39.1248253
  26.8703046  40.5449689  40.1049285  27.7932587  38.8051192  39.2489214
  27.9116598  38.3420578  38.2693018  28.7739761  39.0594411  39.6509336
  27.1434684  37.8967744  40.1261141  27.6718691  37.0997023  40.2101890
  27.6693539  41.0788062  38.2541078  28.4249830  41.8868305  38.7412735
  27.4535012  40.9977737  36.9437955  26.8975976  40.2504586  36.5531670
  28.1063147  41.9196407  36.0312048  29.1657337  42.0303930  36.2624288
  27.9458023  41.4154584  34.5745103  26.9300686  41.0410139  34.4473222
  28.2160077  42.5766290  33.5275399  29.2317752  42.9512909  33.6538152
  28.0952030  42.1896269  32.5157414  27.5069361  43.3878061  33.6927925
  28.9091275  40.2292745  34.3487178  29.9210130  40.6344331  34.3427963
  28.7930053  39.5556178  35.1977182  28.6593427  39.4558229  33.0431340
  28.7757507  40.1287623  32.1936038  29.3772454  38.6397921  32.9606189
  27.6477415  39.0499488  33.0485248  27.5662544  43.3510898  36.2342873
  28.3494893  44.3254344  36.2748296  26.2531195  43.4549918  36.4225532
  25.6662709  42.6398114  36.3167756  25.6047535  44.7548851  36.6802336
  25.9269543  45.4738905  35.9270291  24.0592935  44.5977536  36.5887343
  23.7204800  43.8875824  37.3430302  23.5845389  45.5637469  36.7606798
  23.7887885  44.2317099  35.5983110  26.0711074  45.3121451  38.0290495
  26.3498248  46.5171961  38.1768423  26.2471726  44.4218378  39.0097957
  26.1790672  43.4271742  38.8482243  26.5303335  44.8815281  40.3543126
  25.8825633  45.7185357  40.6149106  26.2707580  43.7227325  41.3552138
  25.2231748  43.4358771  41.2636572  26.9033122  42.8850104  41.0616205
  26.5722741  44.1060257  42.8175467  27.6157613  44.4152198  42.8778323
  25.9287810  44.9507740  43.0633435  26.3175221  42.9570928  43.8177684
  26.1465007  41.7745285  43.3877737  26.3037454  43.2466624  45.0458635
  27.9974996  45.3496451  40.4774669  28.2510146  46.4093834  41.0642085
  28.9455083  44.5252264  39.9766173  28.6597870  43.7378321  39.4122832
  30.3940884  44.7006483  40.2595814  30.5397426  45.4666914  41.0211995
  30.9780959  43.3865011  40.7715709  30.6501198  42.5464284  40.1593546
  32.0668398  43.4381693  40.7633722  30.5765547  43.0754138  42.1726574
  31.0686466  43.8450635  43.2416766  31.7523205  44.6697960  43.0404150
  30.6884205  43.5598209  44.5496195  31.0719450  44.1656676  45.3705698
  29.8232363  42.5070592  44.8097699  29.5300034  42.2874742  45.8363647
  29.3290216  41.7308161  43.7624307  28.6596882  40.8935284  43.9600220
  29.7023976  42.0371736  42.4386057  29.3013605  41.4531913  41.6102134
  31.2236005  45.1589646  39.0856743  32.3099629  45.7175552  39.2670012
  30.7037343  44.9758210  37.8879721  29.7519048  44.6600839  37.7678474
  31.5522250  45.1383450  36.6746731  32.5205390  45.5664345  36.9339152
  31.7798726  43.7485243  36.0487249  30.8510882  43.2852430  35.7158147
  32.4566233  43.8546568  35.2008779  32.4303992  42.7756062  37.0011720
  33.7434123  42.8951823  37.3920240  34.0420426  41.9154783  38.2484036
  35.0212608  41.8800813  38.7258738  32.9925042  41.1111819  38.3544904
  32.9441694  40.2541099  38.8866475  31.9546020  41.6414976  37.6069977
  30.9845409  41.1446529  37.5919011  30.9958428  46.1014581  35.6668844
  31.4303319  46.0907060  34.4714210  30.1296039  47.0031307  36.1211448
  29.8249861  46.9972118  37.0840947  29.5785060  48.0629272  35.2046709
  30.0402364  47.9170082  34.2281403  28.0363583  47.9146236  35.0528964
  27.5689215  48.1439943  36.0104935  27.4758521  48.8874537  33.9493655
  27.9425165  48.6583691  32.9913236  26.3964240  48.7605630  33.8667051
  27.6999818  49.9179577  34.2249157  27.7717441  46.5851940  34.6127065
  26.8248892  46.4645903  34.5101346  29.9099445  49.3978059  35.8215578
  29.8902170  49.5213800  37.0248317  30.1734330  50.4142507  35.0000721
  29.9717484  50.3608398  34.0118565  30.7527677  51.6582873  35.5268416
  30.6765860  51.6757876  36.6140349  32.2437537  51.7514749  35.1350255
  32.3971768  51.7423669  34.0559159  32.5724148  52.7085304  35.5401511
  33.0437519  50.6362967  35.7664987  33.4984119  50.7576787  37.0691992
  33.3015116  51.6889547  37.6002875  34.1858837  49.7359218  37.6971716
  34.5772941  49.8577691  38.7071484  34.4229266  48.5411758  36.9892198
  35.0914043  47.5327968  37.6412185  35.3320175  47.7632157  38.5415585
  33.9549157  48.3727914  35.7071720  34.1264098  47.4399160  35.1701118
  33.2478123  49.4210395  35.0888857  32.8553619  49.2930716  34.0800711
  30.0717722  52.8731107  34.9745026  29.7260770  52.9059644  33.7847756
  29.9183713  53.8661091  35.8394352  30.0060377  53.7213288  36.8351523
  29.6191264  55.2156733  35.3581195  28.9328248  55.1621566  34.5130010
  28.9727879  56.0423372  36.4568111  28.1540684  55.4515092  36.8675665
  29.7267214  56.2027401  37.2274960  28.4369451  57.3928041  35.9794488
  28.0363078  57.2983407  34.9701583  27.6412227  57.6991852  36.6584616
  29.5065239  58.4598434  35.9764035  30.3423327  58.5271138  36.8887572
  29.5072697  59.2908417  34.9366293  30.1993635  60.0243181  34.8807720
  28.8157401  59.1841119  34.2082772  30.9588942  55.7883828  34.9633384
  31.8947890  55.8308487  35.7963982  31.0866925  56.1778191  33.6981609
  30.3238774  56.0755416  33.0441337  32.3610097  56.7066402  33.2024887
  33.0980377  56.6685609  34.0046352  32.8908652  55.9038495  32.0134436
  32.0887065  56.0197558  31.2846045  33.7927473  56.3893700  31.6406452
  33.1692960  54.4059933  32.2358128  32.3248096  53.9758576  32.7742612
  33.3586339  53.6734704  30.9298609  34.2032934  54.1027715  30.3910199
  33.5529531  52.6195239  31.1287017  32.4565879  53.7683396  30.3253665
  34.3690335  54.2043953  33.1505539  34.1726874  54.6703267  34.1161913
  34.5441349  53.1377924  33.2912629  35.2506558  54.6604937  32.7002037
  32.2240012  58.1680256  32.8144704  31.3366543  58.5580463  32.0618375
  33.1270177  58.9532474  33.3664205  33.5728212  58.6655900  34.2258457
  33.4034534  60.2679178  32.8639315  32.4835086  60.7669634  32.5593758
  34.0607468  61.0903262  33.9847289  34.9638133  60.5725678  34.3079880
  34.3284380  62.0622501  33.5702348  33.1211483  61.2878319  35.1927443
  31.8724388  61.2619195  35.0210844  33.6305719  61.4627840  36.3283993
  34.2304093  60.2654309  31.5471400  34.8668466  59.2461422  31.1716936
  34.1943232  61.4064613  30.8047840  33.2548559  62.5409266  30.9702276
  33.5716329  63.1476371  31.8185524  32.2533741  62.1526786  31.1556912
  33.3501174  63.2769755  29.6691329  33.1960957  64.3436151  29.8324006
  32.5976875  62.9039176  28.9743103  34.7462158  62.9919289  29.1579758
  35.5105843  63.6223503  29.6122980  34.7947543  63.0874840  28.0732580
  34.9678103  61.5240421  29.5664135  34.5049796  60.8438667  28.8513978
  36.4724252  61.2019223  29.6818685  37.0608278  60.7579299  28.7225755
  37.1213945  61.4010773  30.8128097  36.7329741  61.7716933  31.6683053
  38.5564234  61.0359860  30.7936681  38.9230991  61.3258890  29.8089832
  39.0304253  61.6562322  31.5544021  38.9218795  59.5588979  31.0507546
  40.0943730  59.2536893  31.2262876  37.9474792  58.6521051  31.0693270
  36.9800108  58.8996162  30.9181897  38.2562896  57.2832491  31.5313210
  39.3064933  57.0629358  31.3399221  37.9921823  57.1355555  33.0242469
  38.2094885  56.1099226  33.3224992  38.6451961  57.8177750  33.5685350
  36.6546063  57.4342826  33.3193717  36.5055021  57.3364323  34.2626601
  37.6129721  56.1821080  30.7009694  36.8137873  56.4429399  29.8027799
  38.0212557  54.9323866  30.9536763  38.6592069  54.7355301  31.7115452
  37.5672991  53.8263222  30.1318814  36.5559509  54.0348251  29.7828820
  38.4781967  53.6041724  28.9025368  38.0744108  52.7980673  28.2899597
  38.5249311  54.5195927  28.3126879  40.2227901  53.1427888  29.2681856
  40.6128460  53.0574634  27.9995350  37.5684014  52.5713083  31.0170971
  38.1924259  52.5706830  32.0866820  36.8558442  51.5564371  30.5677355
  36.3290929  51.6406002  29.7100940  36.7339107  50.3050914  31.3451100
  37.6416102  50.1567078  31.9300571  35.5268215  50.3461595  32.3086463
  35.5423145  49.4412325  32.9160724  35.6330170  51.2181601  32.9539659
  34.2796792  50.4249581  31.5987810  33.5545772  50.4485649  32.2274857
  36.6458224  49.1112894  30.4312095  36.3021446  49.2306043  29.2215730
  36.9451910  47.9365088  30.9941074  37.2095197  47.8958158  31.9680549
  36.8049475  46.6621059  30.2501726  36.0584037  46.7781372  29.4644829
  38.1350250  46.2542672  29.6058151  38.9173900  46.4704167  30.3333339
  38.0859444  45.1789339  29.4344986  38.4319582  46.9199291  28.3746933
  39.2762571  46.6100583  28.0389268  36.4793749  45.5942168  31.2779325
  36.8717049  45.7302515  32.4479897  35.7800856  44.5623661  30.8102226
  35.4290014  44.6239548  29.8652114  35.4577305  43.3873651  31.5850108
  35.8834720  43.4688631  32.5851115  33.9241346  43.2476370  31.7111290
  33.7242183  43.9941970  32.4797518  33.4434203  43.5477918  30.7800431
  33.3675759  41.8924146  32.1590045  33.7183030  41.1164920  31.4785374
  33.8576723  41.5681578  33.6231866  33.5069144  42.3434531  34.3043509
  33.4582389  40.6031851  33.9352465  34.9469416  41.5334963  33.6429685
  31.8309873  41.8079004  32.0071560  31.5601109  41.9540541  30.9615153
  31.4860274  40.8282152  32.3377928  31.3621880  42.5817763  32.6149738
  36.0748890  42.1385287  30.9138328  35.9310631  41.9571023  29.6892657
  36.7248769  41.2807976  31.7138967  36.8909447  41.5086399  32.6837465
  37.2459390  39.9928244  31.1950235  36.9250577  39.8478685  30.1634606
  38.7800793  39.9939296  31.2358407  39.0684399  40.2056128  32.2654706
  39.2526889  39.0673810  30.9098839  39.3589796  41.0885250  30.3954357
  39.4143975  40.9987691  29.0254059  39.8708871  42.1449795  28.5361768
  39.9621029  42.2908948  27.4598463  40.1471525  42.9495788  29.5458458
  40.5365723  43.8791201  29.4794751  39.8167517  42.3145470  30.7205521
  39.9511758  42.8265676  31.6733723  36.7372145  38.7861107  31.9834780
  36.5656215  38.9053745  33.1705252  36.4523062  37.6748465  31.2707501
  36.5499212  37.6857999  30.2655383  36.0070496  36.4268183  31.9159533
  35.8266153  36.5532466  32.9834543  34.7172179  35.9209605  31.2573084
  34.8847509  35.7807982  30.1894192  34.4274115  34.9712006  31.7068289
  33.9217264  36.6509451  31.4070246  37.0854679  35.3991958  31.7490072
  37.8269163  35.3776206  30.7431773  37.1703642  34.4890687  32.7147066
  36.6281363  34.5308743  33.5657886  38.0897862  33.4036608  32.5480133
  38.2595800  33.2052669  31.4897558  39.4516529  33.7855122  33.2087467
  39.8843493  34.5927433  32.6177722  39.2348588  34.1475703  34.2137414
  40.4739489  32.5888716  33.2909917  41.2643738  32.8601440  33.9908064
  39.9520610  31.7050811  33.6579379  41.0977012  32.2618338  31.9667152
  41.6252358  33.1523066  31.2558808  41.0525334  30.9651442  31.5859675
  41.4569942  30.6867942  30.7033385  40.6145410  30.2808067  32.1859228
  37.5039767  32.1558224  33.2034052  37.2854482  32.1577637  34.4058954
  37.3130228  31.0858498  32.4133108  37.4971017  31.1697522  31.4237782
  36.8255024  29.7830391  32.9302423  36.0680575  29.9467456  33.6967777
  36.1947041  28.9512936  31.7781108  35.5750437  29.6215940  31.1824451
  37.0063831  28.5642443  31.1620992  35.3082404  27.7410808  32.3082654
  35.9778798  26.9914352  32.7298285  34.6509798  28.1212762  33.0902897
  34.4590055  27.1008520  31.1888865  35.1159046  26.7000911  30.4168934
  33.8547878  26.2949138  31.6054006  33.5709777  28.0845537  30.5819634
  32.7082188  28.2863249  31.0667675  33.7993894  28.6838077  29.4178475
  34.9021619  28.3931314  28.7207221  35.5603980  27.7172951  29.0813751
  35.0721735  28.8506539  27.8364886  32.9519077  29.6049024  28.9965003
  32.1469632  29.8412491  29.5589099  33.1126503  30.0687106  28.1138098
  38.0129065  29.0478949  33.5319700  39.1262320  29.0458576  32.9535506
  37.8006917  28.4370814  34.7050880  36.8924086  28.4944059  35.1430777
  38.8459208  27.6885485  35.3821351  39.6648295  27.5009139  34.6876705
  39.3871915  28.4602013  36.6291807  38.5787001  28.5836631  37.3497354
  40.5325049  27.6854806  37.2774817  41.3416207  27.5620165  36.5576283
  40.8989006  28.2353406  38.1443778  40.1756155  26.7053469  37.5938156
  39.8687141  29.8613113  36.1542882  40.5561597  29.7230869  35.3197744
  38.9996391  30.4270756  35.8185518  40.6012360  30.6573028  37.3167607
  41.4707449  30.0923378  37.6527201  40.9222757  31.6304113  36.9451526
  39.9142245  30.7963244  38.1514990  38.2503383  26.3561607  35.8255697
  37.1956808  26.3121071  36.4855225  38.9527466  25.2752058  35.4648579
  39.8018537  25.3924763  34.9306632  38.4701822  23.9021193  35.7210026
  37.3853081  23.9012430  35.8265800  38.8519804  22.9793081  34.5439203
  39.9086909  23.1931511  34.3835045  38.7123679  21.9041387  34.6562551
  38.1365470  23.3764565  33.2828417  36.7853561  23.1822915  33.1321729
  36.3804460  23.7135420  31.9864715  35.3380568  23.6513889  31.6739644
  37.4293341  24.2638177  31.4014045  37.4302996  24.7390527  30.5101970
  38.5333345  24.0876444  32.2027878  39.4964708  24.4999970  31.9020638
  39.0300578  23.4736746  37.0748136  39.9037093  22.6233729  37.1627340
  38.5333518  24.1424633  38.1067933  37.8545830  24.8649455  37.9134240
  38.9517031  23.9359583  39.4963486  39.0833779  22.8728340  39.6976633
  40.2527504  24.6489484  39.7929321  40.1340047  25.7159957  39.6047577
  40.5235089  24.4926038  40.8371287  41.0394014  24.2526464  39.1508853
  37.8310888  24.4216924  40.4020649  36.9745022  25.1825561  39.9583094
  37.7946868  23.9439447  41.6773315  38.7487672  23.0022736  42.3153590
  39.5804569  23.5483511  42.7605465  39.1315996  22.2941519  41.5804427
  37.8759986  22.3446076  43.3424376  38.4718295  21.9156788  44.1481080
  37.2593400  21.5661448  42.8931836  36.9963348  23.5264635  43.8520435
  37.6240776  24.0914332  44.5411351  36.0531380  23.2798591  44.3395533
  36.7308902  24.3572902  42.5861529  35.7633962  24.1997024  42.1094774
  36.8956430  25.8352642  42.9238721  38.0414428  26.3032352  43.0491874
  35.7683708  26.5379914  43.1114410  34.3739889  26.1348334  42.8304362
  34.1798032  25.1621367  43.2823802  34.2255505  26.0702061  41.7525269
  33.5787388  27.2117243  43.4429532  33.3931845  26.9864891  44.4931616
  32.6276915  27.3154308  42.9205975  34.4283393  28.4716385  43.2842227
  34.2278118  29.1345032  44.1259459  34.2412147  29.0031978  42.3512014
  35.8806434  27.9964174  43.3315265  36.4705730  28.4221746  42.5198540
  36.5486169  28.3165259  44.6679040  37.2040105  29.3542965  44.7789641
  36.4206002  27.4261936  45.6751880  35.7762065  26.6490779  45.6444103
  37.1257863  27.6886813  46.9206092  36.9214981  28.7103200  47.2409527
  36.6748587  26.7090322  48.0552748  37.2366754  26.9629768  48.9541482
  35.6122544  26.8749560  48.2325920  36.9137970  25.2122858  47.6999433
  37.8116922  25.1885814  47.0824296  37.1016932  24.6826519  48.6339038
  35.7482957  24.5262969  46.9428772  34.9429716  25.2078606  46.2624031
  35.6370732  23.2650613  47.0537613  38.6295844  27.6948470  46.6929273
  39.3567901  28.4943786  47.3186389  39.1340150  26.8179270  45.8280186
  38.5698695  26.0903887  45.4126546  40.5632957  26.8467991  45.5216248
  41.1411149  26.8819890  46.4451971  40.9615357  25.5921168  44.7436079
  40.6766813  24.7875183  45.4215302  40.3010865  25.5868553  43.8764983
  42.3929746  25.3865778  44.2892892  42.5575763  26.0156610  43.4144970
  43.4264320  25.7414572  45.3796374  43.2627453  25.1124192  46.2546327
  44.4326693  25.5739995  44.9955211  43.3146659  26.7888982  45.6597733
  42.5434611  23.9203809  43.8937207  41.8506744  23.6888405  43.0846873
  43.5648585  23.7363938  43.5605581  42.3224888  23.2871752  44.7529767
  40.9839306  28.1184164  44.7393948  41.9947508  28.7728918  45.0624590
  40.2247526  28.4594144  43.7082022  39.4680628  27.8768422  43.3793718
  40.5217267  29.7144537  42.9672172  41.5146111  29.6947308  42.5178949
  39.4790034  29.9578180  41.8512620  38.4789891  29.8828786  42.2784091
  39.6689829  31.3597704  41.2278302  40.6686775  31.4353126  40.8000392
  38.9266308  31.5133235  40.4446091  39.5457735  32.1205000  41.9986813
  39.5659647  28.8628878  40.7496996  39.3778230  27.8850351  41.1929926
  38.8206553  29.0615797  39.9795469  40.5604388  28.8737405  40.3036007
  40.5533107  30.9087320  43.9387376  41.4793988  31.7513917  43.8987437
  39.5332327  30.9931875  44.7844717  38.7486085  30.3683177  44.6661420
  39.4179188  32.0871449  45.7825007  39.4819479  33.0497052  45.2750786
  38.0600592  32.0147012  46.5432925  37.2032363  32.1345347  45.8802738
  37.9940619  31.0524971  47.0511386  37.9326683  33.0751448  47.6093285
  37.8711335  32.8709414  48.9591461  37.8842723  31.8313100  49.2863978
  37.8037784  34.0617707  49.6330288  37.7614739  34.1718645  50.6361186
  37.8100329  35.0871665  48.7166614  37.7513459  36.4581512  48.9337740
  37.6930721  36.8209160  49.9599828  37.7711687  37.2925907  47.8071078
  37.7310491  38.3743261  47.9349319  37.8435306  36.7514602  46.4811664
  37.8508105  37.3976027  45.6033588  37.9077888  35.3547347  46.2772967
  37.9378408  34.9738861  45.2564383  37.8979472  34.5079061  47.4200838
  40.6478378  32.1754579  46.7382747  41.1680643  33.2465444  47.0356701
  41.0915482  31.0093727  47.2349241  40.5881550  30.1563946  47.0371287
  42.2705627  30.9356656  48.1075644  42.0921620  31.4659048  49.0430423
  42.5543745  29.4501523  48.4280799  43.0678164  29.3796728  49.3869904
  41.6114601  28.9058540  48.4805376  43.3778653  28.8807507  47.4026499
  43.5509870  27.9587448  47.6064486  43.5075570  31.5897009  47.4749163
  44.3827407  32.0809200  48.1756405  43.5870133  31.6279714  46.1367208
  42.8685589  31.2019395  45.5689009  44.7052361  32.2595837  45.4686958
  45.6217677  32.2422371  46.0584145  44.9682887  31.5920517  44.0752434
  44.0406492  31.6067579  43.5030816  46.0688258  32.3416101  43.2908957
  46.9969580  32.3269260  43.8622586  46.2269758  31.8533360  42.3292941
  45.7598860  33.3740032  43.1271281  45.2898691  30.0996216  44.2706003
  46.3457888  30.0373836  44.5337748  44.6858340  29.7551310  45.1099853
  45.0114461  29.2037984  43.0297008  45.6155147  29.5474149  42.1899814
  45.2678940  28.1702216  43.2621935  43.9555596  29.2651642  42.7661906
  44.4543534  33.7609695  45.2502818  45.3247486  34.6152063  45.5466409
  43.2942480  34.0519226  44.6629075  42.6888327  33.2918464  44.3874878
  42.8641164  35.4513077  44.3494267  43.5465626  35.9986204  43.6991843
  41.4775961  35.4311423  43.6979385  40.9041671  34.6324546  44.1684452
  40.7038705  36.7879239  43.8473153  41.2765034  37.5870665  43.3766098
  39.7300260  36.7064962  43.3645143  40.5668097  37.0141104  44.9047441
  41.6382370  35.0162742  42.2499907  42.0871992  34.0241213  42.2034353
  40.6613443  34.9954832  41.7669296  42.2819313  35.7302581  41.7361955
  42.8391995  36.3349381  45.6162342  43.1153625  37.5465171  45.5507248
  42.5133027  35.7449416  46.7613510  42.2411584  34.7724972  46.7810679
  42.3710366  36.5430564  48.0098489  41.9262629  37.5116344  47.7815242
  41.4670585  35.8122681  49.0108490  41.1464984  36.5144447  49.7804518
  40.5935191  35.4254647  48.4860519  42.2324334  34.6421027  49.6683344
  42.5213228  33.9282222  48.8969601  43.1263954  35.0312304  50.1556883
  41.3358361  33.9319893  50.7215942  40.4320071  33.5510693  50.2461027
  41.8805840  33.1062574  51.1793234  40.9510793  34.8782983  51.7698778
  40.0672639  35.3495694  51.6399809  41.6663449  35.1612870  52.8501956
  42.8495700  34.5611421  53.0505959  43.1941118  33.8929798  52.3760961
  43.3902927  34.7802862  53.8750318  41.1929962  36.0366131  53.7301168
  40.2979326  36.4760260  53.5692518  41.7303309  36.2587212  54.5559728
  43.6801185  36.9968173  48.6656047  43.6791541  37.8803742  49.5333041
  44.7836378  36.3712197  48.2618973  44.6850607  35.6354297  47.5770652
  46.1078096  36.6279024  48.8147284  46.0519202  36.7471940  49.8967381
  47.0219621  35.4443650  48.5005162  46.9820349  35.2561458  47.4276329
  48.0395902  35.7128556  48.7841459  46.6030483  34.1961342  49.2473610
  45.5380476  34.0184731  49.0979929  47.1687870  33.3402747  48.8791950
  46.8805316  34.3868671  50.7242852  46.4225736  35.3103724  51.0785609
  46.4874903  33.5450515  51.2943417  48.3266032  34.4666480  50.9419385
  48.9214258  34.2426911  50.1569998  48.8963015  34.8162021  52.0890412
  48.1336938  35.1381485  53.1337355  47.1276960  35.1144518  53.0470930
  48.5653222  35.4043255  54.0072035  50.2261953  34.8374067  52.1932329
  50.7960508  34.5870591  51.3978143  50.6570355  35.1037080  53.0670516
  46.6831401  37.9616774  48.2888745  47.5797815  37.9949524  47.4398298
  46.1895561  39.0424361  48.8708043  45.4417519  38.9441578  49.5425405
  46.6251024  40.3956678  48.5077995  46.4702746  40.5743662  47.4437532
  45.8038485  41.4118228  49.2977311  44.7429270  41.3033185  49.0724053
  45.9657664  41.2578691  50.3645867  46.1612398  42.8481097  49.0100365
  45.6984807  43.4641068  47.8419630  45.0802772  42.9028236  47.1413308
  46.0315422  44.8138329  47.5688724  45.6649174  45.2840573  46.6564164
  46.8203781  45.5380339  48.4555227  47.0831124  46.5735327  48.2391600
  47.2753030  44.9339770  49.6250306  47.8893317  45.4907802  50.3328718
  46.9320256  43.5768267  49.8929718  47.2793498  43.0972835  50.8081244
  48.1332359  40.6020581  48.7167139  48.7730518  41.2981918  47.9438856
  48.7256147  39.9258410  49.7115440  48.1739269  39.3811626  50.3588964
  50.1664852  40.0245871  49.9409135  50.4897802  41.0546975  49.7910731
  50.5299107  39.5966566  51.3852401  51.6188807  39.6019869  51.4323058
  50.1320905  40.3106615  52.1063754  50.0175900  38.2098177  51.7132557
  48.8807976  37.8314178  51.2875109  50.7272811  37.5050170  52.4489781
  51.0473417  39.2469409  48.9844281  52.2627215  39.4442315  49.0052217
  50.4701941  38.3770416  48.1626630  49.4646938  38.2820019  48.1566727
  51.2511357  37.5522057  47.2380393  52.2746128  37.9209766  47.1702018
  51.2836344  36.1066628  47.7557908  50.2517022  35.7860240  47.8986402
  51.7510211  35.4927947  46.9858457  52.0389991  35.9524728  49.0460534
  51.9005694  36.8409846  49.6620768  51.6739854  35.0775507  49.5839924
  53.5310068  35.7746149  48.7332520  53.8207038  36.4869555  47.9607590
  54.1098582  35.9642810  49.6371642  53.8074996  34.3335947  48.2362758
  54.1029164  33.7465679  49.1058901  52.8690474  33.9466959  47.8391411
  54.8770177  34.2380956  47.1794310  55.7467970  34.5961573  47.5473652
  54.9979165  33.2724802  46.9091155  54.6032765  34.7816334  46.3733717
  50.6784334  37.5003364  45.8267479  50.4075566  36.4238035  45.3233280
  50.4738040  38.6664292  45.1892108  50.9737783  39.9877293  45.6000654
  51.9889753  39.8915949  45.9850765  50.3285097  40.3980823  46.3768137
  50.9121958  40.7876010  44.3165387  51.8980001  40.7778301  43.8515725
  50.6348446  41.8138202  44.5574781  49.9196950  40.1712030  43.4635353
  50.1934292  40.3107780  42.4177402  48.9184505  40.5675081  43.6325068
  49.9590635  38.6661512  43.8211947  48.9739862  38.2002005  43.8459122
  50.8526030  37.9189231  42.8222961  50.3530524  37.3883376  41.8383987
  52.1480195  37.8558990  43.0809833  52.5287637  38.3635888  43.8667213
  53.0811950  37.2313226  42.1392732  52.8801892  37.5881674  41.1291457
  54.5437464  37.5861892  42.5078843  55.1748530  37.2840088  41.6721268
  54.5975114  38.6679298  42.6305494  55.0314656  36.9026823  43.7886361
  54.5089992  35.9494678  43.8693324  56.1026912  36.7227439  43.6980831
  54.7789288  37.7036557  45.0552508  53.7595576  38.3783866  45.2153498
  55.7365048  37.6375684  45.9691817  55.6377860  38.1444584  46.8371786
  56.5605338  37.0806198  45.7934385  52.8152624  35.7122158  41.9594423
  53.2851292  35.1010435  40.9830865  52.0043226  35.1110625  42.8328703
  51.6124611  35.5878230  43.6323973  51.6661040  33.6856428  42.6314655
  52.5893849  33.1066340  42.6114555  50.7542927  33.1006582  43.6754881
  50.4974086  32.0835583  43.3794837  51.4117128  33.0780164  45.0319615
  51.6684842  34.0948823  45.3288653  50.7250932  32.6493428  45.7619557
  52.3175691  32.4734314  44.9872197  49.5524487  33.8871937  43.7216032
  48.9590063  33.5261888  44.3842509  50.9664707  33.5013722  41.2818702
  51.0661729  32.4253030  40.6931507  50.3083652  34.5409528  40.7649155
  50.0617641  35.3363260  41.3364649  49.7718916  34.4739548  39.3853194
  50.3117307  33.7148365  38.8192697  48.2966291  34.1140825  39.3953999
  48.0219371  33.7390481  38.4095030  48.2064075  33.3112061  40.1270758
  47.3873710  35.2333051  39.7718508  46.7413877  35.9679177  38.7908234
  46.9280142  35.7310220  37.7433739  45.8847360  36.9722932  39.1187699
  45.3610175  37.5278359  38.3408283  45.6681412  37.2836948  40.4705468
  44.8381281  38.3183529  40.7957818  44.4639072  38.7549238  40.0270399
  46.2864187  36.5720586  41.4736075  46.1204841  36.8159432  42.5229342
  47.1218479  35.5424929  41.1341692  47.5951940  34.9451780  41.9134371
  49.9920965  35.6759558  38.4274210  49.7596075  35.5790365  37.1996244
  50.4304087  36.7922945  38.9576346  50.4998880  36.9212381  39.9569571
  50.7578157  37.9085649  38.0976748  50.2423913  37.8223924  37.1411127
  50.3056029  39.2062204  38.7837066  50.9872939  39.3807687  39.6161305
  50.4132383  40.0073691  38.0524916  48.8713796  39.1785547  39.2991629
  48.1735832  39.0184679  38.4772424  48.7472481  38.3883438  40.0396088
  48.5886775  40.5441420  39.9537251  49.1057001  40.5379841  40.9132816
  49.0381696  41.2952717  39.3042171  47.1602318  40.8668699  40.1655633
  46.5750452  40.5604178  39.2985315  46.7888454  40.3549074  41.0532940
  47.0280047  42.4256515  40.3642316  47.3716880  42.9002237  39.5415757
  46.0578077  42.6652796  40.5105058  47.5698352  42.7097620  41.1678485
  52.2480612  37.9376111  37.7644618  53.1069356  38.3838040  38.6156707
  52.5674165  37.6209016  36.5029130  51.8564474  37.5484780  35.7892064
  53.9695332  37.2939865  36.1361159  54.4706646  36.8462288  36.9942998
  54.0311350  36.2937509  34.9471702  53.2191153  36.3958234  34.2272366
  54.9791451  36.5205122  34.4593625  54.0829574  34.8421080  35.3340080
  54.8844079  34.3587015  36.3495533  54.7590467  33.0444490  36.4264622
  55.2983056  32.4782258  37.1858633  53.9273449  32.6495140  35.4775431
  53.6336631  31.6996095  35.2999699  53.5171264  33.7522857  34.7573525
  52.8557744  33.6280404  33.8998691  54.8604619  38.5081158  35.7769166
  56.0898269  38.3226327  35.4846500  54.2499256  39.7044256  35.8018624
  53.2550105  39.7462984  35.9706520  54.9753871  40.9593338  35.6237810
  55.7935904  40.8260642  34.9160510  54.0240588  42.0254362  35.0762648
  53.0877590  42.1222851  35.6258666  54.5634063  42.9720885  35.1087264
  53.6505553  41.7857151  33.6165532  54.6603431  41.8148531  32.6202713
  55.6889508  42.0333769  32.9071743  54.3434812  41.5645227  31.2703056
  55.1112305  41.6275753  30.4991466  53.0391206  41.2349645  30.9261721
  52.8003104  41.0282321  29.8829409  52.0177872  41.1653793  31.9186165
  50.9955999  40.9050162  31.6439451  52.3384196  41.4362870  33.2628940
  51.5668102  41.3746642  34.0303063  55.5141972  41.4553071  36.9638199
  56.1062575  42.5073040  37.0128115  55.2303779  40.7356985  38.0554183
  54.6450882  39.9140624  38.0059261  55.7144958  41.1710485  39.3796907
  56.0366599  42.2122491  39.3942091  54.6218098  40.9527428  40.4605093
  54.2741410  39.9216249  40.3970838  55.1895930  41.2365347  41.9375176
  55.5370480  42.2676681  42.0018574  54.3980268  41.0740898  42.6690471
  56.0192197  40.5605374  42.1445110  53.4129584  41.8198735  40.1035112
  53.7502925  42.8560148  40.1303014  53.1275709  41.5574530  39.0847919
  52.1936130  41.6506266  41.0399844  52.4781245  41.9133295  42.0588761
  51.3868109  42.3043426  40.7085859  51.8554043  40.6147664  41.0133682
  56.9943995  40.4530368  39.7800027  57.0419374  39.2032481  39.8742118
  58.0138506  41.2309147  40.0996985  57.9409744  42.2339876  40.0067838
  59.2632270  40.6756599  40.5603120  59.4671963  39.7283674  40.0611800
  60.3842298  41.6441643  40.2382378  60.3501949  41.8608880  39.1705433
  60.2126548  42.5621000  40.8004264  61.7839180  41.0637568  40.6060574
  61.8293319  41.0229201  41.6943454  61.8183541  40.0514998  40.2032524
  62.9788123  41.8663985  40.0743535  63.8789971  41.3434668  40.3973220
  62.9159499  41.8425231  38.9864299  63.0342268  43.2929750  40.5411327
  62.2315144  43.8347348  40.0408831  62.8577827  43.2947787  41.6167550
  64.3602414  43.9679552  40.2454352  64.5237266  43.9667725  39.2487552
  64.3356419  44.9201027  40.5814560  65.1041383  43.4663521  40.7092355
  59.2180193  40.4055763  42.0764252  59.6349763  39.3418354  42.5426785
  58.7138252  41.3638687  42.8334476  58.4484567  42.2527866  42.4340680
  58.5731749  41.1809011  44.3022264  58.3353311  40.1419814  44.5306456
  59.9056527  41.5509102  45.0062963  59.8555004  41.2438852  46.0509587
  60.7269512  41.0300490  44.5140846  60.1262843  42.9674483  44.9343069
  60.9522717  43.1853062  45.3723509  57.4234935  42.0361688  44.8126377
  56.9495760  42.9721132  44.1474661  56.9358402  41.7169216  46.0079304
  57.3015176  40.9533945  46.5587531  55.8431801  42.4914769  46.5507157
  55.8527083  43.5008649  46.1394441  54.5153622  41.8247227  46.1803786
  54.3571668  41.8414846  45.1020501  54.4828253  40.7948407  46.5358845
  53.0810527  42.6536945  46.9111973  52.1690465  41.8354668  46.3938520
  56.0204073  42.5201127  48.0625290  56.3180877  41.4868899  48.6592727
  55.9270308  43.6818595  48.6579064  55.9224153  44.5705801  48.1780588
  56.0053462  43.6828093  50.1165132  55.8821516  42.6687587  50.4968073
  57.3492542  44.2063157  50.5645559  57.5325412  43.8973773  51.5936633
  58.1284965  43.8002437  49.9195854  57.3620108  45.6073851  50.4878033
  58.2177260  45.9357121  50.7733775  54.8302183  44.4045732  50.7675488
  54.2469030  45.3590845  50.2134104  54.4724669  43.9075395  51.9527178
  54.9468555  43.0845023  52.2957404  53.4349683  44.4859709  52.7659354
  53.0928951  45.4181930  52.3164389  52.2462739  43.5155319  52.8487354
  52.5943281  42.5389937  53.1853816  51.2746460  44.0301137  53.7870381
  50.9257606  45.0064961  53.4507983  50.4296445  43.3443433  53.8486167
  51.7347857  44.1281025  54.7702834  51.5590410  43.3649590  51.4787760
  52.2748371  42.9787347  50.7531254  50.7214987  42.6728464  51.5659698
  51.1936943  44.3365756  51.1462347  54.0169227  44.7449619  54.1719360
  55.1063646  44.2933706  54.4912207  53.2670830  45.4505569  54.9964582
  52.4925071  45.9651743  54.6023764  53.5455476  45.5989745  56.4489395
  54.4339331  46.2070982  56.6193974  52.3454145  46.2998212  57.0824475
  51.4438215  45.8262941  56.6938586  52.4023095  46.1427337  58.1595671
  52.3002224  47.8034152  56.7873818  52.9419176  48.0248239  55.9345592
  51.2686165  48.0536409  56.5398429  52.7461902  48.6237888  57.9811954
  52.0463366  49.6169032  58.3271585  53.7881593  48.2503136  58.5851804
  53.8682540  44.3020072  57.2215198  53.1697217  43.2866878  57.0609420
  50.7105293  42.1790757  59.8853815  51.0076463  41.4137124  60.4736330
  49.2861131  42.5375964  59.8756579  48.8904277  42.4431251  60.8868984
  49.0514625  43.9860223  59.3864068  49.5295734  44.1141119  58.4152723
  47.9845541  44.1897228  59.2952341  49.6227213  45.0597064  60.2971553
  49.8868789  44.8020751  61.6528812  49.6780374  43.8133899  62.0615213
  50.4202280  45.8147941  62.4869022  50.6285665  45.6005874  63.5351442
  50.6819104  47.0986519  61.9637268  51.0917851  47.8777562  62.6064548
  50.4136143  47.3719503  60.6132369  50.6121978  48.3588964  60.1953826
  49.8789701  46.3486036  59.7908938  49.6574025  46.5514302  58.7431013
  48.4962108  41.5711646  58.9931400  49.0087587  41.1153267  57.9621621
  47.2598916  41.2551979  59.3955054  46.9441245  41.4852005  60.3268964
  46.3560848  40.4986730  58.5215773  46.9037211  39.7107337  58.0045228
  45.2020491  39.8570019  59.3147713  45.6076953  39.1572958  60.0454982
  44.6387477  40.6345135  59.8307822  44.2880083  39.1195087  58.3657014
  43.8815862  39.8186965  57.6349084  44.8505323  38.3414778  57.8496261
  43.1439777  38.4834036  59.1520167  42.1023214  39.1737038  59.3133833
  43.3226368  37.3132588  59.5838066  45.8481778  41.4669693  57.4342255
  45.5659535  42.6363385  57.7106617  45.7541393  40.9988528  56.1958391
  46.0678753  40.0732362  55.9410782  45.3820388  41.9196588  55.1300815
  45.8624547  42.8828652  55.3019334  45.8203345  41.3884856  53.7427214
  45.4813799  40.3546301  53.6767531  45.3023318  41.9885683  52.9946078
  47.3914897  41.4502220  53.4782031  47.8392334  40.8315065  54.2559032
  47.5392171  40.9764536  52.5077279  48.2047924  43.1013191  53.4755250
  49.0314607  43.2123839  55.1014119  49.7564354  42.4040637  55.1969581
  49.5437495  44.1709106  55.1844015  48.2879963  43.1285204  55.8940839
  43.8937102  42.2903418  55.2626332  43.0085711  41.4208330  55.3154452
  43.6456331  43.5923334  55.4003205  44.4239640  44.2339900  55.3495541
  42.3110958  44.1398344  55.6148518  41.5116190  43.4168609  55.4528476
  42.2071279  44.6735043  57.0540645  42.3165147  43.8477545  57.7571086
  42.9957271  45.4054608  57.2285669  40.8473753  45.3343018  57.2541746
  40.7374380  46.1604981  56.5517401  40.0582249  44.6027924  57.0802846
  40.7443189  45.8632949  58.6807687  40.8537074  45.0375462  59.3838137
  41.5329172  46.5952523  58.8552693  39.4347832  46.5128488  58.9122795
  38.7711333  46.5441015  58.1515617  39.0919626  47.0572956  60.0763036
  39.9114637  47.0554056  61.1238316  40.8245869  46.6308476  61.0460078
  39.6169021  47.4785349  61.9923330  37.8886470  47.6152523  60.1743689
  37.2687499  47.6149838  59.3769810  37.6002779  48.0366697  61.0457754
  42.1093717  45.2911883  54.5985769  43.0852774  45.8642272  54.1260639
  40.8583002  45.6132894  54.2708561  40.1116545  44.9568163  54.4487962
  40.5519197  46.8263603  53.4854752  40.9512373  46.7567151  52.4736481
  39.0073357  47.1125533  53.3978004  38.6078110  47.0975185  54.4118286
  38.6887997  48.4590842  52.7443462  39.0876365  48.4747004  51.7300552
  37.6085960  48.6011872  52.7116778  39.1429494  49.2618793  53.3251815
  38.2958291  45.9907593  52.6416222  38.4510678  45.0456969  53.1620645
  37.2284982  46.2060394  52.5910367  38.6998313  45.9194566  51.6317712
  41.3620024  48.0220286  53.9768623  41.3872639  48.3535576  55.1992621
  42.0434588  48.6576971  53.0208100  42.0383018  48.2549814  52.0945850
  42.7926260  49.8956623  53.2345475  42.6648484  50.5564102  52.3771186
  42.4313799  50.3943799  54.1339258  44.2699856  49.5831579  53.4020572
  45.0800409  50.5025700  53.3477993  44.6542591  48.3129771  53.6200378
  43.9863328  47.5652134  53.7417890  46.1003174  47.9747429  53.6348674
  46.5998113  48.5894279  54.3837115  46.3427334  46.5236978  53.9631501
  45.7168412  45.8740899  53.3512941  47.3902667  46.2593712  53.8185628
  45.9501765  46.1121789  55.7083278  46.2705754  44.8241784  55.6229021
  46.6917196  48.2047382  52.2426072  45.9646223  48.1330859  51.2333379
  47.9924204  48.4404461  52.1948775  48.5434194  48.5434255  53.0350529
  48.6528941  48.6776248  50.8865191  47.9737475  48.4669227  50.0604055
  49.1724479  50.1516506  50.7450916  49.7358233  50.2270014  49.8150214
  48.0049648  51.1817437  50.7292063  47.4413740  51.1073020  51.6592189
  48.4097141  52.1889230  50.6298733  47.3453476  50.9711448  49.8873904
  50.0786219  50.4309481  51.8230994  50.4016689  51.3315277  51.7443758
  49.7864793  47.6751497  50.6226132  50.3673968  47.0665095  51.5765408
  50.1235417  47.4653230  49.3398152  49.5923317  47.8672006  48.5805987
  51.2742839  46.6159422  49.0106805  51.8080183  46.3492405  49.9228740
  50.8162202  45.3350006  48.3219686  51.7047679  44.7186586  48.1852032
  50.1320994  44.8377886  49.0096160  50.1225415  45.5386731  46.9692615
  49.2988968  46.2429432  47.0863676  50.8393202  45.9350080  46.2500612
  49.5679297  44.1688361  46.4520869  50.3929419  43.5166999  46.1654300
  48.9784651  43.6867232  47.2319575  48.7101905  44.3852914  45.2800086
  48.8120168  45.2612255  44.7875960  47.7986403  43.5086732  44.8420009
  47.6213246  42.3369825  45.4743861  48.1796085  42.1153057  46.2863458
  46.9305202  41.6829600  45.1350580  47.0585130  43.7940917  43.7368218
  47.1996864  44.6677128  43.2500403  46.3711696  43.1310938  43.4080489
  52.2275562  47.3775565  48.0962070  51.7563315  48.2399929  47.3221348
  53.5304749  47.1198531  48.2093823  53.8844941  46.5298382  48.9487416
  54.4821142  47.7456862  47.3154468  53.9676003  48.5087996  46.7314669
  55.6470066  48.4068622  48.0700731  56.0689582  47.6000852  48.6693784
  56.3992190  48.7704145  47.3699972  55.2124221  49.5465766  48.9861350
  54.3214914  50.3537450  48.6616329  55.8512051  49.6752396  50.0458855
  55.0005429  46.7319895  46.3277001  55.7581748  45.8503319  46.6704169
  54.6456690  46.9257334  45.0578226  54.1294083  47.7520954  44.7919278
  55.0084529  45.9619290  44.0072789  55.2934562  44.9795327  44.3838023
  53.8076913  45.7907193  43.0265655  53.4281985  46.7829424  42.7824797
  54.2086349  45.0571286  41.7237570  54.5878185  44.0645838  41.9670174
  53.3371370  44.9638167  41.0757717  54.9836768  45.6256948  41.2098075
  52.5972314  45.0631869  43.7020516  52.2559245  45.6438216  44.5590666
  51.7839995  44.9655654  42.9828690  52.9077749  44.0728986  44.0352074
  56.2106056  46.5365972  43.2600886  56.2558669  47.7725901  43.0018582
  57.1807393  45.6815005  42.9493083  57.1680376  44.7510263  43.3419351
  58.2886191  46.0468255  42.0675964  58.2065863  47.0850090  41.7458128
  59.6813893  45.8108593  42.6955359  59.7264523  44.7937178  43.0847568
  60.8149447  46.0118450  41.6195861  60.7708085  47.0289697  41.2302149
  61.7880798  45.8415707  42.0801461  60.6711770  45.3042219  40.8030694
  59.8952548  46.7198606  43.9328767  60.0576666  47.7293479  43.5551752
  58.9684137  46.6915934  44.5058217  61.0941159  46.3086920  44.8576888
  62.0214311  46.3371757  44.2855218  61.1628100  47.0034197  45.6947873
  60.9321790  45.2994196  45.2361667  58.1126171  45.1761030  40.8069515
  57.9431762  43.9682350  40.8994912  58.0869276  45.8049857  39.6348539
  58.1199957  46.8077388  39.5186981  57.8201614  44.9772258  38.4550487
  57.3568726  44.0326173  38.7399651  56.9306052  45.6634668  37.3975918
  56.8259973  45.0194421  36.5244431  55.5068522  45.9251379  38.0324656
  55.6106037  46.5695129  38.9054590  54.8644101  46.4103538  37.2976635
  55.0623699  44.9762421  38.3326885  57.5633618  46.9085676  36.9091564
  58.5278665  46.6741028  36.4587577  56.9192455  47.3761479  36.1644534
  57.7097818  47.5940035  37.7439256  59.1068797  44.4282067  37.8260551
  60.2022756  44.8922421  38.1236521  58.9389095  43.4614418  36.9458445
  58.0179045  43.0872543  36.7674266  60.0619797  42.8976357  36.2223911
  60.8878347  42.6761758  36.8984223  59.6725285  41.5986159  35.4286719
  60.5422873  41.2306388  34.8844175  59.1863570  40.5107902  36.4221897
  58.3162759  40.8778888  36.9665225  58.9162201  39.6097202  35.8715541
  59.9845052  40.2793720  37.1275295  58.6010258  41.8769716  34.3411127
  57.7045658  42.2589624  34.8295216  58.9909408  42.6309902  33.6573571
  58.2300098  40.5225556  33.5040760  57.8395674  39.7681852  34.1871425
  57.4768016  40.7549556  32.7512368  59.1259436  40.1402115  33.0149796
  60.6048852  43.9108267  35.2355767  59.9110168  44.8865488  34.9035872
  61.8174556  43.6692235  34.7644961  62.3554382  42.8775017  35.0867545
  62.4337498  44.5798845  33.7729195  62.4138877  45.6044053  34.1444864
  63.8901597  44.1777674  33.5241305  64.3311282  44.8861626  32.8228301
  64.4289937  44.2211195  34.4706391  63.9790498  42.8580193  32.9862118
  64.9009446  42.6332002  32.8407258  61.7178750  44.6111157  32.4293404
  61.0179308  43.6541767  32.0553364  61.9490090  45.6938579  31.6782170
  62.4367352  46.4990358  32.0441554  61.4921104  45.7321597  30.2903281
  62.2481983  46.2619599  29.7108956  61.4220127  44.7024297  29.9398401
  60.1549471  46.4115336  30.0927239  59.7058633  46.5881316  28.9383432
  59.5082676  46.8057791  31.1966338  59.9226322  46.6728841  32.1080833
  58.1823498  47.4186602  31.1203607  57.7101261  47.1883259  30.1653476
  57.2970267  46.8553989  32.2585930  57.8791763  46.9718294  33.1727293
  56.4459404  47.5360141  32.2812894  56.7934758  45.4115797  32.1544081
  57.6273003  44.7459266  31.9313757  56.1485302  44.9993809  33.5153483
  55.3142791  45.6643410  33.7388480  55.7871920  43.9730491  33.4507065
  56.8932530  45.0725947  34.3078936  55.7604601  45.2726206  31.1165787
  56.1736276  45.5633418  30.1507251  55.4272414  44.2357862  31.0714015
  54.9139090  45.9156126  31.3574345  58.2694687  48.9457631  31.2462773
  59.2998665  49.4633307  31.7255624  57.1906657  49.6599771  30.8688367
  56.0321120  49.1654062  30.0991257  55.5480833  48.3550532  30.6442352
  56.3655006  48.8007280  29.1275492  55.1162974  50.4486330  29.9794701
  54.4076840  50.4933833  30.8064910  54.5719943  50.4450161  29.0351066
  56.0938246  51.5906346  30.0313538  55.5529247  52.4602256  30.4046334
  56.5800213  51.8428134  29.0889535  57.1331723  51.1523095  31.0500008
  58.1192806  51.5763219  30.8605223  56.6980234  51.4895980  32.4873289
  55.8218164  52.3430991  32.7220418  57.3864104  50.8445611  33.4374351
  58.1426808  50.2279919  33.1766733  57.0511609  50.9702062  34.8578164
  56.9849436  52.0185392  35.1488706  55.7336623  50.2999843  35.1652968
  55.7874239  49.2472973  34.8877004  55.5229069  50.3837520  36.2314419
  54.9381455  50.7843528  34.5990465  58.1673246  50.3551594  35.6609577
  58.8852247  49.4836222  35.1753691  58.3166243  50.8480167  36.8913383
  57.8171272  51.6851205  37.1556472  59.2274067  50.2544126  37.8575984
  59.7134331  49.3901932  37.4048266  60.3268350  51.2607251  38.3167297
  59.8728185  52.1124520  38.8232170  60.9656621  50.7211604  39.0159221
  61.1926565  51.7810843  37.1634940  61.5005822  52.9812426  37.0988205
  61.6190847  50.8988321  36.3017800  62.1928963  51.1930362  35.5244230
  61.3733351  49.9258903  36.4162015  58.5252171  49.7192571  39.0893303
  58.9051094  48.6747105  39.5872662  57.5379216  50.4582075  39.5851092
  57.1641138  51.2295431  39.0508729  56.9223529  50.1473812  40.8893961
  57.1107231  49.1019702  41.1337964  57.5001043  51.0294341  42.0169470
  56.9769666  50.7841790  42.9412181  59.0131618  50.8100083  42.2097562
  59.5370514  51.0555207  41.2859797  59.3744104  51.4518140  43.0133008
  59.1997848  49.7672601  42.4665609  57.2846880  52.4112525  41.6908262
  57.6423391  52.9643697  42.3892153  55.4497676  50.4533032  40.8118190
  55.0092212  51.2778885  39.9842665  54.6824051  49.8822867  41.7211885
  55.0627451  49.1581222  42.3136634  53.2973021  50.2283509  41.8730116
  53.1443432  51.2612548  41.5602620  52.3928000  49.3095204  41.0092018
  52.6350695  49.4633184  39.9576549  52.5856377  48.2708832  41.2778024
  50.9830494  49.6161482  41.2333800  50.4399624  49.0389184  40.6916587
  52.9043122  50.1209393  43.3536225  53.3284087  49.1773814  44.0373386
  52.1348603  51.0979925  43.8421763  51.8665683  51.8782571  43.2596766
  51.5946142  51.0306908  45.2143402  52.0807806  50.2129921  45.7464212
  51.8373171  52.3468478  45.9995021  51.2673016  53.1530008  45.5376580
  51.3797011  52.1696693  47.4848089  51.9496407  51.3639399  47.9474844
  51.5522419  53.0966011  48.0317332  50.3178946  51.9248291  47.5116587
  53.2331082  52.6405202  45.9537579  53.4050423  53.4532276  46.4349500
  50.1228517  50.8694291  45.0989114  49.4565306  51.6700991  44.4245903
  49.5949289  49.8429229  45.7604025  50.1661644  49.3171626  46.4064407
  48.2165096  49.4364774  45.5744260  47.6678410  50.1851661  45.0030003
  48.1950606  48.1228446  44.8026549  48.7160738  47.3481009  45.3651643
  47.1666621  47.8102464  44.6216058  48.9168829  48.3490320  43.4391191
  48.2991106  49.0626631  42.8939689  49.8752181  48.8088548  43.6804812
  49.1502206  47.1089928  42.5713649  48.9176243  45.9428313  43.0063838
  49.5869507  47.3677333  41.4196588  47.4891964  49.2485228  46.9152879
  48.0757479  48.7441039  47.8899324  46.2391282  49.6674354  46.9270263
  45.8606240  50.0563178  46.0752022  45.3616688  49.6130206  48.1293162
  45.9510030  49.3935640  49.0196101  44.6750656  50.9709095  48.3186488
  45.4694499  51.6789103  48.5548428  44.2387180  51.2242532  47.3524616
  43.5792475  51.0393678  49.4144180  42.8765283  50.2234648  49.2453358
  44.0587376  50.9100160  50.3847063  42.8105560  52.4032222  49.3901928
  43.5175976  53.2319972  49.3538169  42.1535610  52.4484217  48.5216228
  41.9887478  52.5345465  50.6135530  42.4198875  53.0424485  51.3726666
  40.7537380  52.0642522  50.7837325  40.1303214  51.3740321  49.8323772
  40.5963067  51.1961131  48.9541388  39.1939425  51.0311534  49.9927777
  40.1211956  52.2763772  51.9582699  40.5873575  52.7872875  52.6943160
  39.1849398  51.9231137  52.0951225  44.3031838  48.5215974  47.9734485
  43.6050432  48.4313662  46.9618714  44.2067533  47.6490344  48.9683806
  44.9069896  47.6185392  49.6955934  43.1330648  46.6670744  49.0027565
  43.0311953  46.1627833  48.0418131  43.4912945  45.6076610  50.0847804
  44.4141183  45.1264099  49.7609087  43.6675856  46.1374659  51.0209044
  42.4037207  44.5402064  50.2969620  41.4820615  45.0451350  50.5862581
  42.1575575  43.7154766  49.0336563  43.0787148  43.2098482  48.7439874
  41.3825512  42.9741563  49.2283621  41.8356293  44.3735110  48.2265297
  42.9218305  43.6293267  51.4556808  43.0666286  44.2299504  52.3536698
  42.1912225  42.8459058  51.6570881  43.8696354  43.1757078  51.1658626
  41.7509927  47.3181147  49.2774715  41.5855997  47.9522651  50.3130449
  40.8144316  47.2559439  48.3273293  40.9916587  46.6713909  47.5229739
  39.5283376  47.9816555  48.3966048  39.6451327  48.8703700  49.0168020
  39.0598361  48.4184755  46.9917875  39.1558862  47.5243169  46.3758703
  38.0186634  48.7408452  47.0034991  39.9267661  49.5266200  46.4147023
  40.4943574  50.3349664  47.2156125  39.9963768  49.6625330  45.1552849
  38.4158702  47.1185590  48.9803091  37.5144984  47.6067030  49.7039349
  38.4878508  45.8277701  48.7029559  39.2042144  45.4581685  48.0944189
  37.4492112  44.8720730  49.2525346  37.1874081  45.1150272  50.2823557
  36.1500916  44.8594819  48.3718702  35.6740592  45.8362834  48.4576165
  36.4458841  44.5688053  46.9162078  36.9215386  43.5918949  46.8296088
  35.5154649  44.5709384  46.3483908  37.1139664  45.3339543  46.5208443
  35.1228982  43.8697442  48.8971338  35.5444154  42.8742409  48.7578596
  35.0086897  44.0695839  49.9625539  33.8205471  43.9405694  48.2477037
  33.9338930  43.7403661  47.1822596  33.1538999  43.1986944  48.6873652
  33.3981681  44.9357105  48.3869521  38.0462563  43.5012025  49.3339727
  38.8137566  43.1371392  48.4323457  37.7440155  42.7488433  50.4316576
  37.2399973  43.1490604  51.2100478  38.1784325  41.3656093  50.5302203
  38.3455687  40.9735297  49.5270064  39.4997743  41.2229677  51.3478609
  40.1773521  41.9640400  50.9238333  39.2580646  41.4977935  52.3745776
  40.1752344  39.8449322  51.3329988  39.4556476  39.1085620  51.6908458
  40.6570121  39.4486970  49.9097075  41.3770245  40.1844027  49.5513527
  41.1288969  38.4667897  49.9455338  39.8035247  39.4165759  49.2324869
  41.3986723  39.8373024  52.2865424  41.0704885  40.0623607  53.3013052
  41.8690935  38.8542342  52.2669929  42.1173661  40.5899436  51.9623367
  37.0302702  40.5963481  51.1850009  37.0193684  40.3836578  52.4281542
  36.0427722  40.2267895  50.3800213  36.1419236  40.3335633  49.3805876
  34.8018157  39.6750786  50.8935853  34.6659234  39.9906624  51.9280123
  33.6005979  40.1526054  50.0748864  33.7090603  41.2365134  50.0364327
  33.6456924  39.7473769  49.0640173  32.2533881  39.7973757  50.7066678
  32.1418109  38.6940256  51.2965322  31.2751552  40.5977696  50.5515393
  34.9197596  38.1622048  50.8168903  34.6287523  37.5738509  49.7831677
  35.3033294  37.5384643  51.9285449  35.6426108  38.0487904  52.7313866
  35.4019640  36.0729030  51.9423467  35.9295569  35.7411509  51.0480954
  36.1689807  35.5602211  53.1892062  35.7661456  36.0849698  54.0554983
  35.9853574  34.4910178  53.2949735  37.6490358  35.8074936  53.0975640
  38.2491921  35.5879265  52.0207290  38.2506331  36.2142478  54.1107578
  34.0814064  35.3231065  51.7765708  34.0925890  34.1113843  51.4132056
  32.9476888  35.9788111  51.9996691  32.9276710  36.9483732  52.2818889
  31.6909814  35.2739808  51.8787283  31.8310039  34.2311660  52.1633864
  30.6236315  35.8877893  52.7830851  30.9953796  35.7909553  53.8031467
  30.5674053  36.9430801  52.5160642  29.2318040  35.2634267  52.6869937
  28.5667421  35.8051122  53.3595786  28.9025918  35.4069851  51.6578632
  29.1985146  33.7501159  53.0344735  30.0961514  33.2550106  53.7859519
  28.2590850  33.1020092  52.5644780  31.2021897  35.2812539  50.4557245
  30.7411988  34.2496062  49.9297668  31.3220515  36.4149745  49.8033062
  31.6984978  37.2395061  50.2488791  30.8265201  36.5327146  48.4229711
  30.0636225  35.7791822  48.2273302  30.2168590  37.8969973  48.2284691
  31.0143219  38.6316412  48.3400504  29.8243178  37.9391061  47.2124778
  29.0742059  38.2134299  49.2400404  28.4165558  37.3463252  49.3010868
  29.5195020  38.4005681  50.2171754  28.2742333  39.4233390  48.8108123
  27.6468628  39.7377150  49.6448824  28.9677080  40.2248148  48.5561974
  27.4117032  39.1569102  47.6451427  26.9632362  38.2536001  47.5903025
  27.1809160  40.0451578  46.6698974  27.7873475  41.2242731  46.7012994
  28.4180039  41.4443411  47.4588894  27.6157051  41.8966918  45.9674795
  26.3564438  39.7691775  45.6431032  25.8947938  38.8720304  45.5972064
  26.2029248  40.4604035  44.9228690  31.9269816  36.2622839  47.3557608
  31.5959508  36.0943088  46.1763644  33.1768289  36.1773927  47.8006610
  33.3163470  36.3534622  48.7853607  34.3647459  35.9071607  46.9612631
  35.2508059  35.9014779  47.5960580  34.2719723  34.5478701  46.2302001
  33.3362552  34.5218835  45.6717581  35.1101497  34.4730701  45.5374060
  34.3133495  33.3862613  47.1985508  35.2619419  33.3978626  47.7353364
  33.4927944  33.4803217  47.9098482  34.1782354  32.0848740  46.4437288
  33.2327551  32.0774496  45.9014089  35.0025880  31.9890127  45.7370797
  34.2055862  30.9374025  47.3558265  34.8789037  30.9382095  48.1086493
  33.4115112  29.8760960  47.2137898  32.4859988  29.8320341  46.2443604
  32.3855872  30.6118819  45.6104401  31.8935652  29.0192027  46.1525611
  33.5119453  28.8715539  48.0672868  34.1868486  28.9157804  48.8173865
  32.9133113  28.0644990  47.9653142  34.4981121  37.0475431  45.9848397
  34.4423251  36.8565731  44.7419128  34.6611343  38.2349343  46.5693942
  34.6974786  38.2936078  47.5770329  34.8579510  39.4771132  45.7858166
  35.0165276  39.2989284  44.7222364  33.6810698  40.4387240  45.9498447
  33.5566718  40.6806926  47.0053425  33.9538248  41.7506659  45.1432127
  34.0778808  41.5095392  44.0874812  33.1123617  42.4330695  45.2630693
  34.8615912  42.2249964  45.5161369  32.3636919  39.7652658  45.5577806
  32.1958778  38.8962314  46.1939564  31.5426611  40.4710637  45.6837068
  32.4130481  39.4482211  44.5160765  36.0890317  40.1561753  46.3633406
  36.2246952  40.3391432  47.6009076  37.0172627  40.5555828  45.4737122
  36.9962069  40.2124781  44.5240095  38.1440378  41.3458822  45.8878605
  37.8576742  41.8834603  46.7917990  39.4541526  40.5091174  46.1903002
  39.1874258  39.6629363  46.8234943  40.1035803  39.9917145  44.8856424
  40.3710204  40.8374041  44.2520932  41.0004863  39.4212849  45.1270319
  39.3976183  39.3512571  44.3569341  40.4197098  41.3110463  46.8694609
  41.2051428  40.7872617  47.0436594  38.3875745  42.4706540  44.8664619
  37.7304677  42.5262773  43.8290450  39.2546509  43.4012347  45.2098380
  39.7910375  43.3489094  46.0640340  39.4601968  44.5720166  44.3202073
  39.7854852  44.2473796  43.3318261  38.5389732  45.1473224  44.2281762
  40.5249046  45.4462328  44.9231269  40.7574701  45.4174535  46.1533391
  41.2331757  46.1963967  44.0841805  41.0780136  46.1267834  43.0886012
  42.2623543  47.1053214  44.5589830  42.0190888  47.4380821  45.5680377
  43.6534141  46.4037791  44.5878249  44.3883518  47.0098079  45.1176314
  43.5470534  45.4418324  45.0892689  44.2327009  46.1176596  43.2224691
  45.1686348  46.9984853  42.6598976  45.4601386  47.8826956  43.2267288
  45.7310290  46.7587794  41.3862010  46.4605247  47.4405717  40.9490558
  45.3268364  45.6012562  40.6740625  45.7317042  45.4108340  39.6801202
  44.3959951  44.6887447  41.2514353  44.0902470  43.7876221  40.7198374
  43.8678657  44.9669231  42.5335453  43.1641345  44.2742425  42.9951249
  42.3441120  48.3332456  43.6818521  41.8165786  48.3401124  42.5386498
  43.0111251  49.3542412  44.2323533  43.3888843  49.2775300  45.1659018
  43.2285688  50.5984721  43.4969455  42.8041090  50.5353782  42.4949713
  42.5312248  51.7393937  44.2548050  42.7126721  51.6138960  45.3222442
  42.9523279  52.6889140  43.9243758  41.1237112  51.7308380  44.0069151
  40.7095001  52.4502128  44.4891276  44.7202439  50.8619438  43.4315246
  45.4309917  50.6879466  44.4310433  45.2025010  51.3674538  42.2848329
  44.6149460  51.4859177  41.4719093  46.5829263  51.7185812  42.1795503
  47.1116197  51.0393642  42.8483154  47.0844451  51.5026145  40.7152766
  46.4709241  52.0921409  40.0339903  48.5160405  51.9327927  40.5974405
  49.1302914  51.3433510  41.2781423  48.8589927  51.7794646  39.5742226
  48.6009812  52.9887141  40.8541782  47.0615882  49.9944684  40.4067675
  47.7729064  49.4916903  41.0620090  46.0589054  49.6124633  40.5985979
  47.4691132  49.7070446  38.8245656  48.4719250  50.0883854  38.6320879
  47.4456348  48.6344704  38.6318673  46.7579248  50.2091606  38.1686765
  46.6982438  53.1706509  42.6086102  46.1273955  54.0578349  41.9265906
  47.3543517  53.4057327  43.7318501  47.7903832  52.6472102  44.2364486
  47.3723925  54.7591680  44.3419142  46.6268418  55.3934352  43.8623743
  47.0937332  54.6928662  45.8488976  47.0540094  55.7000988  46.2636323
  45.7225945  53.9849568  46.0718594  45.7617004  52.9774346  45.6577697
  45.5106728  53.9303816  47.1396663  44.9354686  54.5514417  45.5742381
  48.1778015  53.9552239  46.6153478  48.1501438  52.9082923  46.3132384
  49.1391843  54.3875892  46.3380340  47.9814287  54.0595182  48.2259984
  47.0203984  53.6269023  48.5041427  48.7826157  53.5154714  48.7262101
  48.0094367  55.1062001  48.5289380  48.6462911  55.5491672  44.0903932
  48.7122139  56.7254655  44.4398335  49.6657888  54.8734052  43.5644938
  49.5764934  53.8790409  43.4116368  50.9011476  55.5097430  43.2019959
  50.6841260  56.3115310  42.4962077  51.3516246  55.9299833  44.1011999
  51.8816394  54.5421859  42.5642074  51.5304560  53.4125269  42.1780499
  53.1072458  55.0215450  42.4205874  53.3126176  55.9706857  42.6981730
  54.1983738  54.2061570  41.8614513  54.9982657  54.1282779  42.5977985
  53.8178938  53.2107282  41.6324190  54.7519172  54.8244285  40.5969926
  54.1870011  55.7880261  40.0684062  55.8487618  54.2434837  40.1023370
  56.2818909  53.4695618  40.5856003  56.4885402  54.7457659  38.8717013
  56.2668654  55.8051860  38.7429052  57.9947095  54.5719000  38.9557822
  58.1978140  53.5136922  39.1202328  58.4179094  54.8781707  37.9991212
  58.6382566  55.4053431  40.0964863  58.5029979  56.4606459  39.8595437
  58.0721937  55.1597930  40.9950280  60.1219845  55.1231877  40.3361652
  60.8247334  54.5412759  39.4832545  60.6108221  55.5272407  41.4148032
  55.9248243  54.0154980  37.6671939  56.4157301  52.9571940  37.3215364
  54.8697106  54.5717283  37.0735913  54.5322016  55.4497303  37.4414222
  54.1874241  53.9974818  35.9145188  54.9309942  53.7544814  35.1554711
  53.4006327  52.7142867  36.2636016  52.8658252  52.2823126  35.4177420
  54.1228351  51.9916751  36.6435441  52.4022650  52.9186064  37.3358313
  51.1537868  53.4724580  37.1114110  50.5205942  53.5741100  38.2775636
  49.4995157  53.9531198  38.3205664  51.3328543  53.1564768  39.2354806
  51.1349002  53.1622172  40.2258750  52.4982217  52.7095633  38.6693392
  53.2808335  52.2836253  39.2971902  53.2049884  55.0562639  35.4225700
  53.0224632  56.1084525  36.0686572  52.5406923  54.7857241  34.3078553
  52.7198295  53.9347470  33.7941948  51.6747166  55.7964694  33.6966483
  51.9086048  56.7809447  34.1018689  51.8930580  55.8288150  32.1442805
  51.5103567  54.8989889  31.7234928  51.3328664  56.6697203  31.7354238
  53.3220945  55.9743898  31.7978939  53.7360754  56.8215772  32.3446976
  53.8514833  55.0651202  32.0826363  53.4868582  56.2124128  30.2751109
  54.5520547  56.3304202  30.0762904  53.1186785  55.3230104  29.7637339
  52.7796052  57.3814610  29.7505600  52.9913760  58.2613820  30.1988808
  51.8965472  57.3716147  28.7623446  51.5190280  56.2346791  28.1792824
  51.9094239  55.3569235  28.4911095  50.8441797  56.2557732  27.4281270
  51.3699864  58.5356118  28.3227692  51.6517838  59.4067365  28.7491869
  50.6969355  58.5293769  27.5697338  50.1752022  55.7835496  34.0185906
  49.4274296  56.6705131  33.5579727  49.7016865  54.8211231  34.8161062
  50.3427838  54.1470584  35.2094639  48.2700697  54.6556451  35.0819247
  47.7137647  54.9833288  34.2037179  47.8822029  53.1987790  35.3946942
  48.4369383  53.0201367  36.3158102  46.8133439  53.1226526  35.5943074
  48.2854871  52.1436169  34.3372597  49.3462464  52.2548651  34.1125058
  48.0144836  50.6961081  34.8736815  46.9537788  50.5839451  35.0982337
  48.3041098  49.9673633  34.1166159  48.5968225  50.5289036  35.7797855
  47.6124313  52.3977420  32.9979030  47.9013197  53.3808558  32.6262443
  47.9226188  51.6345192  32.2841973  46.5301277  52.3603035  33.1216623
  47.7673934  55.5318602  36.2007122  48.3375993  55.5685166  37.2837000
  46.6863162  56.2279776  35.9447596  46.3003290  56.2900001  35.0134882
  46.0940621  57.0462330  36.9933297  46.6000470  56.8109434  37.9296615
  46.2161623  58.6382740  36.7251228  45.7655602  59.1645415  37.5666099
  47.6600583  59.0703209  36.5745575  48.1112274  58.5447828  35.7329187
  47.7016019  60.1447605  36.3958040  48.2079061  58.8327765  37.4864434
  45.5304484  58.9477037  35.5408763  45.5954257  59.8902147  35.3704317
  44.6597354  56.6363152  37.2357413  43.8809035  56.3466784  36.2979159
  44.3184288  56.5785634  38.5148361  45.0353821  56.7179280  39.2124426
  42.9860195  56.1703784  38.9613429  42.9891690  55.9756837  40.0338088
  41.9686624  57.3113790  38.6657957  42.0409095  57.5307495  37.6005464
  40.9432356  57.0343454  38.9104432  42.3329696  58.5661411  39.4465911
  42.7321260  59.6150887  38.8619741  42.2774913  58.4655824  40.7573051
  42.5076619  59.2635138  41.3321327  42.0049901  57.5909260  41.1825345
  42.5231058  54.8311218  38.4234249  41.3201317  54.6245164  38.1700623
  43.4830759  53.9121798  38.3132200  44.4503298  54.1632866  38.4597282
  43.1655567  52.5082839  38.0045666  42.4929967  52.4490685  37.1488472
  44.4758394  51.7540885  37.6582396  44.9848770  52.3033911  36.8662507
  45.1029293  51.7382593  38.5496473  44.2147531  50.3356327  37.2003604
  44.1014817  50.0253285  35.8246447  44.2167428  50.8232132  35.0910273
  43.8401663  48.6900393  35.3919902  43.7749558  48.4523516  34.3302209
  43.7168329  47.6714428  36.3471169  43.4553816  46.3452255  35.9406861
  43.3806332  46.2526643  34.9880872  43.8036798  47.9725782  37.7259440
  43.6558362  47.1814972  38.4610859  44.0785014  49.2813780  38.1496046
  44.1895017  49.4983296  39.2120127  42.5229047  51.8115038  39.2232318
  43.0392674  51.8749673  40.3425414  41.4026335  51.1368068  38.9761517
  40.9931442  51.1531177  38.0530311  40.7179612  50.3668717  40.0311843
  41.4303509  50.0893953  40.8081057  39.5872445  51.2161576  40.6747517
  40.0452394  52.1370254  41.0357813  38.8745800  51.4510997  39.8841749
  38.8718685  50.5353350  41.8074775  38.5114142  49.5706188  41.4504112
  39.5866426  50.3791508  42.6154419  37.6588241  51.3841397  42.3379480
  37.9758353  52.4184619  42.4712915  36.8477888  51.3441114  41.6108173
  37.1534570  50.8024789  43.7266995  38.0516447  50.6460065  44.3240903
  36.5525292  51.5934653  44.1753925  36.3429940  49.5130196  43.6814292
  36.8997988  48.7798357  43.2660865  36.0815304  49.2466114  44.6199192
  35.5104535  49.6579182  43.1282748  40.1556542  49.1290855  39.3878258
  39.5140769  49.2212447  38.3360576  40.3599866  47.9616540  40.0111812
  40.9673020  47.8785680  40.8139041  39.7833399  46.7412330  39.4489141
  39.0464206  47.0228261  38.6967475  40.8452214  45.8091906  38.7829400
  40.3329882  44.9803897  38.2942626  41.4021665  46.3801619  38.0400377
  41.7363029  45.3046256  39.7523485  42.3816639  44.7345946  39.3278798
  38.9805974  45.9849106  40.5035831  39.2179321  46.1389383  41.7293424
  38.0547083  45.1606915  40.0223583  37.8618033  45.1198127  39.0317949
  37.2893653  44.2998331  40.9098283  37.7289866  44.2263664  41.9045318
  35.8424662  44.8465948  41.0459740  35.4949201  45.0928380  40.0426420
  34.8473705  43.8459114  41.7093822  35.1940293  43.5995381  42.7129901
  33.8587886  44.3012165  41.7685737  34.7927407  42.9365119  41.1109596
  35.8542456  46.1359152  41.8362493  36.4706579  46.8727306  41.3212338
  34.8365834  46.5152506  41.9288129  36.2640015  45.9503797  42.8291126
  37.3019801  42.9039595  40.2634292  37.0848827  42.7630036  39.0693650
  37.5268924  41.8825236  41.0945483  37.5875506  42.0677234  42.0855685
  37.6166735  40.5066162  40.6455415  37.4603334  40.4336389  39.5692835
  39.0030095  39.9555155  40.9760405  39.1902949  40.0811223  42.0424585
  39.0912053  38.4032170  40.5986483  38.9044754  38.2768567  39.5322222
  40.0848894  38.0259302  40.8401966  38.3444195  37.8478219  41.1660529
  39.9566521  40.7018453  40.2382284  40.8380074  40.3730615  40.4298379
  36.5672858  39.6698952  41.4608797  36.5680415  39.7148032  42.7155744
  35.7070520  38.9423005  40.7716498  35.7197103  38.9968936  39.7632061
  34.6720233  38.1396416  41.4062712  34.8394045  38.1476645  42.4833127
  33.2702483  38.6595416  41.1284710  32.5508417  38.0124350  41.6302750
  33.1069597  40.0958210  41.6376266  33.8257726  40.7436472  41.1359008
  32.0958117  40.4439056  41.4266387  33.2829979  40.1228727  42.7129774
  32.9958838  38.6568861  39.7148175  32.1080373  38.9878433  39.5605568
  34.8004255  36.6945732  40.9972539  35.1258448  36.4098489  39.8441818
  34.5637346  35.7836783  41.9530494  34.3165279  36.0754193  42.8878624
  34.7372077  34.3197376  41.6886469  35.0735295  34.1366828  40.6681187
  35.7766644  33.7250588  42.6652881  35.4204155  33.8892934  43.6822507
  35.9892649  32.2407892  42.4380177  36.3459826  32.0757942  41.4213417
  36.7277311  31.8662593  43.1468868  35.0471004  31.7119916  42.5822425
  37.1147802  34.4606603  42.5083083  36.9762649  35.5190292  42.7291491
  37.8451876  34.0385646  43.1985546  37.4744163  34.3474729  41.4855907
  33.3859497  33.5992004  41.7899728  32.6556539  33.7898269  42.7915274
  33.0283588  32.8257523  40.7670086  33.6841508  32.6770083  40.0134097
  31.7094522  32.2106133  40.6675321  31.1250023  32.3977733  41.5683588
  30.9750162  32.8313435  39.4674706  31.5419948  32.5643668  38.5756421
  29.9387270  32.5157741  39.3465545  30.9622804  34.3189848  39.5347543
  29.9957910  35.0090988  40.2523126  29.2180710  34.5862167  40.7385450
  30.2651458  36.3083754  40.1913595  29.6192951  37.0294053  40.6924501
  31.3686634  36.4803102  39.4650735  31.8352287  35.2543410  39.0575539
  32.7483706  35.1878401  38.4660721  31.7448380  30.7128013  40.5074447
  32.4894095  30.1783640  39.6662408  30.9300671  30.0271717  41.3269461
  30.4562377  30.5326331  42.0618568  30.6914466  28.5550773  41.2109970
  31.6191686  28.0345692  40.9732948  30.1633648  28.0282645  42.5517512
  30.8538598  28.3595606  43.3273535  29.1861065  28.4813798  42.7183429
  30.0362674  26.5330664  42.6007197  29.2667018  26.2020975  41.9033466
  30.9874105  26.0700632  42.3379329  29.6526587  26.1310862  43.9974596
  30.3190818  26.6168666  44.7101984  28.6254304  26.4383403  44.1936648
  29.7504265  24.6886161  44.1754413  30.6182545  24.3332574  44.5505334
  28.7865523  23.8267956  43.8869034  27.6296850  24.2496540  43.3827668
  27.4842232  25.2355103  43.2183646  26.9025322  23.5827564  43.1669053
  28.9865782  22.5285518  44.0997572  29.8679100  22.2118646  44.4779946
  28.2561491  21.8658330  43.8820971  29.6858826  28.1628960  40.1422014
  28.6035116  28.7956579  39.9861808  30.0465987  27.1273914  39.3725560
  30.9998769  26.7956070  39.4083202  29.1219526  26.4800038  38.4439856
  28.1096893  26.8384170  38.6309677  29.4879569  26.7876762  36.9971447
  30.5549313  26.6825701  36.8006316  28.9315389  26.1074973  36.3522759
  29.1090119  28.1822926  36.5804447  27.8799003  28.4198246  36.0023086
  27.1999592  27.5852678  35.8311513  27.5024480  29.7153254  35.6366075
  26.5421146  29.9081406  35.1583995  28.3900334  30.7847666  35.8967781
  28.0885797  31.8032501  35.6519989  29.6407665  30.5452402  36.4611111
  30.3502280  31.3587629  36.6125888  29.9771049  29.2589069  36.8299105
  30.9294624  29.0647859  37.3232990  29.1301906  24.9670495  38.6778813
  30.1657240  24.4019117  38.9870136  27.9692941  24.3474710  38.5406808
  27.1322917  24.8780326  38.3456664  27.8529524  22.8913864  38.6818418
  28.8025269  22.4270379  38.4157816  27.4980438  22.4920292  40.1172911
  28.3321016  22.8091083  40.7433163  26.6066326  23.0587700  40.3861606
  27.2295327  20.9540176  40.3393930  26.2661395  20.7056785  39.8940818
  28.0190156  20.4060096  39.8250941  27.2215845  20.5636822  41.8330067
  27.0041766  21.4574072  42.6922921  27.4229284  19.3559013  42.1526534
  26.7817672  22.4159677  37.7418693  25.7085656  23.0288596  37.6598089
  27.0828939  21.3432331  37.0243010  27.9859469  20.9128785  37.1635473
  26.1864069  20.7666698  36.0197043  25.1597908  20.7735550  36.3859163
  26.2515677  21.5929170  34.7236292  26.0198504  22.6172510  35.0154275
  27.2877186  21.5362628  34.3900401  25.3310048  21.1685475  33.5908670
  25.5822465  20.1553255  33.2772435  24.2962265  21.1965951  33.9322604
  25.5039485  22.1247438  32.4103649  25.1695352  23.1117770  32.7297898
  26.5654508  22.1629005  32.1657096  24.7161082  21.6958142  31.1822460
  25.1342833  20.7674365  30.7932153  23.6746417  21.5357708  31.4612315
  24.7928927  22.7577639  30.1285967  25.7578222  22.9059130  29.8696321
  24.2675649  22.4653816  29.3170283  24.4050618  23.6179887  30.4887350
  26.6777803  19.3323282  35.8278570  27.8383146  19.1169619  35.4697625
  25.7942658  18.3579293  36.0989748  24.8256438  18.6307184  36.1853278
  26.1401144  16.9323800  36.2835610  25.2175688  16.3528965  36.2488087
  27.1042556  16.3842260  35.2213073  28.0107907  16.9862026  35.2838967
  27.3304262  15.3569647  35.5071062  26.5750850  16.4089910  33.7891069
  25.5566382  16.0208081  33.8025600  26.5641855  17.4445725  33.4491786
  27.4323367  15.5647689  32.8319263  28.6899872  15.5214977  33.0106350
  26.8366709  14.9505678  31.9005959  26.7870379  16.8041428  37.6369660
  26.3476275  17.4210610  38.6112249  27.8367198  16.0034493  37.7121448
  28.0693085  15.3393210  36.9876205  28.6329588  16.0096678  38.9158951
  28.0865083  16.5280610  39.7037779  28.9341025  14.5734870  39.3882128
  27.9977596  14.0511933  39.5846066  29.4890210  14.0444868  38.6134068
  29.7647177  14.5789639  40.6635694  30.1063947  15.6401363  41.1808810
  30.0895145  13.3874362  41.1705139  30.6397827  13.3346862  42.0158080
  29.7834847  12.5441846  40.7064306  29.9155309  16.8205779  38.6659557
  30.9340673  16.5968975  39.3381570  29.8573613  17.7795127  37.7271727
  29.0603844  17.8425159  37.1099549  31.0654892  18.5623562  37.3935115
  31.8894203  18.2329564  38.0265459  31.4750989  18.3872836  35.9248344
  32.5588213  18.5040951  35.9249294  31.2216099  17.3537072  35.6891158
  30.8661308  19.3094424  34.8794229  29.8791059  18.9492826  34.5893063
  30.7812825  20.3217890  35.2744635  31.8048088  19.3149206  33.6324507
  31.8550356  18.3220512  33.1854757  31.4516796  20.0298991  32.8893457
  33.1564924  19.7082998  34.0600373  33.6344454  19.0744913  34.6844947
  33.7813955  20.8301565  33.6887481  33.1840141  21.6567973  32.8240935
  32.2700000  21.4278019  32.4604464  33.6495165  22.5064309  32.5385590
  35.0028894  21.1150306  34.1809202  35.4433744  20.4788713  34.8300537
  35.4724985  21.9634404  33.8984900  31.0215971  20.0282918  37.8958861
  30.0656639  20.7417935  37.6753706  32.0556842  20.4221409  38.6262372
  32.8556828  19.8147195  38.7317870  32.0874929  21.7295907  39.2787839
  31.1553295  22.2880448  39.1933461  32.4394231  21.5469453  40.7594982
  33.3403577  20.9381977  40.8359406  32.6818657  22.9030591  41.4281424
  31.7811535  23.5122365  41.3525047  32.9302617  22.7515723  42.4785956
  33.5069992  23.4120377  40.9299511  31.3328391  20.7141717  41.4645323
  30.4441285  21.3409019  41.5387173  31.1166811  19.8512062  40.8347182
  31.7517106  20.2215852  42.9070319  31.9675905  21.0840698  43.5375999
  30.9366338  19.6461754  43.3459540  32.6401451  19.5943756  42.8336007
  33.1702865  22.5631644  38.5842560  34.2787385  22.0915690  38.4390771
  32.8644590  23.7835733  38.1388926  31.9194485  24.1339106  38.0731782
  33.9621117  24.6242627  37.6133901  34.9123005  24.2748105  38.0172756
  34.0267194  24.5584394  36.0775990  34.9428855  25.0142234  35.7020996
  34.0103612  23.5022237  35.8088223  32.8813969  25.2123409  35.3341576
  32.8800252  26.4698645  34.7542460  33.7843457  27.0642469  34.8846825
  31.6838210  26.7065532  34.1104868  31.4357813  27.5542484  33.6206003
  30.8794664  25.6143146  34.2618193  29.5711252  25.3942687  33.8041992
  29.0776927  26.1795910  33.2315808  28.9875388  24.1812330  34.1137041
  27.9729341  23.9697215  33.7761540  29.6753199  23.2067084  34.8584242
  29.1994929  22.2559143  35.0985883  30.9784384  23.4204948  35.3117381
  31.4750980  22.6160528  35.8542352  31.5969307  24.6486439  35.0308194
  33.7822753  26.0571159  38.1422544  32.8204292  26.3541622  38.8902635
  34.7349702  26.9144347  37.7916109  35.4800832  26.6109226  37.1810486
  34.7275374  28.3025358  38.2354150  33.8396119  28.5087932  38.8330315
  35.9731739  28.5745088  39.0958163  36.8566391  28.3456003  38.4998379
  36.0353937  29.9883133  39.5506136  35.1524237  30.2178439  40.1470860
  36.9302176  30.1370659  40.1549827  36.0692276  30.6482301  38.6837425
  35.9773779  27.7283759  40.2718786  36.7607800  27.9120949  40.7954517
  34.7763963  29.2482958  37.0071630  35.4194995  28.9486524  35.9941743
  34.0941151  30.3863346  37.1413570  33.3956507  30.4707903  37.8660046
  34.2930561  31.5246480  36.2265832  35.0640155  31.2631105  35.5017944
  33.0110477  31.9002995  35.4660850  32.2051621  32.0434391  36.1859173
  33.2164553  33.2242628  34.6384335  34.0219317  33.0817361  33.9180205
  32.2955220  33.4691350  34.1092645  33.4742877  34.0395910  35.3143507
  32.6310500  30.7555362  34.4898541  32.4620455  29.8379112  35.0533288
  31.7219514  31.0232937  33.9513884  33.4418522  30.6001342  33.7781302
  34.7868573  32.6714982  37.0917132  34.2217156  32.9835788  38.1690240
  35.8907934  33.2624945  36.6628433  36.4256925  32.8850158  35.8937580
  36.3474499  34.4786671  37.2785827  35.8627266  34.6233098  38.2440986
  37.8586261  34.4430644  37.4918736  38.3395702  34.2239542  36.5385726
  38.3915642  35.8262137  38.0454765  37.9113816  36.0457976  38.9990533
  39.4708406  35.7698661  38.1872082  38.1601218  36.6171603  37.3320766
  38.2321401  33.3192692  38.4940515  37.9050318  32.3570016  38.1001692
  39.3125255  33.3041811  38.6377156  37.7416636  33.5059223  39.4494018
  36.0019820  35.6548553  36.3308786  36.2320541  35.5565540  35.0935247
  35.4979176  36.7433588  36.9096172  35.2823477  36.7325835  37.8962848
  35.2798225  38.0080889  36.1526970  35.5002540  37.8412617  35.0983356
  33.8470511  38.4856647  36.2782253  33.7328354  38.6207919  37.3537692
  33.7355130  39.4475757  35.7778390  32.7811660  37.5241879  35.7719918
  32.9246945  36.5539121  36.2474549  31.3588497  38.0603530  36.1069072
  31.2144014  39.0304571  35.6313743  30.6097036  37.3600615  35.7374853
  31.2549812  38.1665512  37.1867376  32.9758108  37.2730665  34.2475143
  33.9613826  36.8415453  34.0727661  32.2097997  36.5841551  33.8915238
  32.8926878  38.2174746  33.7096642  36.1769211  39.0540989  36.7672368
  36.2249488  39.1665212  37.9879139  36.9055729  39.8097917  35.9280467
  36.9367480  39.5956558  34.9415005  37.7142384  40.9157575  36.4201043
  37.3959887  41.1655811  37.4322330  39.2190334  40.5672147  36.4476515
  39.3665839  39.7267229  37.1258119  39.5255622  40.2799992  35.4418446
  40.0492597  41.7382070  36.9107662  40.0783032  42.4925753  36.1245183
  39.5485907  42.1476827  37.7881256  41.4792587  41.3327149  37.2820289
  41.6321794  40.2735024  37.8705782  42.4370021  42.0447793  36.9633958
  37.4402072  42.1079878  35.5324288  37.4876272  41.9833440  34.2982845
  37.0799563  43.2445327  36.1383836  36.8486791  43.2873619  37.1206136
  36.9474824  44.4740931  35.3345473  37.2981938  44.3000274  34.3172952
  35.4697961  44.8954891  35.2794586  35.3827563  45.7676404  34.6314806
  34.8908737  44.0726641  34.8600448  34.9760283  45.2115565  36.5607274
  34.0539406  45.4700784  36.4934926  37.8255393  45.5740910  35.9220366
  38.2263071  45.4936029  37.0791449  38.1053605  46.6170670  35.1438907
  37.8156052  46.6371173  34.1765545  38.8170358  47.7723225  35.6761284
  38.7060301  47.7737965  36.7604599  40.3468226  47.7759905  35.3288290
  40.7540443  48.6932460  35.7541666  40.8233345  46.9155038  35.7985088
  40.6172268  47.7488542  33.8183582  40.6333997  48.9409010  33.0601492
  40.4873653  49.8914608  33.5731886  40.8279552  48.9171372  31.7048092
  40.7984277  49.8472672  31.1372810  41.0138112  47.7226559  31.0553025
  41.2295842  47.7504620  29.6940153  41.2264750  48.6395091  29.3318202
  41.0306111  46.5201225  31.7643808  41.2077418  45.5731037  31.2545960
  40.8179819  46.5408713  33.1360380  40.8052565  45.6080429  33.6997483
  38.2165780  49.0337371  35.0663705  37.5291010  48.9653322  34.0219773
  38.5194499  50.1469252  35.7329183  38.8409596  50.0753993  36.6877036
  38.3379461  51.4825473  35.1594903  38.1723160  51.4418254  34.0829182
  37.1368022  52.2416143  35.8229214  36.2176075  51.6846095  35.6414662
  37.3657801  52.3738852  37.3417076  38.2846183  52.9312173  37.5239666
  36.5254568  52.9025441  37.7916821  37.4493944  51.3815464  37.7848486
  36.9372370  53.6461410  35.1545199  36.7305862  53.5174161  34.0920570
  36.0995147  54.1585014  35.6276031  37.8427057  54.2401253  35.2786564
  39.6494128  52.2031469  35.3387899  40.3680712  51.9752678  36.3232035
  40.0180968  53.0602046  34.3766391  39.4483301  53.2234653  33.5588303
  41.2873517  53.7854478  34.4958837  41.4970762  54.1722153  35.4931429
  42.4906765  52.8693605  34.0471359  42.5214352  51.9936988  34.6954951
  42.3329433  52.4161502  32.5759110  42.3025699  53.2913119  31.9268576
  43.1776689  51.7864439  32.2966099  41.4073294  51.8510181  32.4665205
  43.8229961  53.5235957  34.2883218  43.9371820  53.7354535  35.3514210
  44.6205864  52.8552676  33.9638422  43.8783301  54.4549690  33.7247771
  41.1939548  55.0203937  33.5943286  40.4277511  55.0194366  32.6418912
  41.9621433  56.0426616  33.9234345  42.4961095  56.0134693  34.7802468
  42.1024567  57.2130123  33.0589737  41.1199102  57.5809984  32.7635285
  42.8359070  58.3255480  33.8071047  43.8277529  57.9462962  34.0530907
  42.9296304  59.1728128  33.1277975  42.1334349  58.7727301  35.0817070
  40.9168638  58.5352273  35.2267041  42.8518088  59.3798129  35.9330809
  42.9422732  56.9032510  31.8046958  43.8667511  56.0904581  31.8280038
  42.6769414  57.5825504  30.6846149  41.8777963  58.1940941  30.5981235
  43.5817578  57.4609581  29.5456818  43.8913327  56.4215295  29.4368209
  42.8884290  57.9149304  28.2258204  42.4005423  58.8660965  28.4387733
  43.6800402  58.0693609  27.4926062  41.8578041  56.9261438  27.6647335
  41.7868553  57.1462873  26.5995556  42.2928805  55.9362718  27.8024427
  40.1991424  56.9533336  28.3898425  39.5414774  58.5022648  27.6516847
  39.5452911  58.4176540  26.5649808  38.5215047  58.6664694  27.9992380
  40.1669689  59.3427770  27.9523522  44.7582974  58.3742610  29.8379507
  44.5280780  59.5790776  30.1179901  46.0070472  57.8473686  29.7815737
  46.4379485  56.4424936  29.6367247  46.0073446  56.0209637  28.7284333
  46.1008874  55.8671116  30.4989453  47.9414303  56.5503942  29.5692423
  48.2389056  56.4136429  28.5295757  48.3611224  55.7475028  30.1753158
  48.3588905  57.8669607  30.0791576  49.1309429  58.2354174  29.4036772
  48.7469896  57.8473987  31.0975368  47.1319508  58.7711765  30.0069445
  46.9390192  59.3392306  30.9169941  47.3023026  59.7413281  28.8236985
  46.7469219  59.5097495  27.7466727  48.0741563  60.7932971  29.0580447
  48.5624322  60.8414775  29.9408610  48.2369231  61.9222316  28.0976697
  47.2710520  62.3707340  27.8652094  49.1368407  62.9961519  28.7399776
  48.7036550  63.2006768  29.7190685  50.1137689  62.5293755  28.8657994
  49.2982436  64.3405159  27.9490467  49.2006920  64.1403027  26.8820419
  48.4931290  65.0018764  28.2691903  50.6629512  65.0186491  28.2239654
  51.0544793  65.1957177  29.4084993  51.3602986  65.3575901  27.2445398
  48.8444163  61.3784611  26.8322707  49.8166955  60.6309300  26.8926994
  48.2531582  61.7076242  25.6733758  47.4338894  62.2979224  25.6522543
  48.7820057  61.2186519  24.4125600  48.5704090  61.9747913  23.6565315
  49.8606721  61.1157888  24.5308703  48.2082921  59.8950748  23.9588296
  48.4799919  59.4663450  22.8507976  47.3974049  59.2399450  24.7938450
  47.1824387  59.6159978  25.7062447  46.8525897  57.9386069  24.4383149
  47.1993741  57.6454280  23.4474134  47.3143963  56.8870772  25.4487450
  47.0968661  57.2711831  26.4453606  46.7819678  55.9480427  25.2976353
  48.7633633  56.6287521  25.3490012  49.5100772  57.0424773  26.2190217
  49.1982738  55.9680052  24.2555752  50.1827632  55.7701988  24.1471640
  48.5372978  55.6743051  23.5506271  45.3394127  57.9263396  24.3504452
  44.6290176  58.5835586  25.1398551  44.8455187  57.1459532  23.4041838
  45.4818560  56.6561715  22.7915762  43.4394319  56.9832455  23.1923932
  42.9155041  57.9268669  23.3446352  43.2116101  56.5268151  21.7611586
  42.1395791  56.5033765  21.5654564  43.6884041  57.2365455  21.0851037
  43.7666813  55.2152588  21.5490528  43.6125787  54.9456552  20.6406663
  42.8073726  55.9661288  24.1516181  43.5479152  55.2281144  24.8714962
  41.4662167  55.9147096  24.1558619  40.9154333  56.6328704  23.7075516
  40.7537383  54.8073431  24.8442940  41.0102872  54.8582672  25.9024474
  39.2305914  54.8398463  24.7085473  38.9807750  54.8876975  23.6486410
  38.8276695  53.9212848  25.1351604  38.6365859  56.0217430  25.4157394
  39.0105374  56.0086867  26.4395024  39.0152142  56.9056233  24.9024214
  37.1209981  56.0576830  25.4321014  36.4681139  54.9745647  25.4459184
  36.5941093  57.2048323  25.4447051  41.2161470  53.4672448  24.3106979
  41.5023935  52.5611189  25.0948840  41.3065858  53.3437324  22.9862756
  40.9918150  54.0699322  22.3588581  41.7793538  52.0872725  22.4098038
  41.1502091  51.2621544  22.7436546  41.7205803  52.1602743  20.8696969
  42.0935517  53.1480533  20.5989863  42.3743343  51.3972683  20.4471716
  40.2794840  51.9778880  20.3077176  39.3574457  51.4523121  21.0111950
  40.0810170  52.3420253  19.1025313  43.1868356  51.6976292  22.8865880
  43.4378541  50.4961736  23.2282897  44.1054074  52.6641098  22.9098072
  43.8619091  53.6221228  22.7023972  45.4866383  52.3712092  23.3490981
  45.9375125  51.6605365  22.6564538  46.3423747  53.6154561  23.3891561
  45.7479009  54.3614337  23.9166194  47.2477784  53.4044741  23.9582174
  46.7267748  54.1571375  21.9904235  46.6358669  53.4159459  20.9696175
  47.1603030  55.3437709  21.9999867  45.4410986  51.8817923  24.7977813
  46.1637128  50.9223713  25.1789639  44.6073736  52.5607405  25.5937166
  44.0021605  53.2756682  25.2159670  44.5982696  52.3315547  27.0767254
  45.6312623  52.3500545  27.4241200  43.8273067  53.4771467  27.7624223
  42.7772129  53.4361895  27.4730682  43.9457334  53.3230097  29.3032980
  44.9955847  53.3643363  29.5934773  43.4019749  54.1310662  29.7926552
  43.5228753  52.3652930  29.6067291  44.4770428  54.7255651  27.3823322
  44.0198855  55.4624994  27.7940788  44.0043339  50.9996386  27.4018297
  44.6146178  50.1965899  28.1942489  42.8506330  50.7242705  26.7915570
  42.2927267  51.4375901  26.3443266  42.2849281  49.3768724  26.9186832
  42.2288426  49.1167893  27.9757122  40.8778902  49.2735493  26.3126355
  40.9301464  49.6172114  25.2795504  40.5791705  48.2254538  26.3316727
  39.8360813  50.1217290  27.0870814  39.7546409  49.6988023  28.0883812
  40.2292829  51.1362243  27.1526090  38.4405658  50.1525963  26.4266629
  37.8239479  50.9118023  26.9077944  38.5416413  50.3855507  25.3666556
  37.7837118  48.8693952  26.5589456  38.2168279  48.2003549  27.1793447
  36.6680998  48.5182872  25.9261850  36.0766405  49.3577542  25.0763432
  36.4781797  50.2694921  24.9102100  35.2296538  49.0782467  24.6024353
  36.1390345  47.3199621  26.1474853  36.5864974  46.6851875  26.7931929
  35.2917768  47.0492026  25.6690060  43.2123760  48.2879270  26.3867542
  43.3059862  47.2175283  26.9850056  43.9075016  48.5161410  25.2781403
  43.8299990  49.3718332  24.7472132  44.8024494  47.4670631  24.7792315
  44.2299510  46.5514074  24.6311791  45.4609231  47.8589198  23.4398131
  45.8327233  48.8784538  23.5418633  46.2990761  47.1818928  23.2747858
  44.5053521  47.7829882  22.2535963  43.9278569  46.8586240  22.2658806
  43.8258689  48.6350641  22.2343249  45.5461676  47.8163476  20.7676773
  47.2134311  48.1253546  21.4425707  47.4842741  47.3204976  22.1259069
  47.9345639  48.1663036  20.6262427  47.2186453  49.0740822  21.9792177
  45.9136094  47.1304159  25.7599104  46.2676153  45.9634586  25.9279531
  46.5308597  48.1737239  26.3192900  46.2800151  49.1047461  26.0186672
  47.5907164  48.0287604  27.3294873  48.4213929  47.4608994  26.9104293
  48.1212183  49.4300658  27.7834839  48.5570254  49.9102675  26.9073688
  47.3459564  50.0723469  28.2012687  49.2234119  49.3447833  28.8258020
  50.5421566  49.2106568  28.4373337  50.7738626  49.2069991  27.3722521
  51.5837189  49.0795736  29.3896288  52.6188183  48.9858229  29.0611768
  51.2847106  49.0709139  30.7323068  52.0854690  48.9913549  31.4675321
  49.9496819  49.1644244  31.1559058  49.7125030  49.1171424  32.2187373
  48.9166212  49.3192290  30.2094434  47.8833694  49.4191039  30.5418822
  47.0524359  47.2416295  28.5589380  47.5818042  46.1654273  28.8902490
  45.9899261  47.7473314  29.2044599  45.5749814  48.6244074  28.9239996
  45.4608748  47.0744741  30.4170772  46.2953824  46.9547188  31.1079860
  44.3634152  47.9455271  31.1064067  43.5171775  48.0667501  30.4301768
  44.0299285  47.4542478  32.0204808  44.7759777  48.9244786  31.3504259
  44.9267807  45.6589348  30.0988984  45.1555303  44.6924749  30.9060613
  44.2465788  45.5084860  28.9587249  44.0473307  46.3028506  28.3676374
  43.7249558  44.1683140  28.5455923  43.0579108  43.7823088  29.3164036
  42.9387054  44.2670826  27.2147399  43.5571760  44.8127053  26.5020765
  42.7935949  43.2460046  26.8619756  41.5843832  44.9570483  27.3448771
  41.1140451  45.3185980  28.4577701  40.9994984  45.1401838  26.2456086
  44.8353968  43.1214043  28.3745783  44.6978939  41.9382817  28.8190080
  45.9728670  43.5290786  27.7892714  46.0628869  44.4631124  27.4156717
  47.0920456  42.6169084  27.6389193  46.8089685  41.7606895  27.0266646
  48.2769738  43.3406718  26.9585417  48.5249925  44.2225134  27.5492550
  49.5175203  42.4296669  26.8492561  49.2703884  41.5477749  26.2582469
  50.3279802  42.9750417  26.3657065  49.8317837  42.1217155  27.8465049
  47.8357596  43.7302727  25.6566115  48.5474707  44.1851531  25.2003753
  47.5128214  42.0699411  28.9958322  47.7111540  40.8277922  29.1661243
  47.6318736  42.9671598  29.9807297  47.4948820  43.9544780  29.8178326
  48.0700804  42.5289401  31.3356143  48.9300882  41.8649643  31.2483108
  48.4641767  43.7452778  32.2587479  47.6413176  44.4601218  32.2593984
  48.7544283  43.2764210  33.7375221  49.5775343  42.5618599  33.7377315
  49.0230195  44.1394364  34.3467542  47.8634753  42.8036910  34.1508387
  49.6962042  44.4205748  31.6889987  49.4819703  44.7787472  30.6820635
  49.9749874  45.2629521  32.3220706  50.5186878  43.7062216  31.6526521
  46.9926717  41.6678176  32.0114054  47.2979548  40.5645098  32.5484642
  45.7626474  42.1847260  32.0572621  45.5666562  43.0924995  31.6602305
  44.6755945  41.4862878  32.7860139  45.0235457  41.2944121  33.8010079
  43.3612843  42.3418825  32.8595553  43.0550938  42.6207137  31.8512896
  42.2338756  41.5155261  33.5319835  42.5391691  41.2367027  34.5405242
  41.3239202  42.1136164  33.5806622  42.0451766  40.6147466  32.9479538
  43.6016000  43.6064392  33.7147224  44.3940816  44.2046187  33.2649933
  42.6848585  44.1943023  33.7605674  43.8956074  43.3135994  34.7226437
  44.4022284  40.1142702  32.1659166  44.2502083  39.0971698  32.8773143
  44.4144456  40.0333499  30.8426375  44.5696035  40.8191743  30.2274096
  44.0965531  38.7326771  30.2429688  43.1940962  38.3358978  30.7079817
  43.8576142  38.8452488  28.7105858  44.7091738  39.3840788  28.2951251
  43.8434843  37.8293168  28.3158928  42.5544041  39.5656469  28.3192803
  41.7286437  38.9960568  28.7456460  42.5834494  40.5567449  28.7720309
  42.3461091  39.7062334  26.7517387  42.0526512  38.7325459  26.3594197
  41.5441090  40.4238305  26.5786790  43.6050541  40.1760173  26.0479528
  43.7235141  41.2415814  26.2445256  44.4502658  39.6329210  26.4707561
  43.5519181  39.9417264  24.5526724  42.7690476  40.4452337  24.1606343
  44.4086892  40.2693408  24.1299288  43.4425822  38.9543639  24.3702994
  45.1822317  37.6842475  30.5231283  44.8609825  36.5096197  30.7298710
  46.4571467  38.0917125  30.4880712  46.7033520  39.0403878  30.2441500
  47.5192610  37.1667618  30.7905617  47.4500082  36.2858207  30.1524035
  48.8721062  37.8503969  30.5386844  48.7606732  38.2369357  29.5256347
  49.0189775  38.6805199  31.2296437  50.0989571  36.9056350  30.5986499
  50.1298056  36.4471385  31.5870477  50.0280736  35.8137488  29.5333884
  49.9976607  36.2714961  28.5446310  50.9067329  35.1732668  29.6098166
  49.1291590  35.2160159  29.6842807  51.3902965  37.7195325  30.5014004
  51.4395527  38.4243273  31.3314231  52.2477639  37.0479600  30.5443088
  51.4051416  38.2671517  29.5590673  47.4077682  36.7333835  32.2665737
  47.6315212  35.5487001  32.6125518  47.1137048  37.6873261  33.1408187
  46.9422391  38.6407065  32.8548735  47.0438401  37.3598212  34.6035669
  47.9884249  36.9277504  34.9339815  46.7774536  38.6226430  35.4114068
  45.9780531  39.1653330  34.9068816  46.4576141  38.3603335  36.4198693
  48.0214234  39.5492525  35.5101270  49.1122998  39.1495315  35.2179271
  47.8085330  40.7754929  35.9651228  48.5810829  41.4205046  36.0501307
  46.8747030  41.0594435  36.2248044  45.9165267  36.3452914  34.8309055
  46.0806317  35.4000097  35.6322756  44.7638011  36.5596502  34.1775550
  44.5849583  37.3952025  33.6390692  43.6541540  35.5883641  34.3603191
  43.5382447  35.4126363  35.4297975  42.3000038  36.0506592  33.7875586
  42.4935096  36.2832247  32.7403872  41.5707547  35.2430333  33.8510896
  41.7417527  37.3070142  34.5003706  42.4964225  38.0923026  34.5439203
  40.5514001  37.7921562  33.6838984  39.7960578  37.0075193  33.6402867
  40.1260827  38.6795573  34.1526469  40.8788108  38.0371427  32.6735102
  41.3619535  36.9878670  35.9652953  42.2451428  36.6436439  36.5034279
  40.9725247  37.8862528  36.4441998  40.6001485  36.2084643  35.9821352
  44.0342100  34.2197931  33.7986994  43.6663377  33.1534800  34.3857108
  44.7681789  34.2088333  32.6789907  44.9945258  35.0603884  32.1853104
  45.2092467  32.9217380  32.0965555  44.3478315  32.2635028  31.9834646
  45.8570648  33.1197189  30.7239758  46.4053582  34.0617375  30.7326119
  46.5507174  32.2978004  30.5467863  44.8330207  33.1498860  29.6365695
  44.6608268  32.1066726  29.3716999  43.8955446  33.6012341  29.9614165
  45.3307651  33.8956973  28.3923360  46.5306581  34.2182444  28.2772437
  44.3993639  34.2465157  27.5099980  44.6645148  34.7403116  26.6697826
  43.4312275  34.0175024  27.6842573  46.1702092  32.2303505  33.0549184
  46.0848462  30.9893469  33.2515635  47.0528742  33.0002028  33.6940670
  47.1572810  33.9806705  33.4752484  48.0027651  32.3889537  34.6582827
  48.3875474  31.4605667  34.2362171  49.2005120  33.3243889  34.9734735
  49.7726565  33.4774315  34.0584173  48.8122577  34.2810810  35.3228999
  50.1252128  32.7084310  36.0672781  49.4835617  32.3984938  36.8920954
  50.6008014  31.8314114  35.6282404  51.2140194  33.6757430  36.5957502
  51.9132259  33.8536830  35.7787149  50.7174408  34.6098737  36.8582551
  51.9980751  33.1285043  37.8475599  51.2910611  33.0698946  38.6750843
  52.3502018  32.1271953  37.5995957  53.1982324  34.0087837  38.2578824
  52.8721061  34.9365434  38.4881067  53.6539803  33.6027694  39.0625850
  53.8536928  34.0628732  37.4913674  47.2714606  31.9415419  35.9340983
  47.5591982  30.8666174  36.4848517  46.2720724  32.6950879  36.3733995
  46.0853680  33.6075081  35.9825923  45.4277522  32.2259627  37.4957519
  46.0427057  32.1052431  38.3875804  44.3105326  33.2288180  37.8033502
  44.8647018  34.1100517  38.1264954  43.7476547  33.4651495  36.9003464
  43.3354713  32.7972897  38.9186159  42.8144838  31.8952642  38.5976439
  44.1067084  32.5080612  40.2658583  44.6276019  33.4098209  40.5877253
  43.3954804  32.2059486  41.0346128  44.8301645  31.7084840  40.1065224
  42.2347797  33.8399055  39.0935683  41.6822395  33.9458425  38.1599859
  41.5545721  33.5218283  39.8836606  42.6802859  34.7977503  39.3621881
  44.8280527  30.8490348  37.1545712  44.8173861  29.9483324  38.0113811
  44.2888722  30.7114979  35.9548721  44.2222621  31.4833796  35.3069052
  43.6907309  29.4299194  35.5723625  42.9037502  29.2106859  36.2939560
  43.0713188  29.5098221  34.1880398  43.8485305  29.7198251  33.4532332
  42.5924091  28.5604530  33.9483647  42.3278170  30.3066183  34.1675432
  44.7167133  28.2706875  35.6380243  44.4031824  27.1792679  36.1786710
  45.9201418  28.5166908  35.1036880  46.0770525  29.3919834  34.6247922
  47.0050585  27.5016908  35.0895570  46.6699503  26.5880542  34.5985683
  48.2248456  28.0649404  34.3106390  48.4781782  29.0356884  34.7367508
  49.4731031  27.1177079  34.3895691  49.2206605  26.1468457  33.9631903
  50.2987714  27.5564158  33.8292955  49.7683107  26.9908547  35.4311358
  47.8104096  28.2081707  32.9414302  48.5386587  28.5557160  32.4213669
  47.3645424  27.0544329  36.4961620  47.3984941  25.8337143  36.7907791
  47.5951120  28.0381852  37.3712015  47.5304810  28.9971171  37.0607634
  48.0052727  27.7858306  38.7302818  48.8468256  27.1014566  38.8376135
  48.3450672  29.1094918  39.4673616  47.5485723  29.8245478  39.2614734
  48.4816620  28.9108003  41.0203129  49.2783319  28.1961735  41.2270169
  48.7196876  29.8653201  41.4897128  47.5418391  28.5329005  41.4228378
  49.5709289  29.7622496  38.8431058  49.3723302  29.9804698  37.7938010
  49.7975346  30.6892104  39.3698821  50.4217020  29.0850064  38.9181234
  46.9198315  27.0113576  39.4691391  47.2244982  25.9524520  40.1003152
  45.6656520  27.4798163  39.3952663  45.4716063  28.3482181  38.9174337
  44.5636799  26.8136970  40.1060487  44.8949562  26.7265842  41.1408272
  43.2759308  27.6442469  40.0723135  42.9268297  27.7326492  39.0435213
  42.5108314  27.1538855  40.6742014  43.4730439  28.6376927  40.4751919
  44.3061933  25.3744100  39.5832842  44.0616618  24.4427203  40.3758525
  44.3805555  25.2092288  38.2669399  44.4941291  26.0142932  37.6677139
  44.1628961  23.8940480  37.6369258  43.2488293  23.4491380  38.0301639
  44.0284265  24.0259675  36.1173811  44.8008019  24.6967796  35.7411543
  44.1434595  23.0451821  35.6559405  42.6468474  24.5936305  35.7725971
  41.9062377  23.8276550  36.0025531  42.5080282  25.4444122  36.4396794
  42.4821158  25.0305829  34.3832645  43.4545338  24.8780036  33.6114538
  41.3786921  25.5070458  34.0210973  45.2753218  22.9036940  38.0698393
  44.9981958  21.7483793  38.4286122  46.5111317  23.3657207  38.1032207
  46.7475496  24.2725768  37.7266335  47.5890888  22.5233004  38.6034881
  47.5522038  21.5804144  38.0578650  48.9160318  23.1688437  38.3536339
  48.9716146  24.1099234  38.9007897  49.7125769  22.5055524  38.6907703
  49.0316887  23.3618728  37.2871150  47.4027413  22.1875785  40.0973045
  47.6095766  21.0343300  40.5130869  47.0280665  23.1777931  40.9125567
  47.0090498  24.1345379  40.5894823  46.7273442  22.9150823  42.3186701
  47.5841807  22.4213980  42.7771527  46.4301354  24.1907087  43.0921003
  45.7098479  24.7764085  42.5209253  45.9934137  23.9143022  44.0517740
  47.6624288  25.0038920  43.3217867  48.3414097  24.4449105  43.9657009
  48.1455665  25.1942572  42.3634333  47.2619165  26.5768891  44.1063986
  46.7830121  26.1023629  45.7810625  47.6164726  25.5962995  46.2682406
  46.5171505  26.9934351  46.3497528  45.9258442  25.4304328  45.7377699
  45.5833928  21.9328894  42.4954963  45.6485564  21.0937335  43.4005433
  44.5771475  22.0095338  41.6203706  44.5811402  22.7574612  40.9416305
  43.4182242  21.1221454  41.6659376  43.0244078  21.1902165  42.6800254
  42.3298004  21.5731018  40.6868252  42.7061713  21.5018556  39.6663503
  41.4542402  20.9331409  40.7961165  42.0534327  22.6056382  40.9003401
  43.7955638  19.6435287  41.4171254  43.2160310  18.7527881  42.0448809
  44.7345660  19.3984192  40.5073055  45.0890391  20.1607454  39.9475673
  45.2374581  18.0202529  40.2265669  44.3714170  17.3639948  40.1405592
  46.0061225  17.9954910  38.8967399  45.3587087  18.3519769  38.0955705
  46.8813542  18.6409812  38.9703057  46.4511941  16.5687785  38.5933805
  47.0990608  16.2117463  39.3939413  45.5764163  15.9227416  38.5192033
  47.2142582  16.5441965  37.2732465  46.5668459  16.9006840  36.4720767
  48.0894903  17.1896854  37.3468141  47.6629356  15.1724703  36.9454402
  47.4366017  14.4253279  37.5862604  48.3505680  14.8786855  35.8455526
  48.6859468  15.8076891  34.9548373  48.4162912  16.7691261  35.1065764
  49.2087453  15.5474669  34.1307828  48.7035972  13.6114366  35.6497175
  48.4473199  12.9084121  36.3280821  49.2263433  13.3579373  34.8235376
  46.1280716  17.4704961  41.3667340  46.2208342  16.2473110  41.5750307
  46.7869564  18.3775602  42.0954895  46.6480285  19.3505504  41.8629202
  47.8198521  18.0375600  43.0900408  48.3484621  17.1320852  42.7920706
  48.8421609  19.1974737  43.1899950  49.7386508  18.9176522  42.6367274
  48.3950112  20.0805720  42.7336020  49.2431971  19.5405006  44.6345124
  49.6599683  18.6726107  45.4005795  49.1190956  20.8287554  45.0010563
  49.3683101  21.1101339  45.9385093  48.7772631  21.5088244  44.3371606
  47.2732367  17.6019377  44.4572675  46.1745054  18.0018865  44.8692014
  47.8818150  16.7804985  45.1394035  50.8152779  46.6049490  35.2704742
  49.4292790  46.7822812  35.3642052  48.6737637  46.0310717  36.2661508
  49.3147961  45.0939733  37.0853882  50.7025095  44.9048481  37.0357480
  51.4391153  45.6701212  36.1065692  52.1723017  48.5924115  34.5541417
  52.3006522  49.1461523  35.6394556  51.4986022  47.4007161  34.3276865
  51.0012820  47.4512779  33.4445052  52.8672392  50.7003018  33.3701226
  52.7670973  49.1792538  33.2690805  54.1410791  48.5788727  32.9746628
  51.4159888  43.9271319  37.9327520  51.3637933  44.2806595  39.2454484
  52.7448423  43.8187383  37.6481183  50.9180633  42.6668181  37.8417997
  48.4788251  44.3100480  37.9847738  48.3321128  44.7429531  39.1355573
  47.9524397  43.2927001  37.5215224  48.9229903  47.5182420  34.7424236
  47.5968988  46.1777838  36.3232269  52.5208728  45.5544808  36.0392650
  51.8889133  51.1389876  33.5978312  53.5599103  51.0064319  34.1608926
  53.2193551  51.1303846  32.4270483  52.0959217  48.9477934  32.4328752
  54.0738390  47.4906932  32.8647165  54.5581432  48.9877014  32.0487349
  54.8443165  48.7825573  33.7898313  38.9468530  61.7076677  35.3140595
  44.1870029  15.3977567  46.2478314  32.5319142  58.7397025  26.7948370
  53.2865422  48.8596846  52.4180313  27.7718077  29.0038362  52.2428691
  12.5558180  60.0231905  64.3040655  72.0515749  45.5177406  15.1761029
  44.1832667  23.6368079   4.1962590  66.0518839  23.2147473  59.5872907
  56.6179179  34.1856478  81.9821457  52.0272865  36.4629412   9.2216668
  51.3589104   9.8145089  34.9156619  39.1886102  66.2066717  44.7652148
  70.8988018  29.2755573  56.4151333  32.2767050   9.6551395  49.4793093
  42.6222507  31.6790877   2.9072032  24.4352238   6.6609828  41.5937648
  14.3650179  21.3689881  51.4841435  44.7051011  11.7405165  16.0076604
  30.1855003  71.3419632  34.3687340  43.2046579  17.8217193   7.3570263
  55.8224677  10.4378599  25.8709827  26.2606866  59.0207251  15.6120535
  47.9787539  32.2993248  18.2139098  63.3514212  56.7891118  30.3231134
  25.1242185  46.3974514  48.5652066  21.1421569  18.2758435  45.9608561
  32.6264605  38.3197428  27.7904434  45.3948196  14.3207978  49.2502068
  66.8396949  26.9577600  16.1052412  16.2222214  71.4310056  63.7886949
  69.3372219  12.9344951  36.9421537  24.5004081  46.8422262   8.0466417
  62.4612096  43.7822771  11.1038748  69.8522951  35.4635096  34.8081816
  75.5996501  13.7984122  41.1917552  12.8264562  45.5975403  57.8050472
  11.7538017  31.1054984  59.4822282  15.1897659  33.0776379  24.9323177
   8.5343576  11.6449221  52.8792652  32.5480176  73.9359728  39.1685748
  64.4067416  75.2459576  53.5622201  57.8026264   6.6298279  58.2903805
  53.2796787  38.8180411  73.7139461  18.2967598  39.2028029  74.6482205
  33.7372065  78.4031336  65.7048441  21.3054284  64.7159855  19.2819376
  16.0479377  57.1056324  22.0092484  16.3590529  44.5631874   3.0572962
  77.9545994  19.0983357  55.8501551  22.2735824  73.6554425  27.2659566
   6.9322106  13.7661802  47.5335379  40.5963286  35.9652865  -2.2355844
  54.5056986  32.2964671  29.1578015  61.3146061  64.4464577  41.2055631
  67.2045667  35.3871672  45.5470123  69.3280610  52.5201232  39.2855817
  55.6778724  29.8852447  -0.4685244  48.3995662  57.6016780  68.0628588
  14.4009528  26.1877395  50.0069974  15.7722362  50.8106597  75.8666757
  44.7152024  38.3020595  85.7192813  44.1863495  38.5180228  86.3790119
  45.2377044  38.9956733  85.6393782  44.7140477  38.4363732  85.8048412
  36.6051631  42.1983812  84.5200281  36.0208847  42.7033843  84.9266145
  36.2021727  41.9726198  83.7796873  36.4590935  42.2392060  84.4705306
  41.0628846  38.4449464  82.9969202  41.3024850  38.6527447  82.1844545
  41.3844687  37.6406972  83.1058146  41.1466004  38.3563565  82.8929755
  34.2738228  36.0587351  82.0529326  33.5596405  35.7725530  82.4651758
  34.7582196  36.3983977  82.6935713  34.2397591  36.0669001  82.2084961
  41.4485546  44.5617305  82.4291134  41.8636694  44.2302329  81.7375630
  40.6177475  44.3286207  82.3011271  41.3873554  44.4788561  82.3081981
  44.1418936  40.8127864  81.6152335  44.0599098  40.8830051  82.4807322
  44.7798656  41.3757608  81.4236076  44.2238773  40.9066835  81.7142285
  41.2459046  40.8348319  84.6260942  42.0599685  41.1263211  84.5143713
  41.1818187  40.1808181  84.0519235  41.3561785  40.7813513  84.5249779
  37.7569769  39.5272126  84.0908143  38.1414922  39.3079833  84.8424688
  37.5081390  40.3535071  84.2209220  37.7771842  39.6170272  84.2209220
  42.6835068  44.0510119  79.9676747  43.4508053  44.1110244  79.5582599
  42.2366377  43.4790560  79.4833066  42.7308495  43.9746694  79.8354457
  38.7309669  40.3228885  81.4313857  39.0202193  41.0993767  81.7057432
  38.8181467  39.8117616  82.1328357  38.7863925  40.3620803  81.5756355
  43.5241288  35.7162148  85.6867544  42.9964306  35.7990892  84.9973253
  43.9836996  36.4580019  85.6832189  43.5143138  35.8382810  85.5842239
  35.5174353  33.9864668  80.7108439  35.1687157  34.6384393  81.1739989
  35.0370799  33.9721781  79.9832310  35.3944597  34.0807721  80.6719531
  35.9198484  37.4790309  83.5527061  36.5543563  38.0750734  83.4876522
  36.0024095  37.1793767  84.3672931  36.0255035  37.5231217  83.6630147
  40.5588578  35.3512408  85.0263166  39.9653417  35.6729405  84.4747734
  40.5963855  34.5053504  84.8184273  40.4762967  35.2736737  84.9145938
  38.5317810  35.9909659  83.1192496  38.9116775  36.0089288  82.3343611
  37.7910406  36.4363648  82.9983344  38.4786648  36.0591434  82.9856065
  39.3302564  42.8287165  84.5101286  38.5213887  42.5053839  84.4634596
  39.8377473  42.1220387  84.4429535  39.2852231  42.6768481  84.4931581
  47.9338534  15.3153985  74.5702525  47.9032539  16.1698622  74.7420795
  48.5319883  15.0149278  75.1288669  48.0175692  15.3970482  74.6777327
  35.5179359  23.9392354  75.0892687  34.7662258  23.5607893  74.8608732
  35.9665371  23.9710788  74.3411497  35.4729026  23.8877961  74.9450189
  40.9704319  24.3617724  70.5178234  40.6355687  25.0394645  70.0822456
  41.4831189  23.9723035  69.9295106  40.9969900  24.4042302  70.3665026
  40.5108610  26.3131993  76.4589346  40.8947989  26.8818891  75.9194121
  40.4467751  25.5881503  75.9795162  40.5582037  26.2907456  76.3083208
  45.7555109  17.8906287  72.8420835  45.6394635  18.6413974  73.2712973
  46.5510995  17.6330241  73.0916922  45.8559698  17.9641134  72.9424927
  36.9364855  28.8688336  78.7570316  37.5802310  29.3101500  79.1466474
  37.2621110  28.0641762  78.6700574  37.0796683  28.8153530  78.8015793
  37.6385434  21.8800310  74.1290177  37.9601275  22.4205518  73.5251485
  38.2857531  21.3097082  74.2612467  37.7811489  21.8759486  74.0597213
  39.8775078  20.2686750  74.2004356  40.3168713  19.6603851  74.6459128
  39.7279741  19.8894124  73.4289821  39.9196543  20.1225222  74.1523523
  43.4784414  18.6213932  71.1535125  43.3935709  19.4774898  71.2984694
  43.9668798  18.3458256  71.8217284  43.5373312  18.7071253  71.2737206
  44.4102848  15.2398726  72.6532860  43.8814319  15.4558359  73.3130166
  44.9327867  15.9334864  72.5733829  44.4091301  15.3741863  72.7388459
  49.8650900  20.8145030  78.0265904  49.0348604  21.0255674  78.1899321
  49.8160153  19.9882085  77.7508188  49.7357636  20.7234637  78.0103270
  36.3002455  19.1361943  71.4540328  35.7159671  19.6411974  71.8606192
  35.8972551  18.9104330  70.7136920  36.1541759  19.1770191  71.4045353
  40.7579670  15.3827595  69.9309249  40.9975673  15.5905579  69.1184592
  41.0795511  14.5785103  70.0398193  40.8416828  15.2941696  69.8269802
  47.1215216  21.4844385  78.1630620  46.6850448  21.4881127  78.9189592
  46.7878131  22.1649884  77.7310198  47.0077836  21.5856841  78.2111453
  50.2559562  18.2025305  77.0550257  50.9175996  17.6415973  76.9546166
  49.6150974  17.7077335  77.3802949  50.2588429  18.0461714  77.0882598
  41.1436370  21.4995436  69.3631181  41.5587518  21.1680460  68.6715676
  40.3128299  21.2664338  69.2351317  41.0824378  21.4166692  69.2422028
  46.5424393  19.2190687  76.7962246  46.7779982  19.3635886  75.9689097
  46.6913956  19.9833095  77.1893760  46.5990196  19.3529741  76.7325850
  48.3714849  18.0592353  74.6331850  48.7023066  18.5919993  74.0271945
  48.9447937  18.1131241  75.2893801  48.5048528  18.1461922  74.6409632
  43.8369760  17.7505996  68.5492382  43.7549922  17.8208183  69.4147369
  44.4749480  18.3135739  68.3576123  43.9189597  17.8444967  68.6482332
  40.9409870  17.7726450  71.5600989  41.7550509  18.0641343  71.4483760
  40.8769011  17.1186312  70.9859282  41.0512609  17.7191645  71.4589826
  37.4520593  16.4650257  71.0248190  37.8365746  16.2457964  71.7764735
  37.2032214  17.2913202  71.1549266  37.4722666  16.5548403  71.1549267
  37.7343836  24.6855133  73.0980560  38.0242134  24.2944114  72.3739787
  38.4647317  24.8671838  73.5385836  37.8850720  24.6548947  73.0563367
  35.6749751  26.6622515  76.1640710  35.4550047  26.3719870  76.9567377
  35.4544273  26.0037470  75.6358622  35.6097346  26.5222224  76.2029619
  37.8417707  28.0351905  74.9471402  38.4941765  27.5028348  75.1762429
  37.1443316  27.6820558  75.3339277  37.8348425  27.9041428  75.0383570
  45.8357626  20.3556319  74.2902382  46.4015658  21.0149529  74.2060925
  45.1885529  20.7006017  74.7618784  45.8236382  20.5038261  74.3475138
  42.3064204  23.2995104  73.7139461  42.0650880  22.5662964  73.3066526
  42.4865537  23.8481961  73.0605794  42.2971828  23.2717495  73.5569684
  47.0320323  20.4062547  71.0828018  46.6527132  19.6199685  71.0757308
  46.3686569  20.9549404  70.9399662  46.8778798  20.3707371  71.0608815
  39.8567232  23.9576066  74.9216844  40.6217123  23.6885710  74.5999509
  39.7545322  23.4726076  75.6386907  39.9548727  23.8465631  74.9796672
  42.3785892  20.9888250  66.9016794  43.1458877  21.0488375  66.4922646
  41.9317201  20.4168691  66.4173112  42.4259319  20.9124826  66.7694504
  45.2780422  22.6508038  71.4179704  45.3600260  23.4575024  71.0941155
  45.7630164  22.6703997  72.1420478  45.3617580  22.7728700  71.4766603
  40.9138515  17.2002809  74.3871118  41.4554061  16.6973190  74.8509738
  41.2285074  17.1468004  73.5760603  41.0402912  17.1182230  74.3354930
  39.0824965  22.5920161  71.6711146  39.1517785  21.7334699  71.8104146
  39.8613420  22.8092041  71.3430170  39.2077815  22.4973024  71.6428303
  43.4732452  25.0157862  75.8847639  43.0812244  24.7124577  75.1670505
  43.6285525  25.8526952  75.6952593  43.4386042  25.0941699  75.7504136
  43.6372127  21.5807851  75.8253670  43.2786782  21.7522494  76.6017702
  43.1510838  22.0421056  75.2681668  43.5130824  21.6746822  75.8578939
  38.4260493  17.2607016  68.3653904  38.7153017  18.0371899  68.6397478
  38.5132291  16.7495747  69.0668403  38.4814749  17.2998934  68.5096402
  44.2422758  24.4193355  79.3177673  44.0442446  24.9084169  78.6233885
  43.6210469  24.6234596  79.8961807  44.1210322  24.5209893  79.3000897
  43.2192111  12.6540279  72.6207591  42.6915130  12.7369023  71.9313300
  43.6787820  13.3958151  72.6172236  43.2093962  12.7760942  72.5182286
  35.2125177  10.9242799  67.6448486  34.8637981  11.5762524  68.1080035
  34.7321622  10.9099912  66.9172357  35.0895421  11.0185852  67.6059577
  42.7729194  21.2243843  71.7517248  43.4963393  21.6901956  71.6081821
  42.3329785  21.2917452  71.0014845  42.8144886  21.3027679  71.6202029
  43.0333044  25.2864548  71.9115309  42.3162353  25.1125410  71.4462546
  43.6839781  25.0517120  71.3790795  43.0234894  25.2260340  71.7644527
  38.3146206  26.5226306  78.3405457  37.9006604  25.8600437  77.9509299
  38.9993580  26.6704165  77.8201151  38.3544577  26.4466965  78.2061954
  41.6811500  25.6816392  79.0929074  41.2827783  25.7918662  78.3249894
  41.0662719  25.8898458  79.6755633  41.5310389  25.7289960  79.0660373
  49.4153342  20.2568358  72.4772164  49.7986948  21.0059714  72.7070261
  48.6197456  20.5034178  72.2184153  49.3547125  20.4038052  72.4729738
  38.2268634  12.9287790  70.0532543  38.6067599  12.9467419  69.2683658
  37.4861230  13.3741779  69.9323390  38.1737472  12.9969565  69.9196111
  39.0253388  19.7665296  71.4441333  38.2164711  19.4431970  71.3974643
  39.5328297  19.0598518  71.3769582  38.9803055  19.6146613  71.4271628
  58.9071118  30.8339293  74.5702525  58.8765122  31.6883930  74.7420795
  59.5052467  30.5334586  75.1288669  58.9908276  30.9155790  74.6777327
  52.1070803  29.9214944  79.3255456  51.2508698  30.0823443  79.3764572
  52.1538456  29.0507008  79.3460517  51.9869914  29.8165746  79.3361522
  46.4911942  39.4577662  75.0892687  45.7394842  39.0793201  74.8608732
  46.9397954  39.4896096  74.3411497  46.4461609  39.4063269  74.9450189
  51.9436902  39.8803032  70.5178234  51.6088271  40.5579953  70.0822456
  52.4563773  39.4908343  69.9295106  51.9702483  39.9227610  70.3665026
  51.4841194  41.8317300  76.4589346  51.8680573  42.4004199  75.9194121
  51.4200335  41.1066811  75.9795162  51.5314621  41.8092764  76.3083208
  54.9522624  31.9806988  81.9687107  55.4978584  32.6592075  82.0281077
  54.8939500  31.8394449  81.1088689  55.0238538  32.0598990  81.8499168
  48.0696699  39.4696054  77.3555460  48.1707062  38.6596408  77.6652587
  47.4738444  39.3753001  76.7255138  47.9969237  39.3361082  77.3081698
  56.7287692  33.4091595  72.8420835  56.6127218  34.1599281  73.2712973
  57.5243579  33.1515549  73.0916922  56.8292282  33.4826442  72.9424927
  47.9097438  44.3873644  78.7570316  48.5534894  44.8286808  79.1466474
  48.2353694  43.5827070  78.6700574  48.0529267  44.3338838  78.8015793
  41.2661743  35.4916341  76.9807793  41.0311927  34.6583993  76.8740062
  41.4047384  35.7721007  76.1668994  41.2517405  35.4099844  76.8450148
  43.5651830  27.6602072  79.8792101  42.9456862  27.0694719  79.7102116
  43.4635694  28.2513507  79.2456424  43.4589506  27.6606154  79.7597091
  48.6118018  37.3985618  74.1290177  48.9333859  37.9390826  73.5251485
  49.2590114  36.8282390  74.2612467  48.7544073  37.3944794  74.0597213
  50.6619726  29.4001613  74.2124564  51.3599891  29.5789741  74.7046027
  50.9772058  28.8771953  73.5894953  50.8115063  29.3495385  74.1926574
  43.2920963  31.2054353  82.1235670  43.1679660  31.7916799  82.7585489
  43.9439248  30.7114549  82.4247945  43.3694613  31.2193158  82.2621599
  50.8507661  35.7872058  74.2004356  51.2901297  35.1789159  74.6459128
  50.7012324  35.4079432  73.4289821  50.8929127  35.6410530  74.1523523
  48.3179304  34.3816070  81.4023181  48.9628307  33.8888513  81.0834130
  48.5581081  34.5240857  82.2289259  48.4489889  34.3293512  81.4772714
  50.8565396  37.2270976  81.0530074  51.1388639  36.4322382  80.8316829
  51.5851556  37.7051564  81.0735135  51.0054959  37.1805573  81.0233089
  48.8346590  24.7694010  78.2945839  48.5049920  25.2205154  77.6249537
  48.1591591  24.6910173  78.8418845  48.6857026  24.8245145  78.2769062
  54.4516998  34.1399240  71.1535125  54.3668293  34.9960206  71.2984694
  54.9401381  33.8643564  71.8217284  54.5105895  34.2256561  71.2737206
  56.0422997  20.7579533  76.5395449  55.7276438  21.4483012  76.9715872
  55.5249939  20.7024315  75.8380950  55.9187468  20.8514421  76.4992399
  55.3835431  30.7584034  72.6532860  54.8546903  30.9743667  73.3130166
  55.9060451  31.4520172  72.5733829  55.3823884  30.8927171  72.7388459
  60.8383484  36.3330338  78.0265904  60.0081187  36.5440982  78.1899321
  60.7892736  35.5067393  77.7508188  60.7090219  36.2419945  78.0103270
  47.2735039  34.6547251  71.4540328  46.6892254  35.1597282  71.8606192
  46.8705134  34.4289638  70.7136920  47.1274343  34.6955499  71.4045353
  42.8279068  40.3702012  78.2563999  42.3446646  41.0952501  78.2323583
  43.6402386  40.6678142  78.3674157  42.8769815  40.5204365  78.2691279
  48.8993222  39.1634192  80.8613814  48.3820163  38.8041607  80.2575122
  49.5967613  38.6396367  80.8719880  48.9258803  39.0331880  80.7744073
  51.7312253  30.9012903  69.9309249  51.9708257  31.1090886  69.1184592
  52.0528094  30.0970411  70.0398193  51.8149411  30.8127004  69.8269802
  47.0402544  22.8306298  73.7768786  47.7948512  23.1984616  73.5385837
  46.8630078  23.2045853  74.5447966  47.1257022  22.9404486  73.8553675
  45.6823265  40.8858188  78.4084279  46.3843844  40.3710177  78.4657036
  45.6020748  41.2132339  79.2131154  45.7747025  40.8572414  78.5357072
  45.3959608  25.2376617  70.4746899  45.2135181  25.4548498  69.6487892
  46.2585221  25.3515630  70.5305514  45.4964198  25.2866515  70.3601386
  45.0074040  37.0764540  77.9169887  45.8462940  37.3087472  77.9643649
  45.0385809  36.2068851  77.8476923  45.1355758  36.9821486  77.9134532
  45.6326743  37.4965415  82.2183193  46.1724968  37.3536546  82.8886565
  44.9496690  37.8962166  82.5867219  45.6118897  37.5345086  82.3717615
  51.0759327  22.2403028  73.5095923  51.8045488  22.0618983  73.0634080
  51.1654220  23.0821108  73.7203101  51.1965990  22.3386907  73.4749441
  55.0567628  33.1756415  77.4128217  55.8125143  33.6087930  77.4517126
  55.1629953  32.5261185  77.9862853  55.1837799  33.1433899  77.5026243
  58.0947799  37.0029693  78.1630620  57.6583031  37.0066435  78.9189592
  57.7610715  37.6835192  77.7310198  57.9810419  37.1042149  78.2111453
  41.0363888  33.7165706  82.3717614  40.7702304  32.9004822  82.5308605
  41.0502452  33.7618861  81.5013130  40.9988611  33.6022610  82.2671096
  44.9421635  28.5150790  68.9869373  44.2279812  28.2288970  69.3991805
  45.4265604  28.8547416  69.6275760  44.9080999  28.5232440  69.1425007
  61.2292145  33.7210613  77.0550257  61.8908580  33.1601281  76.9546166
  60.5883557  33.2262643  77.3802949  61.2321013  33.5647022  77.0882598
  52.1168953  37.0180744  69.3631181  52.5320102  36.6865768  68.6715676
  51.2860883  36.7849646  69.2351317  52.0556962  36.9352000  69.2422028
  41.4457302  34.5024485  79.6529359  41.2632875  34.4771371  78.8001651
  42.1806971  34.9723423  79.6918267  41.5271366  34.5685847  79.5327277
  57.5156976  34.7375995  76.7962246  57.7512565  34.8821194  75.9689097
  57.6646540  35.5018403  77.1893760  57.5722779  34.8715049  76.7325850
  59.3447433  33.5777661  74.6331850  59.6755650  34.1105301  74.0271945
  59.9180521  33.6316549  75.2893801  59.4781112  33.6647230  74.6409632
  54.5579322  31.4242564  75.3155430  54.6526176  32.1631858  75.7695056
  53.9338166  30.9960039  75.7489995  54.4788352  31.4703884  75.4463578
  41.4128212  31.3817986  79.8028425  41.9901715  31.2454437  80.4420671
  40.7142274  30.9253770  80.0574010  41.3949234  31.2940252  79.9350715
  54.8102343  33.2691303  68.5492382  54.7282506  33.3393491  69.4147369
  55.4482064  33.8321047  68.3576123  54.8922181  33.3630275  68.6482332
  48.1695514  33.0352041  78.0166908  47.9114759  32.2023776  77.9898208
  48.2243997  33.2609654  77.1759409  48.1395292  32.9449813  77.8887045
  53.2496565  25.1380492  78.1171001  52.5452891  24.6489678  78.2754920
  53.2981539  25.1502967  77.2459446  53.1526616  25.0670140  78.0110341
  47.1430227  30.5889804  78.5031803  46.5679818  30.7481972  79.1395764
  46.7665903  29.9525213  78.0400254  47.0033039  30.5187617  78.5286362
  50.8103515  29.0613153  83.3624182  50.4217948  28.6367371  82.7076373
  50.1458214  29.3095303  83.8701208  50.6550443  29.0351874  83.3412050
  60.4526784  28.8188158  76.1372012  60.1963349  28.0068099  75.9469894
  61.2956098  28.8265725  75.9102199  60.5392810  28.7000155  76.0756829
  36.8887046  30.2329879  76.5176244  36.9747297  29.8561747  77.2989774
  37.5162843  29.8590324  76.0396202  36.9943597  30.1215361  76.5621721
  51.9142454  33.2911758  71.5600989  52.7283092  33.5826651  71.4483760
  51.8501595  32.6371620  70.9859282  52.0245193  33.2376952  71.4589826
  47.7850362  36.7633275  76.6873301  48.4224309  36.5245023  77.2325094
  48.2105433  36.9670434  75.9526461  47.9426528  36.7584285  76.6590458
  42.4763004  39.0021612  80.5707604  42.5167149  39.2736463  79.7427384
  43.0357528  39.5263520  80.9865392  42.5646350  39.1197367  80.5099493
  48.4253177  31.9835565  71.0248190  48.8098330  31.7643272  71.7764735
  48.1764797  32.8098510  71.1549266  48.4455249  32.0733711  71.1549267
  50.1671834  37.2405698  78.3667087  50.2410842  37.0780870  79.2208937
  50.9841340  37.4295887  78.1227569  50.2988192  37.2442440  78.4565113
  43.9277590  37.5863561  75.3961530  43.1015708  37.8325298  75.2695809
  43.9889582  37.5075641  76.2623589  43.8151757  37.6108510  75.5050475
  46.1453614  23.6532502  76.3556971  45.2776040  23.7255101  76.4214580
  46.4328819  24.4554581  76.5444946  46.0593362  23.7826649  76.3931737
  48.7076419  40.2040441  73.0980560  48.9974718  39.8129422  72.3739787
  49.4379900  40.3857146  73.5385836  48.8583304  40.1734255  73.0563367
  49.2971165  35.0058187  84.1833691  48.7982858  35.7173954  84.2618579
  50.1071389  35.3258853  84.1451853  49.3427271  35.1585035  84.1890259
  46.6482335  42.1807823  76.1640710  46.4282630  41.8905178  76.9567377
  46.4276857  41.5222778  75.6358622  46.5829929  42.0407532  76.2029619
  45.5599282  34.2681140  78.4296412  45.2712531  33.6418611  78.9642139
  46.4282630  34.2101427  78.4961092  45.6459534  34.1668684  78.5187366
  56.3477180  29.4115923  78.7478394  56.0041946  28.6906258  79.0985643
  56.4470223  29.2029774  77.9056752  56.3119223  29.2740126  78.6750074
  48.8150291  43.5537213  74.9471402  49.4674349  43.0213656  75.1762429
  48.1175899  43.2005866  75.3339277  48.8081009  43.4226736  75.0383570
  45.7631556  35.9076391  74.3538777  46.5177524  36.2889430  74.5674239
  45.1702168  36.3587535  74.8085473  45.7868269  36.0305218  74.4521655
  56.8090209  35.8741627  74.2902382  57.3748242  36.5334837  74.2060925
  56.1618113  36.2191325  74.7618784  56.7968966  36.0223569  74.3475138
  47.0829782  37.0784952  79.7278892  46.5610536  37.2185244  80.4130757
  47.4703803  36.3195616  79.9181010  47.0633483  36.9870476  79.8579969
  44.0720966  27.1290761  73.7973847  43.7845762  26.7592031  73.0605794
  44.7591434  27.5985616  73.5357552  44.1309864  27.1437730  73.6488923
  48.5096108  34.1088971  75.1260383  48.3138890  34.7163706  74.5320686
  48.7330453  33.4156915  74.6452057  48.5130749  34.0966497  74.9676464
  46.9074638  30.9943709  75.2441252  47.6297290  31.1584867  74.7845058
  46.4282631  31.7153374  75.1380591  46.9438369  31.1241939  75.1606866
  54.8668145  27.3307508  80.6237937  54.0279246  27.3568787  80.3876200
  54.9372513  27.9778243  81.2043283  54.7536539  27.4303634  80.6747053
  44.5582255  33.4001782  84.3495391  45.0703351  33.6786035  83.7004151
  44.2718597  34.1391076  84.7158204  44.5917118  33.5504135  84.3085269
  53.3137424  24.2292885  75.3565552  54.0163777  24.0300633  74.8785511
  53.0481612  23.4568827  75.6634396  53.3784056  24.0855851  75.3310994
  58.7425669  32.5375495  77.9099178  58.6559644  32.6930921  78.7633957
  58.2876149  33.1813570  77.5358583  58.6628926  32.6551250  77.9806285
  41.6449161  27.9071973  74.6459128  41.7465297  28.7098135  74.9740103
  42.4405048  27.7059309  74.3482208  41.7777066  27.9957872  74.6494483
  52.6151485  29.8586242  76.5324738  52.3686200  29.7781993  77.3661527
  52.9436608  29.0739710  76.3387265  52.6272729  29.7312507  76.6272261
  56.5099534  36.5669601  80.3211519  56.3713893  37.2650647  80.8260261
  55.7299532  36.4118258  79.9647701  56.3742761  36.6469768  80.3437793
  48.5748513  32.5942960  85.9447721  48.7191888  33.1744169  85.3090831
  48.9224161  32.9719257  86.6497575  48.6475974  32.7363664  85.9546716
  50.7468430  31.7933129  83.7272852  49.9991744  31.9864143  83.3221131
  50.9009955  30.9678348  83.4896974  50.6590858  31.6998240  83.6318258
  47.6476268  40.7845732  82.8108748  47.7965831  40.2248648  82.1582152
  48.4276270  40.8637734  83.1941266  47.7850361  40.7131298  82.7705697
  58.0052907  35.9247855  71.0828018  57.6259716  35.1384993  71.0757308
  57.3419152  36.4734712  70.9399662  57.8511382  35.8892679  71.0608815
  50.8299815  39.4761374  74.9216844  51.5949706  39.2071018  74.5999509
  50.7277905  38.9911384  75.6386907  50.9281311  39.3650939  74.9796672
  48.8652585  27.6785783  81.4610080  48.0748660  27.4977244  81.7827416
  49.2613208  26.9012736  81.4440375  48.8069461  27.5373244  81.5062629
  53.3518476  36.5073558  66.9016794  54.1191461  36.5673683  66.4922646
  52.9049785  35.9353999  66.4173112  53.3991903  36.4310133  66.7694504
  54.2496271  35.3128214  79.1869526  53.5741273  35.0813446  79.6882913
  54.2588647  34.7049397  78.5611631  54.1514776  35.1887139  79.1685678
  51.3790415  30.1546043  85.9433579  51.3149556  31.0155999  85.8153716
  51.5187603  29.8378036  85.1429130  51.3905885  30.2346209  85.8061792
  56.2513006  38.1693346  71.4179704  56.3332843  38.9760332  71.0941155
  56.7362748  38.1889305  72.1420478  56.3350164  38.2914008  71.4766603
  50.0609509  32.8478182  80.0849782  49.6371758  33.0482681  79.3488800
  49.8854364  32.0007030  80.1974082  49.9720390  32.7526963  79.9923472
  45.3491954  33.3430233  75.5177755  45.5056573  33.2777036  76.3733747
  45.6892547  34.1178786  75.3056434  45.4225189  33.4479431  75.6132349
  51.8871099  32.7188117  74.3871118  52.4286644  32.2158498  74.8509738
  52.2017658  32.6653312  73.5760603  52.0135496  32.6367538  74.3354930
  50.0557548  38.1105468  71.6711146  50.1250369  37.2520007  71.8104146
  50.8346004  38.3277349  71.3430170  50.1810398  38.0158332  71.6428303
  53.0360368  27.6124421  84.4393418  53.2502338  26.9735336  83.8856772
  52.4194267  28.0570245  84.0101280  52.9765697  27.5834565  84.2943849
  54.4465036  40.5343170  75.8847639  54.0544828  40.2309885  75.1670505
  54.6018108  41.3712260  75.6952593  54.4118626  40.6127006  75.7504136
  41.9226216  30.5265184  75.8338522  42.3025180  30.9449729  75.1698789
  41.3481580  31.1078639  76.1407365  41.8937540  30.6743043  75.7815263
  54.6104711  37.0993159  75.8253670  54.2519365  37.2707801  76.6017702
  54.1243421  37.5606364  75.2681668  54.4863408  37.1932130  75.8578939
  52.4275097  20.7224357  79.4280761  51.5568655  20.6963078  79.3814071
  52.6815438  20.5501549  78.6106607  52.3368657  20.6934501  79.3000898
  49.3993076  32.7792324  68.3653904  49.6885601  33.5557206  68.6397478
  49.4864875  32.2681055  69.0668403  49.4547332  32.8184242  68.5096402
  49.4524237  22.7330585  80.8854231  48.9362726  22.0410777  81.0105810
  48.8918166  23.4001363  80.8316830  49.2930750  22.7293843  80.8960297
  57.4966450  29.8386200  81.3386786  57.0694058  29.7512549  80.5834886
  56.8592503  29.9463976  81.9241630  57.3396057  29.8418860  81.3132228
  45.5657017  32.0925589  80.4654016  44.7245024  31.9929463  80.6732910
  45.7747025  32.8621069  80.8168337  45.4721710  32.1917632  80.5481331
  43.0432584  29.7145125  78.2938767  42.6489282  29.7888137  77.5188876
  42.4872701  30.1003072  78.8447129  42.9035396  29.7826900  78.2606427
  54.6797531  22.6926419  77.9742646  54.8847124  22.6248727  78.8199643
  54.3523955  23.4985241  77.9063823  54.6612779  22.8012360  78.0902301
  49.3773682  30.0206988  79.7151614  49.0736819  29.4662976  80.3162021
  48.6753103  30.1999198  79.2279648  49.2289892  29.9651770  79.7321319
  48.4339779  27.3307508  74.2796315  48.7099513  26.6126420  73.8673883
  49.0338448  27.9292427  74.0717422  48.5633044  27.3127878  74.1877077
  47.4392033  37.2356708  84.4223711  47.3312388  37.2458771  85.2885769
  47.6487814  38.0611489  84.2328665  47.4542144  37.3597783  84.5227803
  57.9331219  23.2458184  77.4545411  57.3205532  23.7328586  77.8399143
  58.0295393  22.5701675  77.9983062  57.8569116  23.2176492  77.5924269
  51.9350300  25.0021025  72.5542911  52.3894046  25.1731585  73.2790755
  52.4090345  24.3889136  72.1540686  52.0718620  24.9371910  72.6016672
  45.4565825  34.4869351  81.8845649  44.8653758  35.1278849  81.8548664
  46.2186849  34.9106968  81.8576949  45.4814086  34.6445189  81.8760796
  55.2155341  39.9378662  79.3177673  55.0175030  40.4269477  78.6233885
  54.5943052  40.1419904  79.8961807  55.0942906  40.0395201  79.3000897
  49.2763320  31.7063559  73.6587918  50.0205364  32.0937836  73.8970868
  49.4224016  30.8620985  73.8228406  49.4073905  31.6394032  73.7181887
  51.1942895  23.5013818  78.6919779  50.3478940  23.6736626  78.5661129
  51.1914027  22.6963162  79.0285607  51.0690045  23.4074847  78.7230906
  52.2641195  27.2789033  79.5581837  51.7901150  26.7530795  80.0687148
  52.6359331  26.7318505  78.9896699  52.2491084  27.1205029  79.5496984
  58.5277926  32.3391408  80.9688618  58.2876149  31.4997823  80.9731044
  59.0069933  32.4191575  81.6929391  58.5630110  32.2272808  81.0763420
  54.1924695  28.1725587  72.6207591  53.6647714  28.2554331  71.9313300
  54.6520403  28.9143459  72.6172236  54.1826546  28.2946250  72.5182286
  60.5283113  29.1192865  78.9217877  60.2892883  29.0788700  78.0838661
  60.6917014  29.9664017  79.0483598  60.5173416  29.2384950  78.8171359
  46.0016012  28.1002988  81.5875801  45.3769082  28.1121380  80.9801754
  45.6661606  28.5763163  82.2367041  45.8601503  28.1721505  81.5932370
  46.1857760  26.4428107  67.6448486  45.8370565  27.0947832  68.1080035
  45.7054206  26.4285220  66.9172357  46.0628004  26.5371160  67.6059577
  42.7141687  36.1603448  83.0279565  42.1841612  35.4695887  83.0774540
  42.9866780  36.1513634  82.1992274  42.6766409  36.0570580  82.9126981
  53.7461778  36.7429151  71.7517248  54.4695976  37.2087264  71.6081821
  53.3062369  36.8102760  71.0014845  53.7877470  36.8212987  71.6202029
  52.9147933  33.6026693  83.0017937  52.3004926  33.0584743  83.2966572
  53.4315218  33.0890929  82.5223753  52.9003595  33.4463102  82.9742165
  52.1544230  34.6730963  80.7362236  51.7271838  34.0480682  80.3027671
  52.1469174  34.3905885  81.5621243  52.0903371  34.5383744  80.7942063
  50.4829939  25.5499718  80.9504770  50.5072427  25.0159830  80.2617550
  50.7341413  25.0417026  81.6130360  50.5239858  25.3960621  80.9469414
  37.9937529  32.8331213  80.3847914  37.8880978  32.7878057  79.5199998
  37.2437749  33.1784993  80.6662199  37.8673132  32.8772121  80.2985243
  46.7631262  24.2770536  80.3310514  46.8029633  24.7779742  81.0445221
  45.9380926  24.3680929  80.0616437  46.6470788  24.3652352  80.3961052
  48.1845625  30.7931046  82.6284413  47.3537555  30.9604864  82.4219661
  48.1297142  30.4166996  83.4133298  48.0535040  30.7620777  82.7132941
  46.5581669  29.0686637  73.1574531  46.6984630  29.5659101  73.8603172
  47.0564202  28.3672932  73.2988744  46.6522750  29.0388616  73.2826110
  46.5881891  29.9353748  70.4867107  47.2226971  30.5314173  70.4216569
  46.6707502  29.6357206  71.3012978  46.6938442  29.9794656  70.5970194
  48.1660874  25.8667724  70.4612549  48.4876715  25.3870806  69.8071812
  48.4287818  26.6767370  70.2703361  48.2526900  25.9157622  70.3368041
  53.5620029  25.2539918  82.8236028  53.9875101  24.8012444  82.2119555
  52.9477022  24.6999988  83.1000816  53.5348675  25.1053894  82.7741054
  43.0934879  32.1321589  73.7556653  43.6027109  32.7286096  74.1367959
  43.5669151  31.8647563  73.0733073  43.2378255  32.1807404  73.7111176
  54.0065627  40.8049856  71.9115309  53.2894937  40.6310718  71.4462546
  54.6572365  40.5702428  71.3790795  53.9967478  40.7445648  71.7644527
  52.0014252  21.7255017  76.2326606  51.3582570  21.5752664  76.8011744
  51.6613659  21.4797363  75.4675710  51.8559329  21.6667140  76.2029621
  56.5913598  29.6814444  75.6556614  55.9204788  30.2244146  75.5269680
  57.2853349  30.1509300  75.4138309  56.5942466  29.8312715  75.6012142
  50.6400332  41.8211156  80.8868372  50.4165987  41.0629985  81.2552399
  50.1510176  41.8509177  80.1648812  50.5343781  41.7133381  80.8345113
  56.7541726  26.1370328  78.5646987  57.1069336  25.7100051  79.2392786
  55.8956527  26.0521171  78.6948064  56.6791171  26.0615068  78.6841998
  45.4525411  28.7677848  76.6229834  44.7337400  29.1841980  76.8902697
  45.8237773  29.3332086  76.0721472  45.4017343  28.9127129  76.5812641
  54.7524992  29.4005696  82.5131830  54.7322919  29.2188992  83.3666608
  54.8004192  30.2717715  82.4891413  54.7559633  29.5022235  82.6355124
  49.2878789  42.0411614  78.3405457  48.8739188  41.3785745  77.9509299
  49.9726163  42.1889473  77.8201151  49.3277161  41.9652272  78.2061954
  52.6544083  41.2001700  79.0929074  52.2560366  41.3103970  78.3249894
  52.0395303  41.4083766  79.6755633  52.5042973  41.2475268  79.0660373
  51.2271985  27.8075847  71.9603213  50.6336825  28.1292844  71.4087780
  51.2647263  26.9616943  71.7524319  51.1446374  27.7300176  71.8485985
  54.1029802  27.7655352  75.3904964  53.8743495  27.7888053  74.5483322
  54.3627878  26.9412819  75.5099974  54.1075990  27.6471432  75.2830161
  47.1574564  26.3031898  76.6859159  47.6331931  26.6648978  76.0509340
  46.6563164  26.9588366  76.9659302  47.1539923  26.4526087  76.6335900
  60.3885926  35.7753666  72.4772164  60.7719532  36.5245022  72.7070261
  59.5930039  36.0219486  72.2184153  60.3279708  35.9223360  72.4729738
  49.2001218  28.4473098  70.0532543  49.5800182  28.4652727  69.2683658
  48.4593814  28.8927087  69.9323390  49.1470055  28.5154873  69.9196111
  56.8286508  26.7555289  75.6408122  56.8280734  26.6003946  76.4992398
  56.6242688  27.6018276  75.5849507  56.7986286  26.8575910  75.7596061
  38.8903779  30.1795074  80.0566938  38.7125540  29.7271683  80.7821854
  38.6022801  30.9821235  80.2405416  38.8216732  30.2317631  80.1910441
  54.5527360  31.4352791  79.2944329  55.0481025  30.7175786  79.2548349
  53.7427136  31.1323589  79.1798816  54.5071253  31.2850437  79.2718055
  49.9985972  35.2850604  71.4441333  49.1897294  34.9617278  71.3974643
  50.5060880  34.5783826  71.3769582  49.9535638  35.1331921  71.4271628
  40.6276249  32.7122797  77.1688697  39.7621768  32.7008488  77.0571469
  40.7275065  32.5253020  78.0159837  40.5150416  32.6828859  77.2777642
  46.2533259  42.4820696  80.7418803  46.5679818  43.2957084  80.7496585
  46.6626672  42.0970915  81.4100962  46.3601357  42.5449398  80.8422895
  53.2057778  37.8990743  78.3122615  53.6768957  38.6131005  78.4812600
  53.5417957  37.2989493  78.8482484  53.3252893  37.9162207  78.4154991
  49.1920388  24.6734626  72.7360175  50.0136083  24.8432939  72.4941870
  48.7290039  24.8281887  72.0126472  49.2451550  24.7216359  72.5931819
  43.5946279  36.4293804  80.3897411  44.1991136  36.3889639  79.7611232
  43.3873591  37.2764956  80.4201467  43.6535176  36.5481807  80.3013528
  53.4090051  38.6959750  81.6059649  54.2288425  38.5522716  81.8675944
  53.1284129  39.3205948  82.1476087  53.4886794  38.7670102  81.7247588
  38.8297561  35.4128422  80.2596335  38.7321839  34.6024693  80.5686391
  39.6126431  35.3920215  79.8742603  38.9313698  35.2895512  80.2483197
  61.6352310  44.9186921  74.2124564  62.3332474  45.0975049  74.7046027
  61.9504642  44.3957261  73.5894953  61.7847647  44.8680693  74.1926574
  59.8079173  40.2879318  78.2945839  59.4782503  40.7390462  77.6249537
  59.1324175  40.2095481  78.8418845  59.6589609  40.3430453  78.2769062
  67.0155581  36.2764841  76.5395449  66.7009022  36.9668319  76.9715872
  66.4982523  36.2209623  75.8380950  66.8920051  36.3699729  76.4992399
  58.2467622  50.1732559  71.4540328  57.6624838  50.6782590  71.8606192
  57.8437718  49.9474945  70.7136920  58.1006926  50.2140807  71.4045353
  62.7044837  46.4198211  69.9309249  62.9440841  46.6276194  69.1184592
  63.0260678  45.6155719  70.0398193  62.7881995  46.3312312  69.8269802
  58.0135127  38.3491606  73.7768786  58.7681095  38.7169923  73.5385837
  57.8362662  38.7231161  74.5447966  58.0989606  38.4589794  73.8553675
  56.3692192  40.7561925  70.4746899  56.1867765  40.9733806  69.6487892
  57.2317805  40.8700938  70.5305514  56.4696781  40.8051823  70.3601386
  62.0491911  37.7588336  73.5095923  62.7778071  37.5804291  73.0634080
  62.1386804  38.6006416  73.7203101  62.1698573  37.8572214  73.4749441
  55.9154219  44.0336098  68.9869373  55.2012396  43.7474278  69.3991805
  56.3998188  44.3732724  69.6275760  55.8813582  44.0417748  69.1425007
  63.0901537  52.5366052  69.3631181  63.5052685  52.2051076  68.6715676
  62.2593466  52.3034954  69.2351317  63.0289545  52.4537308  69.2422028
  65.7834927  48.7876611  68.5492382  65.7015089  48.8578799  69.4147369
  66.4214647  49.3506355  68.3576123  65.8654764  48.8815582  68.6482332
  47.8619629  45.7515187  76.5176244  47.9479881  45.3747055  77.2989774
  48.4895427  45.3775632  76.0396202  47.9676180  45.6400669  76.5621721
  62.8875037  48.8097066  71.5600989  63.7015676  49.1011958  71.4483760
  62.8234178  48.1556928  70.9859282  62.9977776  48.7562260  71.4589826
  59.3985760  47.5020873  71.0248190  59.7830913  47.2828580  71.7764735
  59.1497381  48.3283818  71.1549266  59.4187833  47.5919019  71.1549267
  57.1186198  39.1717810  76.3556971  56.2508623  39.2440409  76.4214580
  57.4061402  39.9739889  76.5444946  57.0325946  39.3011957  76.3931737
  55.0453550  42.6476069  73.7973847  54.7578346  42.2777339  73.0605794
  55.7324018  43.1170924  73.5357552  55.1042447  42.6623038  73.6488923
  57.8807221  46.5129017  75.2441252  58.6029873  46.6770175  74.7845058
  57.4015214  47.2338682  75.1380591  57.9170952  46.6427247  75.1606866
  64.2870007  39.7478193  75.3565552  64.9896360  39.5485941  74.8785511
  64.0214196  38.9754135  75.6634396  64.3516640  39.6041159  75.3310994
  52.6181744  43.4257281  74.6459128  52.7197881  44.2283443  74.9740103
  53.4137631  43.2244617  74.3482208  52.7509650  43.5143180  74.6494483
  64.3251059  52.0258866  66.9016794  65.0924044  52.0858991  66.4922646
  63.8782368  51.4539307  66.4173112  64.3724486  51.9495441  66.7694504
  52.8958799  46.0450492  75.8338522  53.2757764  46.4635037  75.1698789
  52.3214164  46.6263947  76.1407365  52.8670124  46.1928351  75.7815263
  63.4007680  36.2409665  79.4280761  62.5301238  36.2148386  79.3814071
  63.6548022  36.0686857  78.6106607  63.3101240  36.2119809  79.3000898
  60.3725660  48.2977632  68.3653904  60.6618185  49.0742514  68.6397478
  60.4597459  47.7866363  69.0668403  60.4279916  48.3369550  68.5096402
  59.4072363  42.8492815  74.2796315  59.6832097  42.1311728  73.8673883
  60.0071032  43.4477735  74.0717422  59.5365627  42.8313186  74.1877077
  62.9082883  40.5206333  72.5542911  63.3626630  40.6916893  73.2790755
  63.3822929  39.9074443  72.1540686  63.0451203  40.4557218  72.6016672
  60.2495903  47.2248867  73.6587918  60.9937948  47.6123143  73.8970868
  60.3956599  46.3806293  73.8228406  60.3806488  47.1579340  73.7181887
  62.1675479  39.0199126  78.6919779  61.3211524  39.1921934  78.5661129
  62.1646611  38.2148470  79.0285607  62.0422628  38.9260155  78.7230906
  65.1657279  43.6910895  72.6207591  64.6380297  43.7739639  71.9313300
  65.6252987  44.4328767  72.6172236  65.1559129  43.8131557  72.5182286
  57.1590344  41.9613415  67.6448486  56.8103148  42.6133140  68.1080035
  56.6786790  41.9470528  66.9172357  57.0360588  42.0556468  67.6059577
  57.5314252  44.5871945  73.1574531  57.6717214  45.0844409  73.8603172
  58.0296785  43.8858239  73.2988744  57.6255333  44.5573924  73.2826110
  57.5614475  45.4539056  70.4867107  58.1959554  46.0499481  70.4216569
  57.6440086  45.1542514  71.3012978  57.6671026  45.4979964  70.5970194
  59.1393458  41.3853031  70.4612549  59.4609299  40.9056114  69.8071812
  59.4020401  42.1952678  70.2703361  59.2259483  41.4342929  70.3368041
  54.0667463  47.6506897  73.7556653  54.5759692  48.2471404  74.1367959
  54.5401735  47.3832871  73.0733073  54.2110838  47.6992712  73.7111176
  62.9746836  37.2440325  76.2326606  62.3315154  37.0937972  76.8011744
  62.6346243  36.9982671  75.4675710  62.8291913  37.1852448  76.2029621
  56.4257995  44.2863155  76.6229834  55.7069984  44.7027288  76.8902697
  56.7970357  44.8517394  76.0721472  56.3749926  44.4312437  76.5812641
  62.2004569  43.3261155  71.9603213  61.6069408  43.6478152  71.4087780
  62.2379847  42.4802251  71.7524319  62.1178958  43.2485484  71.8485985
  58.1307148  41.8217206  76.6859159  58.6064514  42.1834286  76.0509340
  57.6295748  42.4773674  76.9659302  58.1272507  41.9711395  76.6335900
  60.1733801  43.9658406  70.0532543  60.5532766  43.9838035  69.2683658
  59.4326397  44.4112395  69.9323390  60.1202639  44.0340181  69.9196111
  60.9718555  50.8035912  71.4441333  60.1629878  50.4802586  71.3974643
  61.4793464  50.0969134  71.3769582  60.9268222  50.6517229  71.4271628
  60.1652972  40.1919934  72.7360175  60.9868666  40.3618247  72.4941870
  59.7022623  40.3467195  72.0126472  60.2184134  40.2401667  72.5931819
  35.2130183   0.8770486  62.0232734  34.4613082   0.4986024  61.7948779
  35.6616194   0.9088919  61.2751544  35.1679850   0.8256093  61.8790236
  40.6655143   1.2995855  57.4518281  40.3306511   1.9772777  57.0162503
  41.1782013   0.9101166  56.8635153  40.6920724   1.3420433  57.3005073
  40.2059434   3.2510124  63.3929393  40.5898813   3.8197022  62.8534168
  40.1418575   2.5259634  62.9135209  40.2532861   3.2285587  63.2423255
  36.6315679   5.8066467  65.6910363  37.2753134   6.2479631  66.0806521
  36.9571934   5.0019893  65.6040621  36.7747507   5.7531662  65.7355840
  37.3336258  -1.1821558  61.0630224  37.6552099  -0.6416351  60.4591532
  37.9808355  -1.7524787  61.1952514  37.4762313  -1.1862383  60.9937260
  37.4294660   1.6233264  60.0320607  37.7192958   1.2322245  59.3079834
  38.1598141   1.8049969  60.4725882  37.5801544   1.5927078  59.9903414
  35.3700575   3.6000647  63.0980757  35.1500871   3.3098001  63.8907424
  35.1495097   2.9415602  62.5698669  35.3048170   3.4600355  63.1369666
  37.5368531   4.9730036  61.8811449  38.1892589   4.4406479  62.1102475
  36.8394140   4.6198689  62.2679323  37.5299249   4.8419559  61.9723617
  42.0015028   0.2373235  60.6479508  41.7601703  -0.4958905  60.2406573
  42.1816360   0.7860092  59.9945841  41.9922652   0.2095626  60.4909731
  39.5518056   0.8954197  61.8556891  40.3167947   0.6263841  61.5339556
  39.4496145   0.4104208  62.5726954  39.6499551   0.7843762  61.9136719
  38.7775789  -0.4701708  58.6051193  38.8468609  -1.3287170  58.7444193
  39.5564244  -0.2529827  58.2770217  38.9028639  -0.5648844  58.5768350
  43.1683276   1.9535993  62.8187686  42.7763068   1.6502708  62.1010552
  43.3236349   2.7905083  62.6292640  43.1336866   2.0319830  62.6844183
  43.9373582   1.3571486  66.2517720  43.7393270   1.8462300  65.5573932
  43.3161293   1.5612727  66.8301854  43.8161146   1.4588024  66.2340944
  42.7283868   2.2242679  58.8455356  42.0113177   2.0503541  58.3802593
  43.3790605   1.9895251  58.3130842  42.7185718   2.1638471  58.6984574
  38.0097030   3.4604438  65.2745504  37.5957428   2.7978568  64.8849345
  38.6944404   3.6082296  64.7541198  38.0495401   3.3845096  65.1402001
  41.3762324   2.6194523  66.0269120  40.9778607   2.7296793  65.2589941
  40.7613543   2.8276589  66.6095680  41.2261213   2.6668091  66.0000420
  58.6021942   7.7717425  61.5042572  58.5715946   8.6262061  61.6760841
  59.2003291   7.4712717  62.0628716  58.6859100   7.8533921  61.6117374
  51.8021627   6.8593076  66.2595502  50.9459522   7.0201574  66.3104619
  51.8489280   5.9885140  66.2800563  51.6820738   6.7543877  66.2701568
  46.1862766  16.3955793  62.0232734  45.4345666  16.0171332  61.7948779
  46.6348778  16.4274227  61.2751544  46.1412433  16.3441401  61.8790236
  51.6387726  16.8181163  57.4518281  51.3039095  17.4958085  57.0162503
  52.1514597  16.4286474  56.8635153  51.6653307  16.8605741  57.3005073
  51.1792018  18.7695432  63.3929393  51.5631397  19.3382330  62.8534168
  51.1151159  18.0444942  62.9135209  51.2265445  18.7470895  63.2423255
  54.6473448   8.9185119  68.9027154  55.1929408   9.5970206  68.9621124
  54.5890324   8.7772580  68.0428736  54.7189362   8.9977121  68.7839215
  47.7647523  16.4074186  64.2895506  47.8657885  15.5974540  64.5992634
  47.1689268  16.3131132  63.6595185  47.6920061  16.2739214  64.2421745
  56.4238516  10.3469727  59.7760882  56.3078042  11.0977413  60.2053020
  57.2194403  10.0893680  60.0256969  56.5243106  10.4204573  59.8764973
  47.6048262  21.3251775  65.6910363  48.2485718  21.7664939  66.0806521
  47.9304518  20.5205201  65.6040621  47.7480091  21.2716969  65.7355840
  40.9612567  12.4294472  63.9147840  40.7262751  11.5962125  63.8080109
  41.0998208  12.7099138  63.1009041  40.9468229  12.3477976  63.7790195
  43.2602654   4.5980203  66.8132148  42.6407686   4.0072850  66.6442163
  43.1586518   5.1891638  66.1796471  43.1540330   4.5984285  66.6937137
  48.3068842  14.3363750  61.0630224  48.6284683  14.8768957  60.4591532
  48.9540938  13.7660521  61.1952514  48.4494897  14.3322925  60.9937260
  50.3570550   6.3379745  61.1464611  51.0550715   6.5167872  61.6386074
  50.6722882   5.8150084  60.5235000  50.5065887   6.2873517  61.1266621
  42.9871787   8.1432484  69.0575717  42.8630484   8.7294930  69.6925536
  43.6390072   7.6492680  69.3587992  43.0645437   8.1571289  69.1961646
  50.5458485  12.7250190  61.1344402  50.9852121  12.1167290  61.5799175
  50.3963148  12.3457563  60.3629867  50.5879951  12.5788661  61.0863570
  48.0130128  11.3194201  68.3363228  48.6579131  10.8266645  68.0174176
  48.2531905  11.4618988  69.1629306  48.1440713  11.2671644  68.4112761
  50.5516220  14.1649107  67.9870120  50.8339462  13.3700513  67.7656876
  51.2802380  14.6429695  68.0075181  50.7005783  14.1183704  67.9573136
  48.5297413   1.7072141  65.2285886  48.2000744   2.1583285  64.5589584
  47.8542415   1.6288305  65.7758892  48.3807850   1.7623276  65.2109109
  54.1467822  11.0777371  58.0875172  54.0619117  11.9338338  58.2324740
  54.6352205  10.8021695  58.7557331  54.2056719  11.1634692  58.2077253
  55.0786255   7.6962165  59.5872907  54.5497727   7.9121799  60.2470213
  55.6011275   8.3898304  59.5073876  55.0774708   7.8305302  59.6728506
  60.5334308  13.2708469  64.9605951  59.7032011  13.4819113  65.1239368
  60.4843560  12.4445524  64.6848235  60.4041043  13.1798076  64.9443317
  46.9685863  11.5925382  58.3880375  46.3843078  12.0975413  58.7946239
  46.5655958  11.3667769  57.6476967  46.8225167  11.6333630  58.3385400
  42.5229891  17.3080143  65.1904046  42.0397470  18.0330633  65.1663630
  43.3353210  17.6056273  65.3014204  42.5720639  17.4582497  65.2031325
  48.5944046  16.1012324  67.7953861  48.0770987  15.7419739  67.1915169
  49.2918437  15.5774498  67.8059927  48.6209627  15.9710012  67.7084119
  52.2507638  16.5507138  73.7570034  52.3390983  16.3633278  74.6048244
  52.6797350  15.9044567  73.3574881  52.3269740  16.4270145  73.8241785
  49.8178097  15.8338298  72.7387696  49.2548932  15.4210907  73.2627357
  50.5799121  15.7591203  73.1580839  49.8472546  15.7615698  72.8780696
  51.4263077   7.8391034  56.8649295  51.6659081   8.0469018  56.0524638
  51.7478918   7.0348543  56.9738240  51.5100235   7.7505135  56.7609848
  45.3774089  17.8236319  65.3424326  46.0794668  17.3088308  65.3997083
  45.2971572  18.1510470  66.1471201  45.4697849  17.7950545  65.4697118
  45.0910432   2.1754749  57.4086946  44.9086005   2.3926629  56.5827939
  45.9536045   2.2893761  57.4645561  45.1915022   2.2244647  57.2941433
  44.7024864  14.0142671  64.8509934  45.5413764  14.2465604  64.8983696
  44.7336633  13.1446982  64.7816970  44.8306582  13.9199617  64.8474579
  45.3277567  14.4343546  69.1523240  45.8675792  14.2914677  69.8226612
  44.6447513  14.8340297  69.5207266  45.3069721  14.4723217  69.3057661
  54.7518452  10.1134547  64.3468264  55.5075967  10.5466061  64.3857173
  54.8580777   9.4639316  64.9202900  54.8788623  10.0812031  64.4366290
  57.7898623  13.9407824  65.0970667  57.3533855  13.9444566  65.8529638
  57.4561539  14.6213323  64.6650244  57.6761243  14.0420280  65.1451500
  52.3627697  15.9816157  76.4213817  53.1468113  16.0947005  76.7869559
  52.1624291  15.1557294  76.6172503  52.4493722  15.8762876  76.5048203
  40.7314712  10.6543837  69.3057661  40.4653127   9.8382954  69.4648652
  40.7453276  10.6996992  68.4353177  40.6939435  10.5400742  69.2011143
  44.6372459   5.4528921  55.9209419  43.9230636   5.1667101  56.3331852
  45.1216428   5.7925547  56.5615807  44.6031823   5.4610571  56.0765054
  52.5198090  17.8926259  70.0680273  51.7213336  17.6525759  70.3254142
  52.9684102  17.9440652  70.8147321  52.4672701  17.8648650  70.2165197
  60.9242969  10.6588744  63.9890304  61.5859403  10.0979412  63.8886213
  60.2834381  10.1640775  64.3142995  60.9271837  10.5025153  64.0222644
  51.8119777  13.9558875  56.2971228  52.2270926  13.6243899  55.6055723
  50.9811707  13.7227777  56.1691364  51.7507786  13.8730131  56.1762075
  41.1408126  11.4402616  66.5869405  40.9583699  11.4149502  65.7341698
  41.8757795  11.9101554  66.6258314  41.2222190  11.5063978  66.4667324
  57.2107800  11.6754126  63.7302293  57.4463389  11.8199325  62.9029144
  57.3597364  12.4396534  64.1233807  57.2673603  11.8093181  63.6665897
  59.0398257  10.5155792  61.5671897  59.3706474  11.0483432  60.9611992
  59.6131345  10.5694680  62.2233848  59.1731936  10.6025361  61.5749679
  54.2530146   8.3620695  62.2495477  54.3477000   9.1009989  62.7035102
  53.6288990   7.9338170  62.6830042  54.1739176   8.4082015  62.3803624
  52.5082620  11.5406907  72.8985758  53.0821481  10.9034152  73.0534322
  52.4297424  11.5410990  72.0295415  52.5815855  11.4472019  72.7932169
  41.1079036   8.3196117  66.7368472  41.6852539   8.1832568  67.3760717
  40.4093098   7.8631901  66.9914056  41.0900058   8.2318383  66.8690762
  54.5053167  10.2069435  55.4832429  54.4233330  10.2771622  56.3487416
  55.1432888  10.7699179  55.2916170  54.5873005  10.3008406  55.5822378
  47.8646338   9.9730173  64.9506955  47.6065583   9.1401907  64.9238255
  47.9194821  10.1987786  64.1099456  47.8346116   9.8827944  64.8227092
  46.8381051   7.5267935  65.4371850  46.2630642   7.6860103  66.0735811
  46.4616727   6.8903344  64.9740301  46.6983863   7.4565748  65.4626408
  50.5054339   5.9991284  70.2964228  50.1168772   5.5745502  69.6416420
  49.8409038   6.2473434  70.8041255  50.3501267   5.9730005  70.2752096
  36.5837869   7.1708010  63.4516291  36.6698121   6.7939878  64.2329821
  37.2113667   6.7968455  62.9736249  36.6894420   7.0593492  63.4961768
  51.6093277  10.2289889  58.4941035  52.4233916  10.5204782  58.3823807
  51.5452419   9.5749751  57.9199328  51.7196017  10.1755084  58.3929873
  47.4801186  13.7011406  63.6213348  48.1175133  13.4623154  64.1665141
  47.9056257  13.9048565  62.8866508  47.6377352  13.6962417  63.5930505
  42.1713828  15.9399743  67.5047651  42.2117973  16.2114594  66.6767431
  42.7308352  16.4641651  67.9205439  42.2597174  16.0575498  67.4439539
  48.1204001   8.9213696  57.9588237  48.5049153   8.7021403  58.7104782
  47.8715621   9.7476642  58.0889313  48.1406073   9.0111842  58.0889313
  58.8539188  12.6960334  68.9698906  58.5485005  13.4288391  69.3312221
  58.1345404  12.2898263  68.6891692  58.7026531  12.7442067  68.9812043
  49.8622658  14.1783829  65.3007134  49.9361666  14.0159001  66.1548984
  50.6792164  14.3674019  65.0567615  49.9939016  14.1820571  65.3905159
  43.6228414  14.5241692  62.3301577  42.7966532  14.7703429  62.2035856
  43.6840406  14.4453773  63.1963635  43.5102581  14.5486641  62.4390522
  45.8404438   0.5910633  63.2897017  44.9726864   0.6633232  63.3554627
  46.1279642   1.3932712  63.4784993  45.7544186   0.7204780  63.3271784
  48.4027243  17.1418572  60.0320607  48.6925542  16.7507553  59.3079834
  49.1330724  17.3235277  60.4725882  48.5534128  17.1112386  59.9903414
  48.9921989  11.9436318  71.1173738  48.4933682  12.6552086  71.1958626
  49.8022213  12.2636985  71.0791900  49.0378095  12.0963167  71.1230306
  46.3433159  19.1185954  63.0980757  46.1233454  18.8283309  63.8907424
  46.1227681  18.4600910  62.5698669  46.2780753  18.9785663  63.1369666
  45.2550106  11.2059271  65.3636459  44.9663355  10.5796742  65.8982186
  46.1233454  11.1479558  65.4301139  45.3410358  11.1046815  65.4527413
  56.0428004   6.3494054  65.6818440  55.6992770   5.6284390  66.0325690
  56.1421047   6.1407906  64.8396799  56.0070047   6.2118258  65.6090120
  48.5101115  20.4915344  61.8811449  49.1625173  19.9591787  62.1102475
  47.8126723  20.1383997  62.2679323  48.5031833  20.3604867  61.9723617
  45.4582380  12.8454522  61.2878824  46.2128348  13.2267561  61.5014286
  44.8652992  13.2965666  61.7425520  45.4819093  12.9683349  61.3861702
  56.5041033  12.8119758  61.2242429  57.0699066  13.4712968  61.1400971
  55.8568936  13.1569457  61.6958831  56.4919789  12.9601700  61.2815185
  46.7780606  14.0163083  66.6618939  46.2561360  14.1563375  67.3470804
  47.1654626  13.2573748  66.8521056  46.7584307  13.9248607  66.7920016
  43.7671790   4.0668892  60.7313894  43.4796586   3.6970163  59.9945841
  44.4542258   4.5363747  60.4697599  43.8260687   4.0815861  60.5828969
  52.9747611  15.7558543  60.6479508  52.7334287  15.0226403  60.2406573
  53.1548944  16.3045400  59.9945841  52.9655235  15.7280934  60.4909731
  48.2046932  11.0467102  62.0600430  48.0089714  11.6541837  61.4660733
  48.4281277  10.3535046  61.5792104  48.2081573  11.0344628  61.9016511
  46.6025462   7.9321840  62.1781298  47.3248114   8.0962998  61.7185104
  46.1233455   8.6531505  62.0720638  46.6389192   8.0620070  62.0946912
  54.5618969   4.2685639  67.5577983  53.7230070   4.2946918  67.3216247
  54.6323337   4.9156375  68.1383330  54.4487363   4.3681765  67.6087100
  44.2533078  10.3379913  71.2835438  44.7654175  10.6164166  70.6344198
  43.9669421  11.0769207  71.6498251  44.2867942  10.4882266  71.2425316
  58.4376493   9.4753626  64.8439225  58.3510468   9.6309052  65.6974004
  57.9826973  10.1191701  64.4698630  58.3579750   9.5929381  64.9146332
  41.3399985   4.8450105  61.5799175  41.4416121   5.6476266  61.9080150
  42.1355872   4.6437440  61.2822255  41.4727890   4.9336003  61.5834530
  52.3102309   6.7964373  63.4664785  52.0637024   6.7160124  64.3001574
  52.6387432   6.0117841  63.2727312  52.3223553   6.6690638  63.5612308
  56.2050358  13.5047732  67.2551566  56.0664717  14.2028778  67.7600308
  55.4250356  13.3496389  66.8987748  56.0693585  13.5847899  67.2777840
  48.2699337   9.5321092  72.8787768  48.4142712  10.1122300  72.2430878
  48.6174985   9.9097388  73.5837622  48.3426798   9.6741796  72.8886763
  50.4419254   8.7311260  70.6612899  49.6942568   8.9242274  70.2561177
  50.5960779   7.9056480  70.4237021  50.3541681   8.6376371  70.5658305
  47.3427092  17.7223863  69.7448794  47.4916655  17.1626779  69.0922199
  48.1227094  17.8015865  70.1281313  47.4801185  17.6509429  69.7045744
  57.7003731  12.8625986  58.0168065  57.3210540  12.0763124  58.0097354
  57.0369976  13.4112843  57.8739709  57.5462206  12.8270810  57.9948862
  49.8680392  17.8938506  71.0233285  49.7924063  17.2247317  71.5784074
  49.7970251  18.5956294  71.5373952  49.8460999  17.8983414  71.1810133
  50.5250639  16.4139505  61.8556891  51.2900530  16.1449149  61.5339556
  50.4228729  15.9289516  62.5726954  50.6232135  16.3029070  61.9136719
  48.5603409   4.6163915  68.3950127  47.7699484   4.4355375  68.7167463
  48.9564032   3.8390867  68.3780421  48.5020285   4.4751376  68.4402675
  53.0469300  13.4451689  53.8356841  53.8142285  13.5051814  53.4262692
  52.6000609  12.8732130  53.3513159  53.0942727  13.3688265  53.7034551
  53.9447095  12.2506345  66.1209573  53.2692097  12.0191577  66.6222960
  53.9539471  11.6427528  65.4951678  53.8465600  12.1265270  66.1025725
  51.0741239   7.0924174  72.8773626  51.0100380   7.9534130  72.7493763
  51.2138427   6.7756167  72.0769177  51.0856709   7.1724340  72.7401839
  55.9463830  15.1071477  58.3519751  56.0283667  15.9138463  58.0281202
  56.4313572  15.1267436  59.0760524  56.0300988  15.2292140  58.4106650
  49.7560333   9.7856313  67.0189829  49.3322582   9.9860812  66.2828847
  49.5805188   8.9385161  67.1314129  49.6671214   9.6905095  66.9263519
  49.2572026  21.3006826  69.4811286  49.7467957  20.6017615  69.2986951
  48.6856259  21.0030696  70.0687343  49.2456556  21.1533050  69.5412327
  45.0442778  10.2808365  62.4517801  45.2007397  10.2155167  63.3073793
  45.3843371  11.0556917  62.2396481  45.1176013  10.3857563  62.5472396
  51.5821923   9.6566248  61.3211165  52.1237468   9.1536629  61.7849785
  51.8968482   9.6031443  60.5100650  51.7086320   9.5745669  61.2694977
  49.7508372  15.0483600  58.6051193  49.8201193  14.1898138  58.7444193
  50.5296827  15.2655481  58.2770217  49.8761222  14.9536464  58.5768350
  52.7311192   4.5502553  71.3733465  52.9453162   3.9113467  70.8196819
  52.1145091   4.9948376  70.9441327  52.6716521   4.5212696  71.2283896
  54.1415860  17.4721301  62.8187686  53.7495652  17.1688016  62.1010552
  54.2968932  18.3090391  62.6292640  54.1069450  17.5505138  62.6844183
  41.6177039   7.4643315  62.7678569  41.9976004   7.8827860  62.1038836
  41.0432404   8.0456771  63.0747412  41.5888364   7.6121174  62.7155310
  54.3055535  14.0371290  62.7593716  53.9470189  14.2085933  63.5357749
  53.8194245  14.4984495  62.2021715  54.1814232  14.1310261  62.7918986
  49.0943900   9.7170455  55.2993951  49.3836425  10.4935338  55.5737525
  49.1815699   9.2059187  56.0008450  49.1498156   9.7562374  55.4436449
  55.4660274  14.9275186  73.7060917  56.1039995  14.4335381  73.3723373
  54.8234366  14.8552586  73.1213144  55.4654501  14.8434194  73.5703272
  57.1917274   6.7764332  68.2726833  56.7644882   6.6890680  67.5174933
  56.5543327   6.8842107  68.8581677  57.0346881   6.7796992  68.2472275
  55.5214531  15.6194994  70.3466274  56.3106909  15.2684059  70.4668356
  55.6958128  16.4331382  70.0842908  55.6634812  15.6880851  70.3254142
  45.2607841   9.0303720  67.3994063  44.4195848   8.9307594  67.6072957
  45.4697849   9.7999200  67.7508384  45.1672534   9.1295763  67.4821378
  42.7383408   6.6523257  65.2278814  42.3440106   6.7266268  64.4528923
  42.1823525   7.0381203  65.7787175  42.5986220   6.7205031  65.1946473
  49.0724506   6.9585119  66.6491660  48.7687643   6.4041107  67.2502068
  48.3703927   7.1377329  66.1619695  48.9240716   6.9029901  66.6661366
  48.1290603   4.2685639  61.2136362  48.4050337   3.5504551  60.8013930
  48.7289272   4.8670559  61.0057468  48.2583868   4.2506009  61.1217124
  47.1342857  14.1734840  71.3563758  47.0263212  14.1836902  72.2225816
  47.3438638  14.9989620  71.1668712  47.1492968  14.2975914  71.4567850
  45.1516649  11.4247482  68.8185696  44.5604582  12.0656980  68.7888711
  45.9137672  11.8485099  68.7916995  45.1764910  11.5823320  68.8100843
  54.9106165  16.8756794  66.2517720  54.7125854  17.3647608  65.5573932
  54.2893876  17.0798035  66.8301854  54.7893730  16.9773332  66.2340944
  48.9714143   8.6441690  60.5927965  49.7156188   9.0315967  60.8310914
  49.1174840   7.7999116  60.7568452  49.1024729   8.5772163  60.6521934
  51.9592019   4.2167164  66.4921884  51.4851974   3.6908926  67.0027195
  52.3310155   3.6696637  65.9236745  51.9441908   4.0583160  66.4837031
  58.2228750   9.2769539  67.9028664  57.9826973   8.4375955  67.9071091
  58.7020757   9.3569706  68.6269438  58.2580934   9.1650939  68.0103467
  53.8875519   5.1103718  59.5547638  53.3598538   5.1932462  58.8653347
  54.3471227   5.8521590  59.5512282  53.8777369   5.2324381  59.4522333
  60.2233937   6.0570997  65.8557924  59.9843707   6.0166831  65.0178708
  60.3867838   6.9042149  65.9823645  60.2124240   6.1763082  65.7511405
  56.8279967  10.4420946  71.7862969  57.5514166   9.9893472  71.6073989
  56.5629929  10.7225612  71.0035297  56.8961240  10.4171914  71.6441684
  45.6966835   5.0381119  68.5215848  45.0719906   5.0499511  67.9141801
  45.3612430   5.5141295  69.1707088  45.5552327   5.1099636  68.5272416
  45.8808584   3.3806238  54.5788533  45.5321388   4.0325963  55.0420082
  45.4005030   3.3663351  53.8512404  45.7578828   3.4749291  54.5399624
  42.4092511  13.0981580  69.9619612  41.8792436  12.4074018  70.0114587
  42.6817604  13.0891765  69.1332321  42.3717233  12.9948711  69.8467028
  53.4412602  13.6807282  58.6857295  54.1646800  14.1465395  58.5421868
  53.0013193  13.7480892  57.9354892  53.4828294  13.7591119  58.5542076
  52.6098757  10.5404824  69.9357984  51.9955750   9.9962874  70.2306619
  53.1266042  10.0269061  69.4563800  52.5954419  10.3841233  69.9082212
  51.8495054  11.6109094  67.6702282  51.4222662  10.9858813  67.2367718
  51.8419998  11.3284016  68.4961290  51.7854195  11.4761875  67.7282110
  37.6888353   9.7709344  67.3187960  37.5831802   9.7256188  66.4540045
  36.9388573  10.1163124  67.6002245  37.5623956   9.8150252  67.2325290
  46.4582086   1.2148667  67.2650561  46.4980457   1.7157874  67.9785268
  45.6331750   1.3059061  66.9956484  46.3421612   1.3030483  67.3301099
  47.8796449   7.7309177  69.5624460  47.0488379   7.8982995  69.3559708
  47.8247966   7.3545128  70.3473345  47.7485864   7.6998908  69.6472988
  46.2532493   6.0064768  60.0914577  46.3935454   6.5037233  60.7943219
  46.7515026   5.3051063  60.2328791  46.3473574   5.9766747  60.2166156
  46.2832715   6.8731879  57.4207154  46.9177795   7.4692304  57.3556616
  46.3658326   6.5735337  58.2353024  46.3889266   6.9172788  57.5310241
  47.8611698   2.8045855  57.3952596  48.1827539   2.3248937  56.7411859
  48.1238642   3.6145501  57.2043408  47.9477724   2.8535753  57.2708088
  51.0908671  13.8264729  70.9151412  50.5833762  14.3800576  71.3592043
  50.7935317  13.8873019  70.0970187  50.9713556  13.9171040  70.8599869
  42.7885703   9.0699720  60.6896700  43.2977932   9.6664228  61.0708006
  43.2619975   8.8025694  60.0073120  42.9329079   9.1185536  60.6451223
  53.7016451  17.7427987  58.8455356  52.9845761  17.5688849  58.3802593
  54.3523189  17.5080559  58.3130842  53.6918302  17.6823779  58.6984574
  56.2864422   6.6192575  62.5896661  55.6155612   7.1622278  62.4609726
  56.9804173   7.0887431  62.3478356  56.2893290   6.7690847  62.5352189
  50.3351156  18.7589287  67.8208419  50.1116811  18.0008117  68.1892446
  49.8460999  18.7887309  67.0988859  50.2294605  18.6511512  67.7685160
  45.1476235   5.7055979  63.5569881  44.4288224   6.1220111  63.8242744
  45.5188597   6.2710217  63.0061519  45.0968167   5.8505260  63.5152688
  54.4475816   6.3383828  69.4471876  54.4273743   6.1567123  70.3006655
  54.4955016   7.2095846  69.4231460  54.4510457   6.4400366  69.5695171
  52.3922146  12.9271020  75.3720353  52.3518000  12.2820697  74.7865509
  53.2045464  12.8707637  75.6845765  52.5065299  12.8229986  75.3317302
  48.9829613  18.9789745  65.2745504  48.5690012  18.3163876  64.8849345
  49.6676987  19.1267604  64.7541198  49.0227985  18.9030404  65.1402001
  52.3494907  18.1379831  66.0269120  51.9511190  18.2482101  65.2589941
  51.7346127  18.3461897  66.6095680  52.1993797  18.1853399  66.0000420
  50.9222809   4.7453979  58.8943260  50.3287649   5.0670975  58.3427827
  50.9598087   3.8995074  58.6864366  50.8397198   4.6678307  58.7826031
  53.7980626   4.7033483  62.3245010  53.5694319   4.7266185  61.4823369
  54.0578702   3.8790950  62.4440021  53.8026814   4.5849563  62.2170208
  46.8525388   3.2410029  63.6199206  47.3282755   3.6027109  62.9849387
  46.3513988   3.8966497  63.8999349  46.8490747   3.3904218  63.5675947
  60.0836750  12.7131797  59.4112211  60.4670356  13.4623154  59.6410308
  59.2880863  12.9597617  59.1524200  60.0230532  12.8601491  59.4069785
  48.8952041   5.3851229  56.9872590  49.2751006   5.4030858  56.2023705
  48.1544638   5.8305218  56.8663437  48.8420879   5.4533004  56.8536158
  38.5854603   7.1173205  66.9906985  38.4076364   6.6649814  67.7161901
  38.2973625   7.9199366  67.1745463  38.5167556   7.1695763  67.1250488
  54.2478184   8.3730922  66.2284376  54.7431849   7.6553917  66.1888396
  53.4377960   8.0701720  66.1138862  54.2022077   8.2228568  66.2058101
  49.6936796  12.2228735  58.3781380  48.8848118  11.8995409  58.3314689
  50.2011704  11.5161958  58.3109629  49.6486462  12.0710052  58.3611674
  40.3227073   9.6500929  64.1028744  39.4572592   9.6386619  63.9911515
  40.4225889   9.4631151  64.9499884  40.2101240   9.6206990  64.2117689
  56.3130003  11.1234610  68.9161504  56.7385074  10.6009032  68.3631929
  55.9486923  11.7215447  68.3950127  56.3216605  11.1344837  68.7570514
  45.9484083  19.4198827  67.6758850  46.2630642  20.2335216  67.6836632
  46.3577496  19.0349046  68.3441009  46.0552181  19.4827530  67.7762941
  52.9008602  14.8368874  65.2462662  53.3719781  15.5509137  65.4152647
  53.2368781  14.2367624  65.7822531  53.0203717  14.8540338  65.3495038
  53.5382549  14.6286808  72.0090354  52.9903495  14.0044692  71.7410420
  53.9995577  14.8181080  71.2934434  53.5249758  14.5645858  71.8640786
  43.2897103  13.3671936  67.3237458  43.8941960  13.3267770  66.6951279
  43.0824415  14.2143088  67.3541514  43.3486000  13.4859938  67.2353575
  53.1040875  15.6337881  68.5399696  53.9239249  15.4900847  68.8015991
  52.8234953  16.2584080  69.0816133  53.1837618  15.7048233  68.6587635
  38.5248385  12.3506553  67.1936381  38.4272663  11.5402825  67.5026438
  39.3077255  12.3298347  66.8082649  38.6264522  12.2273643  67.1823244
  69.5754525  23.2902732  61.5042572  69.5448530  24.1447369  61.6760841
  70.1735874  22.9898025  62.0628716  69.6591683  23.3719229  61.6117374
  62.7754210  22.3778383  66.2595502  61.9192106  22.5386882  66.3104619
  62.8221864  21.5070447  66.2800563  62.6553322  22.2729185  66.2701568
  57.1595350  31.9141101  62.0232734  56.4078249  31.5356640  61.7948779
  57.6081362  31.9459535  61.2751544  57.1145017  31.8626709  61.8790236
  62.6120310  32.3366471  57.4518281  62.2771678  33.0143392  57.0162503
  63.1247180  31.9471782  56.8635153  62.6385891  32.3791049  57.3005073
  62.1524601  34.2880740  63.3929393  62.5363980  34.8567638  62.8534168
  62.0883742  33.5630250  62.9135209  62.1998028  34.2656203  63.2423255
  65.6206031  24.4370427  68.9027154  66.1661991  25.1155514  68.9621124
  65.5622908  24.2957888  68.0428736  65.6921946  24.5162429  68.7839215
  58.7380106  31.9259494  64.2895506  58.8390469  31.1159847  64.5992634
  58.1421851  31.8316440  63.6595185  58.6652645  31.7924522  64.2421745
  67.3971100  25.8655034  59.7760882  67.2810626  26.6162721  60.2053020
  68.1926987  25.6078988  60.0256969  67.4975689  25.9389881  59.8764973
  58.5780846  36.8437083  65.6910363  59.2218301  37.2850247  66.0806521
  58.9037101  36.0390509  65.6040621  58.7212674  36.7902277  65.7355840
  51.9345150  27.9479780  63.9147840  51.6995335  27.1147432  63.8080109
  52.0730791  28.2284446  63.1009041  51.9200813  27.8663283  63.7790195
  54.2335238  20.1165511  66.8132148  53.6140269  19.5258158  66.6442163
  54.1319101  20.7076946  66.1796471  54.1272913  20.1169593  66.6937137
  59.2801425  29.8549058  61.0630224  59.6017266  30.3954265  60.4591532
  59.9273522  29.2845829  61.1952514  59.4227481  29.8508233  60.9937260
  61.3303133  21.8565052  61.1464611  62.0283298  22.0353180  61.6386074
  61.6455466  21.3335392  60.5235000  61.4798471  21.8058825  61.1266621
  53.9604371  23.6617792  69.0575717  53.8363068  24.2480238  69.6925536
  54.6122655  23.1677988  69.3587992  54.0378020  23.6756597  69.1961646
  61.5191069  28.2435498  61.1344402  61.9584704  27.6352598  61.5799175
  61.3695732  27.8642871  60.3629867  61.5612535  28.0973969  61.0863570
  58.9862712  26.8379509  68.3363228  59.6311714  26.3451952  68.0174176
  59.2264489  26.9804296  69.1629306  59.1173297  26.7856952  68.4112761
  61.5248803  29.6834415  67.9870120  61.8072046  28.8885821  67.7656876
  62.2534964  30.1615003  68.0075181  61.6738367  29.6369012  67.9573136
  59.5029997  17.2257449  65.2285886  59.1733327  17.6768593  64.5589584
  58.8274999  17.1473612  65.7758892  59.3540433  17.2808584  65.2109109
  65.1200405  26.5962679  58.0875172  65.0351701  27.4523645  58.2324740
  65.6084789  26.3207003  58.7557331  65.1789303  26.6820000  58.2077253
  66.7106405  13.2142972  63.4735496  66.3959846  13.9046451  63.9055919
  66.1933346  13.1587754  62.7720997  66.5870875  13.3077861  63.4332445
  71.5066892  28.7893777  64.9605951  70.6764595  29.0004421  65.1239368
  71.4576144  27.9630832  64.6848235  71.3773627  28.6983384  64.9443317
  57.9418446  27.1110690  58.3880375  57.3575662  27.6160721  58.7946239
  57.5388542  26.8853077  57.6476967  57.7957750  27.1518938  58.3385400
  53.4962475  32.8265451  65.1904046  53.0130053  33.5515941  65.1663630
  54.3085793  33.1241581  65.3014204  53.5453223  32.9767805  65.2031325
  59.5676629  31.6197632  67.7953861  59.0503571  31.2605047  67.1915169
  60.2651020  31.0959806  67.8059927  59.5942210  31.4895320  67.7084119
  63.2240221  32.0692446  73.7570034  63.3123567  31.8818586  74.6048244
  63.6529934  31.4229875  73.3574881  63.3002323  31.9455453  73.8241785
  60.7910681  31.3523606  72.7387696  60.2281516  30.9396215  73.2627357
  61.5531704  31.2776511  73.1580839  60.8205129  31.2801006  72.8780696
  62.3995661  23.3576342  56.8649295  62.6391665  23.5654326  56.0524638
  62.7211502  22.5533851  56.9738240  62.4832819  23.2690443  56.7609848
  57.7085951  15.2869738  60.7108833  58.4631919  15.6548055  60.4725883
  57.5313486  15.6609292  61.4788013  57.7940430  15.3967925  60.7893722
  56.3506672  33.3421627  65.3424326  57.0527252  32.8273616  65.3997083
  56.2704155  33.6695778  66.1471201  56.4430433  33.3135853  65.4697118
  57.3985579  23.5797214  74.4704741  57.5706083  23.4703108  75.3190023
  57.9354936  24.2251619  74.2335934  57.5030583  23.6589215  74.5609838
  56.0643016  17.6940057  57.4086946  55.8818589  17.9111937  56.5827939
  56.9268629  17.8079069  57.4645561  56.1647605  17.7429954  57.2941433
  55.6757448  29.5327979  64.8509934  56.5146347  29.7650912  64.8983696
  55.7069217  28.6632290  64.7816970  55.8039165  29.4384925  64.8474579
  56.3010151  29.9528854  69.1523240  56.8408376  29.8099985  69.8226612
  55.6180097  30.3525605  69.5207266  56.2802305  29.9908525  69.3057661
  61.7442735  14.6966467  60.4435970  62.4728895  14.5182422  59.9974126
  61.8337628  15.5384547  60.6543148  61.8649397  14.7950346  60.4089488
  65.7251036  25.6319855  64.3468264  66.4808551  26.0651369  64.3857173
  65.8313360  24.9824624  64.9202900  65.8521206  25.5997338  64.4366290
  68.7631207  29.4593132  65.0970667  68.3266439  29.4629874  65.8529638
  68.4294122  30.1398631  64.6650244  68.6493827  29.5605588  65.1451500
  63.3360280  31.5001465  76.4213817  64.1200697  31.6132312  76.7869559
  63.1356875  30.6742602  76.6172503  63.4226306  31.3948184  76.5048203
  51.7047296  26.1729145  69.3057661  51.4385711  25.3568261  69.4648652
  51.7185860  26.2182300  68.4353177  51.6672018  26.0586050  69.2011143
  55.6105043  20.9714229  55.9209419  54.8963220  20.6852409  56.3331852
  56.0949011  21.3110855  56.5615807  55.5764406  20.9795879  56.0765054
  56.4545902  19.7107523  71.9524669  55.7617699  19.2404503  72.1985400
  57.0706230  19.4845828  72.5266376  56.4430432  19.6074655  72.0733822
  63.4930674  33.4111567  70.0680273  62.6945919  33.1711067  70.3254142
  63.9416685  33.4625960  70.8147321  63.4405285  33.3833958  70.2165197
  71.8975553  26.1774052  63.9890304  72.5591987  25.6164720  63.8886213
  71.2566965  25.6826082  64.3142995  71.9004420  26.0210461  64.0222644
  62.7852361  29.4744183  56.2971228  63.2003509  29.1429207  55.6055723
  61.9544290  29.2413085  56.1691364  62.7240369  29.3915439  56.1762075
  52.1140709  26.9587924  66.5869405  51.9316283  26.9334810  65.7341698
  52.8490378  27.4286862  66.6258314  52.1954773  27.0249286  66.4667324
  68.1840384  27.1939434  63.7302293  68.4195973  27.3384633  62.9029144
  68.3329947  27.9581842  64.1233807  68.2406187  27.3278489  63.6665897
  55.1786461  23.6772927  73.0951514  55.9026433  23.6625958  73.5816409
  55.2802598  24.3868282  72.5973482  55.3004670  23.7797630  73.0930301
  70.0130840  26.0341100  61.5671897  70.3439058  26.5668740  60.9611992
  70.5863929  26.0879988  62.2233848  70.1464520  26.1210669  61.5749679
  65.2262730  23.8806003  62.2495477  65.3209584  24.6195297  62.7035102
  64.6021573  23.4523478  62.6830042  65.1471760  23.9267323  62.3803624
  63.4815203  27.0592215  72.8985758  64.0554065  26.4219460  73.0534322
  63.4030007  27.0596298  72.0295415  63.5548438  26.9657327  72.7932169
  52.0811620  23.8381425  66.7368472  52.6585122  23.7017876  67.3760717
  51.3825682  23.3817209  66.9914056  52.0632641  23.7503691  66.8690762
  65.4785751  25.7254743  55.4832429  65.3965913  25.7956930  56.3487416
  66.1165471  26.2884486  55.2916170  65.5605588  25.8193714  55.5822378
  58.8378922  25.4915481  64.9506955  58.5798166  24.6587215  64.9238255
  58.8927405  25.7173093  64.1099456  58.8078700  25.4013252  64.8227092
  63.9179972  17.5943931  65.0511048  63.2136299  17.1053117  65.2094967
  63.9664946  17.6066406  64.1799492  63.8210024  17.5233579  64.9450388
  57.8113634  23.0453243  65.4371850  57.2363225  23.2045411  66.0735811
  57.4349310  22.4088652  64.9740301  57.6716447  22.9751056  65.4626408
  61.4786923  21.5176592  70.2964228  61.0901356  21.0930810  69.6416420
  60.8141621  21.7658742  70.8041255  61.3233851  21.4915313  70.2752096
  71.1210192  21.2751597  63.0712058  70.8646757  20.4631538  62.8809941
  71.9639506  21.2829164  62.8442246  71.2076217  21.1563594  63.0096876
  47.5570453  22.6893318  63.4516291  47.6430705  22.3125186  64.2329821
  48.1846251  22.3153763  62.9736249  47.6627004  22.5778800  63.4961768
  62.5825861  25.7475197  58.4941035  63.3966500  26.0390090  58.3823807
  62.5185002  25.0935059  57.9199328  62.6928600  25.6940392  58.3929873
  58.4533769  29.2196714  63.6213348  59.0907716  28.9808462  64.1665141
  58.8788841  29.4233873  62.8866508  58.6109936  29.2147725  63.5930505
  53.1446412  31.4585051  67.5047651  53.1850557  31.7299902  66.6767431
  53.7040936  31.9826959  67.9205439  53.2329758  31.5760806  67.4439539
  59.0936584  24.4399004  57.9588237  59.4781737  24.2206711  58.7104782
  58.8448205  25.2661949  58.0889313  59.1138657  24.5297150  58.0889313
  69.8271772  28.2145642  68.9698906  69.5217589  28.9473699  69.3312221
  69.1077988  27.8083571  68.6891692  69.6759114  28.2627375  68.9812043
  60.8355241  29.6969137  65.3007134  60.9094250  29.5344309  66.1548984
  61.6524748  29.8859326  65.0567615  60.9671600  29.7005879  65.3905159
  54.5960998  30.0427000  62.3301577  53.7699116  30.2888737  62.2035856
  54.6572989  29.9639081  63.1963635  54.4835165  30.0671949  62.4390522
  56.8137022  16.1095941  63.2897017  55.9459447  16.1818540  63.3554627
  57.1012226  16.9118020  63.4784993  56.7276770  16.2390088  63.3271784
  59.3759827  32.6603880  60.0320607  59.6658125  32.2692861  59.3079834
  60.1063308  32.8420585  60.4725882  59.5266711  32.6297694  59.9903414
  59.9654572  27.4621626  71.1173738  59.4666266  28.1737394  71.1958626
  60.7754796  27.7822292  71.0791900  60.0110679  27.6148475  71.1230306
  57.3165743  34.6371262  63.0980757  57.0966038  34.3468617  63.8907424
  57.0960265  33.9786217  62.5698669  57.2513337  34.4970971  63.1369666
  56.2282690  26.7244579  65.3636459  55.9395938  26.0982050  65.8982186
  57.0966038  26.6664866  65.4301139  56.3142942  26.6232123  65.4527413
  67.0160588  21.8679362  65.6818440  66.6725353  21.1469698  66.0325690
  67.1153630  21.6593213  64.8396799  66.9802630  21.7303566  65.6090120
  59.4833698  36.0100652  61.8811449  60.1357756  35.4777095  62.1102475
  58.7859307  35.6569305  62.2679323  59.4764416  35.8790175  61.9723617
  56.4314963  28.3639830  61.2878824  57.1860931  28.7452869  61.5014286
  55.8385576  28.8150974  61.7425520  56.4551677  28.4868657  61.3861702
  67.4773617  28.3305066  61.2242429  68.0431649  28.9898276  61.1400971
  66.8301520  28.6754764  61.6958831  67.4652373  28.4787008  61.2815185
  58.8921630  20.3202670  76.4136036  58.0821406  20.6260450  76.3025878
  59.3696317  21.0408253  76.5288620  58.8425109  20.4717271  76.4143107
  57.7513190  29.5348391  66.6618939  57.2293943  29.6748683  67.3470804
  58.1387210  28.7759056  66.8521056  57.7316891  29.4433915  66.7920016
  54.7404374  19.5854200  60.7313894  54.4529170  19.2155470  59.9945841
  55.4274842  20.0549055  60.4697599  54.7993271  19.6001169  60.5828969
  63.9480195  31.2743851  60.6479508  63.7066871  30.5411711  60.2406573
  64.1281528  31.8230708  59.9945841  63.9387819  31.2466242  60.4909731
  59.1779515  26.5652410  62.0600430  58.9822298  27.1727145  61.4660733
  59.4013861  25.8720354  61.5792104  59.1814156  26.5529936  61.9016511
  57.5758045  23.4507148  62.1781298  58.2980697  23.6148306  61.7185104
  57.0966038  24.1716813  62.0720638  57.6121776  23.5805378  62.0946912
  65.5351553  19.7870947  67.5577983  64.6962654  19.8132226  67.3216247
  65.6055920  20.4341682  68.1383330  65.4219946  19.8867073  67.6087100
  55.2265662  25.8565221  71.2835438  55.7386759  26.1349474  70.6344198
  54.9402005  26.5954515  71.6498251  55.2600525  26.0067574  71.2425316
  63.9820831  16.6856324  62.2905599  64.6847184  16.4864072  61.8125557
  63.7165020  15.9132266  62.5974443  64.0467464  16.5419290  62.2651041
  69.4109077  24.9938934  64.8439225  69.3243051  25.1494360  65.6974004
  68.9559557  25.6377009  64.4698630  69.3312333  25.1114689  64.9146332
  52.3132568  20.3635413  61.5799175  52.4148705  21.1661574  61.9080150
  53.1088455  20.1622748  61.2822255  52.4460474  20.4521311  61.5834530
  58.7449387  17.9491609  71.3436480  58.5532584  17.9646744  72.1935903
  59.5947983  18.1455284  71.3203135  58.8425109  17.9805960  71.4659775
  53.1296300  20.4782591  69.3220296  52.9881792  19.6266531  69.4464804
  53.4136864  20.5211251  68.4982502  53.1504147  20.3582341  69.2187920
  63.2834893  22.3149681  63.4664785  63.0369607  22.2345432  64.3001574
  63.6120016  21.5303149  63.2727312  63.2956136  22.1875946  63.5612308
  67.1782942  29.0233040  67.2551566  67.0397301  29.7214086  67.7600308
  66.3982940  28.8681697  66.8987748  67.0426169  29.1033207  67.2777840
  59.2431920  25.0506399  72.8787768  59.3875296  25.6307608  72.2430878
  59.5907569  25.4282696  73.5837622  59.3159381  25.1927104  72.8886763
  61.4151837  24.2496568  70.6612899  60.6675152  24.4427582  70.2561177
  61.5693363  23.4241787  70.4237021  61.3274265  24.1561679  70.5658305
  58.3159675  33.2409171  69.7448794  58.4649239  32.6812087  69.0922199
  59.0959677  33.3201173  70.1281313  58.4533769  33.1694737  69.7045744
  68.6736315  28.3811294  58.0168065  68.2943123  27.5948432  58.0097354
  68.0102560  28.9298151  57.8739709  68.5194789  28.3456118  57.9948862
  60.8412976  33.4123814  71.0233285  60.7656647  32.7432625  71.5784074
  60.7702835  34.1141602  71.5373952  60.8193583  33.4168722  71.1810133
  61.6553614  18.1447119  71.5508303  62.1126229  18.8771093  71.6781095
  61.7309943  17.7213584  72.3095559  61.7344584  18.1904357  71.6809379
  53.8986606  18.3912938  72.6397747  53.3628795  17.7793296  72.9558514
  53.9604370  18.9661074  73.2931413  53.8282238  18.3859866  72.7833173
  61.4983223  31.9324813  61.8556891  62.2633114  31.6634457  61.5339556
  61.3961313  31.4474823  62.5726954  61.5964718  31.8214378  61.9136719
  59.5335992  20.1349223  68.3950127  58.7432067  19.9540683  68.7167463
  59.9296615  19.3576175  68.3780421  59.4752869  19.9936683  68.4402675
  64.0201883  28.9636997  53.8356841  64.7874868  29.0237122  53.4262692
  63.5733192  28.3917438  53.3513159  64.0675310  28.8873573  53.7034551
  64.9179679  27.7691653  66.1209573  64.2424681  27.5376885  66.6222960
  64.9272055  27.1612836  65.4951678  64.8198183  27.6450578  66.1025725
  62.0473823  22.6109482  72.8773626  61.9832964  23.4719438  72.7493763
  62.1871010  22.2941475  72.0769177  62.0589293  22.6909648  72.7401839
  66.9196413  30.6256785  58.3519751  67.0016251  31.4323771  58.0281202
  67.4046155  30.6452744  59.0760524  67.0033571  30.7477447  58.4106650
  60.7292917  25.3041621  67.0189829  60.3055166  25.5046120  66.2828847
  60.5537772  24.4570469  67.1314129  60.6403797  25.2090402  66.9263519
  60.2304610  36.8192134  69.4811286  60.7200540  36.1202923  69.2986951
  59.6588842  36.5216004  70.0687343  60.2189140  36.6718358  69.5412327
  56.0175362  25.7993672  62.4517801  56.1739981  25.7340475  63.3073793
  56.3575955  26.5742225  62.2396481  56.0908596  25.9042871  62.5472396
  62.5554506  25.1751556  61.3211165  63.0970052  24.6721937  61.7849785
  62.8701065  25.1216751  60.5100650  62.6818903  25.0930977  61.2694977
  60.7240956  30.5668908  58.6051193  60.7933776  29.7083446  58.7444193
  61.5029411  30.7840788  58.2770217  60.8493806  30.4721772  58.5768350
  63.7043776  20.0687861  71.3733465  63.9185745  19.4298775  70.8196819
  63.0877675  20.5133684  70.9441327  63.6449105  20.0398004  71.2283896
  65.1148443  32.9906609  62.8187686  64.7228235  32.6873324  62.1010552
  65.2701516  33.8275699  62.6292640  65.0802033  33.0690446  62.6844183
  52.5909623  22.9828623  62.7678569  52.9708588  23.4013168  62.1038836
  52.0164988  23.5642079  63.0747412  52.5620948  23.1306482  62.7155310
  65.2788118  29.5556598  62.7593716  64.9202773  29.7271241  63.5357749
  64.7926829  30.0169803  62.2021715  65.1546815  29.6495569  62.7918986
  63.0958504  13.1787796  66.3620808  62.2252062  13.1526517  66.3154117
  63.3498845  13.0064988  65.5446654  63.0052064  13.1497940  66.2340945
  60.0676484  25.2355763  55.2993951  60.3569008  26.0120646  55.5737525
  60.1548282  24.7244495  56.0008450  60.1230740  25.2747681  55.4436449
  60.1207645  15.1894025  67.8194278  59.6046133  14.4974216  67.9445857
  59.5601574  15.8564802  67.7656877  59.9614158  15.1857282  67.8300344
  62.1899878  15.7286985  69.6487131  61.8031631  15.7536016  70.4300661
  61.7032815  15.1628663  69.1961647  62.0612387  15.6482736  69.6975034
  66.4392858  30.4460494  73.7060917  67.0772578  29.9520689  73.3723373
  65.7966949  30.3737894  73.1213144  66.4387084  30.3619502  73.5703272
  68.1649858  22.2949640  68.2726833  67.7377466  22.2075988  67.5174933
  67.5275911  22.4027415  68.8581677  68.0079465  22.2982299  68.2472275
  66.4947114  31.1380302  70.3466274  67.2839492  30.7869367  70.4668356
  66.6690712  31.9516690  70.0842908  66.6367396  31.2066159  70.3254142
  56.2340425  24.5489028  67.3994063  55.3928431  24.4492902  67.6072957
  56.4430433  25.3184508  67.7508384  56.1405117  24.6481071  67.4821378
  53.7115992  22.1708565  65.2278814  53.3172689  22.2451576  64.4528923
  53.1556108  22.5566511  65.7787175  53.5718804  22.2390339  65.1946473
  65.3480938  15.1489859  64.9082693  65.5530532  15.0812166  65.7539690
  65.0207362  15.9548680  64.8403870  65.3296186  15.2575799  65.0242348
  60.0457089  22.4770427  66.6491660  59.7420227  21.9226415  67.2502068
  59.3436510  22.6562637  66.1619695  59.8973299  22.4215209  66.6661366
  59.1023187  19.7870947  61.2136362  59.3782921  19.0689859  60.8013930
  59.7021856  20.3855867  61.0057468  59.2316451  19.7691317  61.1217124
  58.1075440  29.6920148  71.3563758  57.9995795  29.7022210  72.2225816
  58.3171222  30.5174928  71.1668712  58.1225552  29.8161222  71.4567850
  68.6014626  15.7021623  64.3885458  67.9888940  16.1892025  64.7739190
  68.6978801  15.0265114  64.9323109  68.5252524  15.6739932  64.5264316
  62.6033707  17.4584464  59.4882957  63.0577454  17.6295024  60.2130802
  63.0773753  16.8452575  59.0880733  62.7402027  17.3935349  59.5356719
  56.1249232  26.9432790  68.8185696  55.5337166  27.5842288  68.7888711
  56.8870256  27.3670407  68.7916995  56.1497493  27.1008628  68.8100843
  56.5209855  18.1034788  69.4853713  56.9811337  18.1773717  70.2228837
  56.5665962  18.9016042  69.1353535  56.5960411  18.2328935  69.5426470
  58.1693205  18.7701483  74.0525741  57.7778770  18.1234830  74.4881518
  58.3379068  19.3612918  74.6719996  58.1364115  18.7615750  74.2088447
  65.8838749  32.3942102  66.2517720  65.6858437  32.8832916  65.5573932
  65.2626460  32.5983343  66.8301854  65.7626313  32.4958640  66.2340944
  59.9446727  24.1626998  60.5927965  60.6888772  24.5501275  60.8310914
  60.0907423  23.3184424  60.7568452  60.0757312  24.0957471  60.6521934
  61.8626303  15.9577257  65.6259826  61.0162348  16.1300065  65.5001176
  61.8597435  15.1526601  65.9625654  61.7373452  15.8638286  65.6570953
  62.9324603  19.7352472  66.4921884  62.4584557  19.2094234  67.0027195
  63.3042739  19.1881945  65.9236745  62.9174492  19.5768468  66.4837031
  53.3097633  21.7323978  71.8605430  54.1723246  21.6319688  71.7742759
  52.9789416  21.1518688  71.2991002  53.3882829  21.6315605  71.7650836
  69.1961334  24.7954847  67.9028664  68.9559556  23.9561262  67.9071091
  69.6753341  24.8755014  68.6269438  69.2313517  24.6836247  68.0103467
  64.8608103  20.6289026  59.5547638  64.3331121  20.7117770  58.8653347
  65.3203811  21.3706898  59.5512282  64.8509953  20.7509689  59.4522333
  71.1966521  21.5756305  65.8557924  70.9576290  21.5352139  65.0178708
  71.3600422  22.4227457  65.9823645  71.1856824  21.6948390  65.7511405
  67.8012551  25.9606254  71.7862969  68.5246750  25.5078780  71.6073989
  67.5362513  26.2410920  71.0035297  67.8693824  25.9357222  71.6441684
  56.6699419  20.5566427  68.5215848  56.0452489  20.5684819  67.9141801
  56.3345014  21.0326602  69.1707088  56.5284911  20.6284944  68.5272416
  56.8541168  18.8991546  54.5788533  56.5053972  19.5511271  55.0420082
  56.3737614  18.8848659  53.8512404  56.7311412  18.9934599  54.5399624
  53.3825095  28.6166887  69.9619612  52.8525019  27.9259326  70.0114587
  53.6550188  28.6077073  69.1332321  53.3449817  28.5134019  69.8467028
  64.4145185  29.1992590  58.6857295  65.1379384  29.6650703  58.5421868
  63.9745776  29.2666199  57.9354892  64.4560877  29.2776427  58.5542076
  63.5831340  26.0590132  69.9357984  62.9688333  25.5148182  70.2306619
  64.0998625  25.5454369  69.4563800  63.5687003  25.9026541  69.9082212
  62.8227637  27.1294402  67.6702282  62.3955245  26.5044121  67.2367718
  62.8152582  26.8469324  68.4961290  62.7586779  26.9947183  67.7282110
  55.9390164  22.1659575  70.7390716  56.0983651  21.4102899  71.1442438
  55.7583058  22.7150515  71.3931454  55.9355523  22.1353389  70.8953422
  61.1513347  18.0063157  67.8844816  61.1755834  17.4723269  67.1957596
  61.4024821  17.4980465  68.5470407  61.1923266  17.8524061  67.8809461
  48.6620937  25.2894652  67.3187960  48.5564386  25.2441496  66.4540045
  47.9121157  25.6348432  67.6002245  48.5356540  25.3335560  67.2325290
  57.4314669  16.7333975  67.2650561  57.4713041  17.2343181  67.9785268
  56.6064334  16.8244369  66.9956484  57.3154195  16.8215791  67.3301099
  59.6144282  26.2994715  75.3670855  58.7639913  26.4366429  75.5028500
  59.7772410  25.5658493  75.8118557  59.5128146  26.2108816  75.4526454
  58.8529033  23.2494485  69.5624460  58.0220962  23.4168303  69.3559708
  58.7980550  22.8730436  70.3473345  58.7218448  23.2184216  69.6472988
  57.2265076  21.5250076  60.0914577  57.3668038  22.0222540  60.7943219
  57.7247609  20.8236371  60.2328791  57.3206157  21.4952055  60.2166156
  57.2565299  22.3917187  57.4207154  57.8910378  22.9877612  57.3556616
  57.3390910  22.0920645  58.2353024  57.3621850  22.4358095  57.5310241
  58.8344282  18.3231163  57.3952596  59.1560123  17.8434245  56.7411859
  59.0971225  19.1330809  57.2043408  58.9210307  18.3721061  57.2708088
  62.0641254  29.3450037  70.9151412  61.5566346  29.8985884  71.3592043
  61.7667901  29.4058327  70.0970187  61.9446139  29.4356348  70.8599869
  64.2303437  17.7103357  69.7576075  64.6558508  17.2575883  69.1459602
  63.6160430  17.1563427  70.0340863  64.2032082  17.5617333  69.7081101
  53.7618287  24.5885028  60.6896700  54.2710516  25.1849536  61.0708006
  54.2352559  24.3211002  60.0073120  53.9061662  24.6370843  60.6451223
  64.6749035  33.2613295  58.8455356  63.9578344  33.0874157  58.3802593
  65.3255772  33.0265867  58.3130842  64.6650885  33.2009087  58.6984574
  62.6697660  14.1818456  63.1666652  62.0265977  14.0316103  63.7351791
  62.3297067  13.9360802  62.4015757  62.5242737  14.1230579  63.1369667
  67.2597006  22.1377883  62.5896661  66.5888196  22.6807586  62.4609726
  67.9536756  22.6072739  62.3478356  67.2625873  22.2876155  62.5352189
  61.3083740  34.2774595  67.8208419  61.0849394  33.5193425  68.1892446
  60.8193583  34.3072616  67.0988859  61.2027189  34.1696820  67.7685160
  67.4225133  18.5933767  65.4987034  67.7752744  18.1663490  66.1732833
  66.5639935  18.5084610  65.6288111  67.3474578  18.5178508  65.6182045
  56.1208818  21.2241287  63.5569881  55.4020808  21.6405419  63.8242744
  56.4921181  21.7895525  63.0061519  56.0700750  21.3690568  63.5152688
  65.4208399  21.8569136  69.4471876  65.4006327  21.6752431  70.3006655
  65.4687600  22.7281154  69.4231460  65.4243040  21.9585674  69.5695171
  63.3654729  28.4456327  75.3720353  63.3250584  27.8006004  74.7865509
  64.1778047  28.3892945  75.6845765  63.4797883  28.3415294  75.3317302
  59.9562197  34.4975053  65.2745504  59.5422595  33.8349184  64.8849345
  60.6409571  34.6452912  64.7541198  59.9960568  34.4215712  65.1402001
  63.3227491  33.6565139  66.0269120  62.9243774  33.7667409  65.2589941
  62.7078710  33.8647205  66.6095680  63.1726380  33.7038707  66.0000420
  61.8955393  20.2639287  58.8943260  61.3020232  20.5856283  58.3427827
  61.9330671  19.4180382  58.6864366  61.8129782  20.1863615  58.7826031
  64.7713209  20.2218791  62.3245010  64.5426902  20.2451492  61.4823369
  65.0311286  19.3976258  62.4440021  64.7759397  20.1034871  62.2170208
  59.0532438  22.0753264  71.9270111  58.5411341  21.4674447  72.2855142
  58.8811934  22.7909857  72.3944086  58.9522075  22.0916563  72.0486334
  53.8998153  20.5190839  74.5772472  53.7300743  21.1792214  74.0320679
  53.4564102  20.7297401  75.2984961  53.8097486  20.6476821  74.6034102
  57.8257972  18.7595337  63.6199206  58.3015338  19.1212417  62.9849387
  57.3246572  19.4151805  63.8999349  57.8223331  18.9089526  63.5675947
  71.0569333  28.2317105  59.4112211  71.4402939  28.9808462  59.6410308
  70.2613447  28.4782925  59.1524200  70.9963116  28.3786799  59.4069785
  50.8000217  23.4237705  69.8360962  50.2526936  22.7538350  69.9541830
  51.5892595  23.0567553  69.9004429  50.8352401  23.2702691  69.8629663
  60.6484625  23.0845162  75.3324373  61.3995952  23.3996839  75.6463927
  60.8407202  22.8824333  74.5058295  60.7876040  23.1012544  75.2567769
  59.8684625  20.9036537  56.9872590  60.2483590  20.9216166  56.2023705
  59.1277221  21.3490526  56.8663437  59.8153463  20.9718312  56.8536158
  67.4969916  19.2118728  62.5748169  67.4964142  19.0567385  63.4332445
  67.2926096  20.0581715  62.5189554  67.4669693  19.3139349  62.6936108
  49.5587187  22.6358513  66.9906985  49.3808948  22.1835122  67.7161901
  49.2706209  23.4384674  67.1745463  49.4900140  22.6881071  67.1250488
  65.2210768  23.8916230  66.2284376  65.7164433  23.1739225  66.1888396
  64.4110543  23.5887028  66.1138862  65.1754661  23.7413876  66.2058101
  60.6669379  27.7414043  58.3781380  59.8580702  27.4180717  58.3314689
  61.1744288  27.0347265  58.3109629  60.6219046  27.5895360  58.3611674
  51.2959656  25.1686236  64.1028744  50.4305176  25.1571927  63.9911515
  51.3958472  24.9816459  64.9499884  51.1833823  25.1392298  64.2117689
  67.2862587  26.6419918  68.9161504  67.7117658  26.1194339  68.3631929
  66.9219506  27.2400755  68.3950127  67.2949189  26.6530145  68.7570514
  56.9216666  34.9384135  67.6758850  57.2363225  35.7520524  67.6836632
  57.3310080  34.5534354  68.3441009  57.0284764  35.0012837  67.7762941
  63.8741186  30.3554182  65.2462662  64.3452364  31.0694444  65.4152647
  64.2101364  29.7552932  65.7822531  63.9936301  30.3725646  65.3495038
  64.5115132  30.1472116  72.0090354  63.9636078  29.5230000  71.7410420
  64.9728161  30.3366388  71.2934434  64.4982342  30.0831166  71.8640786
  59.8603796  17.1298065  59.6700222  60.6819490  17.2996378  59.4281916
  59.3973447  17.2845326  58.9466519  59.9134958  17.1779798  59.5271866
  58.4499128  15.1240828  70.4498650  58.9943541  14.7831954  71.0402992
  58.5036063  15.9826289  70.5919935  58.5388247  15.1996087  70.5580524
  54.2629686  28.8857244  67.3237458  54.8674544  28.8453078  66.6951279
  54.0556999  29.7328396  67.3541514  54.3218584  29.0045246  67.2353575
  64.0773459  31.1523189  68.5399696  64.8971832  31.0086155  68.8015991
  63.7967536  31.7769388  69.0816133  64.1570202  31.2233541  68.6587635
  49.4980969  27.8691861  67.1936381  49.4005247  27.0588133  67.5026438
  50.2809838  27.8483654  66.8082649  49.5997105  27.7458951  67.1823244
  73.7486794  37.8963691  66.2595502  72.8924689  38.0572190  66.3104619
  73.7954448  37.0255755  66.2800563  73.6285905  37.7914493  66.2701568
  68.1327934  47.4326409  62.0232734  67.3810833  47.0541948  61.7948779
  68.5813945  47.4644843  61.2751544  68.0877600  47.3812016  61.8790236
  73.5852893  47.8551779  57.4518281  73.2504262  48.5328700  57.0162503
  74.0979764  47.4657090  56.8635153  73.6118475  47.8976357  57.3005073
  73.1257185  49.8066047  63.3929393  73.5096564  50.3752946  62.8534168
  73.0616326  49.0815558  62.9135209  73.1730612  49.7841511  63.2423255
  76.5938615  39.9555735  68.9027154  77.1394575  40.6340822  68.9621124
  76.5355491  39.8143196  68.0428736  76.6654529  40.0347737  68.7839215
  69.7112690  47.4444801  64.2895506  69.8123053  46.6345155  64.5992634
  69.1154435  47.3501748  63.6595185  69.6385228  47.3109830  64.2421745
  69.5513429  52.3622391  65.6910363  70.1950885  52.8035555  66.0806521
  69.8769685  51.5575817  65.6040621  69.6945258  52.3087585  65.7355840
  62.9077734  43.4665088  63.9147840  62.6727918  42.6332740  63.8080109
  63.0463375  43.7469754  63.1009041  62.8933396  43.3848591  63.7790195
  65.2067821  35.6350819  66.8132148  64.5872853  35.0443466  66.6442163
  65.1051685  36.2262254  66.1796471  65.1005497  35.6354901  66.6937137
  70.2534009  45.3734365  61.0630224  70.5749850  45.9139573  60.4591532
  70.9006105  44.8031137  61.1952514  70.3960064  45.3693541  60.9937260
  72.3035717  37.3750360  61.1464611  73.0015882  37.5538488  61.6386074
  72.6188050  36.8520700  60.5235000  72.4531054  37.3244133  61.1266621
  64.9336954  39.1803100  69.0575717  64.8095651  39.7665546  69.6925536
  65.5855239  38.6863296  69.3587992  65.0110604  39.1941905  69.1961646
  72.4923652  43.7620805  61.1344402  72.9317288  43.1537906  61.5799175
  72.3428315  43.3828179  60.3629867  72.5345118  43.6159277  61.0863570
  69.9595295  42.3564817  68.3363228  70.6044298  41.8637260  68.0174176
  70.1997072  42.4989604  69.1629306  70.0905881  42.3042259  68.4112761
  72.4981387  45.2019723  67.9870120  72.7804630  44.4071129  67.7656876
  73.2267547  45.6800311  68.0075181  72.6470951  45.1554320  67.9573136
  70.4762581  32.7442757  65.2285886  70.1465911  33.1953901  64.5589584
  69.8007582  32.6658920  65.7758892  70.3273017  32.7993892  65.2109109
  76.0932989  42.1147987  58.0875172  76.0084284  42.9708953  58.2324740
  76.5817372  41.8392311  58.7557331  76.1521886  42.2005308  58.2077253
  77.6838988  28.7328280  63.4735496  77.3692429  29.4231759  63.9055919
  77.1665930  28.6773062  62.7720997  77.5603459  28.8263169  63.4332445
  77.0251422  38.7332781  59.5872907  76.4962894  38.9492414  60.2470213
  77.5476442  39.4268919  59.5073876  77.0239875  38.8675918  59.6728506
  68.9151030  42.6295998  58.3880375  68.3308245  43.1346029  58.7946239
  68.5121125  42.4038385  57.6476967  68.7690334  42.6704246  58.3385400
  64.4695059  48.3450759  65.1904046  63.9862637  49.0701248  65.1663630
  65.2818377  48.6426889  65.3014204  64.5185806  48.4953113  65.2031325
  70.5409213  47.1382940  67.7953861  70.0236154  46.7790355  67.1915169
  71.2383604  46.6145114  67.8059927  70.5674794  47.0080627  67.7084119
  73.3728244  38.8761650  56.8649295  73.6124248  39.0839633  56.0524638
  73.6944085  38.0719158  56.9738240  73.4565402  38.7875751  56.7609848
  68.6818535  30.8055045  60.7108833  69.4364503  31.1733363  60.4725883
  68.5046069  31.1794600  61.4788013  68.7673013  30.9153233  60.7893722
  67.3239256  48.8606935  65.3424326  68.0259835  48.3458924  65.3997083
  67.2436739  49.1881086  66.1471201  67.4163016  48.8321161  65.4697118
  68.3718162  39.0982522  74.4704741  68.5438666  38.9888416  75.3190023
  68.9087520  39.7436927  74.2335934  68.4763166  39.1774523  74.5609838
  67.0375599  33.2125364  57.4086946  66.8551173  33.4297245  56.5827939
  67.9001212  33.3264377  57.4645561  67.1380189  33.2615262  57.2941433
  66.6490031  45.0513287  64.8509934  67.4878931  45.2836219  64.8983696
  66.6801800  44.1817598  64.7816970  66.7771749  44.9570233  64.8474579
  67.2742734  45.4714162  69.1523240  67.8140959  45.3285293  69.8226612
  66.5912681  45.8710913  69.5207266  67.2534888  45.5093833  69.3057661
  72.7175319  30.2151775  60.4435970  73.4461479  30.0367730  59.9974126
  72.8070211  31.0569855  60.6543148  72.8381981  30.3135654  60.4089488
  76.6983619  41.1505163  64.3468264  77.4541134  41.5836677  64.3857173
  76.8045944  40.5009932  64.9202900  76.8253790  41.1182646  64.4366290
  62.6779879  41.6914453  69.3057661  62.4118295  40.8753569  69.4648652
  62.6918444  41.7367608  68.4353177  62.6404602  41.5771357  69.2011143
  66.5837626  36.4899537  55.9209419  65.8695804  36.2037717  56.3331852
  67.0681595  36.8296163  56.5615807  66.5496990  36.4981187  56.0765054
  67.4278486  35.2292831  71.9524669  66.7350283  34.7589811  72.1985400
  68.0438813  35.0031135  72.5266376  67.4163016  35.1259963  72.0733822
  73.7584944  44.9929491  56.2971228  74.1736093  44.6614515  55.6055723
  72.9276874  44.7598393  56.1691364  73.6972953  44.9100747  56.1762075
  63.0873293  42.4773232  66.5869405  62.9048866  42.4520118  65.7341698
  63.8222962  42.9472170  66.6258314  63.1687357  42.5434594  66.4667324
  66.1519045  39.1958235  73.0951514  66.8759017  39.1811266  73.5816409
  66.2535181  39.9053590  72.5973482  66.2737254  39.2982938  73.0930301
  76.1995313  39.3991311  62.2495477  76.2942168  40.1380605  62.7035102
  75.5754157  38.9708786  62.6830042  76.1204343  39.4452631  62.3803624
  63.0544203  39.3566733  66.7368472  63.6317706  39.2203184  67.3760717
  62.3558265  38.9002517  66.9914056  63.0365225  39.2688999  66.8690762
  76.4518334  41.2440050  55.4832429  76.3698497  41.3142238  56.3487416
  77.0898055  41.8069794  55.2916170  76.5338172  41.3379022  55.5822378
  69.8111506  41.0100788  64.9506955  69.5530750  40.1772523  64.9238255
  69.8659988  41.2358401  64.1099456  69.7811283  40.9198560  64.8227092
  74.8912556  33.1129239  65.0511048  74.1868882  32.6238425  65.2094967
  74.9397530  33.1251714  64.1799492  74.7942607  33.0418887  64.9450388
  68.7846218  38.5638551  65.4371850  68.2095809  38.7230719  66.0735811
  68.4081894  37.9273960  64.9740301  68.6449030  38.4936364  65.4626408
  72.4519506  37.0361900  70.2964228  72.0633939  36.6116118  69.6416420
  71.7874205  37.2844050  70.8041255  72.2966434  37.0100621  70.2752096
  58.5303037  38.2078626  63.4516291  58.6163288  37.8310494  64.2329821
  59.1578834  37.8339071  62.9736249  58.6359588  38.0964108  63.4961768
  73.5558445  41.2660505  58.4941035  74.3699083  41.5575398  58.3823807
  73.4917586  40.6120367  57.9199328  73.6661184  41.2125700  58.3929873
  69.4266353  44.7382022  63.6213348  70.0640300  44.4993770  64.1665141
  69.8521424  44.9419181  62.8866508  69.5842519  44.7333032  63.5930505
  64.1178995  46.9770359  67.5047651  64.1583141  47.2485210  66.6767431
  64.6773519  47.5012267  67.9205439  64.2062341  47.0946114  67.4439539
  70.0669168  39.9584312  57.9588237  70.4514321  39.7392019  58.7104782
  69.8180788  40.7847257  58.0889313  70.0871240  40.0482458  58.0889313
  71.8087825  45.2154445  65.3007134  71.8826833  45.0529617  66.1548984
  72.6257331  45.4044634  65.0567615  71.9404183  45.2191187  65.3905159
  65.5693582  45.5612308  62.3301577  64.7431699  45.8074045  62.2035856
  65.6305573  45.4824389  63.1963635  65.4567748  45.5857257  62.4390522
  67.7869605  31.6281249  63.2897017  66.9192031  31.7003848  63.3554627
  68.0744810  32.4303328  63.4784993  67.7009353  31.7575396  63.3271784
  70.3492411  48.1789188  60.0320607  70.6390709  47.7878169  59.3079834
  71.0795891  48.3605893  60.4725882  70.4999295  48.1483002  59.9903414
  70.9387156  42.9806934  71.1173738  70.4398849  43.6922702  71.1958626
  71.7487380  43.3007600  71.0791900  70.9843262  43.1333782  71.1230306
  68.2898326  50.1556570  63.0980757  68.0698622  49.8653925  63.8907424
  68.0692848  49.4971525  62.5698669  68.2245920  50.0156279  63.1369666
  67.2015273  42.2429887  65.3636459  66.9128522  41.6167358  65.8982186
  68.0698621  42.1850174  65.4301139  67.2875525  42.1417431  65.4527413
  77.9893171  37.3864670  65.6818440  77.6457937  36.6655005  66.0325690
  78.0886214  37.1778521  64.8396799  77.9535214  37.2488873  65.6090120
  70.4566282  51.5285960  61.8811449  71.1090340  50.9962403  62.1102475
  69.7591891  51.1754613  62.2679323  70.4497000  51.3975483  61.9723617
  67.4047547  43.8825138  61.2878824  68.1593515  44.2638177  61.5014286
  66.8118159  44.3336282  61.7425520  67.4284260  44.0053965  61.3861702
  69.8654214  35.8387978  76.4136036  69.0553989  36.1445758  76.3025878
  70.3428900  36.5593561  76.5288620  69.8157692  35.9902579  76.4143107
  68.7245773  45.0533699  66.6618939  68.2026527  45.1933991  67.3470804
  69.1119794  44.2944364  66.8521056  68.7049474  44.9619223  66.7920016
  65.7136957  35.1039508  60.7313894  65.4261753  34.7340778  59.9945841
  66.4007426  35.5734363  60.4697599  65.7725855  35.1186477  60.5828969
  74.9212778  46.7929158  60.6479508  74.6799454  46.0597019  60.2406573
  75.1014111  47.3416015  59.9945841  74.9120402  46.7651550  60.4909731
  70.1512099  42.0837718  62.0600430  69.9554882  42.6912453  61.4660733
  70.3746445  41.3905662  61.5792104  70.1546740  42.0715244  61.9016511
  68.5490629  38.9692456  62.1781298  69.2713281  39.1333614  61.7185104
  68.0698622  39.6902121  62.0720638  68.5854360  39.0990686  62.0946912
  76.5084137  35.3056255  67.5577983  75.6695237  35.3317534  67.3216247
  76.5788504  35.9526990  68.1383330  76.3952530  35.4052381  67.6087100
  66.1998246  41.3750529  71.2835438  66.7119343  41.6534782  70.6344198
  65.9134588  42.1139823  71.6498251  66.2333109  41.5252882  71.2425316
  74.9553415  32.2041632  62.2905599  75.6579768  32.0049380  61.8125557
  74.6897604  31.4317574  62.5974443  75.0200047  32.0604598  62.2651041
  63.2865152  35.8820720  61.5799175  63.3881288  36.6846882  61.9080150
  64.0821039  35.6808056  61.2822255  63.4193058  35.9706619  61.5834530
  69.7181971  33.4676917  71.3436480  69.5265168  33.4832052  72.1935903
  70.5680567  33.6640591  71.3203135  69.8157693  33.4991268  71.4659775
  64.1028884  35.9967899  69.3220296  63.9614376  35.1451839  69.4464804
  64.3869447  36.0396559  68.4982502  64.1236730  35.8767649  69.2187920
  74.2567476  37.8334989  63.4664785  74.0102191  37.7530740  64.3001574
  74.5852599  37.0488457  63.2727312  74.2688720  37.7061254  63.5612308
  78.1515525  44.5418348  67.2551566  78.0129885  45.2399394  67.7600308
  77.3715523  44.3867005  66.8987748  78.0158752  44.6218515  67.2777840
  70.2164504  40.5691707  72.8787768  70.3607879  41.1492916  72.2430878
  70.5640152  40.9468004  73.5837622  70.2891965  40.7112411  72.8886763
  72.3884421  39.7681876  70.6612899  71.6407735  39.9612890  70.2561177
  72.5425946  38.9427095  70.4237021  72.3006849  39.6746987  70.5658305
  72.6286198  33.6632427  71.5508303  73.0858812  34.3956401  71.6781095
  72.7042527  33.2398892  72.3095559  72.7077168  33.7089665  71.6809379
  64.8719189  33.9098246  72.6397747  64.3361379  33.2978604  72.9558514
  64.9336954  34.4846382  73.2931413  64.8014822  33.9045174  72.7833173
  72.4715806  47.4510121  61.8556891  73.2365697  47.1819765  61.5339556
  72.3693896  46.9660131  62.5726954  72.5697302  47.3399686  61.9136719
  70.5068576  35.6534530  68.3950127  69.7164651  35.4725991  68.7167463
  70.9029199  34.8761483  68.3780421  70.4485452  35.5121991  68.4402675
  74.9934467  44.4822305  53.8356841  75.7607452  44.5422430  53.4262692
  74.5465776  43.9102746  53.3513159  75.0407894  44.4058880  53.7034551
  75.8912262  43.2876961  66.1209573  75.2157264  43.0562193  66.6222960
  75.9004638  42.6798144  65.4951678  75.7930767  43.1635886  66.1025725
  73.0206406  38.1294790  72.8773626  72.9565547  38.9904746  72.7493763
  73.1603594  37.8126783  72.0769177  73.0321876  38.2094956  72.7401839
  77.8928997  46.1442093  58.3519751  77.9748834  46.9509079  58.0281202
  78.3778739  46.1638052  59.0760524  77.9766155  46.2662755  58.4106650
  71.7025500  40.8226929  67.0189829  71.2787749  41.0231428  66.2828847
  71.5270355  39.9755777  67.1314129  71.6136381  40.7275710  66.9263519
  66.9907945  41.3178980  62.4517801  67.1472564  41.2525783  63.3073793
  67.3308538  42.0927533  62.2396481  67.0641180  41.4228178  62.5472396
  73.5287090  40.6936864  61.3211165  74.0702635  40.1907245  61.7849785
  73.8433649  40.6402059  60.5100650  73.6551487  40.6116285  61.2694977
  71.6973539  46.0854215  58.6051193  71.7666360  45.2268754  58.7444193
  72.4761995  46.3026096  58.2770217  71.8226390  45.9907079  58.5768350
  74.6776359  35.5873168  71.3733465  74.8918329  34.9484083  70.8196819
  74.0610258  36.0318992  70.9441327  74.6181688  35.5583312  71.2283896
  76.0881027  48.5091917  62.8187686  75.6960819  48.2058632  62.1010552
  76.2434099  49.3461007  62.6292640  76.0534617  48.5875753  62.6844183
  63.5642207  38.5013931  62.7678569  63.9441171  38.9198476  62.1038836
  62.9897571  39.0827387  63.0747412  63.5353532  38.6491790  62.7155310
  76.2520702  45.0741906  62.7593716  75.8935357  45.2456548  63.5357749
  75.7659413  45.5355111  62.2021715  76.1279399  45.1680877  62.7918986
  74.0691088  28.6973104  66.3620808  73.1984646  28.6711825  66.3154117
  74.3231429  28.5250296  65.5446654  73.9784648  28.6683248  66.2340945
  71.0409067  40.7541071  55.2993951  71.3301592  41.5305954  55.5737525
  71.1280866  40.2429802  56.0008450  71.0963323  40.7932989  55.4436449
  71.0940228  30.7079333  67.8194278  70.5778717  30.0159524  67.9445857
  70.5334157  31.3750110  67.7656877  70.9346742  30.7042590  67.8300344
  73.1632462  31.2472293  69.6487131  72.7764215  31.2721324  70.4300661
  72.6765399  30.6813971  69.1961647  73.0344971  31.1668043  69.6975034
  67.2073008  40.0674336  67.3994063  66.3661015  39.9678210  67.6072957
  67.4163016  40.8369816  67.7508384  67.1137701  40.1666379  67.4821378
  64.6848575  37.6893873  65.2278814  64.2905273  37.7636884  64.4528923
  64.1288692  38.0751819  65.7787175  64.5451387  37.7575647  65.1946473
  76.3213522  30.6675167  64.9082693  76.5263115  30.5997474  65.7539690
  75.9939946  31.4733988  64.8403870  76.3028770  30.7761107  65.0242348
  71.0189673  37.9955735  66.6491660  70.7152811  37.4411723  67.2502068
  70.3169094  38.1747945  66.1619695  70.8705883  37.9400517  66.6661366
  70.0755770  35.3056255  61.2136362  70.3515504  34.5875167  60.8013930
  70.6754439  35.9041174  61.0057468  70.2049035  35.2876625  61.1217124
  69.0808024  45.2105455  71.3563758  68.9728379  45.2207518  72.2225816
  69.2903806  46.0360236  71.1668712  69.0958135  45.3346530  71.4567850
  73.5766291  32.9769772  59.4882957  74.0310037  33.1480332  60.2130802
  74.0506336  32.3637883  59.0880733  73.7134611  32.9120657  59.5356719
  67.0981816  42.4618098  68.8185696  66.5069749  43.1027596  68.7888711
  67.8602840  42.8855715  68.7916995  67.1230077  42.6193936  68.8100843
  67.4942439  33.6220096  69.4853713  67.9543920  33.6959025  70.2228837
  67.5398546  34.4201350  69.1353535  67.5692994  33.7514243  69.5426470
  69.1425789  34.2886790  74.0525741  68.7511354  33.6420138  74.4881518
  69.3111651  34.8798226  74.6719996  69.1096699  34.2801058  74.2088447
  76.8571332  47.9127409  66.2517720  76.6591021  48.4018224  65.5573932
  76.2359043  48.1168651  66.8301854  76.7358897  48.0143948  66.2340944
  70.9179311  39.6812306  60.5927965  71.6621356  40.0686583  60.8310914
  71.0640007  38.8369732  60.7568452  71.0489896  39.6142779  60.6521934
  72.8358886  31.4762565  65.6259826  71.9894931  31.6485373  65.5001176
  72.8330019  30.6711909  65.9625654  72.7106036  31.3823594  65.6570953
  73.9057187  35.2537780  66.4921884  73.4317141  34.7279542  67.0027195
  74.2775322  34.7067252  65.9236745  73.8907075  35.0953776  66.4837031
  64.2830217  37.2509286  71.8605430  65.1455830  37.1504996  71.7742759
  63.9522000  36.6703996  71.2991002  64.3615413  37.1500913  71.7650836
  75.8340686  36.1474334  59.5547638  75.3063705  36.2303078  58.8653347
  76.2936394  36.8892206  59.5512282  75.8242537  36.2694997  59.4522333
  67.6432003  36.0751735  68.5215848  67.0185073  36.0870127  67.9141801
  67.3077597  36.5511910  69.1707088  67.5017494  36.1470252  68.5272416
  67.8273751  34.4176854  54.5788533  67.4786556  35.0696579  55.0420082
  67.3470197  34.4033967  53.8512404  67.7043995  34.5119907  54.5399624
  64.3557678  44.1352195  69.9619612  63.8257603  43.4444634  70.0114587
  64.6282772  44.1262381  69.1332321  64.3182400  44.0319327  69.8467028
  75.3877769  44.7177898  58.6857295  76.1111968  45.1836011  58.5421868
  74.9478360  44.7851507  57.9354892  75.4293461  44.7961734  58.5542076
  74.5563924  41.5775440  69.9357984  73.9420917  41.0333490  70.2306619
  75.0731209  41.0639676  69.4563800  74.5419586  41.4211849  69.9082212
  73.7960221  42.6479710  67.6702282  73.3687829  42.0229429  67.2367718
  73.7885165  42.3654632  68.4961290  73.7319362  42.5132491  67.7282110
  66.9122748  37.6844883  70.7390716  67.0716235  36.9288207  71.1442438
  66.7315642  38.2335823  71.3931454  66.9088107  37.6538697  70.8953422
  72.1245931  33.5248465  67.8844816  72.1488418  32.9908577  67.1957596
  72.3757404  33.0165773  68.5470407  72.1655849  33.3709369  67.8809461
  59.6353520  40.8079960  67.3187960  59.5296969  40.7626804  66.4540045
  58.8853740  41.1533740  67.6002245  59.5089123  40.8520868  67.2325290
  68.4047253  32.2519283  67.2650561  68.4445624  32.7528489  67.9785268
  67.5796917  32.3429677  66.9956484  68.2886779  32.3401099  67.3301099
  69.8261616  38.7679793  69.5624460  68.9953546  38.9353611  69.3559708
  69.7713133  38.3915743  70.3473345  69.6951031  38.7369524  69.6472988
  68.1997660  37.0435384  60.0914577  68.3400621  37.5407848  60.7943219
  68.6980193  36.3421679  60.2328791  68.2938741  37.0137363  60.2166156
  68.2297882  37.9102495  57.4207154  68.8642962  38.5062920  57.3556616
  68.3123493  37.6105953  58.2353024  68.3354433  37.9543403  57.5310241
  69.8076865  33.8416471  57.3952596  70.1292706  33.3619553  56.7411859
  70.0703809  34.6516117  57.2043408  69.8942891  33.8906369  57.2708088
  75.2036020  33.2288665  69.7576075  75.6291092  32.7761191  69.1459602
  74.5893013  32.6748735  70.0340863  75.1764666  33.0802641  69.7081101
  64.7350870  40.1070336  60.6896700  65.2443100  40.7034844  61.0708006
  65.2085143  39.8396310  60.0073120  64.8794246  40.1556151  60.6451223
  75.6481618  48.7798603  58.8455356  74.9310928  48.6059465  58.3802593
  76.2988356  48.5451175  58.3130842  75.6383469  48.7194395  58.6984574
  73.6430243  29.7003764  63.1666652  72.9998561  29.5501411  63.7351791
  73.3029650  29.4546110  62.4015757  73.4975320  29.6415887  63.1369667
  72.2816323  49.7959903  67.8208419  72.0581978  49.0378732  68.1892446
  71.7926167  49.8257924  67.0988859  72.1759772  49.6882128  67.7685160
  78.3957717  34.1119075  65.4987034  78.7485327  33.6848798  66.1732833
  77.5372519  34.0269918  65.6288111  78.3207162  34.0363815  65.6182045
  67.0941402  36.7426595  63.5569881  66.3753391  37.1590727  63.8242744
  67.4653764  37.3080833  63.0061519  67.0433334  36.8875876  63.5152688
  76.3940983  37.3754443  69.4471876  76.3738910  37.1937739  70.3006655
  76.4420184  38.2466462  69.4231460  76.3975624  37.4770982  69.5695171
  70.9294780  50.0160361  65.2745504  70.5155179  49.3534492  64.8849345
  71.6142154  50.1638220  64.7541198  70.9693152  49.9401019  65.1402001
  74.2960074  49.1750447  66.0269120  73.8976358  49.2852717  65.2589941
  73.6811294  49.3832513  66.6095680  74.1458964  49.2224015  66.0000420
  72.8687976  35.7824594  58.8943260  72.2752816  36.1041591  58.3427827
  72.9063254  34.9365690  58.6864366  72.7862366  35.7048923  58.7826031
  75.7445793  35.7404099  62.3245010  75.5159486  35.7636800  61.4823369
  76.0043869  34.9161566  62.4440021  75.7491981  35.6220179  62.2170208
  70.0265021  37.5938572  71.9270111  69.5143924  36.9859755  72.2855142
  69.8544518  38.3095165  72.3944086  69.9254658  37.6101871  72.0486334
  64.8730736  36.0376147  74.5772472  64.7033326  36.6977522  74.0320679
  64.4296686  36.2482709  75.2984961  64.7830070  36.1662129  74.6034102
  68.7990555  34.2780645  63.6199206  69.2747922  34.6397725  62.9849387
  68.2979155  34.9337113  63.8999349  68.7955914  34.4274834  63.5675947
  61.7732801  38.9423013  69.8360962  61.2259520  38.2723658  69.9541830
  62.5625179  38.5752861  69.9004429  61.8084984  38.7887999  69.8629663
  70.8417209  36.4221845  56.9872590  71.2216173  36.4401474  56.2023705
  70.1009805  36.8675834  56.8663437  70.7886046  36.4903620  56.8536158
  78.4702499  34.7304036  62.5748169  78.4696726  34.5752693  63.4332445
  78.2658679  35.5767023  62.5189554  78.4402277  34.8324657  62.6936108
  60.5319770  38.1543821  66.9906985  60.3541531  37.7020430  67.7161901
  60.2438792  38.9569982  67.1745463  60.4632723  38.2066378  67.1250488
  76.1943351  39.4101538  66.2284376  76.6897017  38.6924533  66.1888396
  75.3843127  39.1072336  66.1138862  76.1487244  39.2599184  66.2058101
  71.6401963  43.2599351  58.3781380  70.8313285  42.9366025  58.3314689
  72.1476872  42.5532573  58.3109629  71.5951630  43.1080668  58.3611674
  62.2692240  40.6871544  64.1028744  61.4037759  40.6757235  63.9911515
  62.3691056  40.5001767  64.9499884  62.1566407  40.6577606  64.2117689
  78.2595170  42.1605226  68.9161504  78.6850242  41.6379647  68.3631929
  77.8952090  42.7586063  68.3950127  78.2681773  42.1715453  68.7570514
  67.8949250  50.4569443  67.6758850  68.2095809  51.2705831  67.6836632
  68.3042663  50.0719662  68.3441009  68.0017348  50.5198145  67.7762941
  74.8473770  45.8739490  65.2462662  75.3184948  46.5879752  65.4152647
  75.1833948  45.2738240  65.7822531  74.9668885  45.8910954  65.3495038
  70.8336379  32.6483373  59.6700222  71.6552074  32.8181686  59.4281916
  70.3706030  32.8030634  58.9466519  70.8867542  32.6965106  59.5271866
  69.4231711  30.6426135  70.4498650  69.9676124  30.3017262  71.0402992
  69.4768647  31.5011597  70.5919935  69.5120831  30.7181395  70.5580524
  65.2362270  44.4042551  67.3237458  65.8407127  44.3638386  66.6951279
  65.0289583  45.2513703  67.3541514  65.2951167  44.5230554  67.2353575
  60.4713552  43.3877169  67.1936381  60.3737830  42.5773440  67.5026438
  61.2542422  43.3668962  66.8082649  60.5729689  43.2644259  67.1823244
  77.5570210  52.0084845  55.9209419  76.8428387  51.7223025  56.3331852
  78.0414179  52.3481471  56.5615807  77.5229573  52.0166495  56.0765054
  69.5035620  53.7263934  63.4516291  69.5895872  53.3495802  64.2329821
  70.1311418  53.3524379  62.9736249  69.6092171  53.6149416  63.4961768
  76.6869541  50.6224816  60.7313894  76.3994337  50.2526086  59.9945841
  77.3740009  51.0919671  60.4697599  76.7458438  50.6371785  60.5828969
  74.2597736  51.4006028  61.5799175  74.3613872  52.2032190  61.9080150
  75.0553622  51.1993364  61.2822255  74.3925641  51.4891927  61.5834530
  74.5374790  54.0199239  62.7678569  74.9173755  54.4383784  62.1038836
  73.9630155  54.6012694  63.0747412  74.5086115  54.1677098  62.7155310
  75.7083454  55.6255644  60.6896700  76.2175683  56.2220151  61.0708006
  76.1817726  55.3581618  60.0073120  75.8526830  55.6741459  60.6451223
  78.0673986  52.2611902  63.5569881  77.3485975  52.6776035  63.8242744
  78.4386348  52.8266141  63.0061519  78.0165917  52.4061184  63.5152688
  56.8546174   8.8519233  48.9572781  56.1029073   8.4734771  48.7288826
  57.3032186   8.8837666  48.2091591  56.8095841   8.8004840  48.8130283
  62.3071134   9.2744602  44.3858328  61.9722502   9.9521524  43.9502550
  62.8198004   8.8849913  43.7975200  62.3336715   9.3169180  44.2345119
  61.8475425  11.2258871  50.3269439  62.2314804  11.7945769  49.7874215
  61.7834566  10.5008381  49.8475256  61.8948852  11.2034334  50.1763302
  58.4330930   8.8637625  51.2235553  58.5341293   8.0537979  51.5332681
  57.8372675   8.7694571  50.5935232  58.3603469   8.7302653  51.1761792
  58.2731670  13.7815214  52.6250409  58.9169125  14.2228378  53.0146568
  58.5987925  12.9768640  52.5380668  58.4163498  13.7280409  52.6695887
  51.6295974   4.8857911  50.8487887  51.3946159   4.0525564  50.7420156
  51.7681615   5.1662577  50.0349088  51.6151637   4.8041415  50.7130242
  58.9752249   6.7927189  47.9970271  59.2968090   7.3332396  47.3931579
  59.6224346   6.2223960  48.1292561  59.1178305   6.7886364  47.9277306
  53.1913299   9.7643582  52.1244093  52.7080877  10.4894072  52.1003677
  54.0036617  10.0619712  52.2354251  53.2404047   9.9145936  52.1371372
  59.2627453   8.5575763  54.7293908  58.7454395   8.1983178  54.1255216
  59.9601844   8.0337937  54.7399974  59.2893034   8.4273451  54.6424166
  62.9191045   9.0070577  60.6910081  63.0074391   8.8196717  61.5388291
  63.3480758   8.3608006  60.2914927  62.9953147   8.8833585  60.7581832
  60.4861505   8.2901737  59.6727743  59.9232340   7.8774347  60.1967404
  61.2482528   8.2154642  60.0920886  60.5155953   8.2179137  59.8120743
  56.0457496  10.2799758  52.2764373  56.7478076   9.7651747  52.3337130
  55.9654979  10.6073909  53.0811248  56.1381257  10.2513984  52.4037165
  55.3708272   6.4706110  51.7849981  56.2097171   6.7029043  51.8323743
  55.4020041   5.6010421  51.7157016  55.4989989   6.3763056  51.7814626
  55.9960975   6.8906985  56.0863287  56.5359200   6.7478116  56.7566659
  55.3130921   7.2903736  56.4547313  55.9753129   6.9286656  56.2397708
  63.0311104   8.4379596  63.3553864  63.8151521   8.5510444  63.7209606
  62.8307699   7.6120733  63.5512550  63.1177130   8.3326315  63.4388250
  63.1881498  10.3489698  57.0020320  62.3896743  10.1089198  57.2594188
  63.6367509  10.4004091  57.7487367  63.1356109  10.3212089  57.1505244
  51.8091533   3.8966055  53.5209452  51.6267107   3.8712941  52.6681744
  52.5441202   4.3664993  53.5598361  51.8905597   3.9627418  53.4007371
  58.1484593   6.1574845  50.5553394  58.7858540   5.9186593  51.1005188
  58.5739665   6.3612004  49.8206555  58.3060759   6.1525856  50.5270552
  52.8397236   8.3963182  54.4387698  52.8801381   8.6678033  53.6107478
  53.3991760   8.9205090  54.8545486  52.9280582   8.5138937  54.3779586
  60.5306065   6.6347268  52.2347181  60.6045073   6.4722440  53.0889031
  61.3475572   6.8237458  51.9907662  60.6622424   6.6384010  52.3245206
  54.2911822   6.9805131  49.2641624  53.4649940   7.2266868  49.1375903
  54.3523813   6.9017212  50.1303682  54.1785989   7.0050080  49.3730569
  59.0710651   9.5982011  46.9660654  59.3608949   9.2070992  46.2419881
  59.8014132   9.7798716  47.4065929  59.2217535   9.5675825  46.9243461
  57.0116567  11.5749394  50.0320804  56.7916862  11.2846748  50.8247471
  56.7911089  10.9164349  49.5038716  56.9464161  11.4349102  50.0709712
  59.1784522  12.9478784  48.8151496  59.8308580  12.4155226  49.0442522
  58.4810131  12.5947436  49.2019370  59.1715240  12.8168307  48.9063664
  56.1265787   5.3017961  48.2218870  56.8811755   5.6831000  48.4354333
  55.5336400   5.7529105  48.6765567  56.1502501   5.4246789  48.3201749
  57.4464014   6.4726522  53.5958986  56.9244767   6.6126814  54.2810850
  57.8338034   5.7137187  53.7861103  57.4267715   6.3812046  53.7260062
  63.6431019   8.2121982  47.5819555  63.4017695   7.4789842  47.1746620
  63.8232352   8.7608839  46.9285888  63.6338643   8.1844373  47.4249778
  58.0110499  10.1787302  56.6788841  58.1600063   9.6190218  56.0262246
  58.7910501  10.2579304  57.0621360  58.1484593  10.1072868  56.6385790
  60.5363800  10.3501945  57.9573332  60.4607471   9.6810756  58.5124120
  60.4653659  11.0519734  58.4713998  60.5144407  10.3546853  58.1150180
  61.1934047   8.8702944  48.7896938  61.9583938   8.6012588  48.4679602
  61.0912137   8.3852955  49.5067001  61.2915542   8.7592509  48.8476766
  59.9255434  13.7570265  56.4151333  60.4151364  13.0581054  56.2326998
  59.3539666  13.4594135  57.0027390  59.9139964  13.6096489  56.4752374
  60.4191780   7.5047039  45.5391239  60.4884600   6.6461577  45.6784240
  61.1980235   7.7218920  45.2110264  60.5444630   7.4099903  45.5108397
  64.8099267   9.9284740  49.7527733  64.4179059   9.6251455  49.0350599
  64.9652340  10.7653830  49.5632687  64.7752857  10.0068577  49.6184230
  65.5789573   9.3320233  53.1857767  65.3809261   9.8211047  52.4913978
  64.9577284   9.5361474  53.7641900  65.4577137   9.4336771  53.1680990
  53.0775919   5.5545019  56.8959659  52.5475843   4.8637458  56.9454634
  53.3501012   5.5455204  56.0672368  53.0400641   5.4512150  56.7807075
  48.3571761   2.2272783  54.2528007  48.2515210   2.1819627  53.3880091
  47.6071981   2.5726563  54.5342292  48.2307364   2.2713691  54.1665337
  61.7592078   6.2828168  57.8491459  61.2517169   6.8364015  58.2932090
  61.4618725   6.3436458  57.0310234  61.6396963   6.3734479  57.7939916
  64.3699859  10.1991426  45.7795403  63.6529168  10.0252288  45.3142640
  65.0206596   9.9643998  45.2470889  64.3601709  10.1387218  45.6324621
  61.0034564  11.2152726  54.7548466  60.7800218  10.4571556  55.1232492
  60.5144407  11.2450748  54.0328906  60.8978013  11.1074951  54.7025207
  59.6513021  11.4353185  52.2085551  59.2373419  10.7727315  51.8189392
  60.3360395  11.5831043  51.6881245  59.6911392  11.3593843  52.0742048
  63.0178315  10.5943270  52.9609167  62.6194598  10.7045540  52.1929988
  62.4029534  10.8025336  53.5435727  62.8677204  10.6416838  52.9340467
  56.6167490  11.8762266  54.6098897  56.9314049  12.6898655  54.6176678
  57.0260904  11.4912485  55.2781056  56.7235588  11.9390969  54.7102988
  53.9580510   5.8235375  54.2577505  54.5625368   5.7831209  53.6291326
  53.7507823   6.6706527  54.2881561  54.0169408   5.9423377  54.1693622
  63.7724283   8.0901320  55.4739742  64.5922656   7.9464286  55.7356038
  63.4918360   8.7147519  56.0156180  63.8521026   8.1611672  55.5927682
  49.1931793   4.8069992  54.1276428  49.0956071   3.9966264  54.4366485
  49.9760662   4.7861786  53.7422696  49.2947929   4.6837082  54.1163291
  73.4437618  14.8341823  53.1935549  72.5875513  14.9950321  53.2444666
  73.4905271  13.9633887  53.2140610  73.3236729  14.7292624  53.2041615
  67.8278757  24.3704540  48.9572781  67.0761657  23.9920079  48.7288826
  68.2764769  24.4022974  48.2091591  67.7828424  24.3190148  48.8130283
  73.2803717  24.7929910  44.3858328  72.9455086  25.4706832  43.9502550
  73.7930588  24.4035221  43.7975200  73.3069298  24.8354488  44.2345119
  72.8208009  26.7444179  50.3269439  73.2047388  27.3131077  49.7874215
  72.7567150  26.0193689  49.8475256  72.8681436  26.7219642  50.1763302
  76.2889439  16.8933867  55.8367201  76.8345399  17.5718953  55.8961171
  76.2306315  16.7521327  54.9768782  76.3605353  16.9725868  55.7179261
  69.4063514  24.3822933  51.2235553  69.5073877  23.5723287  51.5332681
  68.8105259  24.2879879  50.5935232  69.3336052  24.2487961  51.1761792
  69.2464253  29.3000522  52.6250409  69.8901709  29.7413686  53.0146568
  69.5720509  28.4953948  52.5380668  69.3896082  29.2465717  52.6695887
  62.6028558  20.4043219  50.8487887  62.3678742  19.5710872  50.7420156
  62.7414199  20.6847885  50.0349088  62.5884220  20.3226723  50.7130242
  64.9018645  12.5728950  53.7472195  64.2823677  11.9821597  53.5782209
  64.8002509  13.1640385  53.1136518  64.7956321  12.5733032  53.6277184
  69.9484833  22.3112497  47.9970271  70.2700674  22.8517704  47.3931579
  70.5956929  21.7409268  48.1292561  70.0910888  22.3071672  47.9277306
  71.9986541  14.3128492  48.0804658  72.6966706  14.4916619  48.5726121
  72.3138874  13.7898831  47.4575047  72.1481878  14.2622264  48.0606668
  64.6287778  16.1181232  55.9915764  64.5046475  16.7043677  56.6265582
  65.2806063  15.6241427  56.2928039  64.7061428  16.1320036  56.1301693
  72.1874476  20.6998937  48.0684449  72.6268112  20.0916037  48.5139222
  72.0379139  20.3206310  47.2969914  72.2295942  20.5537408  48.0203617
  69.6546119  19.2942948  55.2703275  70.2995122  18.8015392  54.9514223
  69.8947896  19.4367735  56.0969353  69.7856704  19.2420391  55.3452808
  72.1932211  22.1397854  54.9210167  72.4755454  21.3449260  54.6996923
  72.9218371  22.6178442  54.9415228  72.3421774  22.0932451  54.8913182
  70.1713405   9.6820888  52.1625932  69.8416735  10.1332032  51.4929631
  69.4958406   9.6037052  52.7098939  70.0223841   9.7372023  52.1449156
  75.7883813  19.0526118  45.0215218  75.7035108  19.9087085  45.1664787
  76.2768196  18.7770442  45.6897378  75.8472710  19.1383439  45.1417300
  76.7202246  15.6710912  46.5212954  76.1913718  15.8870546  47.1810260
  77.2427266  16.3647051  46.4413923  76.7190699  15.8054049  46.6068553
  68.6101854  19.5674129  45.3220422  68.0259069  20.0724160  45.7286285
  68.2071949  19.3416516  44.5817014  68.4641158  19.6082377  45.2725447
  64.1645883  25.2828890  52.1244093  63.6813461  26.0079380  52.1003677
  64.9769201  25.5805020  52.2354251  64.2136630  25.4331244  52.1371372
  70.2360037  24.0761071  54.7293908  69.7186978  23.7168486  54.1255216
  70.9334428  23.5523245  54.7399974  70.2625618  23.9458759  54.6424166
  73.8923629  24.5255885  60.6910081  73.9806974  24.3382025  61.5388291
  74.3213341  23.8793314  60.2914927  73.9685731  24.4018892  60.7581832
  71.4594088  23.8087045  59.6727743  70.8964923  23.3959655  60.1967404
  72.2215112  23.7339950  60.0920886  71.4888537  23.7364445  59.8120743
  73.0679068  15.8139781  43.7989342  73.3075072  16.0217765  42.9864685
  73.3894909  15.0097290  43.9078287  73.1516226  15.7253882  43.6949895
  67.0190080  25.7985066  52.2764373  67.7210659  25.2837055  52.3337130
  66.9387563  26.1259217  53.0811248  67.1113840  25.7699292  52.4037165
  68.0668986  16.0360653  61.4044788  68.2389490  15.9266547  62.2530069
  68.6038344  16.6815058  61.1675980  68.1713990  16.1152654  61.4949885
  66.7326423  10.1503496  44.3426993  66.5501997  10.3675376  43.5167986
  67.5952036  10.2642508  44.3985608  66.8331013  10.1993394  44.2281480
  66.3440855  21.9891418  51.7849981  67.1829755  22.2214351  51.8323743
  66.3752624  21.1195729  51.7157016  66.4722573  21.8948364  51.7814626
  66.9693558  22.4092293  56.0863287  67.5091783  22.2663424  56.7566659
  66.2863505  22.8089044  56.4547313  66.9485712  22.4471964  56.2397708
  76.3934443  18.0883294  51.2808311  77.1491958  18.5214808  51.3197220
  76.4996768  17.4388063  51.8542947  76.5204614  18.0560778  51.3706336
  74.0043688  23.9564904  63.3553864  74.7884105  24.0695752  63.7209606
  73.8040282  23.1306041  63.5512550  74.0909713  23.8511623  63.4388250
  62.3730703  18.6292584  56.2397708  62.1069119  17.8131701  56.3988698
  62.3869267  18.6745739  55.3693224  62.3355426  18.5149489  56.1351190
  66.2788450  13.4277668  42.8549466  65.5646627  13.1415848  43.2671899
  66.7632419  13.7674294  43.4955854  66.2447814  13.4359318  43.0105101
  67.1229310  12.1670962  58.8864716  66.4301106  11.6967942  59.1325447
  67.7389637  11.9409267  59.4606423  67.1113840  12.0638094  59.0073868
  74.1614081  25.8675006  57.0020320  73.3629327  25.6274506  57.2594188
  74.6100093  25.9189399  57.7487367  74.1088692  25.8397397  57.1505244
  73.4535768  21.9307622  43.2311274  73.8686917  21.5992646  42.5395770
  72.6227698  21.6976524  43.1031411  73.3923777  21.8478878  43.1102122
  62.7824117  19.4151363  53.5209452  62.5999690  19.3898249  52.6681744
  63.5173786  19.8850301  53.5598361  62.8638181  19.4812725  53.4007371
  65.8469869  16.1336366  60.0291561  66.5709841  16.1189397  60.5156456
  65.9486005  16.8431721  59.5313529  65.9688078  16.2361069  60.0270348
  75.8946137  16.3369442  49.1835524  75.9892991  17.0758736  49.6375149
  75.2704981  15.9086917  49.6170088  75.8155167  16.3830762  49.3143671
  74.1498611  19.5155654  59.8325805  74.7237473  18.8782899  59.9874369
  74.0713415  19.5159737  58.9635462  74.2231846  19.4220766  59.7272216
  62.7495027  16.2944864  53.6708519  63.3268530  16.1581315  54.3100764
  62.0509089  15.8380648  53.9254103  62.7316049  16.2067130  53.8030809
  76.1469158  18.1818182  42.4172476  76.0649321  18.2520369  43.2827463
  76.7848879  18.7447926  42.2256216  76.2288996  18.2757153  42.5162425
  69.5062330  17.9478920  51.8847002  69.2481574  17.1150654  51.8578302
  69.5610812  18.1736533  51.0439502  69.4762107  17.8576691  51.7567139
  68.4797042  15.5016682  52.3711897  67.9046633  15.6608850  53.0075858
  68.1032718  14.8652091  51.9080347  68.3399854  15.4314495  52.3966455
  72.1470330  13.9740031  57.2304275  71.7584763  13.5494249  56.5756466
  71.4825029  14.2222181  57.7381302  71.9917258  13.9478752  57.2092143
  58.2253861  15.1456757  50.3856337  58.3114112  14.7688625  51.1669867
  58.8529658  14.7717202  49.9076296  58.3310412  15.0342239  50.4301815
  73.2509269  18.2038636  45.4281082  74.0649907  18.4953529  45.3163854
  73.1868410  17.5498498  44.8539375  73.3612008  18.1503831  45.3269920
  69.1217177  21.6760153  50.5553394  69.7591124  21.4371901  51.1005188
  69.5472248  21.8797312  49.8206555  69.2793343  21.6711164  50.5270552
  63.8129819  23.9148490  54.4387698  63.8533964  24.1863341  53.6107478
  64.3724343  24.4390398  54.8545486  63.9013165  24.0324245  54.3779586
  69.7619992  16.8962443  44.8928284  70.1465145  16.6770150  45.6444829
  69.5131612  17.7225389  45.0229360  69.7822064  16.9860589  45.0229360
  71.5038649  22.1532576  52.2347181  71.5777657  21.9907748  53.0889031
  72.3208155  22.3422766  51.9907662  71.6355007  22.1569318  52.3245206
  65.2644405  22.4990439  49.2641624  64.4382523  22.7452176  49.1375903
  65.3256397  22.4202520  50.1303682  65.1518572  22.5235388  49.3730569
  67.4820429   8.5659380  50.2237064  66.6142855   8.6381979  50.2894673
  67.7695634   9.3681459  50.4125039  67.3960177   8.6953527  50.2611831
  70.0443234  25.1167319  46.9660654  70.3341533  24.7256300  46.2419881
  70.7746715  25.2984024  47.4065929  70.1950119  25.0861133  46.9243461
  70.6337980  19.9185065  58.0513784  70.1349673  20.6300833  58.1298673
  71.4438204  20.2385732  58.0131947  70.6794086  20.0711914  58.0570353
  67.9849150  27.0934702  50.0320804  67.7649445  26.8032056  50.8247471
  67.7643672  26.4349657  49.5038716  67.9196744  26.9534410  50.0709712
  66.8966097  19.1808018  52.2976505  66.6079346  18.5545489  52.8322233
  67.7649445  19.1228305  52.3641186  66.9826349  19.0795562  52.3867460
  77.6843995  14.3242801  52.6158487  77.3408761  13.6033137  52.9665737
  77.7837038  14.1156653  51.7736845  77.6486038  14.1867005  52.5430167
  70.1517106  28.4664091  48.8151496  70.8041164  27.9340534  49.0442522
  69.4542715  28.1132744  49.2019370  70.1447824  28.3353614  48.9063664
  67.0998371  20.8203269  48.2218870  67.8544339  21.2016308  48.4354333
  66.5068983  21.2714413  48.6765567  67.1235084  20.9432096  48.3201749
  78.1457024  20.7868505  48.1582475  78.7115057  21.4461715  48.0741018
  77.4984928  21.1318204  48.6298878  78.1335781  20.9350447  48.2155232
  69.5605038  12.7766109  63.3476083  68.7504813  13.0823889  63.2365925
  70.0379724  13.4971692  63.4628667  69.5108516  12.9280711  63.3483154
  68.4196597  21.9911830  53.5958986  67.8977351  22.1312122  54.2810850
  68.8070618  21.2322495  53.7861103  68.4000298  21.8997354  53.7260062
  65.4087781  12.0417639  47.6653940  65.1212577  11.6718910  46.9285888
  66.0958250  12.5112494  47.4037645  65.4676679  12.0564609  47.5169016
  74.6163602  23.7307290  47.5819555  74.3750278  22.9975150  47.1746620
  74.7964935  24.2794147  46.9285888  74.6071226  23.7029681  47.4249778
  69.8462923  19.0215849  48.9940477  69.6505706  19.6290584  48.4000780
  70.0697268  18.3283793  48.5132151  69.8497564  19.0093375  48.8356558
  68.2441453  15.9070587  49.1121345  68.9664105  16.0711745  48.6525151
  67.7649446  16.6280252  49.0060685  68.2805184  16.0368817  49.0286959
  76.2034960  12.2434386  54.4918030  75.3646061  12.2695665  54.2556293
  76.2739328  12.8905122  55.0723377  76.0903354  12.3430512  54.5427147
  65.8949070  18.3128660  58.2175485  66.4070167  18.5912913  57.5684245
  65.6085412  19.0517954  58.5838298  65.9283933  18.4631013  58.1765363
  62.9815976  12.8198852  48.5139222  63.0832112  13.6225013  48.8420197
  63.7771863  12.6186188  48.2162302  63.1143882  12.9084750  48.5174577
  69.4132795  10.4055048  58.2776527  69.2215992  10.4210183  59.1275950
  70.2631391  10.6018723  58.2543182  69.5108517  10.4369400  58.3999821
  63.7979708  12.9346030  56.2560343  63.6565200  12.0829970  56.3804851
  64.0820271  12.9774690  55.4322549  63.8187554  12.8145780  56.1527967
  73.9518300  14.7713120  50.4004831  73.7053015  14.6908871  51.2341620
  74.2803423  13.9866588  50.2067359  73.9639544  14.6439385  50.4952354
  77.8466349  21.4796479  54.1891613  77.7080708  22.1777525  54.6940355
  77.0666347  21.3245136  53.8327794  77.7109576  21.5596646  54.2117887
  69.9115328  17.5069839  59.8127814  70.0558703  18.0871047  59.1770924
  70.2590976  17.8846135  60.5177669  69.9842789  17.6490543  59.8226809
  72.0835245  16.7060007  57.5952946  71.3358559  16.8991021  57.1901224
  72.2376770  15.8805227  57.3577067  71.9957673  16.6125118  57.4998352
  68.9843083  25.6972610  56.6788841  69.1332646  25.1375526  56.0262246
  69.7643085  25.7764612  57.0621360  69.1217176  25.6258176  56.6385790
  71.5096383  25.8687253  57.9573332  71.4340054  25.1996064  58.5124120
  71.4386242  26.5705041  58.4713998  71.4876990  25.8732161  58.1150180
  72.3237022  10.6010558  58.4848350  72.7809636  11.3334532  58.6121142
  72.3993351  10.1777023  59.2435606  72.4027992  10.6467796  58.6149426
  64.5670013  10.8476377  59.5737793  64.0312203  10.2356736  59.8898561
  64.6287778  11.4224513  60.2271460  64.4965646  10.8423305  59.7173220
  72.1666630  24.3888252  48.7896938  72.9316521  24.1197896  48.4679602
  72.0644720  23.9038263  49.5067001  72.2648126  24.2777817  48.8476766
  70.2019400  12.5912662  55.3290174  69.4115475  12.4104122  55.6507510
  70.5980023  11.8139614  55.3120468  70.1436276  12.4500123  55.3742722
  74.6885291  21.4200436  40.7696887  75.4558276  21.4800561  40.3602739
  74.2416600  20.8480877  40.2853206  74.7358718  21.3437012  40.6374598
  75.5863086  20.2255092  53.0549620  74.9108088  19.9940324  53.5563007
  75.5955462  19.6176275  52.4291725  75.4881591  20.1014017  53.0365772
  72.7157230  15.0672921  59.8113673  72.6516371  15.9282877  59.6833809
  72.8554418  14.7504914  59.0109224  72.7272700  15.1473087  59.6741886
  77.5879821  23.0820224  45.2859798  77.6699658  23.8887210  44.9621249
  78.0729563  23.1016183  46.0100571  77.6716979  23.2040887  45.3446696
  71.3976324  17.7605060  53.9529876  70.9738573  17.9609559  53.2168894
  71.2221179  16.9133908  54.0654175  71.3087205  17.6653842  53.8603566
  66.6858769  18.2557112  49.3857848  66.8423388  18.1903914  50.2413840
  67.0259362  19.0305664  49.1736528  66.7592004  18.3606310  49.4812442
  73.2237914  17.6314995  48.2551211  73.7653459  17.1285376  48.7189832
  73.5384473  17.5780190  47.4440697  73.3502311  17.5494416  48.2035023
  71.3924363  23.0232347  45.5391239  71.4617184  22.1646885  45.6784240
  72.1712819  23.2404228  45.2110264  71.5177213  22.9285211  45.5108397
  74.3727183  12.5251300  58.3073512  74.5869153  11.8862214  57.7536866
  73.7561082  12.9697123  57.8781374  74.3132512  12.4961443  58.1623943
  75.7831851  25.4470048  49.7527733  75.3911643  25.1436763  49.0350599
  75.9384923  26.2839138  49.5632687  75.7485441  25.5253885  49.6184230
  63.2593031  15.4392062  49.7018615  63.6391995  15.8576607  49.0378883
  62.6848395  16.0205518  50.0087459  63.2304355  15.5869921  49.6495356
  75.9471526  22.0120037  49.6933763  75.5886180  22.1834680  50.4697796
  75.4610237  22.4733242  49.1361762  75.8230223  22.1059008  49.7259032
  70.7359891  17.6919202  42.2333998  71.0252416  18.4684085  42.5077572
  70.8231690  17.1807934  42.9348497  70.7914147  17.7311121  42.3776496
  77.1076265  22.9023933  60.6400964  77.7455986  22.4084128  60.3063420
  76.4650357  22.8301333  60.0553191  77.1070492  22.8182941  60.5043319
  77.1630522  23.5943741  57.2806321  77.9522900  23.2432806  57.4008403
  77.3374120  24.4080129  57.0182955  77.3050803  23.6629598  57.2594189
  66.9023832  17.0052467  54.3334110  66.0611839  16.9056341  54.5413004
  67.1113840  17.7747947  54.6848430  66.8088525  17.1044510  54.4161425
  64.3799399  14.6272004  52.1618860  63.9856097  14.7015016  51.3868970
  63.8239516  15.0129950  52.7127222  64.2402211  14.6953778  52.1286520
  70.7140497  14.9333866  53.5831707  70.4103635  14.3789854  54.1842115
  70.0119918  15.1126076  53.0959742  70.5656707  14.8778648  53.6001413
  69.7706594  12.2434386  48.1476409  70.0466328  11.5253298  47.7353977
  70.3705263  12.8419306  47.9397515  69.8999859  12.2254756  48.0557170
  68.7758848  22.1483587  58.2903805  68.6679203  22.1585649  59.1565863
  68.9854629  22.9738367  58.1008759  68.7908959  22.2724661  58.3907897
  66.7932640  19.3996229  55.7525743  66.2020573  20.0405727  55.7228758
  67.5553664  19.8233846  55.7257042  66.8180901  19.5572067  55.7440890
  67.1893263  10.5598227  56.4193760  67.6494744  10.6337156  57.1568884
  67.2349370  11.3579481  56.0693582  67.2643818  10.6892374  56.4766517
  68.8376613  11.2264922  60.9865787  68.4462178  10.5798269  61.4221565
  69.0062475  11.8176357  61.6060043  68.8047523  11.2179190  61.1428493
  76.5522156  24.8505541  53.1857767  76.3541845  25.3396355  52.4913978
  75.9309867  25.0546782  53.7641900  76.4309721  24.9522079  53.1680990
  70.6130135  16.6190437  47.5268011  71.3572180  17.0064714  47.7650961
  70.7590831  15.7747863  47.6908499  70.7440720  16.5520910  47.5861981
  73.6008010  12.1915911  53.4261931  73.1267965  11.6657673  53.9367242
  73.9726146  11.6445384  52.8576792  73.5857899  12.0331907  53.4177078
  63.9781041  14.1887417  58.7945476  64.8406654  14.0883127  58.7082806
  63.6472824  13.6082127  58.2331049  64.0566237  14.0879044  58.6990882
  75.5291510  13.0852465  46.4887685  75.0014529  13.1681209  45.7993393
  75.9887218  13.8270337  46.4852329  75.5193361  13.2073128  46.3862380
  67.3382827  13.0129866  55.4555895  66.7135897  13.0248258  54.8481847
  67.0028421  13.4890042  56.1047135  67.1968318  13.0848383  55.4612463
  67.5224575  11.3554985  41.5128580  67.1737380  12.0074710  41.9760129
  67.0421021  11.3412098  40.7852451  67.3994819  11.4498039  41.4739671
  64.0508502  21.0730327  56.8959659  63.5208427  20.3822766  56.9454634
  64.3233595  21.0640512  56.0672368  64.0133224  20.9697458  56.7807075
  75.0828593  21.6556029  45.6197342  75.8062791  22.1214142  45.4761915
  74.6429184  21.7229639  44.8694939  75.1244285  21.7339866  45.4882123
  74.2514748  18.5153571  56.8698031  73.6371741  17.9711621  57.1646666
  74.7682033  18.0017808  56.3903847  74.2370410  18.3589980  56.8422259
  73.4911045  19.5857841  54.6042329  73.0638653  18.9607560  54.1707765
  73.4835989  19.3032763  55.4301336  73.4270186  19.4510622  54.6622157
  66.6073572  14.6223014  57.6730763  66.7667059  13.8666338  58.0782485
  66.4266466  15.1713954  58.3271501  66.6038931  14.5916828  57.8293469
  71.8196755  10.4626596  54.8184863  71.8439242   9.9286708  54.1297643
  72.0708228   9.9543905  55.4810454  71.8606673  10.3087500  54.8149508
  59.3304344  17.7458091  54.2528007  59.2247793  17.7004935  53.3880091
  58.5804564  18.0911871  54.5342292  59.2039947  17.7898999  54.1665337
  68.0998077   9.1897414  54.1990608  68.1396448   9.6906621  54.9125315
  67.2747741   9.2807808  53.9296531  67.9837603   9.2779230  54.2641146
  70.2827690  18.7558154  62.3010902  69.4323320  18.8929868  62.4368547
  70.4455817  18.0221932  62.7458604  70.1811553  18.6672255  62.3866501
  69.5212440  15.7057924  56.4964507  68.6904370  15.8731742  56.2899755
  69.4663957  15.3293875  57.2813392  69.3901855  15.6747655  56.5813035
  67.8948484  13.9813515  47.0254624  68.0351445  14.4785980  47.7283266
  68.3931017  13.2799810  47.1668838  67.9889565  13.9515494  47.1506203
  67.9248706  14.8480626  44.3547201  68.5593786  15.4441051  44.2896663
  68.0074317  14.5484084  45.1693071  68.0305257  14.8921535  44.4650288
  69.5027689  10.7794602  44.3292643  69.8243530  10.2997684  43.6751905
  69.7654633  11.5894248  44.1383455  69.5893715  10.8284500  44.2048135
  72.7324662  21.8013476  57.8491459  72.2249753  22.3549323  58.2932090
  72.4351308  21.8621766  57.0310234  72.6129547  21.8919787  57.7939916
  64.4301694  17.0448467  47.6236747  64.9393924  17.6412975  48.0048053
  64.9035967  16.7774441  46.9413167  64.5745070  17.0934283  47.5791270
  75.3432442  25.7176734  45.7795403  74.6261752  25.5437596  45.3142640
  75.9939180  25.4829306  45.2470889  75.3334293  25.6572526  45.6324621
  77.9280413  14.5941322  49.5236708  77.2571603  15.1371025  49.3949773
  78.6220164  15.0636178  49.2818403  77.9309281  14.7439594  49.4692235
  71.9767147  26.7338034  54.7548466  71.7532802  25.9756864  55.1232492
  71.4876991  26.7636056  54.0328906  71.8710596  26.6260259  54.7025207
  66.7892226  13.6804726  50.4909927  66.0704215  14.0968858  50.7582791
  67.1604588  14.2458964  49.9401566  66.7384158  13.8254007  50.4492734
  76.0891807  14.3132575  56.3811923  76.0689734  14.1315870  57.2346702
  76.1371007  15.1844593  56.3571507  76.0926448  14.4149113  56.5035218
  74.0338137  20.9019767  62.3060400  73.9933991  20.2569444  61.7205556
  74.8461455  20.8456384  62.6185812  74.1481290  20.7978733  62.2657349
  70.6245604  26.9538493  52.2085551  70.2106003  26.2912623  51.8189392
  71.3092978  27.1016351  51.6881245  70.6643976  26.8779151  52.0742048
  73.9910898  26.1128578  52.9609167  73.5927182  26.2230848  52.1929988
  73.3762118  26.3210644  53.5435727  73.8409788  26.1602146  52.9340467
  72.5638800  12.7202726  45.8283307  71.9703640  13.0419722  45.2767874
  72.6014078  11.8743821  45.6204413  72.4813189  12.6427054  45.7166078
  75.4396617  12.6782230  49.2585057  75.2110310  12.7014932  48.4163415
  75.6994693  11.8539697  49.3780068  75.4442805  12.5598310  49.1510255
  69.7215845  14.5316703  58.8610157  69.2094748  13.9237886  59.2195189
  69.5495342  15.2473296  59.3284133  69.6205482  14.5480002  58.9826381
  64.5681560  12.9754278  61.5112519  64.3984150  13.6355653  60.9660726
  64.1247510  13.1860840  62.2325008  64.4780894  13.1040261  61.5374149
  68.4941379  11.2158776  50.5539253  68.9698746  11.5775856  49.9189434
  67.9929979  11.8715244  50.8339396  68.4906738  11.3652965  50.5015994
  61.4683625  15.8801144  56.7701009  60.9210344  15.2101790  56.8881877
  62.2576003  15.5130992  56.8344476  61.5035808  15.7266130  56.7969710
  71.3168033  15.5408601  62.2664420  72.0679360  15.8560278  62.5803974
  71.5090609  15.3387772  61.4398342  71.4559447  15.5575983  62.1907816
  70.5368033  13.3599976  43.9212637  70.9166997  13.3779605  43.1363752
  69.7960629  13.8053965  43.8003484  70.4836870  13.4281751  43.7876205
  60.2270594  15.0921952  53.9247032  60.0492355  14.6398561  54.6501948
  59.9389616  15.8948113  54.1085510  60.1583547  15.1444510  54.0590535
  75.8894175  16.3479669  53.1624422  76.3847840  15.6302664  53.1228443
  75.0793951  16.0450467  53.0478909  75.8438068  16.1977315  53.1398148
  71.3352787  20.1977482  45.3121427  70.5264109  19.8744156  45.2654736
  71.8427696  19.4910705  45.2449675  71.2902453  20.0458799  45.2951721
  61.9643064  17.6249676  51.0368791  61.0988583  17.6135366  50.9251562
  62.0641880  17.4379898  51.8839930  61.8517231  17.5955737  51.1457736
  67.5900074  27.3947574  54.6098897  67.9046633  28.2083963  54.6176678
  67.9993487  27.0097793  55.2781056  67.6968172  27.4576277  54.7102988
  74.5424593  22.8117621  52.1802709  75.0135772  23.5257884  52.3492694
  74.8784772  22.2116371  52.7162578  74.6619709  22.8289085  52.2835085
  75.1798540  22.6035555  58.9430401  74.6319486  21.9793439  58.6750467
  75.6411569  22.7929827  58.2274481  75.1665749  22.5394605  58.7980832
  70.5287203   9.5861504  46.6040268  71.3502898   9.7559817  46.3621963
  70.0656854   9.7408765  45.8806566  70.5818366   9.6343237  46.4611913
  64.9313094  21.3420683  54.2577505  65.5357951  21.3016517  53.6291326
  64.7240406  22.1891835  54.2881561  64.9901991  21.4608685  54.1693622
  74.7456866  23.6086628  55.4739742  75.5655240  23.4649594  55.7356038
  74.4650944  24.2332827  56.0156180  74.8253609  23.6796980  55.5927682
  60.1664376  20.3255300  54.1276428  60.0688654  19.5151572  54.4366485
  60.9493246  20.3047094  53.7422696  60.2680513  20.2022390  54.1163291
  73.5761141  35.9228527  50.8487887  73.3411326  35.0896179  50.7420156
  73.7146782  36.2033193  50.0349088  73.5616804  35.8412031  50.7130242
  75.8751229  28.0914258  53.7472195  75.2556261  27.5006905  53.5782209
  75.7735093  28.6825693  53.1136518  75.7688904  28.0918340  53.6277184
  75.6020362  31.6366539  55.9915764  75.4779059  32.2228985  56.6265582
  76.2538646  31.1426735  56.2928039  75.6794011  31.6505344  56.1301693
  75.1378466  40.8014198  52.1244093  74.6546044  41.5264688  52.1003677
  75.9501784  41.0990328  52.2354251  75.1869214  40.9516552  52.1371372
  77.9922663  41.3170374  52.2764373  78.6943243  40.8022363  52.3337130
  77.9120146  41.6444525  53.0811248  78.0846424  41.2884600  52.4037165
  77.7059007  25.6688804  44.3426993  77.5234580  25.8860684  43.5167986
  78.5684620  25.7827816  44.3985608  77.8063596  25.7178701  44.2281480
  77.3173439  37.5076726  51.7849981  78.1562338  37.7399659  51.8323743
  77.3485208  36.6381037  51.7157016  77.4455156  37.4133672  51.7814626
  77.9426142  37.9277601  56.0863287  78.4824367  37.7848732  56.7566659
  77.2596088  38.3274352  56.4547313  77.9218296  37.9657272  56.2397708
  73.3463287  34.1477892  56.2397708  73.0801702  33.3317008  56.3988698
  73.3601851  34.1931047  55.3693224  73.3088009  34.0334797  56.1351190
  77.2521034  28.9462976  42.8549466  76.5379211  28.6601156  43.2671899
  77.7365003  29.2859602  43.4955854  77.2180397  28.9544626  43.0105101
  78.0961893  27.6856270  58.8864716  77.4033690  27.2153250  59.1325447
  78.7122221  27.4594575  59.4606423  78.0846423  27.5823402  59.0073868
  73.7556701  34.9336671  53.5209452  73.5732274  34.9083557  52.6681744
  74.4906369  35.4035609  53.5598361  73.8370764  34.9998033  53.4007371
  76.8202452  31.6521674  60.0291561  77.5442425  31.6374705  60.5156456
  76.9218589  32.3617029  59.5313529  76.9420661  31.7546377  60.0270348
  73.7227611  31.8130172  53.6708519  74.3001114  31.6766623  54.3100764
  73.0241673  31.3565956  53.9254103  73.7048632  31.7252438  53.8030809
  69.1986444  30.6642065  50.3856337  69.2846696  30.2873933  51.1669867
  69.8262242  30.2902510  49.9076296  69.3042995  30.5527547  50.4301815
  74.7862403  39.4333798  54.4387698  74.8266548  39.7048649  53.6107478
  75.3456927  39.9575706  54.8545486  74.8745749  39.5509553  54.3779586
  76.2376989  38.0175747  49.2641624  75.4115107  38.2637484  49.1375903
  76.2988980  37.9387828  50.1303682  76.1251156  38.0420696  49.3730569
  78.4553013  24.0844688  50.2237064  77.5875438  24.1567287  50.2894673
  78.7428217  24.8866767  50.4125039  78.3692761  24.2138835  50.2611831
  77.8698681  34.6993326  52.2976505  77.5811929  34.0730797  52.8322233
  78.7382029  34.6413613  52.3641186  77.9558933  34.5980870  52.3867460
  76.3820365  27.5602947  47.6653940  76.0945161  27.1904218  46.9285888
  77.0690833  28.0297802  47.4037645  76.4409262  27.5749916  47.5169016
  76.8681653  33.8313968  58.2175485  77.3802750  34.1098221  57.5684245
  76.5817996  34.5703262  58.5838298  76.9016516  33.9816321  58.1765363
  73.9548559  28.3384160  48.5139222  74.0564696  29.1410321  48.8420197
  74.7504446  28.1371495  48.2162302  74.0876465  28.4270058  48.5174577
  74.7712292  28.4531338  56.2560343  74.6297783  27.6015278  56.3804851
  75.0552855  28.4959998  55.4322549  74.7920138  28.3331088  56.1527967
  75.5402597  26.3661685  59.5737793  75.0044786  25.7542044  59.8898561
  75.6020362  26.9409821  60.2271460  75.4698229  26.3608613  59.7173220
  77.6591353  33.7742419  49.3857848  77.8155972  33.7089222  50.2413840
  77.9991946  34.5490972  49.1736528  77.7324587  33.8791618  49.4812442
  74.2325614  30.9577370  49.7018615  74.6124579  31.3761915  49.0378883
  73.6580979  31.5390826  50.0087459  74.2036939  31.1055229  49.6495356
  77.8756416  32.5237775  54.3334110  77.0344422  32.4241649  54.5413004
  78.0846424  33.2933255  54.6848430  77.7821108  32.6229818  54.4161425
  75.3531983  30.1457312  52.1618860  74.9588680  30.2200323  51.3868970
  74.7972100  30.5315258  52.7127222  75.2134795  30.2139086  52.1286520
  77.7665224  34.9181537  55.7525743  77.1753157  35.5591035  55.7228758
  78.5286247  35.3419154  55.7257042  77.7913484  35.0757375  55.7440890
  78.1625846  26.0783535  56.4193760  78.6227328  26.1522464  57.1568884
  78.2081953  26.8764789  56.0693582  78.2376402  26.2077682  56.4766517
  74.9513624  29.7072725  58.7945476  75.8139237  29.6068435  58.7082806
  74.6205407  29.1267435  58.2331049  75.0298821  29.6064352  58.6990882
  78.3115410  28.5315174  55.4555895  77.6868480  28.5433566  54.8481847
  77.9761005  29.0075350  56.1047135  78.1700902  28.6033691  55.4612463
  78.4957159  26.8740293  41.5128580  78.1469963  27.5260018  41.9760129
  78.0153605  26.8597406  40.7852451  78.3727403  26.9683346  41.4739671
  75.0241086  36.5915635  56.8959659  74.4941010  35.9008073  56.9454634
  75.2966179  36.5825820  56.0672368  74.9865808  36.4882766  56.7807075
  77.5806156  30.1408322  57.6730763  77.7399642  29.3851646  58.0782485
  77.3999049  30.6899262  58.3271501  77.5771514  30.1102136  57.8293469
  70.3036928  33.2643399  54.2528007  70.1980377  33.2190243  53.3880091
  69.5537148  33.6097179  54.5342292  70.1772531  33.3084307  54.1665337
  75.4034278  32.5633775  47.6236747  75.9126507  33.1598283  48.0048053
  75.8768550  32.2959749  46.9413167  75.5477653  32.6119591  47.5791270
  77.7624810  29.1990034  50.4909927  77.0436799  29.6154166  50.7582791
  78.1337172  29.7644272  49.9401566  77.7116741  29.3439315  50.4492734
  75.5414144  28.4939586  61.5112519  75.3716734  29.1540961  60.9660726
  75.0980094  28.7046148  62.2325008  75.4513477  28.6225569  61.5374149
  72.4416208  31.3986452  56.7701009  71.8942928  30.7287098  56.8881877
  73.2308586  31.0316300  56.8344476  72.4768392  31.2451438  56.7969710
  71.2003178  30.6107260  53.9247032  71.0224939  30.1583869  54.6501948
  70.9122200  31.4133421  54.1085510  71.1316131  30.6629818  54.0590535
  72.9375647  33.1434983  51.0368791  72.0721167  33.1320674  50.9251562
  73.0374463  32.9565206  51.8839930  72.8249814  33.1141045  51.1457736
  75.9045678  36.8605991  54.2577505  76.5090535  36.8201825  53.6291326
  75.6972990  37.7077143  54.2881561  75.9634575  36.9793993  54.1693622
  71.1396960  35.8440608  54.1276428  71.0421238  35.0336880  54.4366485
  71.9225830  35.8232401  53.7422696  71.2413096  35.7207698  54.1163291
  73.2711965  12.8606658  37.7827934  73.0362150  12.0274311  37.6760203
  73.4097606  13.1411324  36.9689135  73.2567628  12.7790162  37.6470289
  74.8329290  17.7392329  39.0584140  74.3496868  18.4642819  39.0343724
  75.6452608  18.0368459  39.1694298  74.8820038  17.8894683  39.0711419
  77.6873487  18.2548505  39.2104420  78.3894067  17.7400494  39.2677176
  77.6070970  18.5822656  40.0151295  77.7797248  18.2262731  39.3377212
  77.0124263  14.4454857  38.7190028  77.8513162  14.6777790  38.7663789
  77.0436032  13.5759168  38.6497063  77.1405980  14.3511803  38.7154672
  77.6376966  14.8655732  43.0203333  78.1775191  14.7226863  43.6906706
  76.9546912  15.2652483  43.3887360  77.6169120  14.9035403  43.1737755
  73.0414111  11.0856023  43.1737755  72.7752526  10.2695140  43.3328745
  73.0552675  11.1309179  42.3033270  73.0038833  10.9712928  43.0691237
  73.4507525  11.8714802  40.4549499  73.2683098  11.8461688  39.6021791
  74.1857193  12.3413740  40.4938408  73.5321588  11.9376165  40.3347418
  74.4813227  16.3711929  41.3727745  74.5217372  16.6426780  40.5447524
  75.0407751  16.8953837  41.7885533  74.5696573  16.4887684  41.3119633
  75.9327813  14.9553878  36.1981671  75.1065931  15.2015615  36.0715950
  75.9939804  14.8765959  37.0643729  75.8201980  14.9798827  36.3070615
  78.6532558  19.5498141  36.9660850  78.4332853  19.2595495  37.7587518
  78.4327080  18.8913096  36.4378763  78.5880152  19.4097849  37.0049759
  77.7681778  13.2766708  35.1558917  78.5227746  13.6579747  35.3694380
  77.1752391  13.7277852  35.6105614  77.7918492  13.3995536  35.2541796
  77.4616048  11.8559668  42.6865789  76.8703981  12.4969166  42.6568805
  78.2237071  12.2797285  42.6597089  77.4864308  12.0135507  42.6780937
  74.7191910  13.5293766  43.8299706  74.1891834  12.8386205  43.8794681
  74.9917003  13.5203951  43.0012414  74.6816632  13.4260897  43.7147122
  69.9987752  10.2021530  41.1868054  69.8931201  10.1568374  40.3220138
  69.2487972  10.5475310  41.4682339  69.8723355  10.2462438  41.1005384
  78.2583481  19.8511013  41.5438943  78.5730040  20.6647402  41.5516725
  78.6676895  19.4661232  42.2121103  78.3651579  19.9139716  41.6443035
  70.8347784  12.7818739  41.0616475  70.7372062  11.9715011  41.3706532
  71.6176653  12.7610533  40.6762743  70.9363920  12.6585829  41.0503338
  26.3738900  30.5605949  74.2967886  26.3432905  31.4150585  74.4686155
  26.9720249  30.2601241  74.8554029  26.4576058  30.6422445  74.4042688
  13.9579725  39.1844317  74.8158048  13.2062624  38.8059856  74.5874093
  14.4065737  39.2162751  74.0676858  13.9129392  39.1329925  74.6715550
  19.4104685  39.6069687  70.2443595  19.0756053  40.2846609  69.8087817
  19.9231555  39.2174998  69.6560466  19.4370266  39.6494265  70.0930386
  18.9508976  41.5583956  76.1854706  19.3348355  42.1270854  75.6459482
  18.8868117  40.8333466  75.7060522  18.9982403  41.5359419  76.0348569
  24.1955475  33.1358251  72.5686195  24.0795001  33.8865937  72.9978334
  24.9911362  32.8782204  72.8182283  24.2960064  33.2093098  72.6690287
  15.3765221  44.1140299  78.4835676  16.0202676  44.5553463  78.8731835
  15.7021476  43.3093725  78.3965935  15.5197049  44.0605494  78.5281153
  16.0785800  37.1252274  73.8555538  16.4001642  37.6657481  73.2516846
  16.7257897  36.5549045  73.9877828  16.2211856  37.1211449  73.7862573
  18.3175444  35.5138714  73.9269716  18.7569079  34.9055814  74.3724489
  18.1680107  35.1346087  73.1555181  18.3596910  35.3677185  73.8788883
  21.9184780  33.8665895  70.8800485  21.8336076  34.7226862  71.0250054
  22.4069164  33.5910219  71.5482644  21.9773678  33.9523216  71.0002567
  22.8503214  30.4850689  72.3798220  22.3214685  30.7010323  73.0395527
  23.3728234  31.1786828  72.2999190  22.8491667  30.6193826  72.4653820
  28.3051267  36.0596994  77.7531265  27.4748970  36.2707637  77.9164681
  28.2560519  35.2334048  77.4773548  28.1758002  35.9686600  77.7368630
  14.7402821  34.3813906  71.1805688  14.1560037  34.8863937  71.5871552
  14.3372917  34.1556293  70.4402280  14.5942125  34.4222154  71.1310714
  19.1980036  30.6279558  69.6574609  19.4376040  30.8357542  68.8449952
  19.5195877  29.8237067  69.7663554  19.2817194  30.5393659  69.5535162
  25.5615582  36.7296348  77.8895981  25.1250814  36.7333090  78.6454952
  25.2278497  37.4101847  77.4575558  25.4478202  36.8308804  77.9376813
  12.4089418  28.2417445  68.7134733  11.6947595  27.9555625  69.1257165
  12.8933387  28.5814071  69.3541120  12.3748781  28.2499095  68.8690368
  28.6959928  33.4477268  76.7815618  29.3576362  32.8867936  76.6811526
  28.0551340  32.9529299  77.1068309  28.6988796  33.2913677  76.8147958
  19.5836736  36.7447399  69.0896541  19.9987884  36.4132423  68.3981037
  18.7528665  36.5116301  68.9616678  19.5224744  36.6618655  68.9687389
  24.9824759  34.4642650  76.5227607  25.2180348  34.6087849  75.6954457
  25.1314322  35.2285058  76.9159120  25.0390562  34.5981705  76.4591211
  26.8115215  33.3044316  74.3597210  27.1423433  33.8371956  73.7537305
  27.3848304  33.3583204  75.0159161  26.9448895  33.3913885  74.3674992
  22.2770126  32.9957959  68.2757743  22.1950288  33.0660146  69.1412730
  22.9149846  33.5587703  68.0841483  22.3589963  33.0896930  68.3747692
  27.9194567  28.5454813  75.8637372  27.6631132  27.7334755  75.6735255
  28.7623881  28.5532380  75.6367559  28.0060592  28.4266811  75.8022189
  19.3810236  33.0178413  71.2866349  20.1950875  33.3093306  71.1749120
  19.3169377  32.3638275  70.7124642  19.4912975  32.9643608  71.1855186
  15.8920959  31.7102220  70.7513551  16.2766112  31.4909927  71.5030096
  15.6432580  32.5365166  70.8814627  15.9123032  31.8000366  70.8814627
  16.1744202  39.9307096  72.8245921  16.4642500  39.5396077  72.1005147
  16.9047683  40.1123801  73.2651196  16.3251086  39.9000910  72.7828728
  14.1150118  41.9074479  75.8906071  13.8950413  41.6171833  76.6832738
  13.8944640  41.2489434  75.3623983  14.0497712  41.7674187  75.9294979
  16.2818073  43.2803868  74.6736763  16.9342131  42.7480311  74.9027789
  15.5843682  42.9272521  75.0604637  16.2748791  43.1493391  74.7648931
  24.2757992  35.6008282  74.0167742  24.8416024  36.2601492  73.9326285
  23.6285895  35.9457981  74.4884144  24.2636748  35.7490224  74.0740499
  20.7464570  38.5447067  73.4404821  20.5051246  37.8114927  73.0331886
  20.9265903  39.0933924  72.7871155  20.7372194  38.5169458  73.2835044
  25.4720690  35.6514510  70.8093379  25.0927498  34.8651648  70.8022668
  24.8086935  36.2001367  70.6665023  25.3179164  35.6159334  70.7874176
  20.8186258  36.2340213  66.6282154  21.5859243  36.2940338  66.2188006
  20.3717567  35.6620654  66.1438473  20.8659685  36.1576789  66.4959865
  23.7180788  37.8960001  71.1445065  23.8000626  38.7026987  70.8206515
  24.2030531  37.9155960  71.8685838  23.8017946  38.0180664  71.2031963
  19.3538881  32.4454772  74.1136478  19.8954427  31.9425153  74.5775099
  19.6685440  32.3919967  73.3025963  19.4803278  32.3634193  74.0620290
  17.5225331  37.8372124  71.3976506  17.5918151  36.9786662  71.5369507
  18.3013786  38.0544005  71.0695531  17.6478181  37.7424988  71.3693664
  21.9132818  40.2609825  75.6113000  21.5212610  39.9576540  74.8935866
  22.0685891  41.0978915  75.4217953  21.8786408  40.3393662  75.4769497
  22.0772493  36.8259814  75.5519030  21.7187148  36.9974457  76.3283063
  21.5911204  37.2873019  74.9947029  21.9531190  36.9198785  75.5844299
  16.8660859  32.5058979  68.0919265  17.1553383  33.2823862  68.3662839
  16.9532658  31.9947711  68.7933764  16.9215115  32.5450898  68.2361762
  22.6823124  39.6645318  79.0443034  22.4842812  40.1536132  78.3499245
  22.0610835  39.8686559  79.6227167  22.5610688  39.7661856  79.0266257
  21.6592478  27.8992242  72.3472951  21.1315496  27.9820986  71.6578660
  22.1188186  28.6410114  72.3437596  21.6494328  28.0212905  72.2447647
  13.6525543  26.1694762  67.3713847  13.3038347  26.8214487  67.8345396
  13.1721989  26.1551875  66.6437718  13.5295787  26.2637816  67.3324938
  21.2129560  36.4695806  71.4782608  21.9363759  36.9353919  71.3347182
  20.7730151  36.5369416  70.7280205  21.2545252  36.5479643  71.3467390
  14.0549674  29.6620403  70.2132468  14.6894753  30.2580828  70.1481930
  14.1375285  29.3623861  71.0278338  14.1606225  29.7061312  70.3235554
  21.4733410  40.5316511  71.6380669  20.7562720  40.3577373  71.1727907
  22.1240147  40.2969083  71.1056155  21.4635260  40.4712303  71.4909887
  16.7546572  41.7678269  78.0670817  16.3406970  41.1052400  77.6774659
  17.4393946  41.9156128  77.5466512  16.7944943  41.6918928  77.9327315
  20.1211866  40.9268355  78.8194434  19.7228149  41.0370625  78.0515254
  19.5063085  41.1350421  79.4020994  19.9710755  40.9741923  78.7925733
  27.8553709  35.5020321  72.2037525  28.2387314  36.2511678  72.4335622
  27.0597822  35.7486141  71.9449514  27.7947491  35.6490015  72.1995098
  16.6669000  28.1739753  69.7797904  17.0467965  28.1919382  68.9949018
  15.9261596  28.6193742  69.6588751  16.6137838  28.2421528  69.6461472
  17.4653754  35.0117259  71.1706694  16.6565077  34.6883933  71.1240003
  17.9728663  34.3050482  71.1034942  17.4203421  34.8598576  71.1536988
  37.3471484  46.0791256  74.2967886  37.3165488  46.9335893  74.4686155
  37.9452833  45.7786549  74.8554029  37.4308642  46.1607753  74.4042688
  30.5471169  45.1666908  79.0520816  29.6909064  45.3275406  79.1029933
  30.5938823  44.2958971  79.0725877  30.4270280  45.0617709  79.0626882
  24.9312309  54.7029625  74.8158048  24.1795208  54.3245164  74.5874093
  25.3798320  54.7348059  74.0676858  24.8861975  54.6515233  74.6715550
  30.3837268  55.1254995  70.2443595  30.0488637  55.8031916  69.8087817
  30.8964139  54.7360306  69.6560466  30.4102850  55.1679573  70.0930386
  29.9241560  57.0769264  76.1854706  30.3080939  57.6456162  75.6459482
  29.8600701  56.3518774  75.7060522  29.9714987  57.0544727  76.0348569
  33.3922990  47.2258951  81.6952468  33.9378950  47.9044038  81.7546437
  33.3339866  47.0846412  80.8354049  33.4638904  47.3050953  81.5764528
  26.5097065  54.7148018  77.0820820  26.6107428  53.9048371  77.3917948
  25.9138810  54.6204964  76.4520499  26.4369603  54.5813046  77.0347059
  35.1688058  48.6543559  72.5686195  35.0527584  49.4051245  72.9978334
  35.9643945  48.3967512  72.8182283  35.2692648  48.7278405  72.6690287
  26.3497804  59.6325607  78.4835676  26.9935260  60.0738771  78.8731835
  26.6754060  58.8279033  78.3965935  26.4929633  59.5790801  78.5281153
  19.7062109  50.7368304  76.7073154  19.4712293  49.9035956  76.6005423
  19.8447750  51.0172970  75.8934355  19.6917771  50.6551808  76.5715509
  22.0052196  42.9054035  79.6057461  21.3857228  42.3146682  79.4367476
  21.9036060  43.4965470  78.9721785  21.8989872  42.9058117  79.4862451
  27.0518384  52.6437582  73.8555538  27.3734225  53.1842789  73.2516846
  27.6990481  52.0734353  73.9877828  27.1944439  52.6396757  73.7862573
  29.1020092  44.6453576  73.9389925  29.8000257  44.8241704  74.4311388
  29.4172425  44.1223916  73.3160314  29.2515429  44.5947349  73.9191935
  21.7321329  46.4506316  81.8501030  21.6080026  47.0368762  82.4850849
  22.3839614  45.9566512  82.1513305  21.8094979  46.4645121  81.9886960
  29.2908027  51.0324022  73.9269716  29.7301663  50.4241122  74.3724489
  29.1412690  50.6531395  73.1555181  29.3329493  50.8862493  73.8788883
  26.7579670  49.6268033  81.1288542  27.4028673  49.1340476  80.8099490
  26.9981448  49.7692820  81.9554620  26.8890256  49.5745476  81.2038075
  29.2965762  52.4722939  80.7795434  29.5789005  51.6774345  80.5582190
  30.0251922  52.9503527  80.8000495  29.4455326  52.4257536  80.7498449
  27.2746956  40.0145973  78.0211199  26.9450286  40.4657117  77.3514898
  26.5991957  39.9362136  78.5684206  27.1257392  40.0697108  78.0034422
  32.8917364  49.3851203  70.8800485  32.8068659  50.2412169  71.0250054
  33.3801747  49.1095527  71.5482644  32.9506261  49.4708524  71.0002567
  34.4823363  36.0031496  76.2660810  34.1676804  36.6934975  76.6981232
  33.9650305  35.9476278  75.5646311  34.3587834  36.0966385  76.2257759
  33.8235797  46.0035997  72.3798220  33.2947269  46.2195631  73.0395527
  34.3460817  46.6972135  72.2999190  33.8224250  46.1379134  72.4653820
  39.2783850  51.5782301  77.7531265  38.4481553  51.7892945  77.9164681
  39.2293102  50.7519356  77.4773548  39.1490586  51.4871908  77.7368630
  25.7135405  49.8999214  71.1805688  25.1292620  50.4049245  71.5871552
  25.3105500  49.6741601  70.4402280  25.5674709  49.9407462  71.1310714
  21.2679434  55.6153975  77.9829360  20.7847012  56.3404465  77.9588944
  22.0802752  55.9130105  78.0939518  21.3170181  55.7656329  77.9956639
  27.3393588  54.4086156  80.5879174  26.8220529  54.0493571  79.9840482
  28.0367979  53.8848330  80.5985241  27.3659169  54.2783844  80.5009433
  30.1712619  46.1464866  69.6574609  30.4108623  46.3542850  68.8449952
  30.4928460  45.3422375  69.7663554  30.2549777  46.0578967  69.5535162
  25.4802910  38.0758262  73.5034147  26.2348878  38.4436579  73.2651197
  25.3030444  38.4497816  74.2713327  25.5657388  38.1856449  73.5819035
  24.1223631  56.1310151  78.1349640  24.8244210  55.6162140  78.1922396
  24.0421114  56.4584302  78.9396515  24.2147391  56.1024377  78.2622432
  38.7737808  44.2252702  81.5481686  37.9366230  44.2954889  81.7829281
  38.7426039  44.2277197  80.6755989  38.6456091  44.2362929  81.4541234
  23.8359974  40.4828581  70.2012260  23.6535548  40.7000461  69.3753253
  24.6985587  40.5967593  70.2570874  23.9364564  40.5318478  70.0866747
  23.4474406  52.3216503  77.6435248  24.2863306  52.5539436  77.6909009
  23.4786176  51.4520814  77.5742283  23.5756124  52.2273449  77.6399892
  24.0727109  52.7417378  81.9448553  24.6125334  52.5988509  82.6151926
  23.3897056  53.1414129  82.3132580  24.0519263  52.7797049  82.0982975
  29.5159694  37.4854991  73.2361284  30.2445854  37.3070946  72.7899440
  29.6054586  38.3273071  73.4468462  29.6366356  37.5838870  73.2014801
  33.4967994  48.4208379  77.1393578  34.2525509  48.8539893  77.1782486
  33.6030319  47.7713148  77.7128214  33.6238165  48.3885862  77.2291603
  36.5348165  52.2481656  77.8895981  36.0983397  52.2518398  78.6454952
  36.2011081  52.9287155  77.4575558  36.4210785  52.3494112  77.9376813
  36.4545648  39.2895484  80.1325409  37.0971557  39.3593588  80.7187324
  36.7068669  38.6224707  79.6304951  36.5867780  39.2021832  80.1452688
  23.3822001  43.7602753  68.7134733  22.6680179  43.4740933  69.1257165
  23.8665970  44.0999379  69.3541120  23.3481365  43.7684403  68.8690368
  39.6692512  48.9662576  76.7815618  40.3308946  48.4053244  76.6811526
  39.0283924  48.4714606  77.1068309  39.6721379  48.8098985  76.8147958
  30.5569319  52.2632707  69.0896541  30.9720468  51.9317731  68.3981037
  29.7261249  52.0301609  68.9616678  30.4957328  52.1803963  68.9687389
  19.8857668  49.7476448  79.3794719  19.7033241  49.7223334  78.5267011
  20.6207337  50.2175386  79.4183628  19.9671732  49.8137810  79.2592638
  35.9557342  49.9827958  76.5227607  36.1912931  50.1273157  75.6954457
  36.1046906  50.7470366  76.9159120  36.0123146  50.1167013  76.4591211
  37.7847799  48.8229624  74.3597210  38.1156016  49.3557264  73.7537305
  38.3580887  48.8768512  75.0159161  37.9181478  48.9099193  74.3674992
  32.9979688  46.6694527  75.0420791  33.0926543  47.4083821  75.4960416
  32.3738532  46.2412002  75.4755355  32.9188718  46.7155847  75.1728938
  19.8528578  46.6269949  79.5293786  20.4302081  46.4906400  80.1686031
  19.1542640  46.1705733  79.7839370  19.8349600  46.5392215  79.6616075
  33.2502709  48.5143267  68.2757743  33.1682872  48.5845454  69.1412730
  33.8882430  49.0773011  68.0841483  33.3322547  48.6082238  68.3747692
  26.6095881  48.2804005  77.7432269  26.3515125  47.4475739  77.7163568
  26.6644363  48.5061618  76.9024769  26.5795658  48.1901776  77.6152406
  31.6896931  40.3832455  77.8436362  30.9853257  39.8941641  78.0020281
  31.7381905  40.3954930  76.9724806  31.5926982  40.3122103  77.7375701
  25.5830593  45.8341767  78.2297164  25.0080184  45.9933935  78.8661125
  25.2066269  45.1977176  77.7665614  25.4433405  45.7639580  78.2551722
  29.2503881  44.3065116  83.0889542  28.8618314  43.8819334  82.4341733
  28.5858580  44.5547266  83.5966569  29.0950809  44.2803837  83.0677410
  38.8927151  44.0640121  75.8637372  38.6363715  43.2520062  75.6735255
  39.7356465  44.0717688  75.6367559  38.9793176  43.9452118  75.8022189
  15.3287412  45.4781842  76.2441604  15.4147663  45.1013710  77.0255134
  15.9563209  45.1042287  75.7661563  15.4343963  45.3667324  76.2887082
  33.0730243  38.0039745  80.6013526  33.4540755  37.3217916  80.9881401
  32.2693527  37.7149347  80.4189191  33.0106705  37.8606794  80.6317582
  30.3542820  48.5363721  71.2866349  31.1683458  48.8278614  71.1749120
  30.2901961  47.8823583  70.7124642  30.4645559  48.4828916  71.1855186
  26.2250728  52.0085238  76.4138661  26.8624675  51.7696986  76.9590455
  26.6505799  52.2122397  75.6791822  26.3826894  52.0036249  76.3855818
  26.8653543  47.2287528  70.7513551  27.2498696  47.0095235  71.5030096
  26.6165163  48.0550474  70.8814627  26.8855616  47.3185674  70.8814627
  28.6072200  52.4857661  78.0932447  28.6811208  52.3232833  78.9474297
  29.4241706  52.6747851  77.8492929  28.7388558  52.4894403  78.1830473
  22.3677957  52.8315524  75.1226891  21.5416074  53.0777261  74.9961170
  22.4289948  52.7527605  75.9888949  22.2552124  52.8560473  75.2315835
  24.5853980  38.8984465  76.0822331  23.7176406  38.9707064  76.1479940
  24.8729185  39.7006544  76.2710306  24.4993728  39.0278612  76.1197098
  33.7086869  39.0462324  84.4133653  34.4540461  38.8572135  83.9997078
  33.2924174  39.5720562  83.8547509  33.7571843  39.0964470  84.2698226
  27.1476786  55.4492404  72.8245921  27.4375084  55.0581385  72.1005147
  27.8780266  55.6309109  73.2651196  27.2983670  55.4186218  72.7828728
  41.0849140  46.4171553  79.3639158  41.6357061  45.7839622  79.6036250
  41.0693255  46.9486945  80.0554662  41.1634336  46.4020501  79.5018016
  27.7371531  50.2510150  83.9099051  27.2383224  50.9625918  83.9883940
  28.5471755  50.5710817  83.8717214  27.7827637  50.4036999  83.9155620
  25.0882701  57.4259786  75.8906071  24.8682997  57.1357141  76.6832738
  24.8677223  56.7674741  75.3623983  25.0230295  57.2859495  75.9294979
  23.9999648  49.5133103  78.1561772  23.7112897  48.8870574  78.6907499
  24.8682996  49.4553390  78.2226453  24.0859900  49.4120647  78.2452727
  34.7877546  44.6567886  78.4743754  34.4442312  43.9358222  78.8251004
  34.8870589  44.4481737  77.6322112  34.7519589  44.5192090  78.4015434
  27.2550657  58.7989176  74.6736763  27.9074715  58.2665619  74.9027789
  26.5576266  58.4457829  75.0604637  27.2481375  58.6678699  74.7648931
  24.2031922  51.1528354  74.0804137  24.9577890  51.5341393  74.2939600
  23.6102534  51.6039498  74.5350834  24.2268635  51.2757181  74.1787016
  35.2490575  51.1193590  74.0167742  35.8148608  51.7786800  73.9326285
  34.6018479  51.4643288  74.4884144  35.2369332  51.2675532  74.0740499
  25.5230148  52.3236915  79.4544253  25.0010902  52.4637207  80.1396117
  25.9104169  51.5647580  79.6446370  25.5033849  52.2322439  79.5845329
  22.5121332  42.3742724  73.5239207  22.2246128  42.0043995  72.7871155
  23.1991801  42.8437579  73.2622912  22.5710230  42.3889693  73.3754283
  31.7197153  54.0632375  73.4404821  31.4783829  53.3300235  73.0331886
  31.8998486  54.6119232  72.7871155  31.7104777  54.0354766  73.2835044
  26.9496474  49.3540934  74.8525744  26.7539257  49.9615669  74.2586047
  27.1730820  48.6608878  74.3717418  26.9531115  49.3418460  74.6941824
  25.3475004  46.2395672  74.9706612  26.0697656  46.4036830  74.5110418
  24.8682997  46.9605337  74.8645952  25.3838735  46.3693902  74.8872226
  33.3068512  42.5759471  80.3503297  32.4679612  42.6020750  80.1141560
  33.3772879  43.2230207  80.9308644  33.1936905  42.6755597  80.4012414
  31.7537790  39.4744848  75.0830913  32.4564143  39.2752596  74.6050871
  31.4881979  38.7020790  75.3899756  31.8184422  39.3307814  75.0576354
  37.1826035  47.7827458  77.6364539  37.0960010  47.9382884  78.4899318
  36.7276515  48.4265533  77.2623944  37.1029292  47.9003213  77.7071645
  20.0849527  43.1523937  74.3724488  20.1865663  43.9550098  74.7005464
  20.8805414  42.9511272  74.0747569  20.2177433  43.2409835  74.3759844
  31.0551851  45.1038205  76.2590098  30.8086566  45.0233956  77.0926887
  31.3836975  44.3191673  76.0652626  31.0673095  44.9764470  76.3537621
  34.9499900  51.8121564  80.0476879  34.8114260  52.5102610  80.5525622
  34.1699898  51.6570221  79.6913061  34.8143127  51.8921731  80.0703154
  27.0148879  47.8394924  85.6713081  27.1592254  48.4196132  85.0356191
  27.3624527  48.2171220  86.3762936  27.0876340  47.9815628  85.6812076
  29.1868796  47.0385092  83.4538213  28.4392110  47.2316106  83.0486491
  29.3410321  46.2130311  83.2162334  29.0991224  46.9450203  83.3583619
  26.0876634  56.0297695  82.5374108  26.2366197  55.4700611  81.8847513
  26.8676636  56.1089697  82.9206627  26.2250727  55.9583261  82.4971057
  36.4453273  51.1699818  70.8093379  36.0660082  50.3836956  70.8022668
  35.7819519  51.7186675  70.6665023  36.2911748  51.1344642  70.7874176
  33.8997899  34.1125518  78.2127460  34.0181467  34.5701981  77.4794762
  33.7260075  33.3070779  77.9263677  33.8917070  34.0619290  78.0628393
  29.2700181  54.7213337  74.6482205  30.0350072  54.4522981  74.3264869
  29.1678271  54.2363347  75.3652268  29.3681677  54.6102902  74.7062033
  27.3052951  42.9237747  81.1875441  26.5149026  42.7429207  81.5092776
  27.7013574  42.1464699  81.1705735  27.2469827  42.7825207  81.2327989
  31.7918842  51.7525521  66.6282154  32.5591827  51.8125646  66.2188006
  31.3450151  51.1805962  66.1438473  31.8392269  51.6762097  66.4959865
  32.6896637  50.5580177  78.9134887  32.0141639  50.3265409  79.4148274
  32.6989013  49.9501360  78.2876992  32.5915142  50.4339102  78.8951039
  29.8190781  45.3998006  85.6698940  29.7549923  46.2607962  85.5419076
  29.9587969  45.0829999  84.8694491  29.8306251  45.4798172  85.5327152
  34.6913372  53.4145309  71.1445065  34.7733209  54.2212295  70.8206515
  35.1763114  53.4341268  71.8685838  34.7750530  53.5365971  71.2031963
  28.5009875  48.0930145  79.8115142  28.0772124  48.2934644  79.0754161
  28.3254730  47.2458993  79.9239442  28.4120756  47.9978926  79.7188833
  23.7892320  48.5882196  75.2443115  23.9456939  48.5228999  76.0999107
  24.1292913  49.3630749  75.0321795  23.8625555  48.6931395  75.3397709
  30.3271465  47.9640080  74.1136478  30.8687010  47.4610461  74.5775099
  30.6418024  47.9105275  73.3025963  30.4535862  47.8819501  74.0620290
  28.4957914  53.3557432  71.3976506  28.5650735  52.4971970  71.5369507
  29.2746370  53.5729312  71.0695531  28.6210765  53.2610296  71.3693664
  31.4760734  42.8576385  84.1658779  31.6902704  42.2187299  83.6122133
  30.8594633  43.3022208  83.7366640  31.4166063  42.8286528  84.0209210
  32.8865402  55.7795133  75.6113000  32.4945194  55.4761848  74.8935866
  33.0418474  56.6164223  75.4217953  32.8518992  55.8578970  75.4769497
  20.3626582  45.7717147  75.5603882  20.7425547  46.1901692  74.8964150
  19.7881946  46.3530603  75.8672726  20.3337907  45.9195006  75.5080623
  33.6399822  44.4665450  85.1042086  32.8276504  44.1591340  85.1855259
  34.0989757  43.9864450  85.6684798  33.5880207  44.3501942  85.1996680
  33.0505077  52.3445122  75.5519030  32.6919732  52.5159765  76.3283063
  32.5643788  52.8058327  74.9947029  32.9263774  52.4384093  75.5844299
  30.8675463  35.9676320  79.1546122  29.9969021  35.9415041  79.1079431
  31.1215804  35.7953512  78.3371967  30.7769023  35.9386464  79.0266258
  27.8393442  48.0244287  68.0919265  28.1285967  48.8009170  68.3662839
  27.9265241  47.5133019  68.7933764  27.8947698  48.0636205  68.2361762
  27.8924603  37.9782549  80.6119592  27.3763092  37.2862740  80.7371171
  27.3318532  38.6453326  80.5582191  27.7331117  37.9745806  80.6225658
  35.9366816  45.0838164  81.0652147  35.5094424  44.9964512  80.3100246
  35.2992869  45.1915939  81.6506991  35.7796424  45.0870823  81.0397588
  24.0057383  47.3377552  80.1919377  23.1645390  47.2381426  80.3998270
  24.2147391  48.1073032  80.5433697  23.9122076  47.4369595  80.2746692
  21.4832950  44.9597089  78.0204127  21.0889648  45.0340100  77.2454237
  20.9273067  45.3455035  78.5712489  21.3435763  45.0278863  77.9871787
  33.1197897  37.9378383  77.7008006  33.3247490  37.8700691  78.5465003
  32.7924321  38.7437204  77.6329184  33.1013145  38.0464323  77.8167661
  27.8174048  45.2658951  79.4416974  27.5137186  44.7114939  80.0427382
  27.1153469  45.4451161  78.9545008  27.6690258  45.2103733  79.4586680
  26.8740145  42.5759471  74.0061676  27.1499880  41.8578383  73.5939243
  27.4738815  43.1744391  73.7982782  27.0033410  42.5579841  73.9142437
  36.3731585  38.4910147  77.1810772  35.7605898  38.9780549  77.5664503
  36.4695760  37.8153638  77.7248423  36.2969482  38.4628456  77.3189630
  30.3750666  40.2472988  72.2808271  30.8294412  40.4183548  73.0056116
  30.8490711  39.6341099  71.8806047  30.5118986  40.1823873  72.3282033
  23.8966191  49.7321314  81.6111010  23.3054124  50.3730812  81.5814025
  24.6587215  50.1558931  81.5842309  23.9214452  49.8897152  81.6026157
  33.6555707  55.1830626  79.0443034  33.4575396  55.6721440  78.3499245
  33.0343418  55.3871867  79.6227167  33.5343272  55.2847164  79.0266257
  27.7163686  46.9515522  73.3853278  28.4605731  47.3389799  73.6236228
  27.8624382  46.1072948  73.5493766  27.8474271  46.8845995  73.4447248
  29.6343261  38.7465781  78.4185140  28.7879306  38.9188589  78.2926489
  29.6314394  37.9415125  78.7550968  29.5090411  38.6526810  78.4496267
  30.7041562  42.5240996  79.2847198  30.2301516  41.9982758  79.7952508
  31.0759697  41.9770469  78.7162059  30.6891450  42.3656992  79.2762345
  36.9678292  47.5843371  80.6953978  36.7276515  46.7449787  80.6996405
  37.4470299  47.6643538  81.4194752  37.0030476  47.4724771  80.8028780
  32.6325061  43.4177550  72.3472951  32.1048080  43.5006294  71.6578660
  33.0920769  44.1595422  72.3437596  32.6226912  43.5398213  72.2447647
  38.9683479  44.3644829  78.6483237  38.7293249  44.3240663  77.8104022
  39.1317380  45.2115981  78.7748958  38.9573783  44.4836914  78.5436719
  24.4416378  43.3454951  81.3141162  23.8169448  43.3573343  80.7067114
  24.1061973  43.8215127  81.9632402  24.3001869  43.4173468  81.3197730
  24.6258126  41.6880070  67.3713847  24.2770931  42.3399795  67.8345396
  24.1454572  41.6737183  66.6437718  24.5028370  41.7823123  67.3324938
  32.1862144  51.9881114  71.4782608  32.9096343  52.4539227  71.3347182
  31.7462735  52.0554723  70.7280205  32.2277836  52.0664951  71.3467390
  31.3548299  48.8478656  82.7283297  30.7405292  48.3036706  83.0231933
  31.8715584  48.3342893  82.2489114  31.3403961  48.6915065  82.7007526
  30.5944596  49.9182926  80.4627596  30.1672204  49.2932645  80.0293031
  30.5869540  49.6357848  81.2886603  30.5303737  49.7835707  80.5207424
  28.9230306  40.7951681  80.6770130  28.9472793  40.2611793  79.9882910
  29.1741779  40.2868989  81.3395721  28.9640224  40.6412585  80.6734775
  25.2031628  39.5222499  80.0575874  25.2429999  40.0231706  80.7710582
  24.3781293  39.6132893  79.7881797  25.0871154  39.6104315  80.1226413
  26.6245991  46.0383009  82.3549773  25.7937921  46.2056827  82.1485021
  26.5697508  45.6618960  83.1398659  26.4935406  46.0072740  82.4398301
  24.9982035  44.3138600  72.8839891  25.1384996  44.8111065  73.5868532
  25.4964568  43.6124895  73.0254105  25.0923116  44.2840579  73.0091470
  25.0282257  45.1805711  70.2132468  25.6627337  45.7766136  70.1481930
  25.1107868  44.8809169  71.0278338  25.1338808  45.2246619  70.3235554
  26.6061240  41.1119687  70.1877910  26.9277081  40.6322769  69.5337172
  26.8688184  41.9219333  69.9968722  26.6927266  41.1609585  70.0633402
  29.8358213  52.1338561  83.7076726  29.3283304  52.6874408  84.1517356
  29.5384859  52.1946851  82.8895500  29.7163098  52.2244872  83.6525183
  32.0020395  40.4991881  82.5501389  32.4275467  40.0464407  81.9384915
  31.3877388  39.9451951  82.8266176  31.9749041  40.3505857  82.5006414
  21.5335245  47.3773552  73.4822014  22.0427475  47.9738060  73.8633319
  22.0069518  47.1099526  72.7998434  21.6778621  47.4259368  73.4376537
  32.4465993  56.0501819  71.6380669  31.7295303  55.8762681  71.1727907
  33.0972731  55.8154391  71.1056155  32.4367844  55.9897611  71.4909887
  30.4414618  36.9706981  75.9591966  29.7982936  36.8204627  76.5277104
  30.1014025  36.7249326  75.1941071  30.2959695  36.9119103  75.9294981
  35.0313965  44.9266407  75.3821975  34.3605154  45.4696110  75.2535040
  35.7253715  45.3961263  75.1403669  35.0342832  45.0764679  75.3277502
  29.0800698  57.0663119  80.6133733  28.8566353  56.3081949  80.9817759
  28.5910542  57.0961141  79.8914173  28.9744147  56.9585344  80.5610474
  35.1942092  41.3822291  78.2912348  35.5469702  40.9552014  78.9658147
  34.3356894  41.2973134  78.4213424  35.1191537  41.3067032  78.4107358
  23.8925777  44.0129811  76.3495194  23.1737766  44.4293943  76.6168058
  24.2638139  44.5784049  75.7986832  23.8417709  44.1579092  76.3078001
  33.1925358  44.6457660  82.2397190  33.1723285  44.4640955  83.0931969
  33.2404559  45.5169678  82.2156774  33.1959999  44.7474198  82.3620485
  27.7279155  57.2863577  78.0670817  27.3139554  56.6237708  77.6774659
  28.4126530  57.4341436  77.5466512  27.7677527  57.2104236  77.9327315
  31.0944449  56.4453663  78.8194434  30.6960733  56.5555933  78.0515254
  30.4795669  56.6535729  79.4020994  30.9443339  56.4927231  78.7925733
  29.6672351  43.0527811  71.6868574  29.0737191  43.3744807  71.1353141
  29.7047629  42.2068906  71.4789680  29.5846741  42.9752139  71.5751345
  36.6266152  36.5040703  79.2196660  36.1197017  35.7969842  79.1517838
  37.4233586  36.1733892  79.3497737  36.6693391  36.3513854  79.2295655
  32.5430168  43.0107315  75.1170324  32.3143861  43.0340016  74.2748682
  32.8028244  42.1864782  75.2365335  32.5476356  42.8923395  75.0095522
  25.5974931  41.5483861  76.4124520  26.0732297  41.9100941  75.7774701
  25.0963530  42.2040329  76.6924662  25.5940289  41.6978050  76.3601261
  38.8286292  51.0205629  72.2037525  39.2119898  51.7696986  72.4335622
  38.0330405  51.2671449  71.9449514  38.7680074  51.1675323  72.1995098
  27.6401584  43.6925061  69.7797904  28.0200549  43.7104690  68.9949018
  26.8994180  44.1379050  69.6588751  27.5870421  43.7606836  69.6461472
  35.2686874  42.0007252  75.3673482  35.2681101  41.8455909  76.2257759
  35.0643054  42.8470239  75.3114868  35.2386652  42.1027873  75.4861422
  17.3304145  45.4247037  79.7832299  17.1525906  44.9723646  80.5087214
  17.0423167  46.2273198  79.9670776  17.2617098  45.4769595  79.9175802
  32.9927726  46.6804754  79.0209689  33.4881392  45.9627749  78.9813709
  32.1827502  46.3775552  78.9064176  32.9471620  46.5302400  78.9983415
  28.4386338  50.5302567  71.1706694  27.6297660  50.2069241  71.1240003
  28.9461247  49.8235789  71.1034942  28.3936005  50.3783884  71.1536988
  19.0676615  47.9574760  76.8954058  18.2022134  47.9460451  76.7836829
  19.1675431  47.7704983  77.7425197  18.9550782  47.9280822  77.0043002
  35.0579545  49.4308442  81.7086818  35.4834617  48.9082863  81.1557243
  34.6936465  50.0289279  81.1875441  35.0666148  49.4418669  81.5495828
  24.6933625  57.7272659  80.4684163  25.0080184  58.5409048  80.4761945
  25.1027038  57.3422878  81.1366323  24.8001723  57.7901361  80.5688255
  31.6458145  53.1442706  78.0387975  32.1169323  53.8582968  78.2077961
  31.9818323  52.5441456  78.5747845  31.7653260  53.1614170  78.1420351
  35.0925955  41.0045994  82.1866860  34.5088944  41.5055201  81.7744428
  35.4130249  40.4975551  81.5531184  35.0539131  41.0037830  82.0325368
  27.6320754  39.9186589  72.4625535  28.4536449  40.0884902  72.2207230
  27.1690405  40.0733850  71.7391833  27.6851917  39.9668322  72.3197179
  22.0346645  51.6745768  80.1162772  22.6391502  51.6341602  79.4876593
  21.8273958  52.5216920  80.1466828  22.0935542  51.7933770  80.0278888
  31.8490417  53.9411713  81.3325009  32.6688791  53.7974679  81.5941304
  31.5684495  54.5657912  81.8741447  31.9287161  54.0122065  81.4512949
  40.0752676  60.1638884  73.9389925  40.7732840  60.3427012  74.4311388
  40.3905008  59.6409224  73.3160314  40.2248013  60.1132657  73.9191935
  38.2479539  55.5331281  78.0211199  37.9182869  55.9842425  77.3514898
  37.5724541  55.4547444  78.5684206  38.0989976  55.5882416  78.0034422
  45.4555947  51.5216804  76.2660810  45.1409388  52.2120283  76.6981232
  44.9382889  51.4661586  75.5646311  45.3320417  51.6151693  76.2257759
  36.6867989  65.4184522  71.1805688  36.1025204  65.9234553  71.5871552
  36.2838084  65.1926909  70.4402280  36.5407292  65.4592770  71.1310714
  41.1445203  61.6650174  69.6574609  41.3841207  61.8728158  68.8449952
  41.4661044  60.8607682  69.7663554  41.2282361  61.5764275  69.5535162
  36.4535493  53.5943569  73.5034147  37.2081461  53.9621887  73.2651197
  36.2763028  53.9683124  74.2713327  36.5389972  53.7041757  73.5819035
  34.8092558  56.0013888  70.2012260  34.6268131  56.2185769  69.3753253
  35.6718171  56.1152901  70.2570874  34.9097147  56.0503786  70.0866747
  40.4892277  53.0040299  73.2361284  41.2178438  52.8256254  72.7899440
  40.5787170  53.8458379  73.4468462  40.6098939  53.1024178  73.2014801
  34.3554585  59.2788061  68.7134733  33.6412762  58.9926241  69.1257165
  34.8398554  59.6184687  69.3541120  34.3213948  59.2869711  68.8690368
  41.5301903  67.7818015  69.0896541  41.9453051  67.4503039  68.3981037
  40.6993833  67.5486917  68.9616678  41.4689912  67.6989271  68.9687389
  44.2235293  64.0328575  68.2757743  44.1415456  64.1030762  69.1412730
  44.8615014  64.5958318  68.0841483  44.3055130  64.1267546  68.3747692
  26.3019995  60.9967150  76.2441604  26.3880247  60.6199018  77.0255134
  26.9295793  60.6227595  75.7661563  26.4076546  60.8852632  76.2887082
  41.3275403  64.0549029  71.2866349  42.1416042  64.3463922  71.1749120
  41.2634545  63.4008891  70.7124642  41.4378142  64.0014224  71.1855186
  37.8386127  62.7472836  70.7513551  38.2231279  62.5280543  71.5030096
  37.5897747  63.5735781  70.8814627  37.8588199  62.8370982  70.8814627
  35.5586564  54.4169773  76.0822331  34.6908989  54.4892372  76.1479940
  35.8461768  55.2191852  76.2710306  35.4726312  54.5463920  76.1197098
  33.4853916  57.8928032  73.5239207  33.1978712  57.5229302  72.7871155
  34.1724384  58.3622887  73.2622912  33.5442813  57.9075001  73.3754283
  36.3207588  61.7580980  74.9706612  37.0430239  61.9222138  74.5110418
  35.8415580  62.4790645  74.8645952  36.3571318  61.8879210  74.8872226
  42.7270373  54.9930156  75.0830913  43.4296726  54.7937904  74.6050871
  42.4614562  54.2206098  75.3899756  42.7917006  54.8493122  75.0576354
  31.0582111  58.6709244  74.3724488  31.1598247  59.4735406  74.7005464
  31.8537997  58.4696580  74.0747569  31.1910016  58.7595143  74.3759844
  44.8730483  49.6310826  78.2127460  44.9914051  50.0887289  77.4794762
  44.6992658  48.8256087  77.9263677  44.8649654  49.5804598  78.0628393
  42.7651425  67.2710829  66.6282154  43.5324411  67.3310954  66.2188006
  42.3182734  66.6991270  66.1438473  42.8124853  67.1947405  66.4959865
  31.3359165  61.2902455  75.5603882  31.7158130  61.7087000  74.8964150
  30.7614530  61.8715911  75.8672726  31.3070490  61.4380314  75.5080623
  41.8408046  51.4861628  79.1546122  40.9701604  51.4600349  79.1079431
  42.0948388  51.3138820  78.3371967  41.7501606  51.4571772  79.0266258
  38.8126026  63.5429595  68.0919265  39.1018551  64.3194478  68.3662839
  38.8997825  63.0318326  68.7933764  38.8680282  63.5821513  68.2361762
  37.8472729  58.0944779  74.0061676  38.1232463  57.3763691  73.5939243
  38.4471398  58.6929699  73.7982782  37.9765993  58.0765149  73.9142437
  41.3483249  55.7658296  72.2808271  41.8026996  55.9368856  73.0056116
  41.8223295  55.1526407  71.8806047  41.4851569  55.7009181  72.3282033
  38.6896269  62.4700830  73.3853278  39.4338314  62.8575107  73.6236228
  38.8356965  61.6258256  73.5493766  38.8206854  62.4031303  73.4447248
  40.6075845  54.2651089  78.4185140  39.7611890  54.4373897  78.2926489
  40.6046977  53.4600433  78.7550968  40.4822995  54.1712118  78.4496267
  43.6057645  58.9362858  72.3472951  43.0780663  59.0191602  71.6578660
  44.0653353  59.6780730  72.3437596  43.5959495  59.0583521  72.2447647
  35.5990710  57.2065378  67.3713847  35.2503514  57.8585103  67.8345396
  35.1187156  57.1922491  66.6437718  35.4760954  57.3008431  67.3324938
  35.9714619  59.8323908  72.8839891  36.1117580  60.3296372  73.5868532
  36.4697151  59.1310203  73.0254105  36.0655700  59.8025887  73.0091470
  36.0014841  60.6991019  70.2132468  36.6359920  61.2951444  70.1481930
  36.0840452  60.3994477  71.0278338  36.1071392  60.7431927  70.3235554
  37.5793824  56.6304995  70.1877910  37.9009665  56.1508077  69.5337172
  37.8420768  57.4404641  69.9968722  37.6659849  56.6794893  70.0633402
  32.5067829  62.8958860  73.4822014  33.0160058  63.4923368  73.8633319
  32.9802101  62.6284834  72.7998434  32.6511205  62.9444675  73.4376537
  41.4147202  52.4892288  75.9591966  40.7715520  52.3389935  76.5277104
  41.0746609  52.2434634  75.1941071  41.2692279  52.4304411  75.9294981
  34.8658361  59.5315119  76.3495194  34.1470350  59.9479251  76.6168058
  35.2370723  60.0969357  75.7986832  34.8150292  59.6764400  76.3078001
  40.6404935  58.5713118  71.6868574  40.0469774  58.8930115  71.1353141
  40.6780213  57.7254214  71.4789680  40.5579324  58.4937447  71.5751345
  43.5162752  58.5292623  75.1170324  43.2876445  58.5525324  74.2748682
  43.7760828  57.7050090  75.2365335  43.5208940  58.4108703  75.0095522
  36.5707514  57.0669169  76.4124520  37.0464880  57.4286249  75.7774701
  36.0696114  57.7225637  76.6924662  36.5672873  57.2163358  76.3601261
  38.6134167  59.2110369  69.7797904  38.9933132  59.2289998  68.9949018
  37.8726763  59.6564358  69.6588751  38.5603005  59.2792144  69.6461472
  39.4118921  66.0487875  71.1706694  38.6030244  65.7254549  71.1240003
  39.9193830  65.3421097  71.1034942  39.3668588  65.8969192  71.1536988
  30.0409199  63.4760068  76.8954058  29.1754718  63.4645759  76.7836829
  30.1408014  63.2890291  77.7425197  29.9283366  63.4466130  77.0043002
  38.6053338  55.4371897  72.4625535  39.4269032  55.6070210  72.2207230
  38.1422989  55.5919158  71.7391833  38.6584500  55.4853630  72.3197179
  26.0689724   7.4984080  61.2307932  26.0383729   8.3528716  61.4026202
  26.6671073   7.1979372  61.7894076  26.1526882   7.5800576  61.3382735
  13.6530549  16.1222449  61.7498094  12.9013448  15.7437987  61.5214139
  14.1016561  16.1540882  61.0016905  13.6080216  16.0708056  61.6055597
  19.1055509  16.5447818  57.1783642  18.7706877  17.2224740  56.7427864
  19.6182379  16.1553129  56.5900513  19.1321090  16.5872396  57.0270433
  18.6459800  18.4962087  63.1194753  19.0299179  19.0648985  62.5799528
  18.5818941  17.7711597  62.6400569  18.6933227  18.4737550  62.9688616
  23.8906299  10.0736382  59.5026242  23.7745825  10.8244068  59.9318380
  24.6862186   9.8160335  59.7522329  23.9910888  10.1471229  59.6030334
  15.0716045  21.0518430  65.4175723  15.7153500  21.4931594  65.8071881
  15.3972300  20.2471856  65.3305982  15.2147873  20.9983625  65.4621200
  15.7736624  14.0630405  60.7895585  16.0952465  14.6035612  60.1856893
  16.4208721  13.4927176  60.9217874  15.9162680  14.0589580  60.7202620
  18.0126268  12.4516845  60.8609763  18.4519903  11.8433945  61.3064536
  17.8630931  12.0724218  60.0895228  18.0547734  12.3055316  60.8128930
  21.6135604  10.8044026  57.8140532  21.5286899  11.6604993  57.9590101
  22.1019988  10.5288350  58.4822691  21.6724502  10.8901347  57.9342614
  22.5454038   7.4228820  59.3138267  22.0165509   7.6388454  59.9735573
  23.0679058   8.1164959  59.2339237  22.5442491   7.5571957  59.3993866
  28.0002091  12.9975125  64.6871312  27.1699794  13.2085768  64.8504728
  27.9511343  12.1712179  64.4113595  27.8708826  12.9064731  64.6708677
  14.4353645  11.3192037  58.1145735  13.8510861  11.8242068  58.5211599
  14.0323741  11.0934424  57.3742327  14.2892949  11.3600285  58.0650760
  18.8930860   7.5657689  56.5914656  19.1326864   7.7735673  55.7789999
  19.2146701   6.7615198  56.7003600  18.9768018   7.4771790  56.4875209
  25.2566406  13.6674479  64.8236027  24.8201638  13.6711222  65.5794999
  24.9229321  14.3479978  64.3915605  25.1429026  13.7686935  64.8716860
  28.3910752  10.3855399  63.7155665  29.0527186   9.8246067  63.6151573
  27.7502164   9.8907430  64.0408356  28.3939619  10.2291808  63.7488005
  19.2787560  13.6825530  56.0236588  19.6938708  13.3510554  55.3321084
  18.4479489  13.4494433  55.8956725  19.2175568  13.5996786  55.9027435
  24.6775583  11.4020781  63.4567653  24.9131172  11.5465980  62.6294504
  24.8265146  12.1663189  63.8499167  24.7341386  11.5359836  63.3931257
  26.5066039  10.2422447  61.2937257  26.8374256  10.7750087  60.6877352
  27.0799128  10.2961335  61.9499208  26.6399719  10.3292016  61.3015039
  21.9720950   9.9336090  55.2097789  21.8901112  10.0038277  56.0752776
  22.6100670  10.4965834  55.0181530  22.0540787  10.0275061  55.3087739
  19.0761060   9.9556544  58.2206396  19.8901699  10.2471437  58.1089167
  19.0120201   9.3016406  57.6464689  19.1863799   9.9021739  58.1195233
  15.5871783   8.6480351  57.6853597  15.9716936   8.4288058  58.4370142
  15.3383404   9.4743297  57.8154674  15.6073856   8.7378498  57.8154674
  15.8695026  16.8685227  59.7585968  16.1593324  16.4774209  59.0345194
  16.5998507  17.0501932  60.1991243  16.0201910  16.8379041  59.7168775
  13.8100942  18.8452610  62.8246117  13.5901237  18.5549964  63.6172784
  13.5895464  18.1867565  62.2964030  13.7448536  18.7052318  62.8635026
  15.9768897  20.2182000  61.6076810  16.6292955  19.6858442  61.8367836
  15.2794506  19.8650652  61.9944684  15.9699615  20.0871523  61.6988977
  23.9708816  12.5386414  60.9507789  24.5366848  13.1979624  60.8666332
  23.3236719  12.8836112  61.4224191  23.9587572  12.6868355  61.0080545
  20.4415394  15.4825198  60.3744868  20.2002070  14.7493059  59.9671933
  20.6216727  16.0312055  59.7211202  20.4323018  15.4547589  60.2175091
  25.1671513  12.5892641  57.7433426  24.7878322  11.8029779  57.7362715
  24.5037759  13.1379498  57.6005070  25.0129988  12.5537465  57.7214222
  17.9918422  16.1406160  61.5822252  18.7568313  15.8715804  61.2604916
  17.8896512  15.6556171  62.2992315  18.0899917  16.0295725  61.6402079
  20.5137082  13.1718344  53.5622201  21.2810067  13.2318469  53.1528053
  20.0668391  12.5998786  53.0778520  20.5610509  13.0954920  53.4299911
  23.4131612  14.8338132  58.0785111  23.4951450  15.6405119  57.7546562
  23.8981354  14.8534092  58.8025885  23.4968770  14.9558795  58.1372010
  19.0489705   9.3832903  61.0476525  19.5905251   8.8803284  61.5115146
  19.3636264   9.3298098  60.2366010  19.1754102   9.3012324  60.9960337
  17.2176155  14.7750255  58.3316553  17.2868975  13.9164793  58.4709553
  17.9964610  14.9922136  58.0035578  17.3429005  14.6803119  58.3033710
  21.6083642  17.1987956  62.5453046  21.2163434  16.8954671  61.8275913
  21.7636715  18.0357046  62.3558000  21.5737232  17.2771793  62.4109543
  21.7723317  13.7637945  62.4859077  21.4137972  13.9352588  63.2623109
  21.2862028  14.2251151  61.9287075  21.6482014  13.8576916  62.5184346
  16.5611683   9.4437110  55.0259311  16.8504207  10.2201993  55.3002886
  16.6483481   8.9325842  55.7273811  16.6165939   9.4829029  55.1701809
  22.3773948  16.6023449  65.9783081  22.1793636  17.0914263  65.2839292
  21.7561659  16.8064690  66.5567214  22.2561512  16.7039987  65.9606304
  21.3543302   4.8370374  59.2812998  20.8266320   4.9199118  58.5918707
  21.8139010   5.5788245  59.2777643  21.3445152   4.9591036  59.1787693
  20.9080384  13.4073937  58.4122655  21.6314583  13.8732050  58.2687228
  20.4680975  13.4747547  57.6620252  20.9496076  13.4857774  58.2807437
  21.1684234  17.4694642  58.5720716  20.4513543  17.2955504  58.1067954
  21.8190971  17.2347214  58.0396202  21.1586084  17.4090435  58.4249934
  16.4497396  18.7056401  65.0010864  16.0357794  18.0430531  64.6114706
  17.1344770  18.8534259  64.4806558  16.4895767  18.6297059  64.8667361
  19.8162690  17.8646486  65.7534481  19.4178973  17.9748756  64.9855301
  19.2013909  18.0728552  66.3361041  19.6661579  17.9120054  65.7265780
  27.5504532  12.4398453  59.1377571  27.9338138  13.1889809  59.3675669
  26.7548646  12.6864272  58.8789561  27.4898315  12.5868147  59.1335145
  16.3619824   5.1117884  56.7137950  16.7418789   5.1297514  55.9289065
  15.6212420   5.5571873  56.5928798  16.3088662   5.1799659  56.5801519
  17.1604578  11.9495391  58.1046740  16.3515901  11.6262064  58.0580050
  17.6679487  11.2428613  58.0374989  17.1154245  11.7976707  58.0877035
  37.0422308  23.0169388  61.2307932  37.0116312  23.8714024  61.4026202
  37.6403657  22.7164680  61.7894076  37.1259466  23.0985884  61.3382735
  30.2421993  22.1045039  65.9860863  29.3859888  22.2653537  66.0369980
  30.2889646  21.2337103  66.0065924  30.1221104  21.9995841  65.9966929
  24.6263132  31.6407757  61.7498094  23.8746032  31.2623295  61.5214139
  25.0749144  31.6726190  61.0016905  24.5812799  31.5893364  61.6055597
  33.5515709  28.3731564  75.5921319  34.2582477  27.8783595  75.7208253
  33.7403645  28.8140646  74.8623977  33.6843615  28.3649915  75.5030364
  30.0788092  32.0633126  57.1783642  29.7439461  32.7410048  56.7427864
  30.5914963  31.6738437  56.5900513  30.1053673  32.1057704  57.0270433
  29.6192384  34.0147395  63.1194753  30.0031763  34.5834293  62.5799528
  29.5551525  33.2896905  62.6400569  29.6665811  33.9922858  62.9688616
  33.0873814  24.1637083  68.6292514  33.6329774  24.8422169  68.6886484
  33.0290690  24.0224543  67.7694096  33.1589728  24.2429084  68.5104575
  26.2047889  31.6526149  64.0160867  26.3058252  30.8426503  64.3257995
  25.6089634  31.5583095  63.3860545  26.1320427  31.5191177  63.9687105
  34.8638882  25.5921690  59.5026242  34.7478408  26.3429376  59.9318380
  35.6594769  25.3345643  59.7522329  34.9643472  25.6656537  59.6030334
  26.0448628  36.5703738  65.4175723  26.6886084  37.0116902  65.8071881
  26.3704884  35.7657164  65.3305982  26.1880457  36.5168933  65.4621200
  19.4012933  27.6746435  63.6413201  19.1663117  26.8414088  63.5345469
  19.5398574  27.9551101  62.8274402  19.3868595  27.5929939  63.5055556
  21.7003020  19.8432166  66.5397508  21.0808052  19.2524813  66.3707523
  21.5986884  20.4343601  65.9061831  21.5940696  19.8436248  66.4202498
  26.7469208  29.5815713  60.7895585  27.0685049  30.1220920  60.1856893
  27.3941304  29.0112484  60.9217874  26.8895263  29.5774888  60.7202620
  28.7970916  21.5831708  60.8729971  29.4951081  21.7619835  61.3651435
  29.1123249  21.0602047  60.2500361  28.9466253  21.5325480  60.8531982
  21.4272153  23.3884448  68.7841077  21.3030850  23.9746893  69.4190896
  22.0790438  22.8944643  69.0853352  21.5045803  23.4023252  68.9227007
  28.9858851  27.9702153  60.8609763  29.4252487  27.3619253  61.3064536
  28.8363514  27.5909526  60.0895228  29.0280317  27.8240624  60.8128930
  26.4530494  26.5646165  68.0628588  27.0979497  26.0718608  67.7439537
  26.6932271  26.7070951  68.8894667  26.5841080  26.5123607  68.1378122
  28.9916586  29.4101070  67.7135481  29.2739829  28.6152476  67.4922237
  29.7202746  29.8881658  67.7340542  29.1406149  29.3635667  67.6838496
  26.9697780  16.9524104  64.9551246  26.6401110  17.4035248  64.2854945
  26.2942781  16.8740268  65.5024252  26.8208216  17.0075240  64.9374469
  32.5868188  26.3229334  57.8140532  32.5019483  27.1790301  57.9590101
  33.0752571  26.0473658  58.4822691  32.6457085  26.4086655  57.9342614
  34.1774187  12.9409627  63.2000857  33.8627628  13.6313106  63.6321279
  33.6601129  12.8854409  62.4986357  34.0538658  13.0344516  63.1597806
  33.5186621  22.9414128  59.3138267  32.9898093  23.1573762  59.9735573
  34.0411641  23.6350267  59.2339237  33.5175074  23.0757265  59.3993866
  38.9734674  28.5160433  64.6871312  38.1432377  28.7271076  64.8504728
  38.9243926  27.6897487  64.4113595  38.8441410  28.4250039  64.6708677
  25.4086229  26.8377345  58.1145735  24.8243444  27.3427376  58.5211599
  25.0056324  26.6119732  57.3742327  25.2625533  26.8785593  58.0650760
  20.9630258  32.5532106  64.9169407  20.4797836  33.2782596  64.8928990
  21.7753576  32.8508236  65.0279564  21.0121005  32.7034460  64.9296686
  27.0344412  31.3464287  67.5219221  26.5171353  30.9871702  66.9180529
  27.7318803  30.8226461  67.5325287  27.0609993  31.2161975  67.4349480
  30.6908004  31.7959101  73.4835394  30.7791349  31.6085241  74.3313605
  31.1197716  31.1496530  73.0840241  30.7670106  31.6722109  73.5507146
  28.2578463  31.0790261  72.4653056  27.6949298  30.6662871  72.9892718
  29.0199487  31.0043166  72.8846200  28.2872912  31.0067661  72.6046057
  29.8663443  23.0842997  56.5914656  30.1059447  23.2920981  55.7789999
  30.1879284  22.2800506  56.7003600  29.9500601  22.9957098  56.4875209
  25.1753734  15.0136393  60.4374194  25.9299702  15.3814710  60.1991244
  24.9981268  15.3875947  61.2053373  25.2608212  15.1234581  60.5159082
  23.8174455  33.0688282  65.0689687  24.5195034  32.5540271  65.1262443
  23.7371938  33.3962433  65.8736562  23.9098215  33.0402508  65.1962479
  38.4688632  21.1630833  68.4821733  37.6317053  21.2333020  68.7169327
  38.4376863  21.1655328  67.6096035  38.3406915  21.1741060  68.3881281
  23.5310798  17.4206712  57.1352307  23.3486372  17.6378593  56.3093299
  24.3936411  17.5345724  57.1910921  23.6315388  17.4696610  57.0206794
  23.1425230  29.2594634  64.5775295  23.9814130  29.4917567  64.6249056
  23.1736999  28.3898945  64.5082330  23.2706948  29.1651580  64.5739939
  23.7677933  29.6795509  68.8788600  24.3076158  29.5366640  69.5491972
  23.0847880  30.0792260  69.2472626  23.7470087  29.7175180  69.0323022
  29.2110518  14.4233122  60.1701331  29.9396678  14.2449077  59.7239487
  29.3005410  15.2651202  60.3808509  29.3317180  14.5217001  60.1354848
  33.1918818  25.3586510  64.0733624  33.9476333  25.7918024  64.1122533
  33.2981143  24.7091280  64.6468261  33.3188989  25.3263994  64.1631650
  36.2298989  29.1859787  64.8236027  35.7934221  29.1896529  65.5794999
  35.8961905  29.8665286  64.3915605  36.1161609  29.2872243  64.8716860
  30.8028063  31.2268120  76.1479178  31.5868480  31.3398968  76.5134920
  30.6024657  30.4009257  76.3437864  30.8894088  31.1214839  76.2313564
  19.1715078  25.8995800  69.0323022  18.9053494  25.0834917  69.1914012
  19.1853643  25.9448956  68.1618537  19.1339801  25.7852705  68.9276504
  36.1496472  16.2273615  67.0665455  36.7922381  16.2971719  67.6527371
  36.4019493  15.5602838  66.5644997  36.2818604  16.1399964  67.0792735
  23.0772825  20.6980884  55.6474780  22.3631002  20.4119064  56.0597212
  23.5616794  21.0377510  56.2881167  23.0432189  20.7062534  55.8030415
  30.9598456  33.1378222  69.7945633  30.1613702  32.8977722  70.0519502
  31.4084468  33.1892615  70.5412681  30.9073068  33.1100613  69.9430558
  39.3643336  25.9040707  63.7155665  40.0259770  25.3431375  63.6151573
  38.7234748  25.4092738  64.0408356  39.3672203  25.7477116  63.7488005
  30.2520143  29.2010838  56.0236588  30.6671292  28.8695862  55.3321084
  29.4212073  28.9679741  55.8956725  30.1908152  29.1182094  55.9027435
  19.5808492  26.6854579  66.3134766  19.3984065  26.6601465  65.4607058
  20.3158161  27.1553517  66.3523675  19.6622556  26.7515942  66.1932684
  35.6508166  26.9206089  63.4567653  35.8863755  27.0651288  62.6294504
  35.7997730  27.6848497  63.8499167  35.7073970  27.0545144  63.3931257
  37.4798623  25.7607755  61.2937257  37.8106840  26.2935395  60.6877352
  38.0531711  25.8146643  61.9499208  37.6132302  25.8477324  61.3015039
  32.6930512  23.6072658  61.9760837  32.7877366  24.3461952  62.4300463
  32.0689356  23.1790133  62.4095402  32.6139542  23.6533979  62.1068985
  30.9482986  26.7858871  72.6251118  31.5221848  26.1486115  72.7799682
  30.8697790  26.7862953  71.7560776  31.0216221  26.6923982  72.5197529
  19.5479402  23.5648080  66.4633833  20.1252905  23.4284531  67.1026078
  18.8493464  23.1083864  66.7179417  19.5300424  23.4770346  66.5956122
  32.9453533  25.4521398  55.2097789  32.8633696  25.5223585  56.0752776
  33.5833254  26.0151142  55.0181530  33.0273371  25.5460369  55.3087739
  26.3046705  25.2182136  64.6772316  26.0465949  24.3853871  64.6503615
  26.3595187  25.4439749  63.8364816  26.2746482  25.1279907  64.5492452
  31.3847755  17.3210586  64.7776408  30.6804081  16.8319772  64.9360328
  31.4332729  17.3333061  63.9064853  31.2877806  17.2500234  64.6715748
  25.2781417  22.7719898  65.1637210  24.7031008  22.9312067  65.8001171
  24.9017093  22.1355307  64.7005661  25.1384229  22.7017711  65.1891769
  28.9454705  21.2443247  70.0229589  28.5569138  20.8197465  69.3681780
  28.2809404  21.4925397  70.5306616  28.7901633  21.2181969  70.0017457
  38.5877974  21.0018252  62.7977419  38.3314539  20.1898194  62.6075302
  39.4307288  21.0095819  62.5707606  38.6744000  20.8830250  62.7362236
  15.0238236  22.4159973  63.1781651  15.1098487  22.0391841  63.9595181
  15.6514033  22.0420419  62.7001609  15.1294787  22.3045455  63.2227128
  32.7681067  14.9417876  67.5353573  33.1491579  14.2596047  67.9221447
  31.9644351  14.6527478  67.3529238  32.7057529  14.7984925  67.5657629
  30.0493644  25.4741852  58.2206396  30.8634282  25.7656745  58.1089167
  29.9852785  24.8201714  57.6464689  30.1596383  25.4207047  58.1195233
  36.2703134  28.1567848  72.6335972  36.0341771  27.3255913  72.5148032
  36.9146363  28.1053455  73.2190816  36.3297805  28.0265536  72.7021865
  25.9201552  28.9463370  63.3478708  26.5575499  28.7075117  63.8930501
  26.3456623  29.1500528  62.6131869  26.0777718  28.9414380  63.3195865
  20.6114194  31.1851706  67.2313012  20.6518340  31.4566557  66.4032791
  21.1708718  31.7093614  67.6470800  20.6997540  31.3027461  67.1704900
  26.5604367  24.1665659  57.6853597  26.9449520  23.9473366  58.4370142
  26.3115987  24.9928605  57.8154674  26.5806439  24.2563806  57.8154674
  37.2939554  27.9412297  68.6964266  36.9885371  28.6740354  69.0577582
  36.5745770  27.5350226  68.4157052  37.1426897  27.9894030  68.7077403
  28.3023024  29.4235792  65.0272494  28.3762032  29.2610964  65.8814344
  29.1192530  29.6125982  64.7832976  28.4339382  29.4272534  65.1170520
  42.9941347  24.5805298  68.0232610  42.9265847  24.6001257  67.1535197
  42.9797009  25.4235625  68.2488281  42.9820103  24.7079032  67.9285087
  22.0628781  29.7693655  62.0566938  21.2366898  30.0155392  61.9301216
  22.1240772  29.6905736  62.9228996  21.9502947  29.7938604  62.1655882
  24.2804804  15.8362596  63.0162378  23.4127230  15.9085195  63.0819987
  24.5680009  16.6384675  63.2050353  24.1944552  15.9656743  63.0537144
  26.8427610  32.3870535  59.7585968  27.1325908  31.9959517  59.0345194
  27.5731090  32.5687240  60.1991243  26.9934494  32.3564349  59.7168775
  40.7799964  23.3549684  66.2979205  41.3307885  22.7217753  66.5376297
  40.7644079  23.8865077  66.9894709  40.8585160  23.3398632  66.4358063
  27.4322355  27.1888281  70.8439098  26.9334048  27.9004049  70.9223987
  28.2422579  27.5088948  70.8057261  27.4778461  27.3415130  70.8495667
  24.7833525  34.3637918  62.8246117  24.5633821  34.0735272  63.6172784
  24.5628047  33.7052873  62.2964030  24.7181119  34.2237626  62.8635026
  23.6950472  26.4511234  65.0901819  23.4063721  25.8248705  65.6247546
  24.5633820  26.3931522  65.1566499  23.7810724  26.3498778  65.1792774
  34.4828370  21.5946017  65.4083801  34.1393136  20.8736353  65.7591051
  34.5821413  21.3859869  64.5662159  34.4470413  21.4570221  65.3355481
  26.9501481  35.7367308  61.6076810  27.6025539  35.2043750  61.8367836
  26.2527090  35.3835960  61.9944684  26.9432199  35.6056831  61.6988977
  23.8982746  28.0906485  61.0144184  24.6528714  28.4719524  61.2279647
  23.3053358  28.5417629  61.4690881  23.9219459  28.2135313  61.1127062
  34.9441399  28.0571722  60.9507789  35.5099432  28.7164931  60.8666332
  34.2969303  28.4021420  61.4224191  34.9320156  28.2053663  61.0080545
  25.2180972  29.2615047  66.3884299  24.6961726  29.4015338  67.0736164
  25.6054993  28.5025711  66.5786417  25.1984673  29.1700570  66.5185376
  22.2072156  19.3120855  60.4579254  21.9196952  18.9422126  59.7211201
  22.8942625  19.7815711  60.1962959  22.2661054  19.3267825  60.3094330
  31.4147977  31.0010506  60.3744868  31.1734653  30.2678366  59.9671933
  31.5949310  31.5497363  59.7211202  31.4055601  30.9732897  60.2175091
  26.6447298  26.2919066  61.7865790  26.4490081  26.8993800  61.1926093
  26.8681643  25.5987010  61.3057464  26.6481939  26.2796591  61.6281871
  25.0425828  23.1773803  61.9046659  25.7648480  23.3414962  61.4450465
  24.5633821  23.8983468  61.7985999  25.0789559  23.3072033  61.8212273
  33.0019336  19.5137602  67.2843344  32.1630436  19.5398881  67.0481607
  33.0723703  20.1608338  67.8648690  32.8887729  19.6133728  67.3352461
  22.6933445  25.5831876  71.0100799  23.2054542  25.8616129  70.3609558
  22.4069787  26.3221170  71.3763612  22.7268308  25.7334230  70.9690677
  31.4488614  16.4122979  62.0170960  32.1514967  16.2130728  61.5390918
  31.1832803  15.6398922  62.3239803  31.5135246  16.2685945  61.9916401
  36.8776859  24.7205589  64.5704586  36.7910834  24.8761015  65.4239364
  36.4227339  25.3643665  64.1963991  36.7980116  24.8381344  64.6411692
  19.7800351  20.0902068  61.3064535  19.8816487  20.8928229  61.6345511
  20.5756238  19.8889404  61.0087616  19.9128257  20.1787967  61.3099891
  30.7502675  22.0416336  63.1930145  30.5037390  21.9612087  64.0266934
  31.0787798  21.2569804  62.9992673  30.7623919  21.9142601  63.2877668
  34.6450724  28.7499695  66.9816926  34.5065084  29.4480741  67.4865669
  33.8650722  28.5948352  66.6253108  34.5093951  28.8299862  67.0043200
  32.9828809  25.0496071  73.2339308  32.9776848  24.1775887  73.2381734
  33.6889803  25.2484240  72.7608764  33.0873813  24.9499945  73.1646343
  26.7099703  24.7773055  72.6053128  26.8543078  25.3574263  71.9696238
  27.0575351  25.1549351  73.3102983  26.7827164  24.9193759  72.6152123
  28.8819620  23.9763223  70.3878260  28.1342934  24.1694237  69.9826538
  29.0361145  23.1508443  70.1502381  28.7942048  23.8828334  70.2923666
  25.7827458  32.9675827  69.4714155  25.9317021  32.4078742  68.8187559
  26.5627460  33.0467828  69.8546674  25.9201551  32.8961392  69.4311104
  36.1404097  28.1077949  57.7433426  35.7610906  27.3215087  57.7362715
  35.4770342  28.6564806  57.6005070  35.9862572  28.0722773  57.7214222
  28.3080758  33.1390469  70.7498646  28.2324429  32.4699280  71.3049434
  28.2370617  33.8408258  71.2639312  28.2861365  33.1435377  70.9075494
  33.5948723  11.0503649  65.1467506  33.7132291  11.5080112  64.4134809
  33.4210899  10.2448910  64.8603724  33.5867894  10.9997421  64.9968440
  28.9651005  31.6591468  61.5822252  29.7300896  31.3901112  61.2604916
  28.8629095  31.1741479  62.2992315  29.0632501  31.5481033  61.6402079
  27.0003775  19.8615878  68.1215487  26.2099850  19.6807338  68.4432823
  27.3964398  19.0842830  68.1045782  26.9420651  19.7203339  68.1668036
  31.4869666  28.6903652  53.5622201  32.2542651  28.7503777  53.1528053
  31.0400975  28.1184093  53.0778520  31.5343093  28.6140228  53.4299911
  32.3847461  27.4958308  65.8474933  31.7092463  27.2643540  66.3488320
  32.3939837  26.8879491  65.2217038  32.2865966  27.3717233  65.8291086
  29.5141605  22.3376137  72.6038986  29.4500746  23.1986093  72.4759123
  29.6538793  22.0208130  71.8034538  29.5257075  22.4176303  72.4667199
  34.3864196  30.3523440  58.0785111  34.4684033  31.1590426  57.7546562
  34.8713938  30.3719399  58.8025885  34.4701354  30.4744103  58.1372010
  28.1960699  25.0308276  66.7455189  27.7722948  25.2312775  66.0094208
  28.0205554  24.1837124  66.8579489  28.1071580  24.9357058  66.6528879
  27.6972393  36.5458789  69.2076647  28.1868323  35.8469578  69.0252311
  27.1256625  36.2482659  69.7952704  27.6856923  36.3985013  69.2677687
  23.4843144  25.5260328  62.1783162  23.6407763  25.4607130  63.0339154
  23.8243737  26.3008880  61.9661841  23.5576379  25.6309526  62.2737756
  30.0222289  24.9018211  61.0476525  30.5637834  24.3988592  61.5115146
  30.3368848  24.8483406  60.2366010  30.1486686  24.8197632  60.9960337
  33.8939396  29.1120859  78.1603437  34.7074261  28.8406007  78.3208570
  33.7334362  28.8128399  77.3563633  33.9909345  29.0275785  78.0648843
  28.1908738  30.2935563  58.3316553  28.2601559  29.4350101  58.4709553
  28.9697194  30.5107444  58.0035578  28.3161589  30.1988427  58.3033710
  31.1711558  19.7954516  71.0998826  31.3853528  19.1565430  70.5462179
  30.5545457  20.2400340  70.6706687  31.1116887  19.7664659  70.9549257
  32.5816226  32.7173264  62.5453046  32.1896018  32.4139979  61.8275913
  32.7369298  33.5542354  62.3558000  32.5469816  32.7957101  62.4109543
  20.0577406  22.7095278  62.4943929  20.4376370  23.1279823  61.8304196
  19.4832770  23.2908734  62.8012772  20.0288730  22.8573137  62.4420670
  33.3350646  21.4043581  72.0382133  32.5227328  21.0969471  72.1195305
  33.7940581  20.9242581  72.6024845  33.2831031  21.2880073  72.1336727
  32.7455901  29.2823253  62.4859077  32.3870556  29.4537896  63.2623109
  32.2594612  29.7436459  61.9287075  32.6214598  29.3762224  62.5184346
  30.5626287  12.9054451  66.0886168  29.6919845  12.8793172  66.0419478
  30.8166628  12.7331644  65.2712014  30.4719847  12.8764595  65.9606305
  27.5344266  24.9622418  55.0259311  27.8236791  25.7387301  55.3002886
  27.6216065  24.4511150  55.7273811  27.5898522  25.0014337  55.1701809
  33.9060640  30.1727149  73.4326278  34.5440361  29.6787344  73.0988734
  33.2634732  30.1004549  72.8478505  33.9054867  30.0886157  73.2968633
  35.6317640  22.0216295  67.9992193  35.2045248  21.9342643  67.2440293
  34.9943693  22.1294070  68.5847038  35.4747247  22.0248955  67.9737635
  33.9614897  30.8646957  70.0731635  34.7507275  30.5136022  70.1933716
  34.1358495  31.6783346  69.8108268  34.1035178  30.9332814  70.0519503
  23.7008207  24.2755683  67.1259423  22.8596214  24.1759557  67.3338317
  23.9098215  25.0451163  67.4773744  23.6072900  24.3747726  67.2086738
  21.1783774  21.8975220  64.9544174  20.7840472  21.9718232  64.1794284
  20.6223891  22.2833166  65.5052536  21.0386586  21.9656994  64.9211834
  32.8148721  14.8756514  64.6348053  33.0198314  14.8078822  65.4805050
  32.4875145  15.6815335  64.5669230  32.7963969  14.9842454  64.7507708
  27.5124872  22.2037082  66.3757021  27.2088010  21.6493070  66.9767429
  26.8104293  22.3829292  65.8885055  27.3641082  22.1481864  66.3926727
  26.5690969  19.5137602  60.9401723  26.8450703  18.7956514  60.5279290
  27.1689638  20.1122522  60.7322829  26.6984234  19.4957973  60.8482484
  25.5743223  29.4186803  71.0829119  25.4663578  29.4288865  71.9491177
  25.7839005  30.2441583  70.8934072  25.5893334  29.5427878  71.1833210
  36.0682409  15.4288278  64.1150818  35.4556722  15.9158680  64.5004550
  36.1646584  14.7531769  64.6588470  35.9920306  15.4006587  64.2529677
  30.0701490  17.1851119  59.2148318  30.5245236  17.3561680  59.9396162
  30.5441535  16.5719230  58.8146093  30.2069810  17.1202004  59.2622079
  23.5917015  26.6699445  68.5451056  23.0004948  27.3108943  68.5154071
  24.3538039  27.0937062  68.5182356  23.6165276  26.8275284  68.5366204
  39.7107437  26.5005215  69.5428335  39.7690560  26.9491864  70.2888311
  39.0773904  26.9104028  69.1058415  39.6258732  26.6278950  69.5880883
  33.3506531  32.1208757  65.9783081  33.1526220  32.6099571  65.2839292
  32.7294242  32.3249998  66.5567214  33.2294096  32.2225295  65.9606304
  27.4114510  23.8893654  60.3193325  28.1556555  24.2767930  60.5576275
  27.5575206  23.0451079  60.4833813  27.5425095  23.8224126  60.3787295
  29.3294085  15.6843912  65.3525186  28.4830130  15.8566720  65.2266536
  29.3265218  14.8793256  65.6891015  29.2041235  15.5904941  65.3836313
  30.3992385  19.4619127  66.2187244  29.9252340  18.9360889  66.7292555
  30.7710521  18.9148600  65.6502106  30.3842274  19.3035123  66.2102392
  36.6629116  24.5221503  67.6294025  36.4227339  23.6827918  67.6336451
  37.1421123  24.6021669  68.3534798  36.6981300  24.4102902  67.7368827
  32.3275885  20.3555681  59.2812998  31.7998904  20.4384425  58.5918707
  32.7871593  21.0973553  59.2777643  32.3177736  20.4776344  59.1787693
  38.6634303  21.3022960  65.5823284  38.4244073  21.2618794  64.7444069
  38.8268204  22.1494112  65.7089005  38.6524607  21.4215045  65.4776766
  35.2680333  25.6872909  71.5128329  35.9914532  25.2345435  71.3339349
  35.0030296  25.9677575  70.7300657  35.3361607  25.6623878  71.3707044
  24.1367202  20.2833083  68.2481208  23.5120272  20.2951475  67.6407161
  23.8012796  20.7593258  68.8972449  23.9952693  20.3551600  68.2537777
  24.3208950  18.6258201  54.3053893  23.9721755  19.2777926  54.7685443
  23.8405396  18.6115314  53.5777765  24.1979194  18.7201255  54.2664985
  20.8492877  28.3433543  69.6884973  20.3192802  27.6525982  69.7379947
  21.1217970  28.3343728  68.8597681  20.8117599  28.2400674  69.5732389
  31.8812968  28.9259245  58.4122655  32.6047167  29.3917358  58.2687228
  31.4413559  28.9932855  57.6620252  31.9228660  29.0043082  58.2807437
  31.0499123  25.7856787  69.6623344  30.4356116  25.2414838  69.9571979
  31.5666408  25.2721024  69.1829160  31.0354785  25.6293196  69.6347573
  30.2895420  26.8561057  67.3967643  29.8623028  26.2310776  66.9633078
  30.2820364  26.5735979  68.2226650  30.2254561  26.7213838  67.4547470
  28.6181130  17.7329812  67.6110177  28.6423617  17.1989924  66.9222957
  28.8692603  17.2247121  68.2735767  28.6591048  17.5790716  67.6074821
  16.1288719  25.0161307  67.0453321  16.0232168  24.9708151  66.1805405
  15.3788939  25.3615087  67.3267606  16.0024322  25.0602215  66.9590651
  24.8982452  16.4600630  66.9915921  24.9380823  16.9609837  67.7050629
  24.0732116  16.5511024  66.7221844  24.7821978  16.5482446  67.0566459
  26.3196815  22.9761140  69.2889820  25.4888745  23.1434958  69.0825068
  26.2648332  22.5997091  70.0738705  26.1886230  22.9450871  69.3738348
  24.6932859  21.2516731  59.8179938  24.8335820  21.7489196  60.5208579
  25.1915392  20.5503026  59.9594152  24.7873940  21.2218710  59.9431517
  24.7233081  22.1183843  57.1472515  25.3578161  22.7144268  57.0821976
  24.8058692  21.8187300  57.9618385  24.8289632  22.1624751  57.2575601
  37.7015647  24.6499320  70.0158879  38.2933487  25.2896571  70.0477077
  38.1374642  23.9522357  70.3050946  37.8534078  24.6417670  70.0639711
  26.3012064  18.0497818  57.1217957  26.6227905  17.5700900  56.4677219
  26.5639008  18.8597464  56.9308768  26.3878090  18.0987716  56.9973449
  29.5309037  29.0716692  70.6416773  29.0234128  29.6252539  71.0857403
  29.2335683  29.1324982  69.8235547  29.4113922  29.1623003  70.5865229
  31.6971219  17.4370012  69.4841436  32.1226291  16.9842538  68.8724962
  31.0828212  16.8830083  69.7606223  31.6699865  17.2883988  69.4346461
  21.2286069  24.3151683  60.4162061  21.7378299  24.9116191  60.7973366
  21.7020342  24.0477657  59.7338480  21.3729445  24.3637499  60.3716583
  32.1416817  32.9879950  58.5720716  31.4246127  32.8140812  58.1067954
  32.7923555  32.7532522  58.0396202  32.1318668  32.9275742  58.4249934
  30.1365442  13.9085112  62.8932013  29.4933760  13.7582758  63.4617151
  29.7964849  13.6627457  62.1281117  29.9910519  13.8497234  62.8635028
  34.7264789  21.8644538  62.3162021  34.0555978  22.4074241  62.1875087
  35.4204539  22.3339394  62.0743716  34.7293656  22.0142810  62.2617549
  28.7751522  34.0041250  67.5473780  28.5517177  33.2460080  67.9157806
  28.2861366  34.0339272  66.8254219  28.6694971  33.8963475  67.4950521
  34.8892916  18.3200422  65.2252395  35.2420526  17.8930145  65.8998193
  34.0307717  18.2351266  65.3553471  34.8142361  18.2445163  65.3447405
  23.5876601  20.9507942  63.2835241  22.8688590  21.3672074  63.5508105
  23.9588963  21.5162181  62.7326879  23.5368533  21.0957223  63.2418048
  32.8876182  21.5835791  69.1737237  32.8674109  21.4019086  70.0272016
  32.9355383  22.4547809  69.1496820  32.8910823  21.6852329  69.2960532
  30.8322512  28.1722983  75.0985713  30.7918367  27.5272660  74.5130869
  31.6445830  28.1159600  75.4111125  30.9465665  28.0681950  75.0582663
  27.4229979  34.2241709  65.0010864  27.0090378  33.5615839  64.6114706
  28.1077353  34.3719567  64.4806558  27.4628351  34.1482367  64.8667361
  30.7895273  33.3831794  65.7534481  30.3911557  33.4934064  64.9855301
  30.1746493  33.5913860  66.3361041  30.6394163  33.4305362  65.7265780
  29.3623175  19.9905942  58.6208621  28.7688015  20.3122938  58.0693188
  29.3998453  19.1447037  58.4129727  29.2797564  19.9130270  58.5091392
  36.3216976  13.4418834  66.1536707  35.8147841  12.7347974  66.0857885
  37.1184410  13.1112023  66.2837784  36.3644215  13.2891985  66.1635702
  32.2380992  19.9485446  62.0510371  32.0094685  19.9718148  61.2088729
  32.4979068  19.1242913  62.1705381  32.2427180  19.8301526  61.9435569
  25.2925754  18.4861993  63.3464566  25.7683121  18.8479072  62.7114748
  24.7914354  19.1418460  63.6264709  25.2891113  18.6356181  63.2941307
  38.5237116  27.9583761  59.1377571  38.9070722  28.7075117  59.3675669
  37.7281229  28.2049580  58.8789561  38.4630898  28.1053454  59.1335145
  27.3352408  20.6303192  56.7137950  27.7151372  20.6482821  55.9289065
  26.5945004  21.0757181  56.5928798  27.2821245  20.6984967  56.5801519
  34.9637698  18.9385384  62.3013529  34.9631925  18.7834040  63.1597805
  34.7593878  19.7848371  62.2454915  34.9337476  19.0406004  62.4201469
  17.0254969  22.3625168  66.7172346  16.8476730  21.9101777  67.4427261
  16.7373991  23.1651329  66.9010823  16.9567922  22.4147726  66.8515849
  32.6878550  23.6182885  65.9549736  33.1832215  22.9005880  65.9153756
  31.8778326  23.3153683  65.8404223  32.6422443  23.4680532  65.9323462
  28.1337162  27.4680699  58.1046740  27.3248484  27.1447372  58.0580050
  28.6412071  26.7613921  58.0374989  28.0886828  27.3162015  58.0877035
  18.7627439  24.8952892  63.8294105  17.8972958  24.8838582  63.7176876
  18.8626255  24.7083115  64.6765244  18.6501606  24.8658953  63.9383049
  34.7530369  26.3686573  68.6426865  35.1785441  25.8460995  68.0897290
  34.3887289  26.9667410  68.1215488  34.7616972  26.3796800  68.4835875
  24.3884449  34.6650790  67.4024210  24.7031008  35.4787179  67.4101992
  24.7977862  34.2801009  68.0706369  24.4952547  34.7279493  67.5028302
  31.3408968  30.0820837  64.9728022  31.8120147  30.7961100  65.1418007
  31.6769147  29.4819587  65.5087892  31.4604084  30.0992301  65.0760398
  33.4285953  31.6922150  77.1520094  33.5382919  30.9030711  77.5076841
  33.7576850  31.6028087  76.3494432  33.4938359  31.5628003  77.0862485
  31.9782915  29.8738771  71.7355715  31.4303861  29.2496655  71.4675780
  32.4395944  30.0633043  71.0199794  31.9650124  29.8097821  71.5906146
  34.7876779  17.9424126  69.1206907  34.2039768  18.4433332  68.7084475
  35.1081073  17.4353682  68.4871230  34.7489955  17.9415961  68.9665414
  27.3271578  16.8564720  59.3965582  28.1487273  17.0263033  59.1547277
  26.8641229  17.0111981  58.6731880  27.3802741  16.9046453  59.2537226
  21.7297469  28.6123899  67.0502819  22.3342326  28.5719733  66.4216639
  21.5224782  29.4595051  67.0806875  21.7886366  28.7311901  66.9618935
  31.5441241  30.8789844  68.2665056  32.3639615  30.7352810  68.5281351
  31.2635319  31.5036043  68.8081494  31.6237984  30.9500196  68.3852995
  16.9648751  27.5958516  66.9201742  16.8673029  26.7854788  67.2291798
  17.7477621  27.5750310  66.5348010  17.0664888  27.4725606  66.9088605
  41.2154576  37.6230347  65.9860863  40.3592472  37.7838845  66.0369980
  41.2622230  36.7522411  66.0065924  41.0953688  37.5181149  65.9966929
  44.5248293  43.8916872  75.5921319  45.2315060  43.3968903  75.7208253
  44.7136228  44.3325954  74.8623977  44.6576198  43.8835223  75.5030364
  44.0606397  39.6822391  68.6292514  44.6062357  40.3607477  68.6886484
  44.0023274  39.5409851  67.7694096  44.1322312  39.7614392  68.5104575
  37.1780472  47.1711457  64.0160867  37.2790835  46.3611811  64.3257995
  36.5822217  47.0768403  63.3860545  37.1053011  47.0376485  63.9687105
  37.0181212  52.0889046  65.4175723  37.6618667  52.5302210  65.8071881
  37.3437467  51.2842472  65.3305982  37.1613040  52.0354241  65.4621200
  30.3745517  43.1931743  63.6413201  30.1395701  42.3599396  63.5345469
  30.5131157  43.4736409  62.8274402  30.3601179  43.1115247  63.5055556
  32.6735604  35.3617474  66.5397508  32.0540636  34.7710121  66.3707523
  32.5719468  35.9528909  65.9061831  32.5673279  35.3621556  66.4202498
  39.7703500  37.1017016  60.8729971  40.4683664  37.2805143  61.3651435
  40.0855832  36.5787355  60.2500361  39.9198837  37.0510788  60.8531982
  32.4004737  38.9069756  68.7841077  32.2763434  39.4932201  69.4190896
  33.0523021  38.4129951  69.0853352  32.4778386  38.9208560  68.9227007
  37.4263078  42.0831472  68.0628588  38.0712081  41.5903916  67.7439537
  37.6664855  42.2256259  68.8894667  37.5573663  42.0308915  68.1378122
  39.9649169  44.9286378  67.7135481  40.2472412  44.1337784  67.4922237
  40.6935330  45.4066966  67.7340542  40.1138733  44.8820975  67.6838496
  37.9430363  32.4709412  64.9551246  37.6133693  32.9220556  64.2854945
  37.2675365  32.3925576  65.5024252  37.7940799  32.5260547  64.9374469
  45.1506771  28.4594935  63.2000857  44.8360212  29.1498414  63.6321279
  44.6333713  28.4039717  62.4986357  45.0271241  28.5529824  63.1597806
  36.3818813  42.3562653  58.1145735  35.7976028  42.8612684  58.5211599
  35.9788908  42.1305040  57.3742327  36.2358116  42.3970901  58.0650760
  31.9362841  48.0717414  64.9169407  31.4530419  48.7967904  64.8928990
  32.7486159  48.3693544  65.0279564  31.9853589  48.2219768  64.9296686
  38.0076995  46.8649595  67.5219221  37.4903937  46.5057010  66.9180529
  38.7051387  46.3411769  67.5325287  38.0342576  46.7347283  67.4349480
  41.6640587  47.3144409  73.4835394  41.7523933  47.1270549  74.3313605
  42.0930300  46.6681838  73.0840241  41.7402690  47.1907416  73.5507146
  39.2311047  46.5975569  72.4653056  38.6681882  46.1848179  72.9892718
  39.9932070  46.5228474  72.8846200  39.2605496  46.5252969  72.6046057
  36.1486317  30.5321701  60.4374194  36.9032285  30.9000018  60.1991244
  35.9713852  30.9061255  61.2053373  36.2340796  30.6419889  60.5159082
  34.7907038  48.5873590  65.0689687  35.4927618  48.0725579  65.1262443
  34.7104522  48.9147741  65.8736562  34.8830799  48.5587816  65.1962479
  49.4421216  36.6816141  68.4821733  48.6049637  36.7518328  68.7169327
  49.4109447  36.6840636  67.6096035  49.3139498  36.6926368  68.3881281
  35.8385945  38.8249177  74.1970102  36.0106449  38.7155071  75.0455383
  36.3755303  39.4703582  73.9601294  35.9430949  38.9041179  74.2875198
  34.5043382  32.9392020  57.1352307  34.3218955  33.1563900  56.3093299
  35.3668995  33.0531032  57.1910921  34.6047971  32.9881918  57.0206794
  34.1157814  44.7779942  64.5775295  34.9546713  45.0102875  64.6249056
  34.1469583  43.9084253  64.5082330  34.2439531  44.6836888  64.5739939
  34.7410517  45.1980817  68.8788600  35.2808742  45.0551948  69.5491972
  34.0580463  45.5977568  69.2472626  34.7202671  45.2360488  69.0323022
  40.1843101  29.9418430  60.1701331  40.9129262  29.7634385  59.7239487
  40.2737994  30.7836510  60.3808509  40.3049763  30.0402309  60.1354848
  44.1651402  40.8771818  64.0733624  44.9208917  41.3103332  64.1122533
  44.2713726  40.2276587  64.6468261  44.2921572  40.8449302  64.1631650
  47.2031573  44.7045095  64.8236027  46.7666805  44.7081837  65.5794999
  46.8694488  45.3850594  64.3915605  47.0894193  44.8057551  64.8716860
  41.7760647  46.7453428  76.1479178  42.5601063  46.8584276  76.5134920
  41.5757241  45.9194565  76.3437864  41.8626672  46.6400147  76.2313564
  30.1447662  41.4181108  69.0323022  29.8786077  40.6020225  69.1914012
  30.1586226  41.4634263  68.1618537  30.1072384  41.3038013  68.9276504
  47.1229056  31.7458923  67.0665455  47.7654964  31.8157027  67.6527371
  47.3752077  31.0788146  66.5644997  47.2551188  31.6585271  67.0792735
  34.8946268  34.9559486  71.6790029  34.2018065  34.4856466  71.9250761
  35.5106596  34.7297791  72.2531737  34.8830798  34.8526618  71.7999182
  41.9331040  48.6563530  69.7945633  41.1346286  48.4163030  70.0519502
  42.3817051  48.7077923  70.5412681  41.8805651  48.6285921  69.9430558
  30.5541076  42.2039887  66.3134766  30.3716649  42.1786773  65.4607058
  31.2890745  42.6738825  66.3523675  30.6355140  42.2701250  66.1932684
  46.6240750  42.4391397  63.4567653  46.8596339  42.5836596  62.6294504
  46.7730313  43.2033805  63.8499167  46.6806553  42.5730452  63.3931257
  33.6186827  38.9224890  72.8216875  34.3426800  38.9077921  73.3081769
  33.7202964  39.6320245  72.3238843  33.7405036  39.0249593  72.8195661
  40.9931777  42.4023975  77.6865822  40.2004757  42.7167487  77.8718441
  41.1080704  42.6175443  76.8486606  40.8927187  42.4807811  77.5904156
  41.9215570  42.3044179  72.6251118  42.4954431  41.6671423  72.7799682
  41.8430373  42.3048261  71.7560776  41.9948804  42.2109290  72.5197529
  30.5211986  39.0833388  66.4633833  31.0985489  38.9469839  67.1026078
  29.8226048  38.6269172  66.7179417  30.5033007  38.9955654  66.5956122
  37.2779288  40.7367444  64.6772316  37.0198532  39.9039179  64.6503615
  37.3327771  40.9625057  63.8364816  37.2479066  40.6465215  64.5492452
  42.3580338  32.8395894  64.7776408  41.6536665  32.3505080  64.9360328
  42.4065313  32.8518369  63.9064853  42.2610390  32.7685542  64.6715748
  36.2514000  38.2905206  65.1637210  35.6763592  38.4497374  65.8001171
  35.8749677  37.6540615  64.7005661  36.1116813  38.2203019  65.1891769
  39.9187289  36.7628555  70.0229589  39.5301722  36.3382773  69.3681780
  39.2541987  37.0110705  70.5306616  39.7634217  36.7367276  70.0017457
  49.5610558  36.5203560  62.7977419  49.3047123  35.7083502  62.6075302
  50.4039872  36.5281127  62.5707606  49.6476583  36.4015558  62.7362236
  25.9970819  37.9345281  63.1781651  26.0831071  37.5577149  63.9595181
  26.6246617  37.5605727  62.7001609  26.1027370  37.8230763  63.2227128
  43.7413650  30.4603184  67.5353573  44.1224162  29.7781355  67.9221447
  42.9376935  30.1712786  67.3529238  43.6790112  30.3170233  67.5657629
  47.2435717  43.6753156  72.6335972  47.0074355  42.8441221  72.5148032
  47.8878946  43.6238763  73.2190816  47.3030388  43.5450844  72.7021865
  36.8934135  44.4648677  63.3478708  37.5308082  44.2260425  63.8930501
  37.3189207  44.6685836  62.6131869  37.0510302  44.4599688  63.3195865
  31.5846778  46.7037014  67.2313012  31.6250923  46.9751865  66.4032791
  32.1441302  47.2278922  67.6470800  31.6730124  46.8212769  67.1704900
  37.5336950  39.6850967  57.6853597  37.9182103  39.4658674  58.4370142
  37.2848571  40.5113913  57.8154674  37.5539023  39.7749113  57.8154674
  37.7005491  32.9657382  77.4016182  37.3858932  33.7356945  77.1385744
  37.3795423  32.4027638  76.8168409  37.6064410  32.9967651  77.2757531
  48.2672138  43.4597605  68.6964266  47.9617955  44.1925662  69.0577582
  47.5478354  43.0535534  68.4157052  48.1159480  43.5079338  68.7077403
  39.2755607  44.9421100  65.0272494  39.3494616  44.7796272  65.8814344
  40.0925114  45.1311290  64.7832976  39.4071966  44.9457842  65.1170520
  53.9673930  40.0990606  68.0232610  53.8998430  40.1186565  67.1535197
  53.9529593  40.9420933  68.2488281  53.9552687  40.2264340  67.9285087
  33.0361364  45.2878963  62.0566938  32.2099482  45.5340700  61.9301216
  33.0973355  45.2091044  62.9228996  32.9235531  45.3123912  62.1655882
  35.2537388  31.3547904  63.0162378  34.3859813  31.4270503  63.0819987
  35.5412592  32.1569983  63.2050353  35.1677136  31.4842051  63.0537144
  44.3770277  31.5025763  71.3473700  45.1223869  31.3135574  70.9337125
  43.9607581  32.0284001  70.7887556  44.4255251  31.5527909  71.2038273
  51.7532547  38.8734992  66.2979205  52.3040469  38.2403061  66.5376297
  51.7376663  39.4050385  66.9894709  51.8317744  38.8583940  66.4358063
  38.4054938  42.7073589  70.8439098  37.9066632  43.4189357  70.9223987
  39.2155163  43.0274256  70.8057261  38.4511045  42.8600438  70.8495667
  35.7566109  49.8823226  62.8246117  35.5366404  49.5920580  63.6172784
  35.5360631  49.2238181  62.2964030  35.6913703  49.7422934  62.8635026
  34.6683056  41.9696542  65.0901819  34.3796305  41.3434013  65.6247546
  35.5366404  41.9116829  65.1566499  34.7543308  41.8684086  65.1792774
  45.4560954  37.1131325  65.4083801  45.1125720  36.3921661  65.7591051
  45.5553996  36.9045177  64.5662159  45.4202997  36.9755529  65.3355481
  37.9234064  51.2552615  61.6076810  38.5758122  50.7229058  61.8367836
  37.2259673  50.9021268  61.9944684  37.9164782  51.1242138  61.6988977
  34.8715329  43.6091793  61.0144184  35.6261297  43.9904832  61.2279647
  34.2785942  44.0602937  61.4690881  34.8952043  43.7320620  61.1127062
  37.3321996  35.5654633  76.1401396  36.5221772  35.8712413  76.0291239
  37.8096683  36.2860216  76.2553980  37.2825475  35.7169235  76.1408467
  36.1913556  44.7800354  66.3884299  35.6694309  44.9200646  67.0736164
  36.5787576  44.0211019  66.5786417  36.1717257  44.6885878  66.5185376
  33.1804740  34.8306163  60.4579254  32.8929536  34.4607434  59.7211201
  33.8675208  35.3001018  60.1962959  33.2393637  34.8453133  60.3094330
  37.6179881  41.8104373  61.7865790  37.4222664  42.4179108  61.1926093
  37.8414227  41.1172317  61.3057464  37.6214523  41.7981899  61.6281871
  36.0158411  38.6959111  61.9046659  36.7381063  38.8600270  61.4450465
  35.5366404  39.4168776  61.7985999  36.0522142  38.8257341  61.8212273
  43.9751919  35.0322910  67.2843344  43.1363020  35.0584189  67.0481607
  44.0456286  35.6793646  67.8648690  43.8620313  35.1319036  67.3352461
  33.6666028  41.1017184  71.0100799  34.1787125  41.3801437  70.3609558
  33.3802371  41.8406478  71.3763612  33.7000891  41.2519537  70.9690677
  42.4221197  31.9308287  62.0170960  43.1247550  31.7316036  61.5390918
  42.1565386  31.1584230  62.3239803  42.4867830  31.7871253  61.9916401
  47.8509443  40.2390897  64.5704586  47.7643417  40.3946323  65.4239364
  47.3959923  40.8828972  64.1963991  47.7712700  40.3566652  64.6411692
  30.7532935  35.6087376  61.3064535  30.8549071  36.4113537  61.6345511
  31.5488821  35.4074712  61.0087616  30.8860840  35.6973274  61.3099891
  37.1849754  33.1943572  71.0701840  36.9932951  33.2098707  71.9201264
  38.0348350  33.3907247  71.0468495  37.2825476  33.2257924  71.1925135
  31.5696667  35.7234554  69.0485657  31.4282158  34.8718495  69.1730165
  31.8537230  35.7663215  68.2247863  31.5904513  35.6034304  68.9453281
  41.7235259  37.5601644  63.1930145  41.4769973  37.4797395  64.0266934
  42.0520382  36.7755112  62.9992673  41.7356503  37.4327909  63.2877668
  45.6183308  44.2685003  66.9816926  45.4797667  44.9666049  67.4865669
  44.8383306  44.1133660  66.6253108  45.4826535  44.3485170  67.0043200
  43.9561393  40.5681379  73.2339308  43.9509431  39.6961195  73.2381734
  44.6622387  40.7669548  72.7608764  44.0606397  40.4685253  73.1646343
  37.6832286  40.2958363  72.6053128  37.8275662  40.8759571  71.9696238
  38.0307935  40.6734659  73.3102983  37.7559748  40.4379067  72.6152123
  39.8552204  39.4948531  70.3878260  39.1075518  39.6879545  69.9826538
  40.0093729  38.6693751  70.1502381  39.7674631  39.4013642  70.2923666
  36.7560041  48.4861134  69.4714155  36.9049605  47.9264050  68.8187559
  37.5360043  48.5653136  69.8546674  36.8934135  48.4146700  69.4311104
  39.2813342  48.6575777  70.7498646  39.2057013  47.9884588  71.3049434
  39.2103201  49.3593566  71.2639312  39.2593949  48.6620685  70.9075494
  40.0953981  33.3899082  71.2773663  40.5526595  34.1223056  71.4046456
  40.1710309  32.9665547  72.0360919  40.1744950  33.4356320  71.4074740
  32.3386972  33.6364901  72.3663107  31.8029161  33.0245260  72.6823874
  32.4004737  34.2113037  73.0196774  32.2682605  33.6311829  72.5098534
  44.5681307  26.5688957  65.1467506  44.6864875  27.0265420  64.4134809
  44.3943482  25.7634218  64.8603724  44.5600478  26.5182729  64.9968440
  37.9736359  35.3801186  68.1215487  37.1832433  35.1992646  68.4432823
  38.3696981  34.6028138  68.1045782  37.9153235  35.2388647  68.1668036
  43.3580045  43.0143616  65.8474933  42.6825047  42.7828848  66.3488320
  43.3672421  42.4064799  65.2217038  43.2598549  42.8902541  65.8291086
  40.4874189  37.8561445  72.6038986  40.4233330  38.7171401  72.4759123
  40.6271377  37.5393438  71.8034538  40.4989659  37.9361611  72.4667199
  39.1693283  40.5493584  66.7455189  38.7455532  40.7498083  66.0094208
  38.9938138  39.7022432  66.8579489  39.0804163  40.4542366  66.6528879
  38.6704976  52.0644097  69.2076647  39.1600906  51.3654886  69.0252311
  38.0989208  51.7667967  69.7952704  38.6589506  51.9170321  69.2677687
  34.4575728  41.0445636  62.1783162  34.6140347  40.9792438  63.0339154
  34.7976321  41.8194188  61.9661841  34.5308963  41.1494834  62.2737756
  44.8671980  44.6306166  78.1603437  45.6806845  44.3591315  78.3208570
  44.7066946  44.3313706  77.3563633  44.9641928  44.5461093  78.0648843
  42.1444142  35.3139824  71.0998826  42.3586111  34.6750738  70.5462179
  41.5278041  35.7585647  70.6706687  42.0849471  35.2849967  70.9549257
  43.5548810  48.2358572  62.5453046  43.1628601  47.9325287  61.8275913
  43.7101882  49.0727662  62.3558000  43.5202399  48.3142409  62.4109543
  31.0309989  38.2280586  62.4943929  31.4108954  38.6465131  61.8304196
  30.4565354  38.8094042  62.8012772  31.0021314  38.3758445  62.4420670
  44.3083230  36.9228889  72.0382133  43.4959911  36.6154779  72.1195305
  44.7673164  36.4427889  72.6024845  44.2563614  36.8065381  72.1336727
  43.7188484  44.8008561  62.4859077  43.3603139  44.9723204  63.2623109
  43.2327195  45.2621766  61.9287075  43.5947181  44.8947532  62.5184346
  41.5358870  28.4239759  66.0886168  40.6652428  28.3978480  66.0419478
  41.7899212  28.2516951  65.2712014  41.4452430  28.3949903  65.9606305
  41.4036737  38.3288960  76.8210835  41.8736368  38.9531077  77.2078709
  41.4498617  37.6605936  77.3804050  41.4804613  38.3223641  76.9610906
  38.5608011  30.4345988  67.5459639  38.0446499  29.7426179  67.6711218
  38.0001940  31.1016765  67.4922237  38.4014524  30.4309245  67.5565705
  40.6300244  30.9738948  69.3752491  40.2431997  30.9987979  70.1566021
  40.1433182  30.4080626  68.9227008  40.5012753  30.8934699  69.4240395
  44.8793224  45.6912457  73.4326278  45.5172944  45.1972652  73.0988734
  44.2367315  45.6189857  72.8478505  44.8787450  45.6071465  73.2968633
  46.6050224  37.5401603  67.9992193  46.1777832  37.4527951  67.2440293
  45.9676277  37.6479378  68.5847038  46.4479831  37.5434263  67.9737635
  40.2957386  27.8605933  71.6662751  40.9250504  28.3966233  71.3883822
  40.4643249  27.7683292  72.5176317  40.4135181  27.9267296  71.7511279
  40.0971301  32.6477128  73.9389163  40.9244730  32.3762277  73.9947777
  40.1179147  33.4437970  74.2952981  40.2224151  32.7256882  74.0004346
  44.9347480  46.3832265  70.0731635  45.7239858  46.0321330  70.1933716
  45.1091078  47.1968653  69.8108268  45.0767762  46.4518122  70.0519503
  34.6740791  39.7940991  67.1259423  33.8328797  39.6944865  67.3338317
  34.8830799  40.5636471  67.4773744  34.5805483  39.8933034  67.2086738
  32.1516358  37.4160528  64.9544174  31.7573055  37.4903540  64.1794284
  31.5956475  37.8018474  65.5052536  32.0119170  37.4842302  64.9211834
  43.7881304  30.3941822  64.6348053  43.9930898  30.3264130  65.4805050
  43.4607728  31.2000643  64.5669230  43.7696552  30.5027762  64.7507708
  38.4857456  37.7222390  66.3757021  38.1820593  37.1678378  66.9767429
  37.7836876  37.9014600  65.8885055  38.3373665  37.6667172  66.3926727
  37.5423553  35.0322910  60.9401723  37.8183287  34.3141822  60.5279290
  38.1422222  35.6307830  60.7322829  37.6716817  35.0143281  60.8482484
  36.5475807  44.9372111  71.0829119  36.4396162  44.9474173  71.9491177
  36.7571588  45.7626891  70.8934072  36.5625918  45.0613185  71.1833210
  47.0414992  30.9473586  64.1150818  46.4289306  31.4343988  64.5004550
  47.1379167  30.2717077  64.6588470  46.9652890  30.9191895  64.2529677
  41.0434073  32.7036427  59.2148318  41.4977820  32.8746988  59.9396162
  41.5174119  32.0904538  58.8146093  41.1802393  32.6387312  59.2622079
  34.5649599  42.1884753  68.5451056  33.9737532  42.8294251  68.5154071
  35.3270622  42.6122370  68.5182356  34.5897859  42.3460592  68.5366204
  34.9610221  33.3486751  69.2119074  35.4211703  33.4225680  69.9494198
  35.0066328  34.1468005  68.8618895  35.0360777  33.4780898  69.2691830
  36.6093571  34.0153446  73.7791101  36.2179136  33.3686793  74.2146879
  36.7779434  34.6064881  74.3985356  36.5764481  34.0067714  73.9353807
  50.6840020  42.0190523  69.5428335  50.7423144  42.4677172  70.2888311
  50.0506488  42.4289336  69.1058415  50.5991315  42.1464257  69.5880883
  44.3239115  47.6394065  65.9783081  44.1258803  48.1284879  65.2839292
  43.7026826  47.8435306  66.5567214  44.2026679  47.7410603  65.9606304
  38.3847093  39.4078961  60.3193325  39.1289138  39.7953238  60.5576275
  38.5307789  38.5636387  60.4833813  38.5157678  39.3409434  60.3787295
  40.3026669  31.2029220  65.3525186  39.4562714  31.3752028  65.2266536
  40.2997801  30.3978564  65.6891015  40.1773819  31.1090249  65.3836313
  41.3724969  34.9804435  66.2187244  40.8984923  34.4546197  66.7292555
  41.7443105  34.4333908  65.6502106  41.3574858  34.8220431  66.2102392
  31.7497999  36.9775942  71.5870790  32.6123612  36.8771651  71.5008120
  31.4189782  36.3970651  71.0256362  31.8283196  36.8767568  71.4916196
  47.6361700  40.0406810  67.6294025  47.3959923  39.2013226  67.6336451
  48.1153707  40.1206977  68.3534798  47.6713883  39.9288210  67.7368827
  49.6366887  36.8208268  65.5823284  49.3976657  36.7804102  64.7444069
  49.8000788  37.6679420  65.7089005  49.6257190  36.9400353  65.4776766
  46.2412917  41.2058217  71.5128329  46.9647116  40.7530743  71.3339349
  45.9762879  41.4862883  70.7300657  46.3094190  41.1809185  71.3707044
  35.1099785  35.8018391  68.2481208  34.4852855  35.8136782  67.6407161
  34.7745380  36.2778566  68.8972449  34.9685277  35.8736908  68.2537777
  31.8225461  43.8618851  69.6884973  31.2925385  43.1711290  69.7379947
  32.0950554  43.8529036  68.8597681  31.7850183  43.7585982  69.5732389
  42.0231706  41.3042095  69.6623344  41.4088699  40.7600146  69.9571979
  42.5398991  40.7906332  69.1829160  42.0087369  41.1478504  69.6347573
  41.2628003  42.3746365  67.3967643  40.8355611  41.7496084  66.9633078
  41.2552948  42.0921287  68.2226650  41.1987145  42.2399146  67.4547470
  34.3790531  37.4111538  70.4656077  34.5384017  36.6554862  70.8707799
  34.1983424  37.9602478  71.1196814  34.3755890  37.3805352  70.6218783
  42.3210834  29.5772774  71.0206866  41.8251395  29.7736448  70.3298433
  43.0779896  29.9765442  70.8495668  42.3597658  29.6650508  70.8927003
  39.5913713  33.2515120  67.6110177  39.6156200  32.7175232  66.9222957
  39.8425187  32.7432429  68.2735767  39.6323632  33.0976024  67.6074821
  27.1021303  40.5346615  67.0453321  26.9964752  40.4893459  66.1805405
  26.3521523  40.8800395  67.3267606  26.9756906  40.5787523  66.9590651
  35.8715035  31.9785938  66.9915921  35.9113407  32.4795145  67.7050629
  35.0464700  32.0696332  66.7221844  35.7554561  32.0667754  67.0566459
  38.0544648  41.5446678  75.0936216  37.2040279  41.6818392  75.2293861
  38.2172776  40.8110456  75.5383917  37.9528512  41.4560779  75.1791815
  37.2929399  38.4946448  69.2889820  36.4621328  38.6620266  69.0825068
  37.2380916  38.1182399  70.0738705  37.1618814  38.4636179  69.3738348
  35.1013182  31.9855341  74.9246231  35.7265885  31.4417474  75.1975663
  34.6463662  31.5050258  74.3554021  35.1261443  31.8344822  74.8807825
  35.6665443  36.7702039  59.8179938  35.8068404  37.2674504  60.5208579
  36.1647975  36.0688334  59.9594152  35.7606523  36.7404018  59.9431517
  35.6965665  37.6369150  57.1472515  36.3310744  38.2329575  57.0821976
  35.7791276  37.3372608  57.9618385  35.8022216  37.6810059  57.2575601
  48.6748231  40.1684628  70.0158879  49.2666071  40.8081878  70.0477077
  49.1107225  39.4707665  70.3050946  48.8266662  40.1602978  70.0639711
  37.2744648  33.5683126  57.1217957  37.5960489  33.0886208  56.4677219
  37.5371592  34.3782772  56.9308768  37.3610673  33.6173024  56.9973449
  40.5041621  44.5902000  70.6416773  39.9966712  45.1437847  71.0857403
  40.2068267  44.6510290  69.8235547  40.3846506  44.6808311  70.5865229
  42.6703803  32.9555320  69.4841436  43.0958874  32.5027846  68.8724962
  42.0560796  32.4015391  69.7606223  42.6432448  32.8069296  69.4346461
  32.2018653  39.8336991  60.4162061  32.7110882  40.4301499  60.7973366
  32.6752925  39.5662965  59.7338480  32.3462029  39.8822807  60.3716583
  41.1098026  29.4270420  62.8932013  40.4666344  29.2768066  63.4617151
  40.7697433  29.1812765  62.1281117  40.9643103  29.3682542  62.8635028
  39.7484106  49.5226558  67.5473780  39.5249760  48.7645388  67.9157806
  39.2593949  49.5524580  66.8254219  39.6427555  49.4148783  67.4950521
  45.8625500  33.8385730  65.2252395  46.2153110  33.4115453  65.8998193
  45.0040301  33.7536574  65.3553471  45.7874944  33.7630471  65.3447405
  34.5609185  36.4693250  63.2835241  33.8421174  36.8857382  63.5508105
  34.9321547  37.0347489  62.7326879  34.5101116  36.6142531  63.2418048
  43.8608765  37.1021099  69.1737237  43.8406693  36.9204394  70.0272016
  43.9087966  37.9733117  69.1496820  43.8643406  37.2037637  69.2960532
  41.8055095  43.6908291  75.0985713  41.7650950  43.0457968  74.5130869
  42.6178413  43.6344908  75.4111125  41.9198249  43.5867257  75.0582663
  38.3962563  49.7427017  65.0010864  37.9822961  49.0801147  64.6114706
  39.0809937  49.8904875  64.4806558  38.4360934  49.6667675  64.8667361
  41.7627857  48.9017102  65.7534481  41.3644140  49.0119372  64.9855301
  41.1479077  49.1099168  66.3361041  41.6126746  48.9490670  65.7265780
  40.3355759  35.5091250  58.6208621  39.7420598  35.8308246  58.0693188
  40.3731037  34.6632345  58.4129727  40.2530148  35.4315578  58.5091392
  47.2949560  28.9604142  66.1536707  46.7880424  28.2533281  66.0857885
  48.0916993  28.6297331  66.2837784  47.3376799  28.8077293  66.1635702
  37.4932804  37.3205227  71.6535471  36.9811707  36.7126410  72.0120502
  37.3212300  38.0361820  72.1209447  37.3922441  37.3368526  71.7751695
  32.3398519  35.7642802  74.3037833  32.1701109  36.4244177  73.7586039
  31.8964469  35.9749364  75.0250322  32.2497852  35.8928785  74.3299462
  36.2658338  34.0047300  63.3464566  36.7415704  34.3664380  62.7114748
  35.7646938  34.6603768  63.6264709  36.2623697  34.1541489  63.2941307
  41.3701874  35.2429472  74.0937727  41.9273304  35.0143281  73.4616192
  41.0462939  36.0035137  73.8172939  41.4048284  35.3213309  73.9594224
  29.2400583  38.6689668  69.5626323  28.6927303  37.9990314  69.6807191
  30.0292961  38.3019516  69.6269790  29.2752767  38.5154654  69.5895023
  39.0884992  38.3297125  75.0589734  39.8396319  38.6448802  75.3729288
  39.2807568  38.1276296  74.2323655  39.2276406  38.3464507  74.9833129
  45.9370282  34.4570691  62.3013529  45.9364508  34.3019348  63.1597805
  45.7326462  35.3033678  62.2454915  45.9070060  34.5591312  62.4201469
  27.9987553  37.8810476  66.7172346  27.8209314  37.4287085  67.4427261
  27.7106575  38.6836637  66.9010823  27.9300506  37.9333034  66.8515849
  43.6611134  39.1368193  65.9549736  44.1564799  38.4191188  65.9153756
  42.8510909  38.8338991  65.8404223  43.6155027  38.9865840  65.9323462
  29.7360023  40.4138200  63.8294105  28.8705542  40.4023890  63.7176876
  29.8358838  40.2268422  64.6765244  29.6234189  40.3844261  63.9383049
  45.7262953  41.8871881  68.6426865  46.1518024  41.3646303  68.0897290
  45.3619872  42.4852718  68.1215488  45.7349555  41.8982108  68.4835875
  35.3617032  50.1836098  67.4024210  35.6763591  50.9972487  67.4101992
  35.7710446  49.7986317  68.0706369  35.4685130  50.2464801  67.5028302
  42.3141552  45.6006145  64.9728022  42.7852730  46.3146408  65.1418007
  42.6501731  45.0004895  65.5087892  42.4336667  45.6177609  65.0760398
  44.4018537  47.2107458  77.1520094  44.5115502  46.4216019  77.5076841
  44.7309433  47.1213395  76.3494432  44.4670942  47.0813311  77.0862485
  39.2311047  30.3733616  71.9286117  39.3638953  29.5764609  72.2567093
  39.6156200  30.9000019  72.5084393  39.3067376  30.3333532  72.0629620
  42.9515498  45.3924079  71.7355715  42.4036444  44.7681963  71.4675780
  43.4128527  45.5818351  71.0199794  42.9382708  45.3283129  71.5906146
  42.3043402  27.2963942  68.5267210  41.4989366  27.1861671  68.8435049
  42.1750138  27.3976397  67.6697076  42.1663535  27.2947612  68.4475251
  45.7609363  33.4609434  69.1206907  45.1772352  33.9618640  68.7084475
  46.0813657  32.9538990  68.4871230  45.7222538  33.4601269  68.9665414
  38.3004162  32.3750028  59.3965582  39.1219856  32.5448341  59.1547277
  37.8373813  32.5297289  58.6731880  38.3535324  32.4231761  59.2537226
  36.8899494  30.3692791  70.1764011  37.4343907  30.0283917  70.7668352
  36.9436430  31.2278252  70.3185295  36.9788613  30.4448050  70.2845884
  32.7030053  44.1309207  67.0502819  33.3074910  44.0905041  66.4216639
  32.4957365  44.9780359  67.0806875  32.7618950  44.2497209  66.9618935
  42.5173825  46.3975152  68.2665056  43.3372199  46.2538118  68.5281351
  42.2367902  47.0221351  68.8081494  42.5970568  46.4685504  68.3852995
  27.9381335  43.1143824  66.9201742  27.8405613  42.3040096  67.2291798
  28.7210205  43.0935618  66.5348010  28.0397471  42.9910914  66.9088605
  58.9887475  54.0540004  61.2307932  58.9581479  54.9084640  61.4026202
  59.5868824  53.7535296  61.7894076  59.0724633  54.1356500  61.3382735
  52.1887160  53.1415655  65.9860863  51.3325055  53.3024153  66.0369980
  52.2354814  52.2707718  66.0065924  52.0686271  53.0366456  65.9966929
  46.5728300  62.6778372  61.7498094  45.8211199  62.2993911  61.5214139
  47.0214311  62.7096806  61.0016905  46.5277966  62.6263980  61.6055597
  52.0253260  63.1003742  57.1783642  51.6904628  63.7780664  56.7427864
  52.5380130  62.7109053  56.5900513  52.0518841  63.1428320  57.0270433
  51.5657551  65.0518011  63.1194753  51.9496930  65.6204909  62.5799528
  51.5016692  64.3267521  62.6400569  51.6130978  65.0293474  62.9688616
  55.0338981  55.2007698  68.6292514  55.5794941  55.8792785  68.6886484
  54.9755857  55.0595159  67.7694096  55.1054895  55.2799700  68.5104575
  48.1513056  62.6896765  64.0160867  48.2523419  61.8797119  64.3257995
  47.5554801  62.5953711  63.3860545  48.0785594  62.5561793  63.9687105
  56.8104050  56.6292306  59.5026242  56.6943576  57.3799992  59.9318380
  57.6059936  56.3716259  59.7522329  56.9108639  56.7027152  59.6030334
  47.9913795  67.6074354  65.4175723  48.6351251  68.0487518  65.8071881
  48.3170051  66.8027780  65.3305982  48.1345624  67.5539548  65.4621200
  41.3478100  58.7117051  63.6413201  41.1128285  57.8784704  63.5345469
  41.4863741  58.9921717  62.8274402  41.3333763  58.6300555  63.5055556
  43.6468188  50.8802782  66.5397508  43.0273219  50.2895429  66.3707523
  43.5452051  51.4714217  65.9061831  43.5405863  50.8806864  66.4202498
  48.6934375  60.6186329  60.7895585  49.0150216  61.1591536  60.1856893
  49.3406472  60.0483100  60.9217874  48.8360430  60.6145504  60.7202620
  50.7436083  52.6202324  60.8729971  51.4416248  52.7990451  61.3651435
  51.0588416  52.0972663  60.2500361  50.8931420  52.5696096  60.8531982
  43.3737321  54.4255063  68.7841077  43.2496017  55.0117509  69.4190896
  44.0255605  53.9315259  69.0853352  43.4510970  54.4393868  68.9227007
  50.9324019  59.0072769  60.8609763  51.3717654  58.3989869  61.3064536
  50.7828681  58.6280142  60.0895228  50.9745484  58.8611240  60.8128930
  50.9381753  60.4471686  67.7135481  51.2204996  59.6523092  67.4922237
  51.6667913  60.9252274  67.7340542  51.0871317  60.4006283  67.6838496
  54.5333355  57.3599950  57.8140532  54.4484650  58.2160917  57.9590101
  55.0217738  57.0844274  58.4822691  54.5922252  57.4457271  57.9342614
  56.1239355  43.9780243  63.2000857  55.8092796  44.6683722  63.6321279
  55.6066296  43.9225025  62.4986357  56.0003825  44.0715132  63.1597806
  55.4651788  53.9784744  59.3138267  54.9363260  54.1944378  59.9735573
  55.9876808  54.6720882  59.2339237  55.4640241  54.1127881  59.3993866
  60.9199841  59.5531048  64.6871312  60.0897544  59.7641692  64.8504728
  60.8709094  58.7268103  64.4113595  60.7906577  59.4620655  64.6708677
  47.3551396  57.8747961  58.1145735  46.7708611  58.3797992  58.5211599
  46.9521491  57.6490348  57.3742327  47.2090700  57.9156209  58.0650760
  42.9095425  63.5902722  64.9169407  42.4263003  64.3153212  64.8928990
  43.7218743  63.8878852  65.0279564  42.9586172  63.7405076  64.9296686
  48.9809579  62.3834903  67.5219221  48.4636520  62.0242318  66.9180529
  49.6783970  61.8597077  67.5325287  49.0075160  62.2532591  67.4349480
  51.8128611  54.1213613  56.5914656  52.0524614  54.3291597  55.7789999
  52.1344452  53.3171122  56.7003600  51.8965768  54.0327714  56.4875209
  45.7639622  64.1058898  65.0689687  46.4660201  63.5910887  65.1262443
  45.6837105  64.4333049  65.8736562  45.8563382  64.0773124  65.1962479
  60.4153800  52.2001449  68.4821733  59.5782221  52.2703636  68.7169327
  60.3842030  52.2025944  67.6096035  60.2872082  52.2111676  68.3881281
  46.8118529  54.3434485  74.1970102  46.9839032  54.2340379  75.0455383
  47.3487886  54.9888890  73.9601294  46.9163533  54.4226486  74.2875198
  45.0890397  60.2965250  64.5775295  45.9279297  60.5288183  64.6249056
  45.1202167  59.4269561  64.5082330  45.2172115  60.2022196  64.5739939
  45.7143100  60.7166125  68.8788600  46.2541325  60.5737256  69.5491972
  45.0313047  61.1162876  69.2472626  45.6935254  60.7545796  69.0323022
  55.1383985  56.3957126  64.0733624  55.8941500  56.8288640  64.1122533
  55.2446310  55.7461895  64.6468261  55.2654156  56.3634609  64.1631650
  58.1764156  60.2230403  64.8236027  57.7399388  60.2267145  65.5794999
  57.8427072  60.9035902  64.3915605  58.0626776  60.3242859  64.8716860
  41.1180246  56.9366416  69.0323022  40.8518661  56.1205533  69.1914012
  41.1318810  56.9819571  68.1618537  41.0804968  56.8223321  68.9276504
  58.0961639  47.2644231  67.0665455  58.7387548  47.3342335  67.6527371
  58.3484660  46.5973454  66.5644997  58.2283771  47.1770579  67.0792735
  45.8678852  50.4744794  71.6790029  45.1750649  50.0041774  71.9250761
  46.4839179  50.2483099  72.2531737  45.8563382  50.3711926  71.7999182
  61.3108503  56.9411323  63.7155665  61.9724937  56.3801991  63.6151573
  60.6699915  56.4463354  64.0408356  61.3137370  56.7847732  63.7488005
  52.1985310  60.2381454  56.0236588  52.6136459  59.9066478  55.3321084
  51.3677240  60.0050356  55.8956725  52.1373319  60.1552710  55.9027435
  41.5273659  57.7225195  66.3134766  41.3449232  57.6972081  65.4607058
  42.2623328  58.1924133  66.3523675  41.6087723  57.7886557  66.1932684
  57.5973333  57.9576705  63.4567653  57.8328923  58.1021904  62.6294504
  57.7462897  58.7219113  63.8499167  57.6539137  58.0915760  63.3931257
  44.5919411  54.4410198  72.8216875  45.3159383  54.4263229  73.3081769
  44.6935547  55.1505553  72.3238843  44.7137620  54.5434901  72.8195661
  59.4263790  56.7978371  61.2937257  59.7572007  57.3306011  60.6877352
  59.9996878  56.8517259  61.9499208  59.5597469  56.8847940  61.3015039
  54.6395679  54.6443274  61.9760837  54.7342534  55.3832568  62.4300463
  54.0154523  54.2160749  62.4095402  54.5604709  54.6904594  62.1068985
  41.4944570  54.6018696  66.4633833  42.0718072  54.4655147  67.1026078
  40.7958631  54.1454480  66.7179417  41.4765591  54.5140962  66.5956122
  54.8918701  56.4892014  55.2097789  54.8098863  56.5594201  56.0752776
  55.5298421  57.0521758  55.0181530  54.9738538  56.5830985  55.3087739
  48.2511872  56.2552752  64.6772316  47.9931116  55.4224486  64.6503615
  48.3060355  56.4810365  63.8364816  48.2211650  56.1650523  64.5492452
  47.2246584  53.8090514  65.1637210  46.6496175  53.9682682  65.8001171
  46.8482260  53.1725923  64.7005661  47.0849396  53.7388327  65.1891769
  50.8919872  52.2813863  70.0229589  50.5034305  51.8568081  69.3681780
  50.2274571  52.5296013  70.5306616  50.7366800  52.2552584  70.0017457
  60.5343142  52.0388868  62.7977419  60.2779706  51.2268809  62.6075302
  61.3772456  52.0466435  62.5707606  60.6209167  51.9200865  62.7362236
  36.9703403  53.4530589  63.1781651  37.0563655  53.0762457  63.9595181
  37.5979200  53.0791034  62.7001609  37.0759954  53.3416071  63.2227128
  54.7146234  45.9788492  67.5353573  55.0956746  45.2966663  67.9221447
  53.9109518  45.6898094  67.3529238  54.6522696  45.8355541  67.5657629
  51.9958811  56.5112468  58.2206396  52.8099450  56.8027361  58.1089167
  51.9317952  55.8572330  57.6464689  52.1061550  56.4577663  58.1195233
  47.8666719  59.9833985  63.3478708  48.5040666  59.7445733  63.8930501
  48.2921791  60.1871144  62.6131869  48.0242885  59.9784996  63.3195865
  42.5579361  62.2222322  67.2313012  42.5983507  62.4937173  66.4032791
  43.1173885  62.7464230  67.6470800  42.6462707  62.3398077  67.1704900
  48.5069534  55.2036275  57.6853597  48.8914687  54.9843982  58.4370142
  48.2581154  56.0299221  57.8154674  48.5271607  55.2934421  57.8154674
  48.6738074  48.4842690  77.4016182  48.3591516  49.2542253  77.1385744
  48.3528007  47.9212946  76.8168409  48.5796994  48.5152959  77.2757531
  50.2488191  60.4606408  65.0272494  50.3227199  60.2981580  65.8814344
  51.0657697  60.6496598  64.7832976  50.3804550  60.4643150  65.1170520
  44.0093948  60.8064271  62.0566938  43.1832065  61.0526008  61.9301216
  44.0705939  60.7276352  62.9228996  43.8968115  60.8309220  62.1655882
  46.2269971  46.8733212  63.0162378  45.3592397  46.9455811  63.0819987
  46.5145176  47.6755291  63.2050353  46.1409720  47.0027359  63.0537144
  55.3502860  47.0211071  71.3473700  56.0956452  46.8320882  70.9337125
  54.9340165  47.5469309  70.7887556  55.3987834  47.0713217  71.2038273
  48.7892777  63.4241151  59.7585968  49.0791075  63.0330132  59.0345194
  49.5196258  63.6057856  60.1991243  48.9399661  63.3934965  59.7168775
  62.7265131  54.3920300  66.2979205  63.2773053  53.7588369  66.5376297
  62.7109246  54.9235692  66.9894709  62.8050327  54.3769248  66.4358063
  49.3787522  58.2258897  70.8439098  48.8799216  58.9374665  70.9223987
  50.1887746  58.5459564  70.8057261  49.4243629  58.3785746  70.8495667
  46.7298692  65.4008533  62.8246117  46.5098988  65.1105888  63.6172784
  46.5093214  64.7423489  62.2964030  46.6646286  65.2608242  62.8635026
  45.6415639  57.4881850  65.0901819  45.3528888  56.8619321  65.6247546
  46.5098988  57.4302137  65.1566499  45.7275891  57.3869394  65.1792774
  56.4293537  52.6316633  65.4083801  56.0858303  51.9106969  65.7591051
  56.5286580  52.4230485  64.5662159  56.3935580  52.4940837  65.3355481
  48.8966648  66.7737923  61.6076810  49.5490706  66.2414366  61.8367836
  48.1992257  66.4206576  61.9944684  48.8897366  66.6427446  61.6988977
  45.8447913  59.1277101  61.0144184  46.5993881  59.5090140  61.2279647
  45.2518526  59.5788245  61.4690881  45.8684626  59.2505928  61.1127062
  56.8906566  59.0942337  60.9507789  57.4564599  59.7535547  60.8666332
  56.2434470  59.4392036  61.4224191  56.8785323  59.2424279  61.0080545
  48.3054580  51.0839941  76.1401396  47.4954356  51.3897721  76.0291239
  48.7829267  51.8045524  76.2553980  48.2558059  51.2354543  76.1408467
  47.1646139  60.2985662  66.3884299  46.6426893  60.4385954  67.0736164
  47.5520160  59.5396327  66.5786417  47.1449840  60.2071186  66.5185376
  44.1537323  50.3491471  60.4579254  43.8662119  49.9792742  59.7211201
  44.8407792  50.8186326  60.1962959  44.2126221  50.3638440  60.3094330
  53.3613144  62.0381122  60.3744868  53.1199820  61.3048982  59.9671933
  53.5414477  62.5867979  59.7211202  53.3520768  62.0103513  60.2175091
  48.5912465  57.3289681  61.7865790  48.3955248  57.9364416  61.1926093
  48.8146811  56.6357625  61.3057464  48.5947106  57.3167207  61.6281871
  46.9890995  54.2144419  61.9046659  47.7113647  54.3785577  61.4450465
  46.5098988  54.9354084  61.7985999  47.0254726  54.3442649  61.8212273
  54.9484503  50.5508218  67.2843344  54.1095603  50.5769497  67.0481607
  55.0188870  51.1978954  67.8648690  54.8352896  50.6504344  67.3352461
  44.6398612  56.6202492  71.0100799  45.1519709  56.8986745  70.3609558
  44.3534954  57.3591786  71.3763612  44.6733475  56.7704845  70.9690677
  58.8242027  55.7576205  64.5704586  58.7376001  55.9131631  65.4239364
  58.3692506  56.4014280  64.1963991  58.7445283  55.8751960  64.6411692
  41.7265518  51.1272684  61.3064535  41.8281655  51.9298845  61.6345511
  42.5221405  50.9260019  61.0087616  41.8593424  51.2158582  61.3099891
  48.1582337  48.7128880  71.0701840  47.9665534  48.7284015  71.9201264
  49.0080933  48.9092555  71.0468495  48.2558059  48.7443232  71.1925135
  42.5429250  51.2419862  69.0485657  42.4014742  50.3903802  69.1730165
  42.8269814  51.2848522  68.2247863  42.5637096  51.1219612  68.9453281
  52.6967843  53.0786952  63.1930145  52.4502557  52.9982703  64.0266934
  53.0252966  52.2940420  62.9992673  52.7089086  52.9513217  63.2877668
  56.5915891  59.7870311  66.9816926  56.4530251  60.4851357  67.4865669
  55.8115889  59.6318968  66.6253108  56.4559118  59.8670478  67.0043200
  48.6564870  55.8143671  72.6053128  48.8008246  56.3944879  71.9696238
  49.0040518  56.1919967  73.3102983  48.7292331  55.9564375  72.6152123
  50.8284787  55.0133839  70.3878260  50.0808101  55.2064853  69.9826538
  50.9826312  54.1879058  70.1502381  50.7407215  54.9198950  70.2923666
  47.7292625  64.0046442  69.4714155  47.8782189  63.4449358  68.8187559
  48.5092627  64.0838444  69.8546674  47.8666718  63.9332008  69.4311104
  58.0869264  59.1448565  57.7433426  57.7076073  58.3585703  57.7362715
  57.4235510  59.6935422  57.6005070  57.9327739  59.1093389  57.7214222
  51.0686564  48.9084390  71.2773663  51.5259178  49.6408364  71.4046456
  51.1442893  48.4850855  72.0360919  51.1477534  48.9541628  71.4074740
  43.3119555  49.1550209  72.3663107  42.7761745  48.5430568  72.6823874
  43.3737320  49.7298345  73.0196774  43.2415188  49.1497137  72.5098534
  55.5413890  42.0874265  65.1467506  55.6597458  42.5450728  64.4134809
  55.3676066  41.2819526  64.8603724  55.5333061  42.0368037  64.9968440
  50.9116172  62.6962084  61.5822252  51.6766063  62.4271728  61.2604916
  50.8094262  62.2112094  62.2992315  51.0097668  62.5851649  61.6402079
  48.9468942  50.8986494  68.1215487  48.1565017  50.7177954  68.4432823
  49.3429565  50.1213446  68.1045782  48.8885818  50.7573955  68.1668036
  53.4334833  59.7274268  53.5622201  54.2007818  59.7874393  53.1528053
  52.9866142  59.1554709  53.0778520  53.4808260  59.6510844  53.4299911
  54.3312628  58.5328924  65.8474933  53.6557630  58.3014156  66.3488320
  54.3405005  57.9250107  65.2217038  54.2331133  58.4087849  65.8291086
  51.4606772  53.3746753  72.6038986  51.3965914  54.2356709  72.4759123
  51.6003960  53.0578746  71.8034538  51.4722242  53.4546919  72.4667199
  56.3329363  61.3894056  58.0785111  56.4149200  62.1961042  57.7546562
  56.8179105  61.4090015  58.8025885  56.4166521  61.5114719  58.1372010
  50.1425866  56.0678892  66.7455189  49.7188115  56.2683391  66.0094208
  49.9670721  55.2207740  66.8579489  50.0536747  55.9727674  66.6528879
  45.4308311  56.5630944  62.1783162  45.5872930  56.4977746  63.0339154
  45.7708904  57.3379496  61.9661841  45.5041546  56.6680142  62.2737756
  51.9687456  55.9388827  61.0476525  52.5103001  55.4359208  61.5115146
  52.2834015  55.8854022  60.2366010  52.0951853  55.8568248  60.9960337
  50.1373906  61.3306179  58.3316553  50.2066726  60.4720717  58.4709553
  50.9162361  61.5478059  58.0035578  50.2626756  61.2359043  58.3033710
  53.1176725  50.8325132  71.0998826  53.3318695  50.1936046  70.5462179
  52.5010624  51.2770955  70.6706687  53.0582055  50.8035275  70.9549257
  54.5281393  63.7543880  62.5453046  54.1361185  63.4510595  61.8275913
  54.6834465  64.5912970  62.3558000  54.4934983  63.8327717  62.4109543
  42.0042573  53.7465894  62.4943929  42.3841538  54.1650439  61.8304196
  41.4297938  54.3279350  62.8012772  41.9753898  53.8943753  62.4420670
  55.2815813  52.4414197  72.0382133  54.4692495  52.1340087  72.1195305
  55.7405748  51.9613197  72.6024845  55.2296198  52.3250689  72.1336727
  54.6921068  60.3193869  62.4859077  54.3335723  60.4908512  63.2623109
  54.2059779  60.7807074  61.9287075  54.5679765  60.4132840  62.5184346
  52.5091454  43.9425067  66.0886168  51.6385012  43.9163788  66.0419478
  52.7631795  43.7702259  65.2712014  52.4185014  43.9135211  65.9606305
  49.4809433  55.9993034  55.0259311  49.7701958  56.7757917  55.3002886
  49.5681232  55.4881766  55.7273811  49.5363690  56.0384953  55.1701809
  49.5340594  45.9531296  67.5459639  49.0179083  45.2611487  67.6711218
  48.9734523  46.6202073  67.4922237  49.3747108  45.9494553  67.5565705
  51.6032828  46.4924256  69.3752491  51.2164581  46.5173287  70.1566021
  51.1165765  45.9265934  68.9227008  51.4745337  46.4120007  69.4240395
  57.5782807  53.0586911  67.9992193  57.1510415  52.9713259  67.2440293
  56.9408860  53.1664686  68.5847038  57.4212415  53.0619571  67.9737635
  51.2689970  43.3791241  71.6662751  51.8983088  43.9151541  71.3883822
  51.4375832  43.2868600  72.5176317  51.3867764  43.4452603  71.7511279
  51.0703884  48.1662436  73.9389163  51.8977314  47.8947585  73.9947777
  51.0911731  48.9623278  74.2952981  51.1956735  48.2442190  74.0004346
  45.6473374  55.3126299  67.1259423  44.8061381  55.2130173  67.3338317
  45.8563382  56.0821779  67.4773744  45.5538067  55.4118342  67.2086738
  43.1248941  52.9345836  64.9544174  42.7305639  53.0088847  64.1794284
  42.5689058  53.3203782  65.5052536  42.9851754  53.0027610  64.9211834
  54.7613888  45.9127130  64.6348053  54.9663481  45.8449438  65.4805050
  54.4340312  46.7185951  64.5669230  54.7429136  46.0213070  64.7507708
  49.4590039  53.2407698  66.3757021  49.1553177  52.6863686  66.9767429
  48.7569460  53.4199908  65.8885055  49.3106249  53.1852480  66.3926727
  47.5208390  60.4557419  71.0829119  47.4128745  60.4659481  71.9491177
  47.7304172  61.2812199  70.8934072  47.5358501  60.5798493  71.1833210
  58.0147576  46.4658894  64.1150818  57.4021889  46.9529296  64.5004550
  58.1111751  45.7902385  64.6588470  57.9385473  46.4377203  64.2529677
  45.5382182  57.7070061  68.5451056  44.9470115  58.3479559  68.5154071
  46.3003206  58.1307678  68.5182356  45.5630443  57.8645899  68.5366204
  45.9342805  48.8672059  69.2119074  46.3944287  48.9410988  69.9494198
  45.9798912  49.6653313  68.8618895  46.0093360  48.9966206  69.2691830
  47.5826155  49.5338754  73.7791101  47.1911720  48.8872101  74.2146879
  47.7512017  50.1250189  74.3985356  47.5497065  49.5253021  73.9353807
  55.2971698  63.1579373  65.9783081  55.0991387  63.6470187  65.2839292
  54.6759409  63.3620614  66.5567214  55.1759263  63.2595911  65.9606304
  49.3579677  54.9264269  60.3193325  50.1021722  55.3138546  60.5576275
  49.5040373  54.0821695  60.4833813  49.4890262  54.8594742  60.3787295
  52.3457553  50.4989743  66.2187244  51.8717507  49.9731505  66.7292555
  52.7175688  49.9519216  65.6502106  52.3307442  50.3405739  66.2102392
  42.7230583  52.4961249  71.5870790  43.5856196  52.3956959  71.5008120
  42.3922366  51.9155959  71.0256362  42.8015779  52.3952876  71.4916196
  58.6094283  55.5592118  67.6294025  58.3692506  54.7198534  67.6336451
  59.0886290  55.6392285  68.3534798  58.6446467  55.4473518  67.7368827
  60.6099470  52.3393576  65.5823284  60.3709240  52.2989410  64.7444069
  60.7733371  53.1864728  65.7089005  60.5989774  52.4585661  65.4776766
  46.0832369  51.3203698  68.2481208  45.4585439  51.3322090  67.6407161
  45.7477964  51.7963874  68.8972449  45.9417861  51.3922215  68.2537777
  42.7958044  59.3804159  69.6884973  42.2657969  58.6896597  69.7379947
  43.0683138  59.3714344  68.8597681  42.7582767  59.2771290  69.5732389
  53.8278135  59.9629861  58.4122655  54.5512334  60.4287974  58.2687228
  53.3878726  60.0303471  57.6620252  53.8693827  60.0413698  58.2807437
  52.9964290  56.8227403  69.6623344  52.3821283  56.2785453  69.9571979
  53.5131575  56.3091640  69.1829160  52.9819952  56.6663812  69.6347573
  52.2360587  57.8931673  67.3967643  51.8088195  57.2681392  66.9633078
  52.2285531  57.6106595  68.2226650  52.1719728  57.7584454  67.4547470
  45.3523114  52.9296846  70.4656077  45.5116601  52.1740170  70.8707799
  45.1716008  53.4787786  71.1196814  45.3488473  52.8990660  70.6218783
  53.2943417  45.0958082  71.0206866  52.7983978  45.2921756  70.3298433
  54.0512479  45.4950750  70.8495668  53.3330242  45.1835816  70.8927003
  50.5646297  48.7700428  67.6110177  50.5888784  48.2360540  66.9222957
  50.8157770  48.2617737  68.2735767  50.6056215  48.6161332  67.6074821
  38.0753887  56.0531923  67.0453321  37.9697336  56.0078767  66.1805405
  37.3254107  56.3985703  67.3267606  37.9489489  56.0972831  66.9590651
  46.8447619  47.4971246  66.9915921  46.8845991  47.9980453  67.7050629
  46.0197284  47.5881640  66.7221844  46.7287145  47.5853062  67.0566459
  48.2661982  54.0131756  69.2889820  47.4353912  54.1805574  69.0825068
  48.2113499  53.6367707  70.0738705  48.1351397  53.9821487  69.3738348
  46.0745766  47.5040649  74.9246231  46.6998469  46.9602781  75.1975663
  45.6196246  47.0235566  74.3554021  46.0994026  47.3530130  74.8807825
  46.6398026  52.2887347  59.8179938  46.7800987  52.7859812  60.5208579
  47.1380559  51.5873642  59.9594152  46.7339107  52.2589326  59.9431517
  46.6698249  53.1554458  57.1472515  47.3043328  53.7514883  57.0821976
  46.7523859  52.8557916  57.9618385  46.7754800  53.1995367  57.2575601
  53.6436386  48.4740628  69.4841436  54.0691458  48.0213154  68.8724962
  53.0293379  47.9200698  69.7606223  53.6165032  48.3254604  69.4346461
  43.1751236  55.3522299  60.4162061  43.6843466  55.9486807  60.7973366
  43.6485509  55.0848273  59.7338480  43.3194612  55.4008115  60.3716583
  54.0881984  64.0250566  58.5720716  53.3711294  63.8511428  58.1067954
  54.7388722  63.7903138  58.0396202  54.0783835  63.9646358  58.4249934
  56.6729956  52.9015154  62.3162021  56.0021146  53.4444857  62.1875087
  57.3669706  53.3710010  62.0743716  56.6758823  53.0513426  62.2617549
  50.7216689  65.0411866  67.5473780  50.4982344  64.2830696  67.9157806
  50.2326533  65.0709888  66.8254219  50.6160138  64.9334091  67.4950521
  56.8358083  49.3571038  65.2252395  57.1885693  48.9300761  65.8998193
  55.9772885  49.2721882  65.3553471  56.7607528  49.2815779  65.3447405
  45.5341768  51.9878558  63.2835241  44.8153757  52.4042690  63.5508105
  45.9054130  52.5532796  62.7326879  45.4833700  52.1327839  63.2418048
  54.8341349  52.6206407  69.1737237  54.8139276  52.4389702  70.0272016
  54.8820550  53.4918425  69.1496820  54.8375990  52.7222945  69.2960532
  49.3695146  65.2612324  65.0010864  48.9555545  64.5986455  64.6114706
  50.0542521  65.4090183  64.4806558  49.4093518  65.1852983  64.8667361
  52.7360441  64.4202410  65.7534481  52.3376724  64.5304680  64.9855301
  52.1211660  64.6284476  66.3361041  52.5859330  64.4675978  65.7265780
  58.2682143  44.4789450  66.1536707  57.7613008  43.7718589  66.0857885
  59.0649577  44.1482639  66.2837784  58.3109382  44.3262601  66.1635702
  54.1846159  50.9856062  62.0510371  53.9559852  51.0088764  61.2088729
  54.4444235  50.1613529  62.1705381  54.1892347  50.8672142  61.9435569
  48.4665388  52.8390535  71.6535471  47.9544291  52.2311718  72.0120502
  48.2944884  53.5547128  72.1209447  48.3655025  52.8553834  71.7751695
  43.3131102  51.2828110  74.3037833  43.1433693  51.9429485  73.7586039
  42.8697052  51.4934672  75.0250322  43.2230436  51.4114093  74.3299462
  47.2390922  49.5232608  63.3464566  47.7148288  49.8849688  62.7114748
  46.7379521  50.1789076  63.6264709  47.2356281  49.6726797  63.2941307
  60.4702283  58.9954376  59.1377571  60.8535889  59.7445733  59.3675669
  59.6746397  59.2420196  58.8789561  60.4096065  59.1424070  59.1335145
  52.3434458  50.7614780  74.0937727  52.9005888  50.5328589  73.4616192
  52.0195523  51.5220445  73.8172939  52.3780868  50.8398616  73.9594224
  40.2133167  54.1874976  69.5626323  39.6659886  53.5175622  69.6807191
  41.0025545  53.8204824  69.6269790  40.2485350  54.0339962  69.5895023
  49.2817575  51.6673808  56.7137950  49.6616540  51.6853437  55.9289065
  48.5410171  52.1127797  56.5928798  49.2286413  51.7355583  56.5801519
  56.9102865  49.9755999  62.3013529  56.9097092  49.8204656  63.1597805
  56.7059045  50.8218986  62.2454915  56.8802643  50.0776620  62.4201469
  38.9720136  53.3995784  66.7172346  38.7941897  52.9472393  67.4427261
  38.6839158  54.2021945  66.9010823  38.9033089  53.4518342  66.8515849
  54.6343717  54.6553501  65.9549736  55.1297383  53.9376496  65.9153756
  53.8243493  54.3524299  65.8404223  54.5887611  54.5051147  65.9323462
  50.0802329  58.5051314  58.1046740  49.2713652  58.1817988  58.0580050
  50.5877238  57.7984536  58.0374989  50.0351996  58.3532631  58.0877035
  40.7092606  55.9323508  63.8294105  39.8438126  55.9209198  63.7176876
  40.8091422  55.7453730  64.6765244  40.5966773  55.9029569  63.9383049
  56.6995536  57.4057189  68.6426865  57.1250608  56.8831610  68.0897290
  56.3352456  58.0038026  68.1215488  56.7082139  57.4167416  68.4835875
  46.3349616  65.7021406  67.4024210  46.6496175  66.5157795  67.4101992
  46.7443029  65.3171625  68.0706369  46.4417714  65.7650109  67.5028302
  53.2874136  61.1191453  64.9728022  53.7585314  61.8331716  65.1418007
  53.6234314  60.5190203  65.5087892  53.4069251  61.1362917  65.0760398
  50.2043631  45.8918924  71.9286117  50.3371536  45.0949917  72.2567093
  50.5888783  46.4185326  72.5084393  50.2799959  45.8518840  72.0629620
  53.2775986  42.8149250  68.5267210  52.4721949  42.7046979  68.8435049
  53.1482721  42.9161705  67.6697076  53.1396119  42.8132920  68.4475251
  56.7341946  48.9794742  69.1206907  56.1504935  49.4803948  68.7084475
  57.0546240  48.4724298  68.4871230  56.6955122  48.9786577  68.9665414
  47.8632077  45.8878099  70.1764011  48.4076490  45.5469225  70.7668352
  47.9169013  46.7463560  70.3185295  47.9521197  45.9633358  70.2845884
  43.6762636  59.6494515  67.0502819  44.2807494  59.6090349  66.4216639
  43.4689949  60.4965667  67.0806875  43.7351533  59.7682517  66.9618935
  53.4906408  61.9160460  68.2665056  54.3104782  61.7723426  68.5281351
  53.2100486  62.5406659  68.8081494  53.5703152  61.9870812  68.3852995
  38.9113918  58.6329132  66.9201742  38.8138196  57.8225404  67.2291798
  39.6942788  58.6120925  66.5348010  39.0130055  58.5096222  66.9088605
  61.7168667  68.1387631  60.8729971  62.4148831  68.3175759  61.3651435
  62.0320999  67.6157971  60.2500361  61.8664004  68.0881404  60.8531982
  59.8895530  63.5080028  64.9551246  59.5598860  63.9591172  64.2854945
  59.2140532  63.4296191  65.5024252  59.7405967  63.5631163  64.9374469
  67.0971938  59.4965551  63.2000857  66.7825379  60.1869030  63.6321279
  66.5798880  59.4410333  62.4986357  66.9736409  59.5900440  63.1597806
  58.3283980  73.3933269  58.1145735  57.7441195  73.8983300  58.5211599
  57.9254075  73.1675656  57.3742327  58.1823284  73.4341517  58.0650760
  62.7861194  69.6398921  56.5914656  63.0257198  69.8476905  55.7789999
  63.1077035  68.8356429  56.7003600  62.8698352  69.5513022  56.4875209
  58.0951484  61.5692317  60.4374194  58.8497452  61.9370634  60.1991244
  57.9179019  61.9431871  61.2053373  58.1805963  61.6790504  60.5159082
  56.4508549  63.9762636  57.1352307  56.2684122  64.1934516  56.3093299
  57.3134162  64.0901648  57.1910921  56.5513139  64.0252533  57.0206794
  62.1308268  60.9789046  60.1701331  62.8594429  60.8005001  59.7239487
  62.2203161  61.8207126  60.3808509  62.2514930  61.0772925  60.1354848
  55.9970576  67.2536808  55.6474780  55.2828753  66.9674988  56.0597212
  56.4814545  67.5933434  56.2881167  55.9629939  67.2618458  55.8030415
  63.1717894  75.7566762  56.0236588  63.5869042  75.4251786  55.3321084
  62.3409824  75.5235664  55.8956725  63.1105903  75.6738018  55.9027435
  65.8651284  72.0077322  55.2097789  65.7831447  72.0779509  56.0752776
  66.5031005  72.5707065  55.0181530  65.9471122  72.1016293  55.3087739
  47.9435986  68.9715897  63.1781651  48.0296238  68.5947765  63.9595181
  48.5711784  68.5976342  62.7001609  48.0492537  68.8601379  63.2227128
  62.9691394  72.0297776  58.2206396  63.7832033  72.3212669  58.1089167
  62.9050536  71.3757638  57.6464689  63.0794133  71.9762971  58.1195233
  59.4802118  70.7221583  57.6853597  59.8647270  70.5029290  58.4370142
  59.2313738  71.5484528  57.8154674  59.5004190  70.8119729  57.8154674
  57.2002555  62.3918520  63.0162378  56.3324980  62.4641119  63.0819987
  57.4877759  63.1940599  63.2050353  57.1142303  62.5212667  63.0537144
  55.1269907  65.8676779  60.4579254  54.8394703  65.4978049  59.7211201
  55.8140375  66.3371634  60.1962959  55.1858804  65.8823748  60.3094330
  57.9623579  69.7329727  61.9046659  58.6846231  69.8970885  61.4450465
  57.4831571  70.4539392  61.7985999  57.9987309  69.8627957  61.8212273
  64.3686365  62.9678903  62.0170960  65.0712717  62.7686651  61.5390918
  64.1030553  62.1954845  62.3239803  64.4332997  62.8241869  61.9916401
  52.6998102  66.6457991  61.3064535  52.8014238  67.4484153  61.6345511
  53.4953988  66.4445327  61.0087616  52.8326007  66.7343890  61.3099891
  66.5146474  57.6059573  65.1467506  66.6330042  58.0636036  64.4134809
  66.3408649  56.8004834  64.8603724  66.5065645  57.5553345  64.9968440
  52.9775156  69.2651202  62.4943929  53.3574121  69.6835747  61.8304196
  52.4030521  69.8464658  62.8012772  52.9486481  69.4129061  62.4420670
  63.4824037  59.4610375  66.0886168  62.6117595  59.4349096  66.0419478
  63.7364379  59.2887567  65.2712014  63.3917598  59.4320519  65.9606305
  60.4542017  71.5178342  55.0259311  60.7434542  72.2943225  55.3002886
  60.5413816  71.0067074  55.7273811  60.5096273  71.5570260  55.1701809
  59.4888720  66.0693526  60.9401723  59.7648454  65.3512438  60.5279290
  60.0887389  66.6678446  60.7322829  59.6181984  66.0513896  60.8482484
  62.9899240  63.7407043  59.2148318  63.4442987  63.9117603  59.9396162
  63.4639286  63.1275154  58.8146093  63.1267560  63.6757928  59.2622079
  60.3312260  70.4449577  60.3193325  61.0754305  70.8323854  60.5576275
  60.4772957  69.6007003  60.4833813  60.4622845  70.3780050  60.3787295
  65.2473636  66.9111605  59.2812998  64.7196654  66.9940349  58.5918707
  65.7069344  67.6529477  59.2777643  65.2375486  67.0332268  59.1787693
  57.2406701  65.1814125  54.3053893  56.8919505  65.8333850  54.7685443
  56.7603147  65.1671238  53.5777765  57.1176945  65.2757178  54.2664985
  57.6130610  67.8072655  59.8179938  57.7533571  68.3045119  60.5208579
  58.1113143  67.1058950  59.9594152  57.7071691  67.7774634  59.9431517
  57.6430832  68.6739766  57.1472515  58.2775912  69.2700191  57.0821976
  57.7256443  68.3743224  57.9618385  57.7487383  68.7180674  57.2575601
  59.2209815  64.6053742  57.1217957  59.5425656  64.1256824  56.4677219
  59.4836759  65.4153388  56.9308768  59.3075840  64.6543640  56.9973449
  54.1483820  70.8707607  60.4162061  54.6576049  71.4672115  60.7973366
  54.6218092  70.6033581  59.7338480  54.2927196  70.9193422  60.3716583
  63.0563193  60.4641035  62.8932013  62.4131511  60.3138682  63.4617151
  62.7162600  60.2183381  62.1281117  62.9108270  60.4053158  62.8635028
  56.5074352  67.5063866  63.2835241  55.7886341  67.9227998  63.5508105
  56.8786714  68.0718104  62.7326879  56.4566284  67.6513147  63.2418048
  62.2820926  66.5461865  58.6208621  61.6885765  66.8678862  58.0693188
  62.3196204  65.7002961  58.4129727  62.1995315  66.4686194  58.5091392
  58.2123505  65.0417916  63.3464566  58.6880871  65.4034996  62.7114748
  57.7112105  65.6974384  63.6264709  58.2088864  65.1912105  63.2941307
  60.2550158  67.1859116  56.7137950  60.6349123  67.2038745  55.9289065
  59.5142754  67.6313105  56.5928798  60.2018996  67.2540891  56.5801519
  61.0534912  74.0236622  58.1046740  60.2446235  73.7003296  58.0580050
  61.5609821  73.3169844  58.0374989  61.0084579  73.8717939  58.0877035
  60.2469329  63.4120644  59.3965582  61.0685023  63.5818957  59.1547277
  59.7838980  63.5667905  58.6731880  60.3000491  63.4602377  59.2537226
  36.7373132  -0.0452481  48.1647979  36.7067136   0.8092156  48.3366249
  37.3354481  -0.3457189  48.7234123  36.8210290   0.0364015  48.2722782
  29.9372817  -0.9576830  52.9200910  29.0810712  -0.7968332  52.9710026
  29.9840470  -1.8284766  52.9405971  29.8171928  -1.0626028  52.9306976
  24.3213956   8.5785888  48.6838141  23.5696856   8.2001426  48.4554186
  24.7699968   8.6104321  47.9356952  24.2763623   8.5271495  48.5395643
  33.2466533   5.3109695  62.5261366  33.9533301   4.8161726  62.6548300
  33.4354469   5.7518777  61.7964024  33.3794439   5.3028046  62.4370411
  29.7738916   9.0011257  44.1123688  29.4390285   9.6788179  43.6767910
  30.2865787   8.6116569  43.5240560  29.8004497   9.0435835  43.9610480
  29.3143208  10.9525526  50.0534800  29.6982587  11.5212425  49.5139575
  29.2502349  10.2275036  49.5740616  29.3616635  10.9300989  49.9028662
  32.7824638   1.1015214  55.5632561  33.3280598   1.7800300  55.6226531
  32.7241514   0.9602675  54.7034143  32.8540552   1.1807215  55.4444622
  25.8998713   8.5904280  50.9500914  26.0009076   7.7804634  51.2598041
  25.3040458   8.4961226  50.3200592  25.8271251   8.4569308  50.9027152
  34.5589706   2.5299821  46.4366289  34.4429232   3.2807507  46.8658427
  35.3545593   2.2723774  46.6862376  34.6594296   2.6034668  46.5370381
  25.7399452  13.5081869  52.3515770  26.3836908  13.9495033  52.7411928
  26.0655708  12.7035295  52.2646029  25.8831281  13.4547064  52.3961247
  19.0963757   4.6124566  50.5753247  18.8613941   3.7792219  50.4685516
  19.2349398   4.8929232  49.7614448  19.0819419   4.5308070  50.4395602
  26.4420032   6.5193844  47.7235631  26.7635873   7.0599051  47.1196940
  27.0892128   5.9490615  47.8557921  26.5846087   6.5153019  47.6542667
  28.4921740  -1.4790161  47.8070018  29.1901905  -1.3002034  48.2991481
  28.8074072  -2.0019822  47.1840408  28.6417077  -1.5296389  47.7872028
  21.1222977   0.3262579  55.7181124  20.9981674   0.9125024  56.3530943
  21.7741262  -0.1677226  56.0193399  21.1996627   0.3401383  55.8567053
  28.6809675   4.9080284  47.7949810  29.1203311   4.2997384  48.2404582
  28.5314338   4.5287657  47.0235275  28.7231141   4.7618755  47.7468977
  26.1481318   3.5024296  54.9968635  26.7930321   3.0096739  54.6779584
  26.3883095   3.6449082  55.8234713  26.2791903   3.4501738  55.0718168
  28.6867410   6.3479202  54.6475528  28.9690653   5.5530607  54.4262284
  29.4153570   6.8259789  54.6680589  28.8356973   6.3013798  54.6178543
  32.2819012   3.2607465  44.7480579  32.1970307   4.1168432  44.8930148
  32.7703395   2.9851789  45.4162738  32.3407909   3.3464787  44.8682660
  33.2137445  -0.1207741  46.2478314  32.6848917   0.0951893  46.9075620
  33.7362465   0.5728398  46.1679283  33.2125898   0.0135396  46.3333913
  38.6685498   5.4538564  51.6211358  37.8383201   5.6649207  51.7844775
  38.6194750   4.6275618  51.3453642  38.5392233   5.3628170  51.6048724
  25.1037053   3.7755476  45.0485782  24.5194268   4.2805508  45.4551646
  24.7007148   3.5497863  44.3082374  24.9576357   3.8163724  44.9990807
  20.6581082   9.4910237  51.8509454  20.1748660  10.2160727  51.8269037
  21.4704400   9.7886367  51.9619611  20.7071829   9.6412591  51.8636733
  26.7295236   8.2842418  54.4559268  26.2122177   7.9249833  53.8520576
  27.4269627   7.7604592  54.4665334  26.7560817   8.1540106  54.3689527
  30.3858828   8.7337232  60.4175441  30.4742173   8.5463372  61.2653651
  30.8148540   8.0874662  60.0180288  30.4620930   8.6100240  60.4847193
  27.9529287   8.0168392  59.3993103  27.3900122   7.6041002  59.9232764
  28.7150311   7.9421298  59.8186247  27.9823736   7.9445793  59.5386104
  29.5614267   0.0221128  43.5254703  29.8010271   0.2299112  42.7130046
  29.8830108  -0.7821363  43.6343647  29.6451425  -0.0664771  43.4215256
  23.5125279  10.0066413  52.0029733  24.2145858   9.4918402  52.0602490
  23.4322762  10.3340565  52.8076609  23.6049039   9.9780639  52.1302526
  38.1639456  -1.8991036  55.4161780  37.3267877  -1.8288848  55.6509374
  38.1327687  -1.8966541  54.5436082  38.0357739  -1.8880809  55.3221328
  22.8376054   6.1972765  51.5115341  23.6764954   6.4295698  51.5589103
  22.8687823   5.3277077  51.4422377  22.9657772   6.1029712  51.5079986
  23.4628757   6.6173640  55.8128647  24.0026982   6.4744771  56.4832019
  22.7798704   7.0170391  56.1812673  23.4420911   6.6553311  55.9663069
  32.8869642   2.2964641  51.0073671  33.6427157   2.7296155  51.0462580
  32.9931967   1.6469411  51.5808307  33.0139813   2.2642125  51.0971697
  35.9249813   6.1237918  51.7576074  35.4885045   6.1274661  52.5135046
  35.5912729   6.8043417  51.3255652  35.8112433   6.2250374  51.8056907
  30.4978887   8.1646251  63.0819225  31.2819303   8.2777099  63.4474967
  30.2975481   7.3387388  63.2777910  30.5844912   8.0592970  63.1653611
  18.8665902   2.8373931  55.9663068  18.6004318   2.0213048  56.1254059
  18.8804466   2.8827087  55.0958584  18.8290625   2.7230836  55.8616550
  22.7723649  -2.3640984  42.5814827  22.0581826  -2.6502805  42.9937259
  23.2567618  -2.0244359  43.2221214  22.7383013  -2.3559335  42.7370462
  30.6549280  10.0756353  56.7285680  29.8564526   9.8355853  56.9859549
  31.1035292  10.1270746  57.4752728  30.6023891  10.0478744  56.8770604
  39.0594159   2.8418838  50.6495712  39.7210594   2.2809507  50.5491620
  38.4185571   2.3470869  50.9748403  39.0623027   2.6855247  50.6828052
  29.9470967   6.1388970  42.9576635  30.3622116   5.8073993  42.2661131
  29.1162897   5.9057872  42.8296771  29.8858976   6.0560225  42.8367482
  19.2759316   3.6232711  53.2474813  19.0934889   3.5979597  52.3947105
  20.0108985   4.0931648  53.2863722  19.3573380   3.6894073  53.1272731
  35.3458990   3.8584221  50.3907700  35.5814579   4.0029419  49.5634551
  35.4948554   4.6226629  50.7839214  35.4024793   3.9923275  50.3271304
  37.1749447   2.6985886  48.2277304  37.5057664   3.2313527  47.6217399
  37.7482535   2.7524774  48.8839255  37.3083126   2.7855455  48.2355086
  32.3881336   0.5450789  48.9100884  32.4828190   1.2840083  49.3640510
  31.7640180   0.1168265  49.3435449  32.3090366   0.5912110  49.0409032
  30.6433810   3.7237002  59.5591165  31.2172672   3.0864246  59.7139729
  30.5648614   3.7241084  58.6900823  30.7167045   3.6302113  59.4537576
  19.2430226   0.5026211  53.3973879  19.8203729   0.3662662  54.0366125
  18.5444288   0.0461995  53.6519464  19.2251248   0.4148477  53.5296169
  32.6404357   2.3899529  42.1437836  32.5584520   2.4601716  43.0092823
  33.2784078   2.9529273  41.9521577  32.7224195   2.4838500  42.2427786
  25.9997528   2.1560267  51.6112363  25.7416773   1.3232002  51.5843662
  26.0546011   2.3817880  50.7704863  25.9697306   2.0658038  51.4832499
  24.9732241  -0.2901971  52.0977257  24.3981832  -0.1309802  52.7341218
  24.5967917  -0.9266562  51.6345708  24.8335053  -0.3604158  52.1231816
  28.6405529  -1.8178621  56.9569636  28.2519962  -2.2424404  56.3021827
  27.9760228  -1.5696472  57.4646662  28.4852457  -1.8439900  56.9357504
  29.7444468   2.4119983  45.1546443  30.5585106   2.7034876  45.0429214
  29.6803609   1.7579846  44.5804736  29.8547207   2.3585178  45.0535280
  35.9653958   5.0945979  59.5676018  35.7292595   4.2634044  59.4488079
  36.6097187   5.0431587  60.1530863  36.0248628   4.9643667  59.6361912
  25.6152376   5.8841501  50.2818755  26.2526323   5.6453248  50.8270548
  26.0407447   6.0878660  49.5471915  25.7728542   5.8792511  50.2535912
  20.3065018   8.1229837  54.1653059  20.3469163   8.3944688  53.3372838
  20.8659542   8.6471745  54.5810846  20.3948364   8.2405592  54.1044947
  26.2555191   1.1043790  44.6193644  26.6400344   0.8851497  45.3710189
  26.0066811   1.9306736  44.7494721  26.2757263   1.1941937  44.7494721
  36.9890378   4.8790428  55.6304313  36.6836195   5.6118485  55.9917628
  36.2696594   4.4728358  55.3497099  36.8377721   4.9272161  55.6417450
  27.9973848   6.3613923  51.9612541  28.0712856   6.1989095  52.8154391
  28.8143354   6.5504113  51.7173023  28.1290206   6.3650666  52.0510567
  42.6892170   1.5183429  54.9572657  42.6216671   1.5379388  54.0875244
  42.6747833   2.3613756  55.1828328  42.6770927   1.6457163  54.8625134
  21.7579604   6.7071786  48.9906985  20.9317722   6.9533523  48.8641263
  21.8191596   6.6283867  49.8569043  21.6453771   6.7316735  49.0995929
  26.5378433   9.3248666  46.6926014  26.8276732   8.9337648  45.9685241
  27.2681914   9.5065371  47.1331290  26.6885318   9.2942480  46.6508821
  40.4750788   0.2927815  53.2319251  41.0258709  -0.3404116  53.4716344
  40.4594903   0.8243208  53.9234756  40.5535984   0.2776763  53.3698110
  27.1273179   4.1266412  57.7779145  26.6284872   4.8382180  57.8564033
  27.9373403   4.4467079  57.7397307  27.1729285   4.2793261  57.7835713
  24.4784349  11.3016049  49.7586164  24.2584644  11.0113403  50.5512831
  24.2578871  10.6431004  49.2304077  24.4131943  11.1615757  49.7975073
  23.3901296   3.3889365  52.0241866  23.1014545   2.7626837  52.5587593
  24.2584644   3.3309653  52.0906546  23.4761548   3.2876910  52.1132820
  34.1779194  -1.4675851  52.3423848  33.8343960  -2.1885516  52.6931097
  34.2772237  -1.6762000  51.5002206  34.1421237  -1.6051648  52.2695528
  26.6452305  12.6745439  48.5416857  27.2976363  12.1421881  48.7707883
  25.9477913  12.3214091  48.9284731  26.6383023  12.5434962  48.6329024
  23.5933570   5.0284616  47.9484231  24.3479538   5.4097655  48.1619693
  23.0004182   5.4795760  48.4030927  23.6170283   5.1513444  48.0467109
  34.6392223   4.9949853  47.8847836  35.2050256   5.6543063  47.8006379
  33.9920127   5.3399551  48.3564238  34.6270980   5.1431794  47.9420592
  24.9131796   6.1993178  53.3224346  24.3912550   6.3393469  54.0076211
  25.3005817   5.4403842  53.5126464  24.8935497   6.1078702  53.4525423
  31.1098801   7.9388637  47.3084915  30.8685477   7.2056498  46.9011980
  31.2900134   8.4875494  46.6551248  31.1006425   7.9111028  47.1515138
  26.3398122   3.2297197  48.7205837  26.1440904   3.8371931  48.1266140
  26.5632467   2.5365141  48.2397511  26.3432763   3.2174722  48.5621918
  24.7376652   0.1151935  48.8386706  25.4599304   0.2793093  48.3790512
  24.2584645   0.8361599  48.7326045  24.7740383   0.2450164  48.7552320
  32.6970159  -3.5484267  54.2183391  31.8581260  -3.5222988  53.9821654
  32.7674527  -2.9013531  54.7988737  32.5838553  -3.4488141  54.2692507
  22.3884269   2.5210007  57.9440846  22.9005365   2.7994260  57.2949605
  22.1020611   3.2599301  58.3103659  22.4219132   2.6712361  57.9030724
  36.5727683   1.6583720  51.5044632  36.4861658   1.8139146  52.3579411
  36.1178163   2.3021796  51.1304037  36.4930940   1.7759475  51.5751739
  30.4453499  -1.0205533  50.1270192  30.1988214  -1.1009782  50.9606981
  30.7738622  -1.8052065  49.9332719  30.4574743  -1.1479267  50.2217715
  34.3401548   5.6877827  53.9156973  34.2015907   6.3858872  54.4205715
  33.5601546   5.5326483  53.5593155  34.2044775   5.7677993  53.9383247
  32.6779633   1.9874202  60.1679355  32.6727672   1.1154019  60.1721781
  33.3840627   2.1862371  59.6948810  32.7824637   1.8878076  60.0986390
  26.4050527   1.7151186  59.5393175  26.5493902   2.2952394  58.9036285
  26.7526175   2.0927483  60.2443030  26.4777988   1.8571890  59.5492170
  28.5770444   0.9141354  57.3218307  27.8293758   1.1072369  56.9166585
  28.7311969   0.0886574  57.0842428  28.4892872   0.8206466  57.2263712
  25.4778282   9.9053958  56.4054202  25.6267845   9.3456874  55.7527606
  26.2578284   9.9845959  56.7886721  25.6152375   9.8339523  56.3651151
  35.8354921   5.0456080  44.6773472  35.4561730   4.2593218  44.6702762
  35.1721166   5.5942937  44.5345117  35.6813396   5.0100904  44.6554269
  28.0031582  10.0768601  57.6838693  27.9275253   9.4077411  58.2389481
  27.9321441  10.7786389  58.1979359  27.9812189  10.0813508  57.8415541
  28.6601829   8.5969599  48.5162299  29.4251720   8.3279243  48.1944963
  28.5579919   8.1119610  49.2332361  28.7583325   8.4859164  48.5742126
  26.6954599  -3.2005991  55.0555534  25.9050674  -3.3814531  55.3772870
  27.0915222  -3.9779039  55.0385829  26.6371475  -3.3418530  55.1008083
  31.1820490   5.6281783  40.4962248  31.9493475   5.6881908  40.0868100
  30.7351799   5.0562225  40.0118566  31.2293917   5.5518359  40.3639958
  32.0798285   4.4336439  52.7814980  31.4043287   4.2021671  53.2828367
  32.0890661   3.8257622  52.1557085  31.9816790   4.3095364  52.7631132
  29.2092429  -0.7245732  59.5379033  29.1451570   0.1364224  59.4099170
  29.3489617  -1.0413739  58.7374584  29.2207899  -0.6445565  59.4007246
  34.0815020   7.2901571  45.0125158  34.1634857   8.0968558  44.6886609
  34.5664762   7.3097531  45.7365932  34.1652178   7.4122234  45.0712057
  27.8911523   1.9686407  53.6795236  27.4673772   2.1690906  52.9434254
  27.7156378   1.1215255  53.7919536  27.8022404   1.8735189  53.5868926
  27.3923217  13.4836920  56.1416693  27.8819147  12.7847710  55.9592358
  26.8207449  13.1860790  56.7292751  27.3807746  13.3363144  56.2017734
  23.1793968   2.4638459  49.1123209  23.3358587   2.3985262  49.9679201
  23.5194561   3.2387011  48.9001888  23.2527203   2.5687657  49.2077803
  29.7173113   1.8396342  47.9816572  30.2588658   1.3366723  48.4455192
  30.0319672   1.7861537  47.1706057  29.8437510   1.7575763  47.9300384
  33.5890220   6.0498990  65.0943484  34.4025085   5.7784139  65.2548617
  33.4285186   5.7506530  64.2903680  33.6860169   5.9653916  64.9988890
  27.8859562   7.2313694  45.2656600  27.9552383   6.3728232  45.4049600
  28.6648018   7.4485575  44.9375624  28.0112412   7.1366558  45.2373757
  30.8662382  -3.2667353  58.0338872  31.0804352  -3.9056439  57.4802226
  30.2496281  -2.8221529  57.6046734  30.8067711  -3.2957209  57.8889303
  19.7528230  -0.3526591  49.4283976  20.1327194   0.0657954  48.7644243
  19.1783594   0.2286865  49.7352819  19.7239554  -0.2048732  49.3760717
  33.0301470  -1.6578288  58.9722179  32.2178152  -1.9652398  59.0535352
  33.4891405  -2.1379288  59.5364892  32.9781855  -1.7741796  59.0676774
  32.4406725   6.2201384  49.4199124  32.0821379   6.3916027  50.1963156
  31.9545436   6.6814590  48.8627122  32.3165422   6.3140355  49.4524393
  27.2295090   1.9000549  41.9599358  27.5187615   2.6765432  42.2342932
  27.3166889   1.3889281  42.6613857  27.2849346   1.9392468  42.1041856
  33.6011464   7.1105280  60.3666325  34.2391185   6.6165476  60.0328781
  32.9585556   7.0382680  59.7818551  33.6005691   7.0264289  60.2308680
  35.3268464  -1.0405574  54.9332240  34.8996072  -1.1279225  54.1780340
  34.6894517  -0.9327799  55.5187084  35.1698071  -1.0372914  54.9077682
  33.6565721   7.8025088  57.0071681  34.4458099   7.4514153  57.1273763
  33.8309319   8.6161477  56.7448315  33.7986002   7.8710945  56.9859549
  23.3959031   1.2133814  54.0599470  22.5547038   1.1137688  54.2678364
  23.6049039   1.9829294  54.4113791  23.3023724   1.3125857  54.1426785
  20.8734598  -1.1646649  51.8884221  20.4791296  -1.0903637  51.1134331
  20.3174715  -0.7788703  52.4392583  20.7337410  -1.0964874  51.8551881
  27.2075696  -0.8584787  53.3097068  26.9038833  -1.4128799  53.9107475
  26.5055117  -0.6792577  52.8225102  27.0591906  -0.9140004  53.3266773
  26.2641793  -3.5484267  47.8741770  26.5401527  -4.2665354  47.4619337
  26.8640462  -2.9499347  47.6662876  26.3935058  -3.5663896  47.7822531
  25.2694047   6.3564934  58.0169166  25.1614402   6.3666996  58.8831224
  25.4789828   7.1819714  57.8274119  25.2844158   6.4806009  58.1173257
  23.2867839   3.6077576  55.4791103  22.6955772   4.2487075  55.4494118
  24.0488863   4.0315194  55.4522403  23.3116100   3.7653415  55.4706250
  39.4058261   3.4383346  56.4768381  39.4641384   3.8869995  57.2228358
  38.7724728   3.8482159  56.0398461  39.3209556   3.5657081  56.5220930
  33.0457355   9.0586888  52.9123128  32.8477044   9.5477702  52.2179339
  32.4245066   9.2628129  53.4907261  32.9244920   9.1603426  52.8946351
  27.1065334   0.8271785  47.2533372  27.8507379   1.2146061  47.4916322
  27.2526030  -0.0170790  47.4173860  27.2375919   0.7602258  47.3127342
  30.0943209  -3.6002742  53.1527291  29.6203164  -4.1260980  53.6632602
  30.4661345  -4.1473269  52.5842153  30.0793098  -3.7586745  53.1442438
  36.3579940   1.4599634  54.5634072  36.1178163   0.6206049  54.5676498
  36.8371947   1.5399800  55.2874845  36.3932124   1.3481033  54.6708874
  32.0226709  -2.7066187  46.2153045  31.4949728  -2.6237443  45.5258754
  32.4822417  -1.9648316  46.2117690  32.0128560  -2.5845525  46.1127740
  38.3585127  -1.7598909  52.5163331  38.1194897  -1.8003075  51.6784115
  38.5219028  -0.9127757  52.6429052  38.3475430  -1.6406824  52.4116813
  34.9631157   2.6251040  58.4468376  35.6865356   2.1723567  58.2679396
  34.6981119   2.9055706  57.6640704  35.0312430   2.6002009  58.3047091
  23.8318026  -2.7788786  55.1821255  23.2071096  -2.7670394  54.5747208
  23.4963620  -2.3028611  55.8312495  23.6903517  -2.7070269  55.1877824
  20.5443701   5.2811674  56.6225019  20.0143626   4.5904113  56.6719994
  20.8168794   5.2721859  55.7937728  20.5068423   5.1778806  56.5072435
  31.5763792   5.8637376  45.3462702  32.2997990   6.3295489  45.2027275
  31.1364383   5.9310986  44.5960299  31.6179484   5.9421213  45.2147483
  30.7449947   2.7234918  56.5963391  30.1306940   2.1792969  56.8912026
  31.2617232   2.2099155  56.1169207  30.7305609   2.5671327  56.5687619
  29.9846244   3.7939188  54.3307690  29.5573852   3.1688907  53.8973125
  29.9771188   3.5114110  55.1566697  29.9205385   3.6591969  54.3887517
  15.8239543   1.9539438  53.9793368  15.7182992   1.9086282  53.1145452
  15.0739763   2.2993219  54.2607653  15.6975146   1.9980346  53.8930697
  26.0147639  -0.0860729  56.2229867  25.1839569   0.0813089  56.0165115
  25.9599156  -0.4624778  57.0078752  25.8837054  -0.1170998  56.3078395
  24.3883683  -1.8105137  46.7519985  24.5286644  -1.3132673  47.4548626
  24.8866216  -2.5118843  46.8934198  24.4824764  -1.8403159  46.8771564
  24.4183905  -0.9438026  44.0812561  25.0528985  -0.3477601  44.0162023
  24.5009516  -1.2434569  44.8958432  24.5240456  -0.8997118  44.1915648
  37.3966471   1.5877451  56.9498926  37.9884311   2.2274702  56.9817124
  37.8325466   0.8900488  57.2390992  37.5484902   1.5795801  56.9979758
  25.9962888  -5.0124051  44.0558003  26.3178729  -5.4920968  43.4017266
  26.2589832  -4.2024405  43.8648815  26.0828914  -4.9634153  43.9313496
  29.2259861   6.0094823  57.5756820  28.7184952   6.5630670  58.0197450
  28.9286507   6.0703113  56.7575594  29.1064746   6.1001135  57.5205276
  20.9236893   1.2529814  47.3502108  21.4329123   1.8494322  47.7313413
  21.3971165   0.9855788  46.6678527  21.0680269   1.3015630  47.3056630
  31.8367641   9.9258081  45.5060763  31.1196951   9.7518943  45.0408000
  32.4874379   9.6910653  44.9736249  31.8269492   9.8653874  45.3589981
  34.4215612  -1.1977330  49.2502068  33.7506802  -0.6547628  49.1215134
  35.1155363  -0.7282475  49.0083763  34.4244480  -1.0479059  49.1957596
  28.4702346  10.9419382  54.4813826  28.2468001  10.1838211  54.8497853
  27.9812190  10.9717403  53.7594266  28.3645795  10.8341606  54.4290567
  23.2827425  -2.1113927  50.2175288  22.5639414  -1.6949794  50.4848151
  23.6539787  -1.5459688  49.6666926  23.2319357  -1.9664646  50.1758095
  32.5827006  -1.4786078  56.1077284  32.5624933  -1.6602783  56.9612063
  32.6306206  -0.6074060  56.0836867  32.5861647  -1.3769540  56.2300578
  30.5273336   5.1101114  62.0325760  30.4869190   4.4650791  61.4470916
  31.3396654   5.0537731  62.3451172  30.6416489   5.0060081  61.9922709
  27.1180803  11.1619840  51.9350911  26.7041202  10.4993970  51.5454753
  27.8028177  11.3097699  51.4146605  27.1579175  11.0860498  51.8007408
  30.4846097  10.3209925  52.6874528  30.0862381  10.4312195  51.9195348
  29.8697317  10.5291991  53.2701087  30.3344987  10.3683493  52.6605827
  29.0573999  -3.0715927  45.5548667  28.4638839  -2.7498931  45.0033234
  29.0949277  -3.9174832  45.3469774  28.9748388  -3.1491599  45.4431439
  31.9331816  -3.1136423  48.9850418  31.7045509  -3.0903721  48.1428776
  32.1929892  -3.9378956  49.1045428  31.9378004  -3.2320343  48.8775615
  24.9876578  -4.5759876  50.2804613  25.4633945  -4.2142796  49.6454794
  24.4865178  -3.9203409  50.5604756  24.9841937  -4.4265688  50.2281354
  38.2187940   4.8961892  46.0717618  38.6021546   5.6453248  46.3015715
  37.4232053   5.1427711  45.8129607  38.1581722   5.0431586  46.0675192
  27.0303232  -2.4318677  43.6477997  27.4102196  -2.4139047  42.8629112
  26.2895828  -1.9864688  43.5268845  26.9772069  -2.3636902  43.5141565
  32.3829374   0.5561016  52.8889783  32.8783039  -0.1615988  52.8493803
  31.5729150   0.2531814  52.7744270  32.3373267   0.4058663  52.8663509
  27.8287986   4.4058830  45.0386787  27.0199308   4.0825503  44.9920097
  28.3362895   3.6992052  44.9715036  27.7837652   4.2540146  45.0217082
  18.4578263   1.8331023  50.7634152  17.5923782   1.8216713  50.6516923
  18.5577079   1.6461246  51.6105291  18.3452430   1.8037084  50.8723096
  34.4481193   3.3064704  55.5766912  34.8736265   2.7839126  55.0237337
  34.0838113   3.9045541  55.0555535  34.4567796   3.3174931  55.4175921
  24.0835273  11.6028921  54.3364257  24.3981832  12.4165310  54.3442039
  24.4928686  11.2179140  55.0046416  24.1903371  11.6657624  54.4368349
  31.0359792   7.0198968  51.9068069  31.5070971   7.7339231  52.0758054
  31.3719971   6.4197718  52.4427939  31.1554907   7.0370433  52.0100445
  33.1236777   8.6300282  64.0860141  33.2333742   7.8408842  64.4416888
  33.4527674   8.5406218  63.2834479  33.1889183   8.5006135  64.0202532
  31.6733739   6.8116902  58.6695762  31.1254685   6.1874786  58.4015827
  32.1346767   7.0011174  57.9539841  31.6600948   6.7475953  58.5246193
  21.4248293   5.5502030  53.9842865  22.0293150   5.5097864  53.3556686
  21.2175605   6.3973182  54.0146921  21.4837190   5.6690032  53.8958982
  31.2392065   7.8167975  55.2005103  32.0590439   7.6730941  55.4621398
  30.9586143   8.4414174  55.7421541  31.3188808   7.8878327  55.3193042
  16.6599575   4.5336647  53.8541789  16.5623853   3.7232919  54.1631845
  17.4428445   4.5128441  53.4688057  16.7615712   4.4103738  53.8428652
  40.9105400  14.5608478  52.9200910  40.0543296  14.7216976  52.9710026
  40.9573054  13.6900542  52.9405971  40.7904512  14.4559280  52.9306976
  44.2199117  20.8295003  62.5261366  44.9265884  20.3347034  62.6548300
  44.4087052  21.2704085  61.7964024  44.3527022  20.8213354  62.4370411
  43.7557221  16.6200522  55.5632561  44.3013181  17.2985608  55.6226531
  43.6974098  16.4787983  54.7034143  43.8273136  16.6992523  55.4444622
  36.7132036  29.0267177  52.3515770  37.3569491  29.4680341  52.7411928
  37.0388291  28.2220603  52.2646029  36.8563864  28.9732372  52.3961247
  30.0696340  20.1309874  50.5753247  29.8346525  19.2977527  50.4685516
  30.2081981  20.4114540  49.7614448  30.0552003  20.0493378  50.4395602
  32.3686428  12.2995605  53.4737555  31.7491460  11.7088252  53.3047570
  32.2670291  12.8907040  52.8401878  32.2624103  12.2999687  53.3542545
  39.4654324  14.0395147  47.8070018  40.1634488  14.2183274  48.2991481
  39.7806656  13.5165486  47.1840408  39.6149661  13.9888919  47.7872028
  32.0955561  15.8447887  55.7181124  31.9714258  16.4310332  56.3530943
  32.7473845  15.3508082  56.0193399  32.1729210  15.8586691  55.8567053
  39.6542259  20.4265592  47.7949810  40.0935894  19.8182692  48.2404582
  39.5046922  20.0472965  47.0235275  39.6963725  20.2804063  47.7468977
  37.1213902  19.0209604  54.9968635  37.7662904  18.5282047  54.6779584
  37.3615679  19.1634390  55.8234713  37.2524487  18.9687046  55.0718168
  39.6599993  21.8664509  54.6475528  39.9423236  21.0715915  54.4262284
  40.3886154  22.3445097  54.6680589  39.8089557  21.8199106  54.6178543
  37.6381187   9.4087543  51.8891293  37.3084517   9.8598687  51.2194992
  36.9626189   9.3303707  52.4364299  37.4891623   9.4638679  51.8714516
  44.8457595   5.3973066  50.1340903  44.5311036   6.0876545  50.5661326
  44.3284537   5.3417849  49.4326404  44.7222065   5.4907955  50.0937853
  49.6418082  20.9723872  51.6211358  48.8115785  21.1834515  51.7844775
  49.5927334  20.1460926  51.3453642  49.5124817  20.8813478  51.6048724
  36.0769637  19.2940784  45.0485782  35.4926852  19.7990815  45.4551646
  35.6739732  19.0683171  44.3082374  35.9308940  19.3349032  44.9990807
  31.6313665  25.0095545  51.8509454  31.1481243  25.7346035  51.8269037
  32.4436983  25.3071675  51.9619611  31.6804413  25.1597899  51.8636733
  37.7027819  23.8027726  54.4559268  37.1854761  23.4435141  53.8520576
  38.4002210  23.2789900  54.4665334  37.7293400  23.6725414  54.3689527
  41.3591411  24.2522540  60.4175441  41.4474757  24.0648680  61.2653651
  41.7881124  23.6059969  60.0180288  41.4353514  24.1285548  60.4847193
  38.9261871  23.5353700  59.3993103  38.3632706  23.1226310  59.9232764
  39.6882894  23.4606606  59.8186247  38.9556320  23.4631100  59.5386104
  40.5346851  15.5406436  43.5254703  40.7742855  15.7484420  42.7130046
  40.8562692  14.7363945  43.6343647  40.6184009  15.4520537  43.4215256
  35.8437141   7.4699832  47.3714241  36.5983109   7.8378149  47.1331291
  35.6664676   7.8439386  48.1393420  35.9291620   7.5798020  47.4499129
  34.4857862  25.5251721  52.0029733  35.1878442  25.0103710  52.0602490
  34.4055345  25.8525872  52.8076609  34.5781623  25.4965947  52.1302526
  49.1372040  13.6194272  55.4161780  48.3000461  13.6896459  55.6509374
  49.1060271  13.6218767  54.5436082  49.0090322  13.6304499  55.3221328
  35.5336769  15.7627308  61.1310149  35.7057273  15.6533203  61.9795430
  36.0706126  16.4081713  60.8941341  35.6381773  15.8419310  61.2215245
  34.1994206   9.8770151  44.0692354  34.0169779  10.0942032  43.2433346
  35.0619819   9.9909164  44.1250968  34.2998795   9.9260049  43.9546841
  33.8108638  21.7158073  51.5115341  34.6497537  21.9481006  51.5589103
  33.8420407  20.8462384  51.4422377  33.9390355  21.6215020  51.5079986
  34.4361341  22.1358948  55.8128647  34.9759566  21.9930079  56.4832019
  33.7531287  22.5355699  56.1812673  34.4153495  22.1738619  55.9663069
  39.8793925   6.8796562  47.1041377  40.6080085   6.7012516  46.6579534
  39.9688818   7.7214641  47.3148555  40.0000587   6.9780440  47.0694895
  43.8602226  17.8149949  51.0073671  44.6159741  18.2481463  51.0462580
  43.9664550  17.1654719  51.5808307  43.9872396  17.7827433  51.0971697
  46.8982397  21.6423226  51.7576074  46.4617629  21.6459969  52.5135046
  46.5645312  22.3228725  51.3255652  46.7845017  21.7435682  51.8056907
  41.4711470  23.6831559  63.0819225  42.2551887  23.7962407  63.4474967
  41.2708065  22.8572696  63.2777910  41.5577496  23.5778278  63.1653611
  29.8398486  18.3559239  55.9663068  29.5736901  17.5398356  56.1254059
  29.8537050  18.4012395  55.0958584  29.8023208  18.2416144  55.8616550
  46.8179880   8.6837054  54.0005502  47.4605788   8.7535159  54.5867418
  47.0702900   8.0166277  53.4985044  46.9502012   8.5963403  54.0132781
  33.7456233  13.1544323  42.5814827  33.0314410  12.8682503  42.9937259
  34.2300202  13.4940949  43.2221214  33.7115596  13.1625973  42.7370462
  34.5897092  11.8937617  58.6130076  33.8968889  11.4234597  58.8590808
  35.2057420  11.6675922  59.1871783  34.5781622  11.7904749  58.7339229
  41.6281864  25.5941661  56.7285680  40.8297110  25.3541161  56.9859549
  42.0767875  25.6456054  57.4752728  41.5756475  25.5664052  56.8770604
  50.0326743  18.3604146  50.6495712  50.6943177  17.7994815  50.5491620
  49.3918155  17.8656177  50.9748403  50.0355611  18.2040555  50.6828052
  30.2491900  19.1418018  53.2474813  30.0667473  19.1164904  52.3947105
  30.9841568  19.6116956  53.2863722  30.3305963  19.2079381  53.1272731
  46.3191574  19.3769528  50.3907700  46.5547163  19.5214727  49.5634551
  46.4681137  20.1411936  50.7839214  46.3757377  19.5108583  50.3271304
  33.3137651  15.8603021  59.7556921  34.0377624  15.8456052  60.2421816
  33.4153788  16.5698377  59.2578890  33.4355860  15.9627725  59.7535708
  40.6882601  19.3402106  64.6205868  39.8955581  19.6545618  64.8058488
  40.8031528  19.5553574  63.7826653  40.5878011  19.4185943  64.5244203
  43.3613920  16.0636097  48.9100884  43.4560774  16.8025391  49.3640510
  42.7372763  15.6353573  49.3435449  43.2822950  16.1097418  49.0409032
  41.6166393  19.2422310  59.5591165  42.1905255  18.6049554  59.7139729
  41.5381197  19.2426392  58.6900823  41.6899628  19.1487421  59.4537576
  30.2162810  16.0211519  53.3973879  30.7936313  15.8847970  54.0366125
  29.5176872  15.5647303  53.6519464  30.1983831  15.9333785  53.5296169
  36.9730112  17.6745575  51.6112363  36.7149356  16.8417310  51.5843662
  37.0278595  17.9003188  50.7704863  36.9429890  17.5843346  51.4832499
  42.0531162   9.7774026  51.7116455  41.3487489   9.2883211  51.8700374
  42.1016137   9.7896500  50.8404900  41.9561214   9.7063673  51.6055795
  35.9464824  15.2283337  52.0977257  35.3714415  15.3875506  52.7341218
  35.5700501  14.5918746  51.6345708  35.8067637  15.1581150  52.1231816
  39.6138113  13.7006687  56.9569636  39.2252546  13.2760904  56.3021827
  38.9492811  13.9488836  57.4646662  39.4585041  13.6745408  56.9357504
  49.2561382  13.4581691  49.7317466  48.9997947  12.6461633  49.5415349
  50.0990696  13.4659258  49.5047653  49.3427407  13.3393689  49.6702283
  25.6921643  14.8723412  50.1121698  25.7781895  14.4955280  50.8935228
  26.3197441  14.4983858  49.6341656  25.7978194  14.7608894  50.1567175
  43.4364474   7.3981315  54.4693620  43.8174986   6.7159486  54.8561494
  42.6327759   7.1090917  54.2869284  43.3740936   7.2548364  54.4997676
  40.7177051  17.9305291  45.1546443  41.5317690  18.2220184  45.0429214
  40.6536192  17.2765154  44.5804736  40.8279790  17.8770486  45.0535280
  46.9386541  20.6131287  59.5676018  46.7025179  19.7819352  59.4488079
  47.5829770  20.5616894  60.1530863  46.9981212  20.4828975  59.6361912
  36.5884959  21.4026809  50.2818755  37.2258906  21.1638556  50.8270548
  37.0140031  21.6063968  49.5471915  36.7461126  21.3977819  50.2535912
  31.2797602  23.6415145  54.1653059  31.3201747  23.9129996  53.3372838
  31.8392126  24.1657053  54.5810846  31.3680948  23.7590900  54.1044947
  37.2287774  16.6229098  44.6193644  37.6132927  16.4036805  45.3710189
  36.9799395  17.4492044  44.7494721  37.2489847  16.7127245  44.7494721
  37.3956315   9.9035514  64.3356228  37.0809756  10.6735076  64.0725791
  37.0746247   9.3405770  63.7508455  37.3015234   9.9345782  64.2097578
  47.9622962  20.3975736  55.6304313  47.6568779  21.1303793  55.9917628
  47.2429178  19.9913666  55.3497099  47.8110304  20.4457469  55.6417450
  38.9706431  21.8799231  51.9612541  39.0445440  21.7174403  52.8154391
  39.7875938  22.0689421  51.7173023  39.1022790  21.8835974  52.0510567
  53.6624754  17.0368737  54.9572657  53.5949254  17.0564696  54.0875244
  53.6480416  17.8799064  55.1828328  53.6503511  17.1642471  54.8625134
  32.7312188  22.2257094  48.9906985  31.9050306  22.4718831  48.8641263
  32.7924179  22.1469175  49.8569043  32.6186355  22.2502043  49.0995929
  34.9488212   8.2926035  49.9502425  34.0810637   8.3648635  50.0160034
  35.2363416   9.0948114  50.1390400  34.8627960   8.4220182  49.9877191
  44.0721101   8.4403894  58.2813747  44.8174693   8.2513705  57.8677172
  43.6558405   8.9662132  57.7227603  44.1206075   8.4906040  58.1378320
  51.4483371  15.8113123  53.2319251  51.9991293  15.1781192  53.4716344
  51.4327487  16.3428516  53.9234756  51.5268568  15.7962071  53.3698110
  38.1005762  19.6451720  57.7779145  37.6017456  20.3567488  57.8564033
  38.9105987  19.9652387  57.7397307  38.1461869  19.7978569  57.7835713
  34.3633880  18.9074673  52.0241866  34.0747128  18.2812144  52.5587593
  35.2317228  18.8494961  52.0906546  34.4494132  18.8062217  52.1132820
  45.1511778  14.0509457  52.3423848  44.8076543  13.3299792  52.6931097
  45.2504820  13.8423308  51.5002206  45.1153820  13.9133660  52.2695528
  45.6124807  20.5135161  47.8847836  46.1782839  21.1728371  47.8006379
  44.9652710  20.8584859  48.3564238  45.6003563  20.6617102  47.9420592
  37.0272820  12.5032765  63.0741443  36.2172596  12.8090544  62.9631285
  37.5047507  13.2238347  63.1894027  36.9776299  12.6547366  63.0748514
  35.8864380  21.7178486  53.3224346  35.3645133  21.8578777  54.0076211
  36.2738400  20.9589150  53.5126464  35.8668081  21.6264009  53.4525423
  32.8755564  11.7684294  47.3919301  32.5880360  11.3985565  46.6551248
  33.5626032  12.2379150  47.1303006  32.9344461  11.7831264  47.2434377
  37.3130705  18.7482505  48.7205837  37.1173488  19.3557239  48.1266140
  37.5365051  18.0550449  48.2397511  37.3165346  18.7360030  48.5621918
  35.7109235  15.6337243  48.8386706  36.4331887  15.7978401  48.3790512
  35.2317228  16.3546907  48.7326045  35.7472966  15.7635472  48.7552320
  43.6702743  11.9701041  54.2183391  42.8313844  11.9962320  53.9821654
  43.7407110  12.6171777  54.7988737  43.5571137  12.0697167  54.2692507
  33.3616852  18.0395315  57.9440846  33.8737949  18.3179568  57.2949605
  33.0753195  18.7784609  58.3103659  33.3951715  18.1897669  57.9030724
  42.1172021   8.8686418  48.9511007  42.8198374   8.6694167  48.4730965
  41.8516210   8.0962361  49.2579850  42.1818654   8.7249384  48.9256448
  47.5460267  17.1769028  51.5044632  47.4594241  17.3324454  52.3579411
  47.0910747  17.8207104  51.1304037  47.4663523  17.2944783  51.5751739
  30.4483758  12.5465507  48.2404582  30.5499895  13.3491668  48.5685557
  31.2439645  12.3452843  47.9427663  30.5811664  12.6351406  48.2439937
  36.8800578  10.1321704  58.0041887  36.6883775  10.1476838  58.8541311
  37.7299173  10.3285378  57.9808542  36.9776299  10.1636055  58.1265182
  31.2647491  12.6612685  55.9825704  31.1232982  11.8096626  56.1070212
  31.5488054  12.7041346  55.1587910  31.2855337  12.5412435  55.8793328
  41.4186083  14.4979775  50.1270192  41.1720797  14.4175526  50.9606981
  41.7471206  13.7133243  49.9332719  41.4307326  14.3706041  50.2217715
  45.3134132  21.2063135  53.9156973  45.1748491  21.9044180  54.4205715
  44.5334130  21.0511791  53.5593155  45.1777359  21.2863301  53.9383247
  43.6512217  17.5059510  60.1679355  43.6460255  16.6339326  60.1721781
  44.3573211  17.7047679  59.6948810  43.7557221  17.4063384  60.0986390
  37.3783110  17.2336494  59.5393175  37.5226486  17.8137702  58.9036285
  37.7258759  17.6112791  60.2443030  37.4510572  17.3757198  59.5492170
  39.5503028  16.4326662  57.3218307  38.8026342  16.6257677  56.9166585
  39.7044553  15.6071882  57.0842428  39.4625455  16.3391774  57.2263712
  36.4510865  25.4239266  56.4054202  36.6000429  24.8642182  55.7527606
  37.2310867  25.5031267  56.7886721  36.5884959  25.3524831  56.3651151
  38.9764166  25.5953909  57.6838693  38.9007837  24.9262719  58.2389481
  38.9054025  26.2971697  58.1979359  38.9544773  25.5998816  57.8415541
  39.7904805  10.3277213  58.2113710  40.2477419  11.0601187  58.3386502
  39.8661133   9.9043678  58.9700966  39.8695774  10.3734451  58.3414787
  32.0337796  10.5743033  59.3003154  31.4979985   9.9623391  59.6163921
  32.0955561  11.1491169  59.9536821  31.9633428  10.5689960  59.4438581
  44.2632131   3.5067088  52.0807553  44.3815699   3.9643551  51.3474856
  44.0894306   2.7012349  51.7943771  44.2551301   3.4560860  51.9308487
  37.6687182  12.3179317  55.0555534  36.8783257  12.1370777  55.3772870
  38.0647805  11.5406269  55.0385829  37.6104059  12.1766778  55.1008083
  43.0530869  19.9521747  52.7814980  42.3775871  19.7206979  53.2828367
  43.0623245  19.3442930  52.1557085  42.9549373  19.8280672  52.7631132
  40.1825013  14.7939576  59.5379033  40.1184154  15.6549532  59.4099170
  40.3222200  14.4771569  58.7374584  40.1940483  14.8739743  59.4007246
  38.8644107  17.4871715  53.6795236  38.4406356  17.6876214  52.9434254
  38.6888962  16.6400563  53.7919536  38.7754987  17.3920497  53.5868926
  38.3655800  29.0022228  56.1416693  38.8551730  28.3033018  55.9592358
  37.7940032  28.7046098  56.7292751  38.3540330  28.8548452  56.2017734
  34.1526552  17.9823767  49.1123209  34.3091171  17.9170570  49.9679201
  34.4927145  18.7572319  48.9001888  34.2259786  18.0872965  49.2077803
  40.6905696  17.3581650  47.9816572  41.2321242  16.8552031  48.4455192
  41.0052255  17.3046845  47.1706057  40.8170093  17.2761071  47.9300384
  44.5622804  21.5684298  65.0943484  45.3757669  21.2969447  65.2548617
  44.4017770  21.2691838  64.2903680  44.6592752  21.4839224  64.9988890
  41.8394966  12.2517955  58.0338872  42.0536935  11.6128869  57.4802226
  41.2228865  12.6963779  57.6046734  41.7800295  12.2228099  57.8889303
  30.7260813  15.1658717  49.4283976  31.1059778  15.5843262  48.7644243
  30.1516178  15.7472173  49.7352819  30.6972138  15.3136576  49.3760717
  44.0034054  13.8607020  58.9722179  43.1910735  13.5532910  59.0535352
  44.4623988  13.3806020  59.5364892  43.9514438  13.7443512  59.0676774
  43.4139308  21.7386692  49.4199124  43.0553963  21.9101335  50.1963156
  42.9278019  22.1999898  48.8627122  43.2898005  21.8325663  49.4524393
  41.2309694   5.3617890  53.0226215  40.3603252   5.3356612  52.9759525
  41.4850036   5.1895083  52.2052061  41.1403254   5.3328034  52.8946352
  38.2027674  17.4185857  41.9599358  38.4920199  18.1950740  42.2342932
  38.2899473  16.9074589  42.6613857  38.2581930  17.4577776  42.1041856
  41.0987561  15.2667091  63.7550882  41.5687192  15.8909208  64.1418756
  41.1449441  14.5984067  64.3144096  41.1755437  15.2601772  63.8950953
  38.2558835   7.3724119  54.4799685  37.7397323   6.6804310  54.6051264
  37.6952764   8.0394896  54.4262284  38.0965348   7.3687377  54.4905751
  40.3251068   7.9117079  56.3092538  39.9382821   7.9366110  57.0906068
  39.8384006   7.3458758  55.8567055  40.1963577   7.8312830  56.3580442
  44.5744048  22.6290588  60.3666325  45.2123768  22.1350784  60.0328781
  43.9318139  22.5567988  59.7818551  44.5738274  22.5449596  60.2308680
  46.3001048  14.4779734  54.9332240  45.8728656  14.3906082  54.1780340
  45.6627101  14.5857509  55.5187084  46.1430655  14.4812394  54.9077682
  39.9908210   4.7984064  58.6002798  40.6201328   5.3344364  58.3223868
  40.1594073   4.7061423  59.4516364  40.1086005   4.8645427  58.6851326
  39.7922125   9.5855259  60.8729210  40.6195554   9.3140408  60.9287824
  39.8129971  10.3816101  61.2293028  39.9174975   9.6635013  60.9344392
  44.6298304  23.3210396  57.0071681  45.4190682  22.9699461  57.1273763
  44.8041902  24.1346785  56.7448315  44.7718586  23.3896253  56.9859549
  34.3691615  16.7319122  54.0599470  33.5279621  16.6322996  54.2678364
  34.5781623  17.5014602  54.4113791  34.2756307  16.8311165  54.1426785
  31.8467182  14.3538659  51.8884221  31.4523879  14.4281671  51.1134331
  31.2907298  14.7396605  52.4392583  31.7069994  14.4220434  51.8551881
  43.4832128   7.3319953  51.5688100  43.6881722   7.2642261  52.4145097
  43.1558552   8.1378774  51.5009277  43.4647376   7.4405893  51.6847755
  38.1808280  14.6600521  53.3097068  37.8771417  14.1056509  53.9107475
  37.4787700  14.8392731  52.8225102  38.0324489  14.6045303  53.3266773
  37.2374377  11.9701041  47.8741770  37.5134111  11.2519953  47.4619337
  37.8373046  12.5685961  47.6662876  37.3667641  11.9521412  47.7822531
  36.2426631  21.8750242  58.0169166  36.1346985  21.8852304  58.8831224
  36.4522412  22.7005022  57.8274119  36.2576742  21.9991317  58.1173257
  46.7365816   7.8851717  51.0490865  46.1240130   8.3722119  51.4344597
  46.8329991   7.2095208  51.5928516  46.6603714   7.8570026  51.1869723
  40.7384897   9.6414558  46.1488365  41.1928644   9.8125119  46.8736209
  41.2124943   9.0282669  45.7486140  40.8753217   9.5765444  46.1962126
  34.2600423  19.1262884  55.4791103  33.6688356  19.7672382  55.4494118
  35.0221446  19.5500502  55.4522403  34.2848683  19.2838723  55.4706250
  34.6561045  10.2864882  56.1459121  35.1162527  10.3603811  56.8834244
  34.7017152  11.0846136  55.7958942  34.7311601  10.4159029  56.2031877
  36.3044395  10.9531577  60.7131148  35.9129960  10.3064924  61.1486926
  36.4730258  11.5443012  61.3325403  36.2715305  10.9445845  60.8693854
  50.3790844  18.9568654  56.4768381  50.4373968  19.4055303  57.2228358
  49.7457312  19.3667467  56.0398461  50.2942139  19.0842389  56.5220930
  44.0189939  24.5772196  52.9123128  43.8209627  25.0663010  52.2179339
  43.3977650  24.7813437  53.4907261  43.8977503  24.6788734  52.8946351
  38.0797917  16.3457093  47.2533372  38.8239962  16.7331369  47.4916322
  38.2258613  15.5014518  47.4173860  38.2108502  16.2787565  47.3127342
  39.9977493   8.1407352  52.2865233  39.1513538   8.3130159  52.1606583
  39.9948625   7.3356695  52.6231062  39.8724643   8.0468381  52.3176360
  41.0675793  11.9182566  53.1527291  40.5935747  11.3924328  53.6632602
  41.4393929  11.3712039  52.5842153  41.0525682  11.7598563  53.1442438
  31.4448823  13.9154073  58.5210837  32.3074436  13.8149782  58.4348167
  31.1140606  13.3348782  57.9596409  31.5234020  13.8145699  58.4256243
  47.3312524  16.9784942  54.5634072  47.0910746  16.1391357  54.5676498
  47.8104531  17.0585108  55.2874845  47.3664707  16.8666341  54.6708874
  42.9959293  12.8119121  46.2153045  42.4682311  12.8947865  45.5258754
  43.4555001  13.5536992  46.2117690  42.9861143  12.9339783  46.1127740
  49.3317711  13.7586399  52.5163331  49.0927481  13.7182233  51.6784115
  49.4951612  14.6057551  52.6429052  49.3208014  13.8778484  52.4116813
  45.9363741  18.1436348  58.4468376  46.6597940  17.6908875  58.2679396
  45.6713703  18.4241014  57.6640704  46.0045014  18.1187317  58.3047091
  34.8050609  12.7396522  55.1821255  34.1803679  12.7514914  54.5747208
  34.4696204  13.2156697  55.8312495  34.6636101  12.8115039  55.1877824
  34.9892358  11.0821640  41.2393940  34.6405162  11.7341365  41.7025489
  34.5088804  11.0678753  40.5117811  34.8662602  11.1764694  41.2005031
  31.5176285  20.7996982  56.6225019  30.9876209  20.1089421  56.6719994
  31.7901378  20.7907167  55.7937728  31.4801007  20.6964114  56.5072435
  41.7182530  18.2420226  56.5963391  41.1039523  17.6978277  56.8912026
  42.2349815  17.7284463  56.1169207  41.7038193  18.0856635  56.5687619
  40.9578827  19.3124496  54.3307690  40.5306435  18.6874215  53.8973125
  40.9503772  19.0299418  55.1566697  40.8937969  19.1777277  54.3887517
  34.0741354  14.3489669  57.3996124  34.2334841  13.5932994  57.8047846
  33.8934248  14.8980609  58.0536861  34.0706713  14.3183483  57.5558830
  42.0161657   6.5150905  57.9546913  41.5202219   6.7114579  57.2638480
  42.7730720   6.9143573  57.7835715  42.0548482   6.6028639  57.8267050
  39.2864537  10.1893251  54.5450224  39.3107024   9.6553363  53.8563004
  39.5376011   9.6810560  55.2075814  39.3274456  10.0354155  54.5414868
  26.7972127  17.4724746  53.9793368  26.6915576  17.4271590  53.1145452
  26.0472347  17.8178526  54.2607653  26.6707730  17.5165654  53.8930697
  35.5665859   8.9164069  53.9255968  35.6064231   9.4173276  54.6390675
  34.7415524   9.0074463  53.6561891  35.4505385   9.0045886  53.9906506
  37.7495472  18.4824809  62.0276263  36.8991103  18.6196523  62.1633907
  37.9123600  17.7488587  62.4723964  37.6479336  18.3938910  62.1131862
  36.9880223  15.4324579  56.2229867  36.1572152  15.5998397  56.0165115
  36.9331740  15.0560530  57.0078752  36.8569638  15.4014310  56.3078395
  34.7964006   8.9233472  61.8586278  35.4216709   8.3795605  62.1315710
  34.3414486   8.4428390  61.2894068  34.8212267   8.7722953  61.8147871
  35.3616267  13.7080171  46.7519985  35.5019228  14.2052635  47.4548626
  35.8598799  13.0066465  46.8934198  35.4557347  13.6782149  46.8771564
  35.3916489  14.5747282  44.0812561  36.0261568  15.1707707  44.0162023
  35.4742100  14.2750739  44.8958432  35.4973040  14.6188190  44.1915648
  48.3699055  17.1062759  56.9498926  48.9616895  17.7460010  56.9817124
  48.8058049  16.4085796  57.2390992  48.5217486  17.0981109  56.9979758
  36.9695472  10.5061257  44.0558003  37.2911313  10.0264340  43.4017266
  37.2322416  11.3160903  43.8648815  37.0561497  10.5551155  43.9313496
  40.1992445  21.5280131  57.5756820  39.6917536  22.0815978  58.0197450
  39.9019091  21.5888421  56.7575594  40.0797329  21.6186443  57.5205276
  42.3654627   9.8933451  56.4181483  42.7909698   9.4405977  55.8065009
  41.7511620   9.3393522  56.6946270  42.3383272   9.7447427  56.3686508
  31.8969477  16.7715122  47.3502108  32.4061706  17.3679630  47.7313413
  32.3703749  16.5041096  46.6678527  32.0412852  16.8200938  47.3056630
  40.8048850   6.3648551  49.8272060  40.1617168   6.2146197  50.3957198
  40.4648257   6.1190896  49.0621164  40.6593927   6.3060673  49.7975075
  39.4434930  26.4604690  54.4813826  39.2200584  25.7023519  54.8497853
  38.9544773  26.4902711  53.7594266  39.3378379  26.3526914  54.4290567
  45.5576324  10.7763861  52.1592441  45.9103934  10.3493584  52.8338240
  44.6991125  10.6914705  52.2893518  45.4825768  10.7008602  52.2787452
  34.2560009  13.4071381  50.2175288  33.5371998  13.8235513  50.4848151
  34.6272371  13.9725620  49.6666926  34.2051940  13.5520662  50.1758095
  43.5559589  14.0399230  56.1077284  43.5357517  13.8582525  56.9612063
  43.6038790  14.9111248  56.0836867  43.5594230  14.1415768  56.2300578
  41.5005919  20.6286422  62.0325760  41.4601774  19.9836099  61.4470916
  42.3129237  20.5723039  62.3451172  41.6149073  20.5245389  61.9922709
  41.4578681  25.8395233  52.6874528  41.0594964  25.9497503  51.9195348
  40.8429900  26.0477299  53.2701087  41.3077570  25.8868801  52.6605827
  40.0306583  12.4469381  45.5548667  39.4371422  12.7686377  45.0033234
  40.0681861  11.6010476  45.3469774  39.9480972  12.3693709  45.4431439
  46.9900384   5.8982273  53.0876754  46.4831248   5.1911413  53.0197931
  47.7867817   5.5675462  53.2177830  47.0327623   5.7455424  53.0975749
  42.9064399  12.4048885  48.9850418  42.6778092  12.4281587  48.1428776
  43.1662476  11.5806352  49.1045428  42.9110588  12.2864965  48.8775615
  37.1883628  14.2583358  58.5875518  36.6762531  13.6504541  58.9460549
  37.0163124  14.9739951  59.0549494  37.0873265  14.2746658  58.7091741
  32.0349343  12.7020934  61.2377880  31.8651933  13.3622308  60.6926086
  31.5915292  12.9127495  61.9590369  31.9448676  12.8306916  61.2639509
  35.9609162  10.9425432  50.2804613  36.4366528  11.3042511  49.6454794
  35.4597762  11.5981899  50.5604756  35.9574521  11.0919620  50.2281354
  41.0652698  12.1807603  61.0277773  41.6224128  11.9521413  60.3956239
  40.7413763  12.9413269  60.7512986  41.0999108  12.2591440  60.8934270
  28.9351407  15.6067799  56.4966369  28.3878127  14.9368445  56.6147238
  29.7243785  15.2397647  56.5609837  28.9703591  15.4532786  56.5235070
  38.7835816  15.2675256  61.9929781  39.5347142  15.5826933  62.3069335
  38.9758392  15.0654427  61.1663702  38.9227230  15.2842638  61.9173176
  38.0035815  13.0866631  43.6477997  38.3834780  13.1046261  42.8629112
  37.2628411  13.5320620  43.5268845  37.9504653  13.1548406  43.5141565
  45.6321106  11.3948823  49.2353576  45.6315332  11.2397479  50.0937852
  45.4277286  12.2411810  49.1794962  45.6020884  11.4969443  49.3541515
  27.6938377  14.8188607  53.6512393  27.5160138  14.3665216  54.3767308
  27.4057399  15.6214768  53.8350870  27.6251330  14.8711165  53.7855895
  43.3561958  16.0746324  52.8889783  43.8515623  15.3569319  52.8493803
  42.5461733  15.7717122  52.7744270  43.3105851  15.9243971  52.8663509
  29.4310846  17.3516331  50.7634152  28.5656366  17.3402021  50.6516923
  29.5309662  17.1646554  51.6105291  29.3185013  17.3222392  50.8723096
  45.4213777  18.8250012  55.5766912  45.8468848  18.3024434  55.0237337
  45.0570696  19.4230849  55.0555535  45.4300379  18.8360239  55.4175921
  35.0567856  27.1214229  54.3364257  35.3714415  27.9350618  54.3442039
  35.4661270  26.7364448  55.0046416  35.1635954  27.1842932  54.4368349
  42.0092376  22.5384276  51.9068069  42.4803554  23.2524539  52.0758054
  42.3452555  21.9383026  52.4427939  42.1287491  22.5555740  52.0100445
  44.0969361  24.1485590  64.0860141  44.2066326  23.3594150  64.4416888
  44.4260257  24.0591526  63.2834479  44.1621766  24.0191442  64.0202532
  38.9261871   7.3111747  58.8626164  39.0589777   6.5142740  59.1907139
  39.3107024   7.8378150  59.4424439  39.0018200   7.2711663  58.9969667
  42.6466322  22.3302210  58.6695762  42.0987268  21.7060094  58.4015827
  43.1079351  22.5196482  57.9539841  42.6333532  22.2661261  58.5246193
  41.9994226   4.2342073  55.4607257  41.1940190   4.1239803  55.7775095
  41.8700962   4.3354529  54.6037123  41.8614359   4.2325743  55.3815297
  45.4560187  10.3987565  56.0546954  44.8723176  10.8996771  55.6424521
  45.7764481   9.8917121  55.4211277  45.4173362  10.3979400  55.9005461
  37.9954986   9.3128160  46.3305629  38.8170680   9.4826472  46.0887324
  37.5324637   9.4675421  45.6071926  38.0486148   9.3609893  46.1877273
  36.5850318   7.3070922  57.1104058  37.1294731   6.9662049  57.7008399
  36.6387253   8.1656383  57.2525342  36.6739437   7.3826181  57.2185931
  32.3980877  21.0687338  53.9842865  33.0025734  21.0283172  53.3556686
  32.1908189  21.9158490  54.0146921  32.4569774  21.1875340  53.8958982
  42.2124649  23.3353283  55.2005103  43.0323022  23.1916249  55.4621398
  41.9318726  23.9599482  55.7421541  42.2921392  23.4063635  55.3193042
  27.6332159  20.0521955  53.8541789  27.5356437  19.2418227  54.1631845
  28.4161028  20.0313749  53.4688057  27.7348295  19.9289046  53.8428652
  58.6838299  30.9918135  48.1647979  58.6532303  31.8462771  48.3366249
  59.2819648  30.6913427  48.7234123  58.7675457  31.0734631  48.2722782
  51.8837984  30.0793786  52.9200910  51.0275879  30.2402284  52.9710026
  51.9305638  29.2085850  52.9405971  51.7637095  29.9744588  52.9306976
  55.1931700  36.3480311  62.5261366  55.8998468  35.8532342  62.6548300
  55.3819636  36.7889393  61.7964024  55.3259606  36.3398662  62.4370411
  54.7289805  32.1385830  55.5632561  55.2745765  32.8170916  55.6226531
  54.6706681  31.9973291  54.7034143  54.8005719  32.2177831  55.4444622
  43.3419011  27.8180913  53.4737555  42.7224043  27.2273560  53.3047570
  43.2402875  28.4092348  52.8401878  43.2356687  27.8184995  53.3542545
  50.4386907  29.5580455  47.8070018  51.1367072  29.7368582  48.2991481
  50.7539240  29.0350794  47.1840408  50.5882244  29.5074227  47.7872028
  43.0688145  31.3633195  55.7181124  42.9446841  31.9495640  56.3530943
  43.7206429  30.8693390  56.0193399  43.1461794  31.3771999  55.8567053
  48.6113771  24.9272851  51.8891293  48.2817101  25.3783995  51.2194992
  47.9358773  24.8489015  52.4364299  48.4624207  24.9823987  51.8714516
  55.8190178  20.9158374  50.1340903  55.5043619  21.6061853  50.5661326
  55.3017120  20.8603157  49.4326404  55.6954649  21.0093263  50.0937853
  60.6150665  36.4909180  51.6211358  59.7848368  36.7019823  51.7844775
  60.5659917  35.6646234  51.3453642  60.4857401  36.3998786  51.6048724
  60.1104623  29.1379580  55.4161780  59.2733045  29.2081767  55.6509374
  60.0792854  29.1404075  54.5436082  59.9822906  29.1489807  55.3221328
  46.5069353  31.2812616  61.1310149  46.6789856  31.1718511  61.9795430
  47.0438710  31.9267021  60.8941341  46.6114357  31.3604618  61.2215245
  57.8714980  37.1608534  51.7576074  57.4350212  37.1645276  52.5135046
  57.5377896  37.8414033  51.3255652  57.7577600  37.2620990  51.8056907
  52.4444054  39.2016867  63.0819225  53.2284471  39.3147715  63.4474967
  52.2440649  38.3758004  63.2777910  52.5310079  39.0963586  63.1653611
  57.7912463  24.2022362  54.0005502  58.4338372  24.2720467  54.5867418
  58.0435484  23.5351585  53.4985044  57.9234595  24.1148711  54.0132781
  45.5629676  27.4122925  58.6130076  44.8701473  26.9419905  58.8590808
  46.1790003  27.1861230  59.1871783  45.5514206  27.3090057  58.7339229
  61.0059327  33.8789454  50.6495712  61.6675761  33.3180122  50.5491620
  60.3650739  33.3841485  50.9748403  61.0088194  33.7225863  50.6828052
  57.2924157  34.8954836  50.3907700  57.5279747  35.0400035  49.5634551
  57.4413721  35.6597244  50.7839214  57.3489961  35.0293891  50.3271304
  44.2870235  31.3788329  59.7556921  45.0110207  31.3641360  60.2421816
  44.3886371  32.0883685  59.2578890  44.4088444  31.4813032  59.7535708
  59.1214614  33.7356502  48.2277304  59.4522831  34.2684142  47.6217399
  59.6947702  33.7895390  48.8839255  59.2548293  33.8226071  48.2355086
  51.6615184  34.8587414  64.6205868  50.8688165  35.1730926  64.8058488
  51.7764111  35.0738882  63.7826653  51.5610595  34.9371251  64.5244203
  52.5898977  34.7607618  59.5591165  53.1637839  34.1234862  59.7139729
  52.5113781  34.7611700  58.6900823  52.6632212  34.6672729  59.4537576
  53.0263746  25.2959333  51.7116455  52.3220073  24.8068519  51.8700374
  53.0748720  25.3081808  50.8404900  52.9293797  25.2248981  51.6055795
  50.5870696  29.2191995  56.9569636  50.1985129  28.7946212  56.3021827
  49.9225395  29.4674144  57.4646662  50.4317624  29.1930716  56.9357504
  60.2293966  28.9766999  49.7317466  59.9730530  28.1646941  49.5415349
  61.0723280  28.9844566  49.5047653  60.3159991  28.8578997  49.6702283
  54.4097058  22.9166623  54.4693620  54.7907570  22.2344794  54.8561494
  53.6060342  22.6276225  54.2869284  54.3473520  22.7733672  54.4997676
  57.9119125  36.1316595  59.5676018  57.6757762  35.3004660  59.4488079
  58.5562354  36.0802202  60.1530863  57.9713796  36.0014283  59.6361912
  48.3688898  25.4220821  64.3356228  48.0542339  26.1920384  64.0725791
  48.0478831  24.8591078  63.7508455  48.2747817  25.4531090  64.2097578
  58.9355545  35.9161044  55.6304313  58.6301363  36.6489101  55.9917628
  58.2161761  35.5098973  55.3497099  58.7842888  35.9642777  55.6417450
  64.6357338  32.5554045  54.9572657  64.5681838  32.5750004  54.0875244
  64.6213000  33.3984372  55.1828328  64.6236094  32.6827779  54.8625134
  45.9220795  23.8111343  49.9502425  45.0543221  23.8833942  50.0160034
  46.2096000  24.6133422  50.1390400  45.8360543  23.9405490  49.9877191
  55.0453684  23.9589202  58.2813747  55.7907276  23.7699013  57.8677172
  54.6290989  24.4847440  57.7227603  55.0938658  24.0091348  58.1378320
  62.4215955  31.3298431  53.2319251  62.9723877  30.6966500  53.4716344
  62.4060070  31.8613824  53.9234756  62.5001151  31.3147379  53.3698110
  49.0738346  35.1637028  57.7779145  48.5750039  35.8752796  57.8564033
  49.8838570  35.4837695  57.7397307  49.1194453  35.3163877  57.7835713
  56.1244361  29.5694765  52.3423848  55.7809127  28.8485100  52.6931097
  56.2237404  29.3608616  51.5002206  56.0886404  29.4318968  52.2695528
  48.0005404  28.0218073  63.0741443  47.1905180  28.3275852  62.9631285
  48.4780091  28.7423655  63.1894027  47.9508883  28.1732674  63.0748514
  54.6435327  27.4886349  54.2183391  53.8046427  27.5147628  53.9821654
  54.7139694  28.1357085  54.7988737  54.5303720  27.5882475  54.2692507
  44.3349436  33.5580623  57.9440846  44.8470533  33.8364876  57.2949605
  44.0485778  34.2969917  58.3103659  44.3684299  33.7082977  57.9030724
  53.0904605  24.3871726  48.9511007  53.7930958  24.1879475  48.4730965
  52.8248794  23.6147669  49.2579850  53.1551237  24.2434692  48.9256448
  58.5192850  32.6954336  51.5044632  58.4326825  32.8509762  52.3579411
  58.0643330  33.3392412  51.1304037  58.4396107  32.8130091  51.5751739
  47.8533161  25.6507012  58.0041887  47.6616358  25.6662146  58.8541311
  48.7031757  25.8470686  57.9808542  47.9508883  25.6821363  58.1265182
  42.2380074  28.1797993  55.9825704  42.0965566  27.3281934  56.1070212
  42.5220638  28.2226654  55.1587910  42.2587920  28.0597743  55.8793328
  52.3918667  30.0165083  50.1270192  52.1453381  29.9360834  50.9606981
  52.7203790  29.2318551  49.9332719  52.4039910  29.8891348  50.2217715
  56.2866715  36.7248442  53.9156973  56.1481075  37.4229488  54.4205715
  55.5066713  36.5697099  53.5593155  56.1509942  36.8048609  53.9383247
  54.6244800  33.0244818  60.1679355  54.6192839  32.1524634  60.1721781
  55.3305794  33.2232987  59.6948810  54.7289804  32.9248692  60.0986390
  48.3515694  32.7521802  59.5393175  48.4959070  33.3323010  58.9036285
  48.6991342  33.1298098  60.2443030  48.4243155  32.8942506  59.5492170
  50.5235611  31.9511970  57.3218307  49.7758925  32.1442985  56.9166585
  50.6777136  31.1257190  57.0842428  50.4358039  31.8577082  57.2263712
  50.7637388  25.8462521  58.2113710  51.2210002  26.5786495  58.3386502
  50.8393717  25.4228986  58.9700966  50.8428358  25.8919759  58.3414787
  43.0070379  26.0928341  59.3003154  42.4712569  25.4808699  59.6163921
  43.0688144  26.6676477  59.9536821  42.9366012  26.0875268  59.4438581
  55.2364714  19.0252396  52.0807553  55.3548282  19.4828859  51.3474856
  55.0626890  18.2197657  51.7943771  55.2283885  18.9746168  51.9308487
  48.6419766  27.8364625  55.0555534  47.8515841  27.6556085  55.3772870
  49.0380389  27.0591577  55.0385829  48.5836642  27.6952086  55.1008083
  51.1557596  30.3124884  59.5379033  51.0916738  31.1734840  59.4099170
  51.2954784  29.9956877  58.7374584  51.1673066  30.3925051  59.4007246
  55.5355387  37.0869606  65.0943484  56.3490253  36.8154754  65.2548617
  55.3750354  36.7877146  64.2903680  55.6325336  37.0024532  64.9988890
  52.8127549  27.7703263  58.0338872  53.0269519  27.1314177  57.4802226
  52.1961448  28.2149087  57.6046734  52.7532878  27.7413406  57.8889303
  54.9766637  29.3792328  58.9722179  54.1643319  29.0718218  59.0535352
  55.4356572  28.8991328  59.5364892  54.9247022  29.2628820  59.0676774
  52.2042278  20.8803198  53.0226215  51.3335836  20.8541920  52.9759525
  52.4582619  20.7080391  52.2052061  52.1135838  20.8513342  52.8946352
  52.0720145  30.7852399  63.7550882  52.5419776  31.4094516  64.1418756
  52.1182025  30.1169375  64.3144096  52.1488021  30.7787080  63.8950953
  49.2291418  22.8909427  54.4799685  48.7129907  22.1989618  54.6051264
  48.6685347  23.5580204  54.4262284  49.0697932  22.8872684  54.4905751
  51.2983652  23.4302387  56.3092538  50.9115405  23.4551418  57.0906068
  50.8116589  22.8644066  55.8567055  51.1696161  23.3498138  56.3580442
  55.5476631  38.1475896  60.3666325  56.1856352  37.6536092  60.0328781
  54.9050723  38.0753296  59.7818551  55.5470858  38.0634904  60.2308680
  57.2733631  29.9965042  54.9332240  56.8461239  29.9091390  54.1780340
  56.6359684  30.1042817  55.5187084  57.1163239  29.9997702  54.9077682
  50.9640794  20.3169372  58.6002798  51.5933912  20.8529672  58.3223868
  51.1326656  20.2246731  59.4516364  51.0818588  20.3830735  58.6851326
  50.7654708  25.1040567  60.8729210  51.5928138  24.8325716  60.9287824
  50.7862554  25.9001409  61.2293028  50.8907558  25.1820321  60.9344392
  55.6030888  38.8395704  57.0071681  56.3923266  38.4884769  57.1273763
  55.7774486  39.6532093  56.7448315  55.7451169  38.9081561  56.9859549
  54.4564712  22.8505261  51.5688100  54.6614305  22.7827569  52.4145097
  54.1291136  23.6564082  51.5009277  54.4379960  22.9591201  51.6847755
  49.1540863  30.1785829  53.3097068  48.8504001  29.6241817  53.9107475
  48.4520284  30.3578039  52.8225102  49.0057073  30.1230611  53.3266773
  57.7098400  23.4037025  51.0490865  57.0972713  23.8907427  51.4344597
  57.8062575  22.7280516  51.5928516  57.6336297  23.3755334  51.1869723
  51.7117481  25.1599866  46.1488365  52.1661227  25.3310427  46.8736209
  52.1857526  24.5467977  45.7486140  51.8485801  25.0950751  46.1962126
  45.6293629  25.8050190  56.1459121  46.0895110  25.8789119  56.8834244
  45.6749736  26.6031444  55.7958942  45.7044184  25.9344337  56.2031877
  47.2776979  26.4716885  60.7131148  46.8862544  25.8250232  61.1486926
  47.4462841  27.0628320  61.3325403  47.2447889  26.4631153  60.8693854
  61.3523428  34.4753962  56.4768381  61.4106551  34.9240611  57.2228358
  60.7189895  34.8852775  56.0398461  61.2674723  34.6027697  56.5220930
  54.9922522  40.0957504  52.9123128  54.7942211  40.5848318  52.2179339
  54.3710233  40.2998745  53.4907261  54.8710087  40.1974042  52.8946351
  50.9710076  23.6592660  52.2865233  50.1246121  23.8315467  52.1606583
  50.9681209  22.8542003  52.6231062  50.8457226  23.5653688  52.3176360
  52.0408377  27.4367874  53.1527291  51.5668331  26.9109636  53.6632602
  52.4126512  26.8897347  52.5842153  52.0258266  27.2783871  53.1442438
  42.4181407  29.4339381  58.5210837  43.2807020  29.3335090  58.4348167
  42.0873190  28.8534090  57.9596409  42.4966603  29.3331007  58.4256243
  58.3045107  32.4970250  54.5634072  58.0643330  31.6576665  54.5676498
  58.7837114  32.5770416  55.2874845  58.3397291  32.3851649  54.6708874
  53.9691876  28.3304428  46.2153045  53.4414895  28.4133172  45.5258754
  54.4287584  29.0722300  46.2117690  53.9593727  28.4525091  46.1127740
  60.3050294  29.2771707  52.5163331  60.0660064  29.2367541  51.6784115
  60.4684195  30.1242859  52.6429052  60.2940598  29.3963792  52.4116813
  56.9096324  33.6621656  58.4468376  57.6330523  33.2094182  58.2679396
  56.6446287  33.9426322  57.6640704  56.9777598  33.6372625  58.3047091
  45.7783193  28.2581830  55.1821255  45.1536263  28.2700222  54.5747208
  45.4428788  28.7342005  55.8312495  45.6368685  28.3300347  55.1877824
  52.6915114  33.7605534  56.5963391  52.0772107  33.2163585  56.8912026
  53.2082399  33.2469771  56.1169207  52.6770776  33.6041943  56.5687619
  45.0473938  29.8674977  57.3996124  45.2067425  29.1118302  57.8047846
  44.8666832  30.4165917  58.0536861  45.0439297  29.8368791  57.5558830
  52.9894241  22.0336213  57.9546913  52.4934802  22.2299887  57.2638480
  53.7463303  22.4328881  57.7835715  53.0281066  22.1213947  57.8267050
  50.2597121  25.7078559  54.5450224  50.2839608  25.1738671  53.8563004
  50.5108594  25.1995868  55.2075814  50.3007039  25.5539463  54.5414868
  46.5398443  24.4349377  53.9255968  46.5796814  24.9358584  54.6390675
  45.7148108  24.5259771  53.6561891  46.4237969  24.5231193  53.9906506
  48.7228056  34.0010117  62.0276263  47.8723686  34.1381831  62.1633907
  48.8856183  33.2673895  62.4723964  48.6211919  33.9124218  62.1131862
  47.9612806  30.9509887  56.2229867  47.1304736  31.1183705  56.0165115
  47.9064323  30.5745838  57.0078752  47.8302221  30.9199618  56.3078395
  45.7696590  24.4418780  61.8586278  46.3949293  23.8980913  62.1315710
  45.3147069  23.9613697  61.2894068  45.7944850  24.2908261  61.8147871
  59.3431638  32.6248067  56.9498926  59.9349479  33.2645318  56.9817124
  59.7790633  31.9271104  57.2390992  59.4950069  32.6166417  56.9979758
  51.1725028  37.0465439  57.5756820  50.6650119  37.6001286  58.0197450
  50.8751674  37.1073729  56.7575594  51.0529913  37.1371750  57.5205276
  53.3387210  25.4118759  56.4181483  53.7642282  24.9591285  55.8065009
  52.7244203  24.8578830  56.6946270  53.3115856  25.2632735  56.3686508
  51.7781433  21.8833859  49.8272060  51.1349751  21.7331505  50.3957198
  51.4380840  21.6376204  49.0621164  51.6326510  21.8245981  49.7975075
  56.3680780  29.8393286  49.2502068  55.6971970  30.3822988  49.1215134
  57.0620530  30.3088141  49.0083763  56.3709647  29.9891557  49.1957596
  56.5308907  26.2949169  52.1592441  56.8836517  25.8678892  52.8338240
  55.6723709  26.2100013  52.2893518  56.4558352  26.2193910  52.2787452
  54.5292173  29.5584538  56.1077284  54.5090100  29.3767833  56.9612063
  54.5771374  30.4296556  56.0836867  54.5326814  29.6601076  56.2300578
  52.4738503  36.1471730  62.0325760  52.4334358  35.5021407  61.4470916
  53.2861821  36.0908347  62.3451172  52.5881656  36.0430697  61.9922709
  51.0039166  27.9654689  45.5548667  50.4104006  28.2871685  45.0033234
  51.0414444  27.1195784  45.3469774  50.9213556  27.8879017  45.4431439
  57.9632967  21.4167581  53.0876754  57.4563832  20.7096721  53.0197931
  58.7600401  21.0860770  53.2177830  58.0060206  21.2640732  53.0975749
  53.8796983  27.9234193  48.9850418  53.6510676  27.9466895  48.1428776
  54.1395059  27.0991660  49.1045428  53.8843171  27.8050273  48.8775615
  48.1616211  29.7768666  58.5875518  47.6495115  29.1689849  58.9460549
  47.9895708  30.4925259  59.0549494  48.0605848  29.7931966  58.7091741
  43.0081926  28.2206242  61.2377880  42.8384516  28.8807616  60.6926086
  42.5647876  28.4312803  61.9590369  42.9181260  28.3492224  61.2639509
  46.9341746  26.4610740  50.2804613  47.4099112  26.8227819  49.6454794
  46.4330345  27.1167207  50.5604756  46.9307105  26.6104928  50.2281354
  60.1653107  35.9332508  46.0717618  60.5486713  36.6823864  46.3015715
  59.3697220  36.1798327  45.8129607  60.1046889  36.0802201  46.0675192
  52.0385282  27.6992911  61.0277773  52.5956712  27.4706720  60.3956239
  51.7146347  28.4598577  60.7512986  52.0731692  27.7776748  60.8934270
  39.9083991  31.1253107  56.4966369  39.3610710  30.4553753  56.6147238
  40.6976369  30.7582955  56.5609837  39.9436174  30.9718094  56.5235070
  49.7568399  30.7860564  61.9929781  50.5079726  31.1012241  62.3069335
  49.9490976  30.5839735  61.1663702  49.8959813  30.8027946  61.9173176
  56.6053689  26.9134131  49.2353576  56.6047916  26.7582787  50.0937852
  56.4009869  27.7597118  49.1794962  56.5753467  27.0154751  49.3541515
  38.6670960  30.3373915  53.6512393  38.4892721  29.8850524  54.3767308
  38.3789982  31.1400076  53.8350870  38.5983913  30.3896473  53.7855895
  54.3294541  31.5931632  52.8889783  54.8248207  30.8754627  52.8493803
  53.5194317  31.2902430  52.7744270  54.2838435  31.4429279  52.8663509
  56.3946360  34.3435320  55.5766912  56.8201432  33.8209742  55.0237337
  56.0303280  34.9416157  55.0555535  56.4032963  34.3545547  55.4175921
  55.0701944  39.6670897  64.0860141  55.1798910  38.8779458  64.4416888
  55.3992841  39.5776834  63.2834479  55.1354350  39.5376750  64.0202532
  49.8994455  22.8297055  58.8626164  50.0322360  22.0328048  59.1907139
  50.2839607  23.3563458  59.4424439  49.9750783  22.7896971  58.9969667
  53.6198906  37.8487518  58.6695762  53.0719852  37.2245402  58.4015827
  54.0811935  38.0381790  57.9539841  53.6066115  37.7846568  58.5246193
  52.9726810  19.7527381  55.4607257  52.1672773  19.6425110  55.7775095
  52.8433545  19.8539837  54.6037123  52.8346943  19.7511051  55.3815297
  56.4292770  25.9172873  56.0546954  55.8455759  26.4182079  55.6424521
  56.7497064  25.4102429  55.4211277  56.3905946  25.9164708  55.9005461
  47.5582901  22.8256230  57.1104058  48.1027314  22.4847357  57.7008399
  47.6119837  23.6841691  57.2525342  47.6472021  22.9011489  57.2185931
  53.1857232  38.8538591  55.2005103  54.0055606  38.7101557  55.4621398
  52.9051310  39.4784790  55.7421541  53.2653976  38.9248943  55.3193042
  69.6570883  46.5103443  48.1647979  69.6264887  47.3648079  48.3366249
  70.2552231  46.2098735  48.7234123  69.7408040  46.5919939  48.2722782
  62.8570567  45.5979094  52.9200910  62.0008463  45.7587592  52.9710026
  62.9038221  44.7271158  52.9405971  62.7369679  45.4929896  52.9306976
  57.2411707  55.1341812  48.6838141  56.4894607  54.7557350  48.4554186
  57.6897719  55.1660245  47.9356952  57.1961374  55.0827419  48.5395643
  66.1664284  51.8665619  62.5261366  66.8731051  51.3717650  62.6548300
  66.3552219  52.3074701  61.7964024  66.2992190  51.8583970  62.4370411
  62.2340958  57.5081450  50.0534800  62.6180338  58.0768348  49.5139575
  62.1700100  56.7830960  49.5740616  62.2814386  57.4856913  49.9028662
  65.7022388  47.6571138  55.5632561  66.2478348  48.3356224  55.6226531
  65.6439265  47.5158598  54.7034143  65.7738303  47.7363139  55.4444622
  58.8196463  55.1460204  50.9500914  58.9206826  54.3360558  51.2598041
  58.2238209  55.0517150  50.3200592  58.7469002  55.0125232  50.9027152
  67.4787457  49.0855745  46.4366289  67.3626983  49.8363431  46.8658427
  68.2743344  48.8279698  46.6862376  67.5792047  49.1590592  46.5370381
  58.6597203  60.0637793  52.3515770  59.3034658  60.5050957  52.7411928
  58.9853458  59.2591219  52.2646029  58.8029032  60.0102988  52.3961247
  59.3617783  53.0749768  47.7235631  59.6833624  53.6154975  47.1196940
  60.0089879  52.5046539  47.8557921  59.5043838  53.0708943  47.6542667
  61.6007426  51.4636208  47.7949810  62.0401062  50.8553308  48.2404582
  61.4512089  51.0843581  47.0235275  61.6428892  51.3174679  47.7468977
  59.0679069  50.0580220  54.9968635  59.7128072  49.5652663  54.6779584
  59.3080846  50.2005006  55.8234713  59.1989654  50.0057662  55.0718168
  61.6065160  52.9035125  54.6475528  61.8888403  52.1086531  54.4262284
  62.3351321  53.3815713  54.6680589  61.7554724  52.8569722  54.6178543
  59.5846354  40.4458159  51.8891293  59.2549684  40.8969303  51.2194992
  58.9091356  40.3674323  52.4364299  59.4356791  40.5009295  51.8714516
  65.2016763  49.8163389  44.7480579  65.1168058  50.6724356  44.8930148
  65.6901146  49.5407713  45.4162738  65.2605660  49.9020710  44.8682660
  66.7922762  36.4343682  50.1340903  66.4776203  37.1247161  50.5661326
  66.2749704  36.3788464  49.4326404  66.6687232  36.5278571  50.0937853
  66.1335196  46.4348183  46.2478314  65.6046667  46.6507817  46.9075620
  66.6560216  47.1284322  46.1679283  66.1323649  46.5691320  46.3333913
  71.5883249  52.0094488  51.6211358  70.7580952  52.2205131  51.7844775
  71.5392501  51.1831542  51.3453642  71.4589984  51.9184094  51.6048724
  53.5778832  56.0466161  51.8509454  53.0946411  56.7716651  51.8269037
  54.3902151  56.3442291  51.9619611  53.6269580  56.1968515  51.8636733
  59.6492986  54.8398342  54.4559268  59.1319928  54.4805757  53.8520576
  60.3467378  54.3160516  54.4665334  59.6758567  54.7096030  54.3689527
  63.3056578  55.2893156  60.4175441  63.3939924  55.1019296  61.2653651
  63.7346291  54.6430585  60.0180288  63.3818681  55.1656163  60.4847193
  60.8727038  54.5724316  59.3993103  60.3097873  54.1596926  59.9232764
  61.6348062  54.4977221  59.8186247  60.9021487  54.5001716  59.5386104
  56.4323030  56.5622337  52.0029733  57.1343609  56.0474326  52.0602490
  56.3520513  56.8896488  52.8076609  56.5246790  56.5336563  52.1302526
  71.0837207  44.6564888  55.4161780  70.2465628  44.7267075  55.6509374
  71.0525438  44.6589383  54.5436082  70.9555489  44.6675115  55.3221328
  57.4801936  46.7997924  61.1310149  57.6522440  46.6903818  61.9795430
  58.0171294  47.4452329  60.8941341  57.5846940  46.8789926  61.2215245
  56.3826508  53.1729564  55.8128647  56.9224733  53.0300695  56.4832019
  55.6996454  53.5726315  56.1812673  56.3618662  53.2109235  55.9663069
  61.8259092  37.9167177  47.1041377  62.5545253  37.7383132  46.6579534
  61.9153985  38.7585257  47.3148555  61.9465754  38.0151056  47.0694895
  65.8067393  48.8520565  51.0073671  66.5624908  49.2852079  51.0462580
  65.9129717  48.2025334  51.5808307  65.9337563  48.8198049  51.0971697
  68.8447564  52.6793842  51.7576074  68.4082796  52.6830584  52.5135046
  68.5110479  53.3599341  51.3255652  68.7310184  52.7806298  51.8056907
  63.4176638  54.7202175  63.0819225  64.2017054  54.8333023  63.4474967
  63.2173232  53.8943312  63.2777910  63.5042663  54.6148894  63.1653611
  68.7645047  39.7207670  54.0005502  69.4070955  39.7905774  54.5867418
  69.0168068  39.0536893  53.4985044  68.8967179  39.6334018  54.0132781
  63.5747031  56.6312277  56.7285680  62.7762277  56.3911777  56.9859549
  64.0233042  56.6826670  57.4752728  63.5221642  56.6034668  56.8770604
  71.9791910  49.3974762  50.6495712  72.6408344  48.8365430  50.5491620
  71.3383322  48.9026793  50.9748403  71.9820778  49.2411171  50.6828052
  62.8668718  52.6944893  42.9576635  63.2819866  52.3629917  42.2661131
  62.0360648  52.4613796  42.8296771  62.8056727  52.6116149  42.8367482
  68.2656741  50.4140144  50.3907700  68.5012330  50.5585343  49.5634551
  68.4146305  51.1782552  50.7839214  68.3222544  50.5479199  50.3271304
  70.0947198  49.2541810  48.2277304  70.4255415  49.7869450  47.6217399
  70.6680286  49.3080698  48.8839255  70.2280877  49.3411379  48.2355086
  62.6347768  50.3772722  64.6205868  61.8420749  50.6916234  64.8058488
  62.7496695  50.5924190  63.7826653  62.5343178  50.4556558  64.5244203
  65.3079087  47.1006713  48.9100884  65.4025941  47.8396007  49.3640510
  64.6837930  46.6724188  49.3435449  65.2288117  47.1468034  49.0409032
  63.5631561  50.2792926  59.5591165  64.1370422  49.6420170  59.7139729
  63.4846364  50.2797008  58.6900823  63.6364795  50.1858037  59.4537576
  65.5602108  48.9455453  42.1437836  65.4782271  49.0157640  43.0092823
  66.1981829  49.5085197  41.9521577  65.6421945  49.0394424  42.2427786
  58.9195279  48.7116191  51.6112363  58.6614524  47.8787926  51.5843662
  58.9743762  48.9373804  50.7704863  58.8895057  48.6213962  51.4832499
  63.9996329  40.8144641  51.7116455  63.2952656  40.3253827  51.8700374
  64.0481304  40.8267116  50.8404900  63.9026381  40.7434289  51.6055795
  61.5603280  44.7377302  56.9569636  61.1717713  44.3131520  56.3021827
  60.8957978  44.9859452  57.4646662  61.4050208  44.7116024  56.9357504
  71.2026549  44.4952307  49.7317466  70.9463114  43.6832249  49.5415349
  72.0455863  44.5029874  49.5047653  71.2892575  44.3764305  49.6702283
  65.3829642  38.4351931  54.4693620  65.7640153  37.7530102  54.8561494
  64.5792926  38.1461533  54.2869284  65.3206103  38.2918980  54.4997676
  68.8851708  51.6501903  59.5676018  68.6490346  50.8189968  59.4488079
  69.5294937  51.5987510  60.1530863  68.9446379  51.5199591  59.6361912
  58.5350127  52.4397424  50.2818755  59.1724073  52.2009172  50.8270548
  58.9605198  52.6434583  49.5471915  58.6926293  52.4348435  50.2535912
  53.2262769  54.6785761  54.1653059  53.2666914  54.9500612  53.3372838
  53.7857293  55.2027669  54.5810846  53.3146115  54.7961516  54.1044947
  59.3421482  40.9406129  64.3356228  59.0274923  41.7105692  64.0725791
  59.0211415  40.3776385  63.7508455  59.2480401  40.9716398  64.2097578
  69.9088129  51.4346352  55.6304313  69.6033946  52.1674409  55.9917628
  69.1894345  51.0284281  55.3497099  69.7575471  51.4828085  55.6417450
  60.9171598  52.9169847  51.9612541  60.9910607  52.7545019  52.8154391
  61.7341105  53.1060037  51.7173023  61.0487957  52.9206589  52.0510567
  75.6089921  48.0739353  54.9572657  75.5414421  48.0935312  54.0875244
  75.5945584  48.9169680  55.1828328  75.5968678  48.2013087  54.8625134
  66.0186268  39.4774510  58.2813747  66.7639860  39.2884321  57.8677172
  65.6023572  40.0032748  57.7227603  66.0671242  39.5276656  58.1378320
  59.4576184  55.8804590  46.6926014  59.7474483  55.4893571  45.9685241
  60.1879665  56.0621295  47.1331290  59.6083068  55.8498404  46.6508821
  73.3948539  46.8483739  53.2319251  73.9456460  46.2151808  53.4716344
  73.3792654  47.3799132  53.9234756  73.4733735  46.8332687  53.3698110
  60.0470929  50.6822336  57.7779145  59.5482623  51.3938104  57.8564033
  60.8571154  51.0023003  57.7397307  60.0927036  50.8349185  57.7835713
  57.3982100  57.8571973  49.7586164  57.1782395  57.5669327  50.5512831
  57.1776622  57.1986928  49.2304077  57.3329694  57.7171681  49.7975073
  67.0976945  45.0880072  52.3423848  66.7541711  44.3670408  52.6931097
  67.1969987  44.8793924  51.5002206  67.0618988  44.9504276  52.2695528
  59.5650056  59.2301362  48.5416857  60.2174114  58.6977805  48.7707883
  58.8675664  58.8770015  48.9284731  59.5580773  59.0990885  48.6329024
  67.5589974  51.5505777  47.8847836  68.1248006  52.2098986  47.8006379
  66.9117877  51.8955475  48.3564238  67.5468730  51.6987718  47.9420592
  58.9737987  43.5403380  63.0741443  58.1637763  43.8461160  62.9631285
  59.4512674  44.2608963  63.1894027  58.9241466  43.6917982  63.0748514
  57.8329547  52.7549101  53.3224346  57.3110300  52.8949393  54.0076211
  58.2203567  51.9959766  53.5126464  57.8133248  52.6634625  53.4525423
  64.0296552  54.4944561  47.3084915  63.7883228  53.7612421  46.9011980
  64.2097885  55.0431418  46.6551248  64.0204176  54.4666952  47.1515138
  59.2595873  49.7853121  48.7205837  59.0638655  50.3927855  48.1266140
  59.4830218  49.0921065  48.2397511  59.2630514  49.7730646  48.5621918
  65.6167910  43.0071657  54.2183391  64.7779011  43.0332936  53.9821654
  65.6872277  43.6542393  54.7988737  65.5036304  43.1067783  54.2692507
  64.0637188  39.9057034  48.9511007  64.7663541  39.7064783  48.4730965
  63.7981377  39.1332977  49.2579850  64.1283821  39.7620000  48.9256448
  69.4925434  48.2139644  51.5044632  69.4059409  48.3695070  52.3579411
  69.0375914  48.8577720  51.1304037  69.4128691  48.3315399  51.5751739
  58.8265745  41.1692319  58.0041887  58.6348942  41.1847454  58.8541311
  59.6764341  41.3655994  57.9808542  58.9241467  41.2006671  58.1265182
  63.3651250  45.5350391  50.1270192  63.1185964  45.4546142  50.9606981
  63.6936373  44.7503859  49.9332719  63.3772494  45.4076656  50.2217715
  67.2599299  52.2433750  53.9156973  67.1213658  52.9414796  54.4205715
  66.4799297  52.0882407  53.5593155  67.1242526  52.3233917  53.9383247
  65.5977384  48.5430126  60.1679355  65.5925423  47.6709942  60.1721781
  66.3038378  48.7418295  59.6948810  65.7022388  48.4434000  60.0986390
  59.3248277  48.2707110  59.5393175  59.4691653  48.8508318  58.9036285
  59.6723926  48.6483406  60.2443030  59.3975739  48.4127814  59.5492170
  61.4968195  47.4697278  57.3218307  60.7491509  47.6628292  56.9166585
  61.6509720  46.6442498  57.0842428  61.4090622  47.3762389  57.2263712
  58.3976032  56.4609881  56.4054202  58.5465596  55.9012797  55.7527606
  59.1776034  56.5401883  56.7886721  58.5350126  56.3895447  56.3651151
  68.7552672  51.6012004  44.6773472  68.3759480  50.8149142  44.6702762
  68.0918917  52.1498861  44.5345117  68.6011147  51.5656828  44.6554269
  60.9229333  56.6324524  57.6838693  60.8473004  55.9633335  58.2389481
  60.8519192  57.3342313  58.1979359  60.9009940  56.6369432  57.8415541
  61.7369972  41.3647829  58.2113710  62.1942586  42.0971803  58.3386502
  61.8126301  40.9414294  58.9700966  61.8160942  41.4105067  58.3414787
  66.2097298  34.5437704  52.0807553  66.3280866  35.0014167  51.3474856
  66.0359473  33.7382965  51.7943771  66.2016469  34.4931476  51.9308487
  61.5799580  55.1525523  48.5162299  62.3449471  54.8835167  48.1944963
  61.4777670  54.6675534  49.2332361  61.6781075  55.0415088  48.5742126
  59.6152350  43.3549933  55.0555534  58.8248424  43.1741393  55.3772870
  60.0112972  42.5776885  55.0385829  59.5569226  43.2137394  55.1008083
  64.1018240  52.1837707  40.4962248  64.8691226  52.2437832  40.0868100
  63.6549549  51.6118148  40.0118566  64.1491668  52.1074283  40.3639958
  64.9996036  50.9892363  52.7814980  64.3241038  50.7577595  53.2828367
  65.0088412  50.3813546  52.1557085  64.9014540  50.8651288  52.7631132
  62.1290180  45.8310192  59.5379033  62.0649321  46.6920148  59.4099170
  62.2687368  45.5142185  58.7374584  62.1405650  45.9110358  59.4007246
  67.0012771  53.8457495  45.0125158  67.0832608  54.6524481  44.6886609
  67.4862513  53.8653454  45.7365932  67.0849928  53.9678158  45.0712057
  60.8109274  48.5242331  53.6795236  60.3871523  48.7246830  52.9434254
  60.6354129  47.6771179  53.7919536  60.7220154  48.4291113  53.5868926
  60.3120967  60.0392844  56.1416693  60.8016898  59.3403633  55.9592358
  59.7405200  59.7416714  56.7292751  60.3005497  59.8919068  56.2017734
  66.5087971  52.6054914  65.0943484  67.3222836  52.3340062  65.2548617
  66.3482937  52.3062453  64.2903680  66.6057919  52.5209840  64.9988890
  60.8057313  53.7869618  45.2656600  60.8750133  52.9284156  45.4049600
  61.5845768  54.0041499  44.9375624  60.9310163  53.6922482  45.2373757
  63.7860133  43.2888571  58.0338872  64.0002102  42.6499485  57.4802226
  63.1694032  43.7334395  57.6046734  63.7265462  43.2598714  57.8889303
  65.1964801  56.2107319  49.4793093  64.8044592  55.9074034  48.7615959
  65.3517873  57.0476409  49.2898047  65.1618391  56.2891156  49.3449590
  65.9499221  44.8977636  58.9722179  65.1375902  44.5903526  59.0535352
  66.4089155  44.4176636  59.5364892  65.8979606  44.7814128  59.0676774
  65.3604475  52.7757308  49.4199124  65.0019130  52.9471951  50.1963156
  64.8743186  53.2370513  48.8627122  65.2363172  52.8696279  49.4524393
  63.1774861  36.3988506  53.0226215  62.3068419  36.3727227  52.9759525
  63.4315203  36.2265699  52.2052061  63.0868422  36.3698650  52.8946352
  63.0452728  46.3037707  63.7550882  63.5152359  46.9279824  64.1418756
  63.0914608  45.6354683  64.3144096  63.1220604  46.2972388  63.8950953
  60.2024002  38.4094735  54.4799685  59.6862491  37.7174926  54.6051264
  59.6417931  39.0765512  54.4262284  60.0430515  38.4057992  54.4905751
  62.2716235  38.9487695  56.3092538  61.8847989  38.9736726  57.0906068
  61.7849173  38.3829373  55.8567055  62.1428744  38.8683446  56.3580442
  66.5209215  53.6661204  60.3666325  67.1588935  53.1721399  60.0328781
  65.8783306  53.5938604  59.7818551  66.5203441  53.5820212  60.2308680
  68.2466215  45.5150350  54.9332240  67.8193823  45.4276698  54.1780340
  67.6092268  45.6228125  55.5187084  68.0895822  45.5183010  54.9077682
  61.9373377  35.8354680  58.6002798  62.5666495  36.3714980  58.3223868
  62.1059240  35.7432039  59.4516364  62.0551172  35.9016043  58.6851326
  61.7387292  40.6225875  60.8729210  62.5660721  40.3511024  60.9287824
  61.7595138  41.4186717  61.2293028  61.8640142  40.7005629  60.9344392
  66.5763471  54.3581012  57.0071681  67.3655850  54.0070077  57.1273763
  66.7507069  55.1717400  56.7448315  66.7183753  54.4266869  56.9859549
  56.3156782  47.7689738  54.0599470  55.4744788  47.6693612  54.2678364
  56.5246790  48.5385218  54.4113791  56.2221474  47.8681781  54.1426785
  65.4297296  38.3690569  51.5688100  65.6346889  38.3012877  52.4145097
  65.1023720  39.1749390  51.5009277  65.4112543  38.4776509  51.6847755
  60.1273447  45.6971137  53.3097068  59.8236584  45.1427125  53.9107475
  59.4252867  45.8763347  52.8225102  59.9789656  45.6415919  53.3266773
  58.1891798  52.9120858  58.0169166  58.0812153  52.9222920  58.8831224
  58.3987579  53.7375638  57.8274119  58.2041909  53.0361933  58.1173257
  68.6830983  38.9222333  51.0490865  68.0705297  39.4092735  51.4344597
  68.7795158  38.2465824  51.5928516  68.6068881  38.8940642  51.1869723
  56.2065590  50.1633500  55.4791103  55.6153523  50.8042998  55.4494118
  56.9686613  50.5871117  55.4522403  56.2313850  50.3209339  55.4706250
  56.6026212  41.3235498  56.1459121  57.0627694  41.3974427  56.8834244
  56.6482319  42.1216752  55.7958942  56.6776768  41.4529645  56.2031877
  58.2509562  41.9902193  60.7131148  57.8595127  41.3435540  61.1486926
  58.4195425  42.5813628  61.3325403  58.2180473  41.9816461  60.8693854
  72.3256011  49.9939270  56.4768381  72.3839135  50.4425919  57.2228358
  71.6922479  50.4038083  56.0398461  72.2407306  50.1213004  56.5220930
  65.9655106  55.6142812  52.9123128  65.7674795  56.1033626  52.2179339
  65.3442817  55.8184053  53.4907261  65.8442670  55.7159350  52.8946351
  61.9442660  39.1777967  52.2865233  61.0978705  39.3500775  52.1606583
  61.9413792  38.3727311  52.6231062  61.8189810  39.0838996  52.3176360
  63.0140960  42.9553182  53.1527291  62.5400914  42.4294944  53.6632602
  63.3859096  42.4082655  52.5842153  62.9990849  42.7969178  53.1442438
  69.2777691  48.0155558  54.5634072  69.0375914  47.1761973  54.5676498
  69.7569698  48.0955724  55.2874845  69.3129874  47.9036957  54.6708874
  64.9424460  43.8489736  46.2153045  64.4147478  43.9318480  45.5258754
  65.4020168  44.5907608  46.2117690  64.9326310  43.9710399  46.1127740
  71.2782878  44.7957015  52.5163331  71.0392648  44.7552849  51.6784115
  71.4416779  45.6428167  52.6429052  71.2673181  44.9149100  52.4116813
  67.8828908  49.1806964  58.4468376  68.6063107  48.7279490  58.2679396
  67.6178870  49.4611630  57.6640704  67.9510181  49.1557933  58.3047091
  64.4961542  52.4193300  45.3462702  65.2195741  52.8851413  45.2027275
  64.0562133  52.4866910  44.5960299  64.5377235  52.4977137  45.2147483
  63.6647697  49.2790842  56.5963391  63.0504690  48.7348893  56.8912026
  64.1814982  48.7655079  56.1169207  63.6503360  49.1227251  56.5687619
  62.9043995  50.3495112  54.3307690  62.4771603  49.7244831  53.8973125
  62.8968939  50.0670034  55.1566697  62.8403136  50.2147893  54.3887517
  63.9626825  37.5521521  57.9546913  63.4667386  37.7485195  57.2638480
  64.7195887  37.9514189  57.7835715  64.0013649  37.6399255  57.8267050
  61.2329704  41.2263867  54.5450224  61.2572191  40.6923979  53.8563004
  61.4841178  40.7181176  55.2075814  61.2739623  41.0724771  54.5414868
  57.5131026  39.9534685  53.9255968  57.5529398  40.4543892  54.6390675
  56.6880691  40.0445079  53.6561891  57.3970552  40.0416501  53.9906506
  59.6960639  49.5195425  62.0276263  58.8456270  49.6567139  62.1633907
  59.8588767  48.7859203  62.4723964  59.5944503  49.4309526  62.1131862
  58.9345390  46.4695195  56.2229867  58.1037319  46.6369013  56.0165115
  58.8796907  46.0931146  57.0078752  58.8034805  46.4384926  56.3078395
  56.7429173  39.9604088  61.8586278  57.3681876  39.4166221  62.1315710
  56.2879653  39.4799005  61.2894068  56.7677434  39.8093569  61.8147871
  70.3164222  48.1433375  56.9498926  70.9082062  48.7830626  56.9817124
  70.7523216  47.4456412  57.2390992  70.4682653  48.1351725  56.9979758
  62.1457612  52.5650747  57.5756820  61.6382703  53.1186594  58.0197450
  61.8484258  52.6259037  56.7575594  62.0262497  52.6557058  57.5205276
  64.3119794  40.9304067  56.4181483  64.7374865  40.4776593  55.8065009
  63.6976787  40.3764138  56.6946270  64.2848439  40.7818043  56.3686508
  64.7565392  56.4814005  45.5060763  64.0394702  56.3074867  45.0408000
  65.4072130  56.2466577  44.9736249  64.7467242  56.4209797  45.3589981
  62.7514017  37.4019167  49.8272060  62.1082335  37.2516813  50.3957198
  62.4113424  37.1561512  49.0621164  62.6059094  37.3431289  49.7975075
  67.3413363  45.3578593  49.2502068  66.6704553  45.9008296  49.1215134
  68.0353113  45.8273449  49.0083763  67.3442231  45.5076865  49.1957596
  61.3900097  57.4975305  54.4813826  61.1665751  56.7394135  54.8497853
  60.9009940  57.5273327  53.7594266  61.2843546  57.3897530  54.4290567
  67.5041491  41.8134477  52.1592441  67.8569101  41.3864200  52.8338240
  66.6456292  41.7285321  52.2893518  67.4290935  41.7379218  52.2787452
  65.5024756  45.0769846  56.1077284  65.4822684  44.8953141  56.9612063
  65.5503957  45.9481864  56.0836867  65.5059397  45.1786384  56.2300578
  63.4471086  51.6657038  62.0325760  63.4066941  51.0206715  61.4470916
  64.2594405  51.6093655  62.3451172  63.5614240  51.5616005  61.9922709
  60.0378554  57.7175764  51.9350911  59.6238953  57.0549894  51.5454753
  60.7225928  57.8653622  51.4146605  60.0776926  57.6416422  51.8007408
  63.4043848  56.8765849  52.6874528  63.0060131  56.9868119  51.9195348
  62.7895068  57.0847915  53.2701087  63.2542737  56.9239417  52.6605827
  68.9365551  36.9352889  53.0876754  68.4296415  36.2282029  53.0197931
  69.7332984  36.6046078  53.2177830  68.9792790  36.7826040  53.0975749
  64.8529567  43.4419501  48.9850418  64.6243260  43.4652203  48.1428776
  65.1127643  42.6176968  49.1045428  64.8575755  43.3235581  48.8775615
  59.1348795  45.2953974  58.5875518  58.6227698  44.6875157  58.9460549
  58.9628291  46.0110567  59.0549494  59.0338432  45.3117274  58.7091741
  53.9814510  43.7391550  61.2377880  53.8117100  44.3992924  60.6926086
  53.5380460  43.9498111  61.9590369  53.8913843  43.8677532  61.2639509
  71.1385691  51.4517816  46.0717618  71.5219296  52.2009172  46.3015715
  70.3429804  51.6983635  45.8129607  71.0779473  51.5987509  46.0675192
  63.0117865  43.2178219  61.0277773  63.5689296  42.9892028  60.3956239
  62.6878930  43.9783884  60.7512986  63.0464276  43.2962056  60.8934270
  60.7300983  46.3045872  61.9929781  61.4812310  46.6197549  62.3069335
  60.9223559  46.1025043  61.1663702  60.8692397  46.3213254  61.9173176
  67.5786273  42.4319438  49.2353576  67.5780499  42.2768095  50.0937852
  67.3742453  43.2782426  49.1794962  67.5486051  42.5340059  49.3541515
  65.3027125  47.1116940  52.8889783  65.7980790  46.3939935  52.8493803
  64.4926901  46.8087738  52.7744270  65.2571018  46.9614587  52.8663509
  67.3678944  49.8620628  55.5766912  67.7934015  49.3395050  55.0237337
  67.0035864  50.4601465  55.0555535  67.3765546  49.8730855  55.4175921
  57.0033024  58.1584845  54.3364257  57.3179582  58.9721234  54.3442039
  57.4126437  57.7735064  55.0046416  57.1101122  58.2213548  54.4368349
  63.9557543  53.5754892  51.9068069  64.4268721  54.2895155  52.0758054
  64.2917722  52.9753642  52.4427939  64.0752658  53.5926356  52.0100445
  66.0434528  55.1856205  64.0860141  66.1531493  54.3964766  64.4416888
  66.3725424  55.0962142  63.2834479  66.1086934  55.0562058  64.0202532
  60.8727038  38.3482363  58.8626164  61.0054944  37.5513356  59.1907139
  61.2572191  38.8748766  59.4424439  60.9483367  38.3082279  58.9969667
  64.5931489  53.3672826  58.6695762  64.0452435  52.7430710  58.4015827
  65.0544518  53.5567098  57.9539841  64.5798699  53.3031876  58.5246193
  63.9459393  35.2712689  55.4607257  63.1405357  35.1610418  55.7775095
  63.8166129  35.3725144  54.6037123  63.8079526  35.2696359  55.3815297
  67.4025354  41.4358181  56.0546954  66.8188343  41.9367387  55.6424521
  67.7229648  40.9287737  55.4211277  67.3638529  41.4350016  55.9005461
  58.5315485  38.3441538  57.1104058  59.0759898  38.0032664  57.7008399
  58.5852421  39.2026999  57.2525342  58.6204604  38.4196797  57.2185931
  54.3446044  52.1057954  53.9842865  54.9490901  52.0653788  53.3556686
  54.1373356  52.9529106  54.0146921  54.4034941  52.2245956  53.8958982
  64.1589816  54.3723899  55.2005103  64.9788190  54.2286865  55.4621398
  63.8783893  54.9970098  55.7421541  64.2386559  54.4434251  55.3193042
  73.8303151  61.1164402  52.9200910  72.9741047  61.2772900  52.9710026
  73.8770805  60.2456466  52.9405971  73.7102262  61.0115203  52.9306976
  68.2144291  70.6527119  48.6838141  67.4627190  70.2742658  48.4554186
  68.6630302  70.6845553  47.9356952  68.1693958  70.6012727  48.5395643
  76.6754972  63.1756446  55.5632561  77.2210932  63.8541532  55.6226531
  76.6171848  63.0343906  54.7034143  76.7470886  63.2548447  55.4444622
  69.7929047  70.6645512  50.9500914  69.8939410  69.8545866  51.2598041
  69.1970792  70.5702458  50.3200592  69.7201586  70.5310540  50.9027152
  62.9894091  66.6865798  50.5753247  62.7544276  65.8533451  50.4685516
  63.1279732  66.9670464  49.7614448  62.9749754  66.6049302  50.4395602
  65.2884179  58.8551529  53.4737555  64.6689210  58.2644176  53.3047570
  65.1868042  59.4462964  52.8401878  65.1821854  58.8555611  53.3542545
  70.3350366  68.5935076  47.7235631  70.6566207  69.1340283  47.1196940
  70.9822463  68.0231847  47.8557921  70.4776421  68.5894251  47.6542667
  72.3852074  60.5951071  47.8070018  73.0832239  60.7739198  48.2991481
  72.7004407  60.0721410  47.1840408  72.5347411  60.5444843  47.7872028
  65.0153312  62.4003810  55.7181124  64.8912009  62.9866256  56.3530943
  65.6671596  61.9064006  56.0193399  65.0926961  62.4142615  55.8567053
  72.5740010  66.9821516  47.7949810  73.0133645  66.3738616  48.2404582
  72.4244673  66.6028889  47.0235275  72.6161475  66.8359987  47.7468977
  70.0411653  65.5765527  54.9968635  70.6860655  65.0837971  54.6779584
  70.2813430  65.7190314  55.8234713  70.1722238  65.5242970  55.0718168
  72.5797744  68.4220433  54.6475528  72.8620987  67.6271839  54.4262284
  73.3083904  68.9001021  54.6680589  72.7287308  68.3755030  54.6178543
  70.5578938  55.9643467  51.8891293  70.2282268  56.4154611  51.2194992
  69.8823940  55.8859631  52.4364299  70.4089374  56.0194602  51.8714516
  76.1749346  65.3348697  44.7480579  76.0900641  66.1909664  44.8930148
  76.6633729  65.0593021  45.4162738  76.2338243  65.4206018  44.8682660
  77.7655346  51.9528990  50.1340903  77.4508787  52.6432469  50.5661326
  77.2482287  51.8973772  49.4326404  77.6419816  52.0463879  50.0937853
  77.1067779  61.9533491  46.2478314  76.5779251  62.1693125  46.9075620
  77.6292799  62.6469630  46.1679283  77.1056232  62.0876628  46.3333913
  68.9967387  65.8496708  45.0485782  68.4124602  66.3546739  45.4551646
  68.5937482  65.6239095  44.3082374  68.8506691  65.8904956  44.9990807
  64.5511416  71.5651469  51.8509454  64.0678994  72.2901959  51.8269037
  65.3634734  71.8627599  51.9619611  64.6002164  71.7153823  51.8636733
  70.6225570  70.3583650  54.4559268  70.1052512  69.9991065  53.8520576
  71.3199961  69.8345824  54.4665334  70.6491151  70.2281338  54.3689527
  73.4544602  62.0962360  43.5254703  73.6940605  62.3040344  42.7130046
  73.7760443  61.2919869  43.6343647  73.5381760  62.0076461  43.4215256
  68.7634892  54.0255756  47.3714241  69.5180860  54.3934073  47.1331291
  68.5862427  54.3995310  48.1393420  68.8489370  54.1353944  47.4499129
  67.4055613  72.0807645  52.0029733  68.1076192  71.5659634  52.0602490
  67.3253096  72.4081796  52.8076609  67.4979374  72.0521871  52.1302526
  68.4534520  62.3183232  61.1310149  68.6255023  62.2089126  61.9795430
  68.9903877  62.9637637  60.8941341  68.5579524  62.3975233  61.2215245
  67.1191957  56.4326075  44.0692354  66.9367530  56.6497955  43.2433346
  67.9817570  56.5465087  44.1250968  67.2196546  56.4815973  43.9546841
  66.7306389  68.2713997  51.5115341  67.5695288  68.5036930  51.5589103
  66.7618158  67.4018308  51.4422377  66.8588106  68.1770943  51.5079986
  67.3559092  68.6914872  55.8128647  67.8957317  68.5486003  56.4832019
  66.6729038  69.0911623  56.1812673  67.3351245  68.7294543  55.9663069
  72.7991676  53.4352485  47.1041377  73.5277836  53.2568440  46.6579534
  72.8886569  54.2770565  47.3148555  72.9198338  53.5336364  47.0694895
  76.7799976  64.3705873  51.0073671  77.5357491  64.8037387  51.0462580
  76.8862301  63.7210642  51.5808307  76.9070147  64.3383357  51.0971697
  62.7596237  64.9115163  55.9663068  62.4934652  64.0954280  56.1254059
  62.7734801  64.9568318  55.0958584  62.7220959  64.7972068  55.8616550
  66.6653984  59.7100247  42.5814827  65.9512161  59.4238427  42.9937259
  67.1497952  60.0496873  43.2221214  66.6313347  59.7181897  42.7370462
  67.5094843  58.4493541  58.6130076  66.8166640  57.9790521  58.8590808
  68.1255170  58.2231846  59.1871783  67.4979373  58.3460673  58.7339229
  73.8401302  68.2130201  42.9576635  74.2552450  67.8815225  42.2661131
  73.0093231  67.9799103  42.8296771  73.7789310  68.1301457  42.8367482
  63.1689650  65.6973942  53.2474813  62.9865224  65.6720828  52.3947105
  63.9039319  66.1672880  53.2863722  63.2503714  65.7635304  53.1272731
  66.2335402  62.4158945  59.7556921  66.9575374  62.4011976  60.2421816
  66.3351538  63.1254300  59.2578890  66.3553611  62.5183648  59.7535708
  76.2811670  62.6192021  48.9100884  76.3758525  63.3581315  49.3640510
  75.6570514  62.1909496  49.3435449  76.2020700  62.6653341  49.0409032
  63.1360561  62.5767443  53.3973879  63.7134063  62.4403894  54.0366125
  62.4374622  62.1203227  53.6519464  63.1181582  62.4889709  53.5296169
  76.5334692  64.4640761  42.1437836  76.4514854  64.5342948  43.0092823
  77.1714412  65.0270505  41.9521577  76.6154529  64.5579732  42.2427786
  69.8927863  64.2301499  51.6112363  69.6347107  63.3973233  51.5843662
  69.9476346  64.4559112  50.7704863  69.8627641  64.1399270  51.4832499
  74.9728913  56.3329949  51.7116455  74.2685240  55.8439135  51.8700374
  75.0213887  56.3452424  50.8404900  74.8758965  56.2619597  51.6055795
  68.8662575  61.7839261  52.0977257  68.2912166  61.9431429  52.7341218
  68.4898251  61.1474670  51.6345708  68.7265387  61.7137074  52.1231816
  72.5335864  60.2562610  56.9569636  72.1450296  59.8316828  56.3021827
  71.8690562  60.5044760  57.4646662  72.3782791  60.2301331  56.9357504
  58.6119394  61.4279336  50.1121698  58.6979646  61.0511204  50.8935228
  59.2395191  61.0539781  49.6341656  58.7175945  61.3164818  50.1567175
  76.3562225  53.9537239  54.4693620  76.7372737  53.2715410  54.8561494
  75.5525509  53.6646841  54.2869284  76.2938687  53.8104288  54.4997676
  73.6374802  64.4861215  45.1546443  74.4515441  64.7776108  45.0429214
  73.5733943  63.8321077  44.5804736  73.7477541  64.4326410  45.0535280
  69.5082710  67.9582732  50.2818755  70.1456657  67.7194480  50.8270548
  69.9337782  68.1619891  49.5471915  69.6658876  67.9533743  50.2535912
  64.1995353  70.1971069  54.1653059  64.2399498  70.4685920  53.3372838
  64.7589877  70.7212977  54.5810846  64.2878698  70.3146824  54.1044947
  70.1485525  63.1785022  44.6193644  70.5330678  62.9592729  45.3710189
  69.8997145  64.0047968  44.7494721  70.1687598  63.2683168  44.7494721
  70.3154066  56.4591437  64.3356228  70.0007507  57.2291000  64.0725791
  69.9943998  55.8961693  63.7508455  70.2212985  56.4901706  64.2097578
  71.8904182  68.4355155  51.9612541  71.9643190  68.2730327  52.8154391
  72.7073688  68.6245345  51.7173023  72.0220541  68.4391897  52.0510567
  65.6509939  68.7813018  48.9906985  64.8248056  69.0274755  48.8641263
  65.7121930  68.7025099  49.8569043  65.5384106  68.8057967  49.0995929
  67.8685963  54.8481959  49.9502425  67.0008388  54.9204558  50.0160034
  68.1561167  55.6504038  50.1390400  67.7825711  54.9776106  49.9877191
  76.9918851  54.9959818  58.2813747  77.7372443  54.8069629  57.8677172
  76.5756156  55.5218056  57.7227603  77.0403825  55.0461964  58.1378320
  70.4308768  71.3989898  46.6926014  70.7207066  71.0078879  45.9685241
  71.1612249  71.5806603  47.1331290  70.5815652  71.3683712  46.6508821
  71.0203513  66.2007644  57.7779145  70.5215207  66.9123412  57.8564033
  71.8303737  66.5208311  57.7397307  71.0659620  66.3534493  57.7835713
  68.3714683  73.3757280  49.7586164  68.1514979  73.0854635  50.5512831
  68.1509205  72.7172236  49.2304077  68.3062278  73.2356989  49.7975073
  67.2831631  65.4630597  52.0241866  66.9944879  64.8368068  52.5587593
  68.1514979  65.4050884  52.0906546  67.3691882  65.3618141  52.1132820
  78.0709528  60.6065380  52.3423848  77.7274294  59.8855716  52.6931097
  78.1702571  60.3979232  51.5002206  78.0351571  60.4689584  52.2695528
  67.4863904  67.1025848  47.9484231  68.2409872  67.4838887  48.1619693
  66.8934517  67.5536992  48.4030927  67.5100618  67.2254675  48.0467109
  69.9470571  59.0588688  63.0741443  69.1370347  59.3646468  62.9631285
  70.4245258  59.7794271  63.1894027  69.8974050  59.2103290  63.0748514
  68.8062131  68.2734409  53.3224346  68.2842884  68.4134701  54.0076211
  69.1936151  67.5145074  53.5126464  68.7865831  68.1819933  53.4525423
  65.7953315  58.3240218  47.3919301  65.5078110  57.9541489  46.6551248
  66.4823783  58.7935073  47.1303006  65.8542212  58.3387188  47.2434377
  70.2328456  65.3038428  48.7205837  70.0371239  65.9113163  48.1266140
  70.4562802  64.6106372  48.2397511  70.2363097  65.2915954  48.5621918
  68.6306986  62.1893166  48.8386706  69.3529638  62.3534324  48.3790512
  68.1514979  62.9102831  48.7326045  68.6670717  62.3191396  48.7552320
  76.5900494  58.5256965  54.2183391  75.7511594  58.5518244  53.9821654
  76.6604861  59.1727701  54.7988737  76.4768887  58.6253091  54.2692507
  66.2814603  64.5951239  57.9440846  66.7935700  64.8735492  57.2949605
  65.9950945  65.3340533  58.3103659  66.3149466  64.7453592  57.9030724
  75.0369772  55.4242342  48.9511007  75.7396125  55.2250090  48.4730965
  74.7713961  54.6518285  49.2579850  75.1016404  55.2805308  48.9256448
  63.3681509  59.1021431  48.2404582  63.4697646  59.9047592  48.5685557
  64.1637396  58.9008767  47.9427663  63.5009415  59.1907329  48.2439937
  69.7998328  56.6877627  58.0041887  69.6081525  56.7032762  58.8541311
  70.6496924  56.8841302  57.9808542  69.8974050  56.7191979  58.1265182
  64.1845241  59.2168609  55.9825704  64.0430733  58.3652549  56.1070212
  64.4685805  59.2597269  55.1587910  64.2053087  59.0968359  55.8793328
  74.3383834  61.0535699  50.1270192  74.0918548  60.9731450  50.9606981
  74.6668957  60.2689167  49.9332719  74.3505077  60.9261964  50.2217715
  70.2980861  63.7892418  59.5393175  70.4424237  64.3693626  58.9036285
  70.6456509  64.1668714  60.2443030  70.3708322  63.9313122  59.5492170
  72.4700778  62.9882586  57.3218307  71.7224092  63.1813600  56.9166585
  72.6242304  62.1627806  57.0842428  72.3823206  62.8947697  57.2263712
  72.7102555  56.8833137  58.2113710  73.1675169  57.6157111  58.3386502
  72.7858884  56.4599602  58.9700966  72.7893525  56.9290375  58.3414787
  64.9535547  57.1298956  59.3003154  64.4177736  56.5179315  59.6163921
  65.0153311  57.7047092  59.9536821  64.8831179  57.1245884  59.4438581
  77.1829881  50.0623012  52.0807553  77.3013449  50.5199475  51.3474856
  77.0092057  49.2568273  51.7943771  77.1749052  50.0116784  51.9308487
  72.5532163  70.6710831  48.5162299  73.3182055  70.4020475  48.1944963
  72.4510253  70.1860842  49.2332361  72.6513659  70.5600396  48.5742126
  70.5884933  58.8735241  55.0555534  69.7981008  58.6926701  55.3772870
  70.9845556  58.0962193  55.0385829  70.5301809  58.7322702  55.1008083
  75.0750824  67.7023015  40.4962248  75.8423809  67.7623140  40.0868100
  74.6282133  67.1303456  40.0118566  75.1224251  67.6259591  40.3639958
  75.9728620  66.5077671  52.7814980  75.2973621  66.2762903  53.2828367
  75.9820996  65.8998854  52.1557085  75.8747124  66.3836596  52.7631132
  73.1022764  61.3495500  59.5379033  73.0381905  62.2105456  59.4099170
  73.2419951  61.0327493  58.7374584  73.1138234  61.4295666  59.4007246
  71.7841857  64.0427639  53.6795236  71.3604107  64.2432138  52.9434254
  71.6086713  63.1956487  53.7919536  71.6952738  63.9476421  53.5868926
  67.0724302  64.5379691  49.1123209  67.2288922  64.4726493  49.9679201
  67.4124895  65.3128243  48.9001888  67.1457537  64.6428889  49.2077803
  73.6103447  63.9137574  47.9816572  74.1518992  63.4107955  48.4455192
  73.9250006  63.8602769  47.1706057  73.7367844  63.8316995  47.9300384
  71.7789897  69.3054926  45.2656600  71.8482717  68.4469464  45.4049600
  72.5578352  69.5226807  44.9375624  71.9042747  69.2107790  45.2373757
  74.7592716  58.8073879  58.0338872  74.9734686  58.1684793  57.4802226
  74.1426616  59.2519702  57.6046734  74.6998046  58.7784022  57.8889303
  63.6458564  61.7214641  49.4283976  64.0257529  62.1399186  48.7644243
  63.0713929  62.3028097  49.7352819  63.6169889  61.8692500  49.3760717
  76.9231804  60.4162944  58.9722179  76.1108486  60.1088834  59.0535352
  77.3821739  59.9361944  59.5364892  76.8712189  60.2999436  59.0676774
  76.3337059  68.2942616  49.4199124  75.9751714  68.4657259  50.1963156
  75.8475770  68.7555821  48.8627122  76.2095756  68.3881587  49.4524393
  74.1507445  51.9173814  53.0226215  73.2801003  51.8912535  52.9759525
  74.4047786  51.7451006  52.2052061  74.0601005  51.8883958  52.8946352
  71.1225424  63.9741781  41.9599358  71.4117949  64.7506664  42.2342932
  71.2097223  63.4630513  42.6613857  71.1779681  64.0133700  42.1041856
  71.1756585  53.9280043  54.4799685  70.6595074  53.2360234  54.6051264
  70.6150514  54.5950820  54.4262284  71.0163099  53.9243300  54.4905751
  73.2448819  54.4673003  56.3092538  72.8580572  54.4922034  57.0906068
  72.7581756  53.9014681  55.8567055  73.1161328  54.3868754  56.3580442
  72.9105961  51.3539988  58.6002798  73.5399079  51.8900288  58.3223868
  73.0791823  51.2617347  59.4516364  73.0283755  51.4201350  58.6851326
  72.7119876  56.1411183  60.8729210  73.5393305  55.8696332  60.9287824
  72.7327722  56.9372025  61.2293028  72.8372726  56.2190937  60.9344392
  67.2889365  63.2875046  54.0599470  66.4477372  63.1878920  54.2678364
  67.4979373  64.0570526  54.4113791  67.1954058  63.3867089  54.1426785
  64.7664932  60.9094583  51.8884221  64.3721630  60.9837595  51.1134331
  64.2105049  61.2952529  52.4392583  64.6267745  60.9776357  51.8551881
  76.4029879  53.8875877  51.5688100  76.6079473  53.8198185  52.4145097
  76.0756303  54.6934698  51.5009277  76.3845127  53.9961817  51.6847755
  71.1006030  61.2156445  53.3097068  70.7969168  60.6612433  53.9107475
  70.3985451  61.3948655  52.8225102  70.9522240  61.1601227  53.3266773
  70.1572127  58.5256965  47.8741770  70.4331862  57.8075877  47.4619337
  70.7570797  59.1241885  47.6662876  70.2865392  58.5077335  47.7822531
  69.1624381  68.4306166  58.0169166  69.0544736  68.4408228  58.8831224
  69.3720163  69.2560946  57.8274119  69.1774492  68.5547240  58.1173257
  73.6582648  56.1970482  46.1488365  74.1126394  56.3681042  46.8736209
  74.1322694  55.5838593  45.7486140  73.7950968  56.1321367  46.1962126
  67.1798173  65.6818808  55.4791103  66.5886107  66.3228306  55.4494118
  67.9419197  66.1056425  55.4522403  67.2046434  65.8394646  55.4706250
  67.5758796  56.8420806  56.1459121  68.0360278  56.9159735  56.8834244
  67.6214903  57.6402060  55.7958942  67.6509351  56.9714953  56.2031877
  69.2242146  57.5087501  60.7131148  68.8327711  56.8620848  61.1486926
  69.3928009  58.0998936  61.3325403  69.1913056  57.5001769  60.8693854
  70.9995668  62.9013016  47.2533372  71.7437713  63.2887293  47.4916322
  71.1456364  62.0570442  47.4173860  71.1306253  62.8343489  47.3127342
  72.9175243  54.6963275  52.2865233  72.0711288  54.8686083  52.1606583
  72.9146376  53.8912619  52.6231062  72.7922393  54.6024304  52.3176360
  73.9873544  58.4738490  53.1527291  73.5133498  57.9480252  53.6632602
  74.3591680  57.9267963  52.5842153  73.9723433  58.3154486  53.1442438
  64.3646574  60.4709996  58.5210837  65.2272187  60.3705706  58.4348167
  64.0338357  59.8904706  57.9596409  64.4431770  60.3701623  58.4256243
  75.9157043  59.3675044  46.2153045  75.3880062  59.4503788  45.5258754
  76.3752752  60.1092916  46.2117690  75.9058894  59.4895707  46.1127740
  67.7248360  59.2952445  55.1821255  67.1001430  59.3070837  54.5747208
  67.3893955  59.7712621  55.8312495  67.5833852  59.3670962  55.1877824
  67.9090109  57.6377564  41.2393940  67.5602913  58.2897289  41.7025489
  67.4286554  57.6234677  40.5117811  67.7860352  57.7320618  41.2005031
  64.4374035  67.3552906  56.6225019  63.9073960  66.6645344  56.6719994
  64.7099129  67.3463091  55.7937728  64.3998758  67.2520037  56.5072435
  75.4694126  67.9378608  45.3462702  76.1928325  68.4036721  45.2027275
  75.0294717  68.0052218  44.5960299  75.5109818  68.0162445  45.2147483
  74.6380281  64.7976150  56.5963391  74.0237274  64.2534200  56.8912026
  75.1547566  64.2840387  56.1169207  74.6235943  64.6412559  56.5687619
  73.8776578  65.8680420  54.3307690  73.4504186  65.2430139  53.8973125
  73.8701522  65.5855342  55.1566697  73.8135719  65.7333201  54.3887517
  66.9939105  60.9045593  57.3996124  67.1532592  60.1488917  57.8047846
  66.8131999  61.4536533  58.0536861  66.9904464  60.8739407  57.5558830
  74.9359408  53.0706829  57.9546913  74.4399969  53.2670503  57.2638480
  75.6928470  53.4699497  57.7835715  74.9746233  53.1584563  57.8267050
  72.2062288  56.7449175  54.5450224  72.2304775  56.2109287  53.8563004
  72.4573761  56.2366484  55.2075814  72.2472206  56.5910079  54.5414868
  59.7169878  64.0280670  53.9793368  59.6113327  63.9827514  53.1145452
  58.9670098  64.3734450  54.2607653  59.5905481  64.0721578  53.8930697
  68.4863610  55.4719993  53.9255968  68.5261982  55.9729200  54.6390675
  67.6613275  55.5630387  53.6561891  68.3703136  55.5601809  53.9906506
  69.9077973  61.9880503  56.2229867  69.0769903  62.1554321  56.0165115
  69.8529491  61.6116454  57.0078752  69.7767388  61.9570234  56.3078395
  67.7161757  55.4789396  61.8586278  68.3414460  54.9351529  62.1315710
  67.2612237  54.9984313  61.2894068  67.7410017  55.3278877  61.8147871
  68.2814017  60.2636094  46.7519985  68.4216978  60.7608559  47.4548626
  68.7796550  59.5622389  46.8934198  68.3755098  60.2338073  46.8771564
  68.3114240  61.1303205  44.0812561  68.9459319  61.7263630  44.0162023
  68.3939850  60.8306663  44.8958432  68.4170791  61.1744114  44.1915648
  69.8893222  57.0617181  44.0558003  70.2109064  56.5820263  43.4017266
  70.1520166  57.8716827  43.8648815  69.9759248  57.1107079  43.9313496
  75.2852377  56.4489375  56.4181483  75.7107449  55.9961901  55.8065009
  74.6709371  55.8949445  56.6946270  75.2581023  56.3003351  56.3686508
  64.8167228  63.3271046  47.3502108  65.3259457  63.9235554  47.7313413
  65.2901500  63.0597020  46.6678527  64.9610603  63.3756862  47.3056630
  73.7246600  52.9204475  49.8272060  73.0814918  52.7702121  50.3957198
  73.3846007  52.6746820  49.0621164  73.5791678  52.8616597  49.7975075
  67.1757759  59.9627305  50.2175288  66.4569748  60.3791437  50.4848151
  67.5470122  60.5281543  49.6666926  67.1249691  60.1076586  50.1758095
  76.4757340  60.5955154  56.1077284  76.4555267  60.4138449  56.9612063
  76.5236541  61.4667172  56.0836867  76.4791981  60.6971692  56.2300578
  72.9504334  59.0025305  45.5548667  72.3569173  59.3242301  45.0033234
  72.9879611  58.1566400  45.3469774  72.8678723  58.9249633  45.4431439
  75.8262150  58.9604809  48.9850418  75.5975843  58.9837511  48.1428776
  76.0860226  58.1362276  49.1045428  75.8308338  58.8420889  48.8775615
  70.1081379  60.8139282  58.5875518  69.5960282  60.2060465  58.9460549
  69.9360875  61.5295875  59.0549494  70.0071016  60.8302581  58.7091741
  64.9547093  59.2576857  61.2377880  64.7849684  59.9178232  60.6926086
  64.5113043  59.4683419  61.9590369  64.8646427  59.3862840  61.2639509
  68.8806913  57.4981355  50.2804613  69.3564279  57.8598435  49.6454794
  68.3795512  58.1537823  50.5604756  68.8772272  57.6475544  50.2281354
  73.9850449  58.7363527  61.0277773  74.5421879  58.5077336  60.3956239
  73.6611514  59.4969192  60.7512986  74.0196859  58.8147363  60.8934270
  61.8549158  62.1623723  56.4966369  61.3075877  61.4924369  56.6147238
  62.6441536  61.7953571  56.5609837  61.8901342  62.0088709  56.5235070
  70.9233566  59.6422555  43.6477997  71.3032531  59.6602184  42.8629112
  70.1826162  60.0876544  43.5268845  70.8702404  59.7104330  43.5141565
  78.5518856  57.9504746  49.2353576  78.5513083  57.7953403  50.0937852
  78.3475036  58.7967733  49.1794962  78.5218634  58.0525367  49.3541515
  60.6136127  61.3744531  53.6512393  60.4357888  60.9221140  54.3767308
  60.3255149  62.1770692  53.8350870  60.5449080  61.4267089  53.7855895
  76.2759708  62.6302248  52.8889783  76.7713374  61.9125243  52.8493803
  75.4659484  62.3273046  52.7744270  76.2303602  62.4799894  52.8663509
  71.7218320  66.4800061  45.0386787  70.9129643  66.1566735  44.9920097
  72.2293229  65.7733284  44.9715036  71.6767987  66.3281378  45.0217082
  62.3508597  63.9072255  50.7634152  61.4854117  63.8957945  50.6516923
  62.4507413  63.7202477  51.6105291  62.2382764  63.8778316  50.8723096
  67.9765607  73.6770153  54.3364257  68.2912166  74.4906542  54.3442039
  68.3859020  73.2920372  55.0046416  68.0833705  73.7398856  54.4368349
  74.9290127  69.0940200  51.9068069  75.4001305  69.8080463  52.0758054
  75.2650305  68.4938950  52.4427939  75.0485242  69.1111664  52.0100445
  71.8459622  53.8667671  58.8626164  71.9787527  53.0698664  59.1907139
  72.2304774  54.3934074  59.4424439  71.9215951  53.8267587  58.9969667
  74.9191977  50.7897997  55.4607257  74.1137941  50.6795726  55.7775095
  74.7898712  50.8910452  54.6037123  74.7812110  50.7881667  55.3815297
  78.3757937  56.9543489  56.0546954  77.7920926  57.4552695  55.6424521
  78.6962231  56.4473045  55.4211277  78.3371113  56.9535324  55.9005461
  70.9152737  55.8684083  46.3305629  71.7368431  56.0382396  46.0887324
  70.4522387  56.0231344  45.6071926  70.9683899  55.9165816  46.1877273
  69.5048068  53.8626846  57.1104058  70.0492481  53.5217972  57.7008399
  69.5585004  54.7212307  57.2525342  69.5937188  53.9382105  57.2185931
  65.3178627  67.6243262  53.9842865  65.9223485  67.5839096  53.3556686
  65.1105940  68.4714414  54.0146921  65.3767525  67.7431264  53.8958982
  60.5529910  66.6077879  53.8541789  60.4554188  65.7974151  54.1631845
  61.3358779  66.5869673  53.4688057  60.6546046  66.4844969  53.8428652
  34.9897364   1.0349327  35.6178188  34.2380263   0.6564865  35.3894233
  35.4383376   1.0667760  34.8696998  34.9447031   0.9834934  35.4735690
  40.4422324   1.4574696  31.0463735  40.1073692   2.1351618  30.6107957
  40.9549194   1.0680008  30.4580607  40.4687905   1.4999275  30.8950527
  39.9826615   3.4088965  36.9874847  40.3665994   3.9775864  36.4479622
  39.9185756   2.6838475  36.5080663  40.0300042   3.3864428  36.8368709
  36.5682120   1.0467719  37.8840961  36.6692483   0.2368073  38.1938088
  35.9723865   0.9524665  37.2540639  36.4954659   0.9132747  37.8367199
  36.4082860   5.9645308  39.2855817  37.0520315   6.4058472  39.6751975
  36.7339115   5.1598734  39.1986075  36.5514688   5.9110503  39.3301294
  29.7647164  -2.9311994  37.5093294  29.5297349  -3.7644342  37.4025563
  29.9032805  -2.6507329  36.6954495  29.7502827  -3.0128491  37.3735649
  37.1103439  -1.0242717  34.6575678  37.4319280  -0.4837510  34.0536986
  37.7575536  -1.5945946  34.7897968  37.2529495  -1.0283542  34.5882714
  31.3264489   1.9473676  38.7849500  30.8432067   2.6724166  38.7609084
  32.1387807   2.2449806  38.8959658  31.3755237   2.0976030  38.7976780
  37.3978643   0.7405857  41.3899315  36.8805585   0.3813272  40.7860623
  38.0953034   0.2168031  41.4005381  37.4244224   0.6103545  41.3029574
  41.0542235   1.1900671  47.3515488  41.1425581   1.0026812  48.1993698
  41.4831948   0.5438101  46.9520335  41.1304337   1.0663679  47.4187239
  38.6212695   0.4731831  46.3333150  38.0583530   0.0604441  46.8572811
  39.3833718   0.3984737  46.7526293  38.6507143   0.4009232  46.4726150
  34.1808686   2.4629852  38.9369780  34.8829266   1.9481841  38.9942537
  34.1006169   2.7904004  39.7416655  34.2732447   2.4344078  39.0642572
  33.5059462  -1.3463796  38.4455388  34.3448361  -1.1140863  38.4929150
  33.5371231  -2.2159484  38.3762424  33.6341179  -1.4406849  38.4420033
  34.1312165  -0.9262921  42.7468694  34.6710390  -1.0691790  43.4172066
  33.4482111  -0.5266170  43.1152720  34.1104319  -0.8883250  42.9003115
  41.1662294   0.6209690  50.0159271  41.9502711   0.7340538  50.3815014
  40.9658889  -0.2049173  50.2117957  41.2528320   0.5156410  50.0993657
  41.3232688   2.5319792  43.6625727  40.5247933   2.2919292  43.9199596
  41.7718699   2.5834185  44.4092775  41.2707299   2.5042183  43.8110651
  29.9442723  -3.9203850  40.1814860  29.7618297  -3.9456964  39.3287152
  30.6792392  -3.4504913  40.2203768  30.0256787  -3.8542488  40.0612778
  36.2835783  -1.6595060  37.2158802  36.9209730  -1.8983313  37.7610595
  36.7090855  -1.4557901  36.4811962  36.4411950  -1.6644050  37.1875959
  30.9748426   0.5793276  41.0993105  31.0152571   0.8508127  40.2712885
  31.5342950   1.1035184  41.5150893  31.0631772   0.6969031  41.0384994
  38.6657255  -1.1822638  38.8952588  38.7396264  -1.3447466  39.7494438
  39.4826762  -0.9932448  38.6513070  38.7973614  -1.1785895  38.9850613
  32.4263012  -0.8364775  35.9247031  31.6001130  -0.5903038  35.7981310
  32.4875003  -0.9152694  36.7909089  32.3137179  -0.8119826  36.0335976
  37.2061841   1.7812105  33.6266061  37.4960139   1.3901087  32.9025288
  37.9365322   1.9628810  34.0671337  37.3568725   1.7505919  33.5848868
  35.1467757   3.7579488  36.6926211  34.9268052   3.4676843  37.4852878
  34.9262279   3.0994443  36.1644123  35.0815351   3.6179196  36.7315120
  37.3135712   5.1308878  35.4756903  37.9659770   4.5985320  35.7047929
  36.6161321   4.7777530  35.8624777  37.3066430   4.9998401  35.5669071
  34.2616977  -2.5151945  34.8824278  35.0162945  -2.1338905  35.0959740
  33.6687590  -2.0640801  35.3370974  34.2853691  -2.3923117  34.9807156
  35.5815204  -1.3443383  40.2564393  35.0595957  -1.2043092  40.9416258
  35.9689224  -2.1032719  40.4466510  35.5618905  -1.4357859  40.3865470
  41.7782209   0.3952076  34.2424962  41.5368885  -0.3380063  33.8352027
  41.9583542   0.9438933  33.5891295  41.7689833   0.3674467  34.0855185
  36.1461689   2.3617397  43.3394249  36.2951253   1.8020313  42.6867653
  36.9261691   2.4409399  43.7226767  36.2835783   2.2902962  43.2991198
  38.6714990   2.5332040  44.6178739  38.5958661   1.8640850  45.1729528
  38.6004849   3.2349828  45.1319406  38.6495597   2.5376947  44.7755588
  39.3285237   1.0533039  35.4502345  40.0935128   0.7842682  35.1285010
  39.2263327   0.5683049  36.1672408  39.4266732   0.9422603  35.5082173
  38.0606624   5.9400359  43.0756740  38.5502554   5.2411149  42.8932405
  37.4890856   5.6424229  43.6632798  38.0491154   5.7926583  43.1357781
  38.5542970  -0.3122867  32.1996647  38.6235790  -1.1708329  32.3389647
  39.3331425  -0.0950986  31.8715671  38.6795820  -0.4070003  32.1713804
  42.9450457   2.1114834  36.4133140  42.5530249   1.8081549  35.6956006
  43.1003530   2.9483924  36.2238094  42.9104047   2.1898671  36.2789637
  35.9377454  -1.1871627  44.9509212  35.8297809  -1.1769565  45.8171270
  36.1473236  -0.3616847  44.7614166  35.9527566  -1.0630552  45.0513304
  43.7140763   1.5150327  39.8463174  43.5160451   2.0041141  39.1519386
  43.0928474   1.7191569  40.4247308  43.5928327   1.6166865  39.8286398
  31.2127109  -2.2624887  43.5565066  30.6827033  -2.9532448  43.6060041
  31.4852202  -2.2714702  42.7277775  31.1751831  -2.3657755  43.4412482
  26.4922951  -5.5897123  40.9133415  26.3866400  -5.6350279  40.0485499
  25.7423171  -5.2443342  41.1947699  26.3658554  -5.5456215  40.8270744
  39.8943268  -1.5341737  44.5096866  39.3868360  -0.9805891  44.9537497
  39.5969915  -1.4733448  43.6915641  39.7748153  -1.4435426  44.4545323
  42.5051049   2.3821520  32.4400810  41.7880358   2.2082382  31.9748047
  43.1557786   2.1474093  31.9076296  42.4952899   2.3217313  32.2930028
  39.1385754   3.3982821  41.4153873  38.9151408   2.6401650  41.7837900
  38.6495597   3.4280842  40.6934313  39.0329203   3.2905045  41.3630614
  37.7864211   3.6183279  38.8690958  37.3724609   2.9557409  38.4794800
  38.4711585   3.7661138  38.3486652  37.8262582   3.5423937  38.7347455
  41.1529505   2.7773364  39.6214574  40.7545788   2.8875634  38.8535395
  40.5380724   2.9855430  40.2041134  41.0028394   2.8246932  39.5945874
  34.7518680   4.0592361  41.2704304  35.0665239   4.8728749  41.2782086
  35.1612094   3.6742579  41.9386463  34.8586778   4.1221063  41.3708396
  43.7920185   1.0863721  51.0200188  43.9017150   0.2972281  51.3756935
  44.1211081   0.9969657  50.2174526  43.8572590   0.9569574  50.9542579
  32.0931700  -1.9934531  40.9182912  32.6976558  -2.0338697  40.2896733
  31.8859013  -1.1463379  40.9486968  32.1520598  -1.8746528  40.8299029
  41.9075473   0.2731414  42.1345150  42.7273846   0.1294380  42.3961445
  41.6269550   0.8977613  42.6761588  41.9872216   0.3441766  42.2533089
  27.3282983  -3.0099913  40.7881835  27.2307261  -3.8203642  41.0971892
  28.1111852  -3.0308120  40.4028104  27.4299119  -3.1332823  40.7768698
  58.3789123   7.9296266  35.0988026  58.3483127   8.7840903  35.2706295
  58.9770472   7.6291558  35.6574170  58.4626281   8.0112762  35.2062828
  51.5788808   7.0171917  39.8540956  50.7226703   7.1780415  39.9050073
  51.6256462   6.1463981  39.8746018  51.4587919   6.9122719  39.8647022
  54.8882524  13.2858443  49.4601413  55.5949292  12.7910473  49.5888347
  55.0770460  13.7267524  48.7304071  55.0210430  13.2776793  49.3710458
  51.4154907  16.9760004  31.0463735  51.0806276  17.6536926  30.6107957
  51.9281778  16.5865316  30.4580607  51.4420489  17.0184582  30.8950527
  50.9559199  18.9274273  36.9874847  51.3398578  19.4961172  36.4479622
  50.8918340  18.2023783  36.5080663  51.0032626  18.9049736  36.8368709
  54.4240629   9.0763961  42.4972608  54.9696589   9.7549047  42.5566578
  54.3657505   8.9351422  41.6374190  54.4956543   9.1555963  42.3784669
  56.2005697  10.5048568  33.3706336  56.0845223  11.2556254  33.7998474
  56.9961584  10.2472521  33.6202423  56.3010287  10.5783415  33.4710428
  40.7379748  12.5873313  37.5093294  40.5029932  11.7540966  37.4025563
  40.8765389  12.8677979  36.6954495  40.7235410  12.5056817  37.3735649
  43.0369835   4.7559044  40.4077602  42.4174867   4.1651691  40.2387617
  42.9353699   5.3470479  39.7741925  42.9307511   4.7563127  40.2882591
  50.1337731   6.4958586  34.7410065  50.8317896   6.6746713  35.2331528
  50.4490064   5.9728925  34.1180454  50.2833068   6.4452358  34.7212075
  42.7638968   8.3011326  42.6521171  42.6397665   8.8873771  43.2870990
  43.4157253   7.8071522  42.9533446  42.8412618   8.3150130  42.7907100
  47.7897309  11.4773043  41.9308682  48.4346312  10.9845486  41.6119630
  48.0299086  11.6197829  42.7574760  47.9207895  11.4250485  42.0058215
  50.3283401  14.3227949  41.5815575  50.6106644  13.5279354  41.3602330
  51.0569561  14.8008536  41.6020636  50.4772965  14.2762546  41.5518590
  48.3064595   1.8650983  38.8231340  47.9767925   2.3162126  38.1535038
  47.6309596   1.7867146  39.3704346  48.1575031   1.9202118  38.8054563
  53.9235003  11.2356212  31.6820626  53.8386298  12.0917179  31.8270195
  54.4119386  10.9600536  32.3502785  53.9823900  11.3213534  31.8022707
  54.8553436   7.8541006  33.1818361  54.3264908   8.0700640  33.8415667
  55.3778456   8.5477145  33.1019330  54.8541889   7.9884143  33.2673960
  60.3101489  13.4287311  38.5551405  59.4799192  13.6397954  38.7184822
  60.2610741  12.6024365  38.2793689  60.1808225  13.3376917  38.5388771
  46.7453044  11.7504223  31.9825829  46.1610259  12.2554255  32.3891693
  46.3423139  11.5246610  31.2422421  46.5992348  11.7912471  31.9330854
  52.0274819  16.7085979  47.3515488  52.1158165  16.5212119  48.1993698
  52.4564531  16.0623409  46.9520335  52.1036921  16.5848987  47.4187239
  51.2030258   7.9969875  30.4594749  51.4426262   8.2047859  29.6470093
  51.5246099   7.1927384  30.5683694  51.2867416   7.9083976  30.3555302
  59.8055447   6.0757711  42.3501827  58.9683869   6.1459899  42.5849421
  59.7743678   6.0782206  41.4776129  59.6773730   6.0867939  42.2561375
  46.2020176   8.2190747  48.0650195  46.3740680   8.1096642  48.9135477
  46.7389534   8.8645153  47.8281388  46.3065180   8.2982749  48.1555292
  44.8677613   2.3333590  31.0032400  44.6853187   2.5505471  30.1773393
  45.7303226   2.4472603  31.0591015  44.9682203   2.3823488  30.8886887
  54.5285633  10.2713388  37.9413718  55.2843148  10.7044902  37.9802627
  54.6347958   9.6218158  38.5148354  54.6555804  10.2390872  38.0311744
  57.5665804  14.0986665  38.6916121  57.1301036  14.1023408  39.4475093
  57.2328720  14.7792164  38.2595699  57.4528424  14.1999121  38.7396954
  52.1394878  16.1394998  50.0159271  52.9235295  16.2525846  50.3815014
  51.9391473  15.3136135  50.2117957  52.2260903  16.0341717  50.0993657
  40.5081893  10.8122678  42.9003115  40.2420309   9.9961795  43.0594106
  40.5220458  10.8575834  42.0298631  40.4706616  10.6979583  42.7956597
  44.4139640   5.6107763  29.5154873  43.6997818   5.3245942  29.9277306
  44.8983609   5.9504388  30.1561261  44.3799004   5.6189412  29.6710508
  45.2580500   4.3501056  45.5470123  44.5652297   3.8798036  45.7930855
  45.8740827   4.1239361  46.1211830  45.2465030   4.2468188  45.6679276
  60.7010151  10.8167585  37.5835758  61.3626585  10.2558254  37.4831667
  60.0601563  10.3219616  37.9088450  60.7039018  10.6603994  37.6168099
  51.5886958  14.1137717  29.8916682  52.0038107  13.7822740  29.2001177
  50.7578888  13.8806619  29.7636818  51.5274967  14.0308973  29.7707529
  40.9175307  11.5981458  40.1814860  40.7350880  11.5728344  39.3287152
  41.6524976  12.0680395  40.2203768  40.9989371  11.6642820  40.0612778
  56.9874981  11.8332968  37.3247747  57.2230570  11.9778166  36.4974598
  57.1364545  12.5975376  37.7179261  57.0440785  11.9672022  37.2611351
  43.9821059   8.3166460  46.6896968  44.7061031   8.3019491  47.1761863
  44.0837195   9.0261816  46.1918936  44.1039268   8.4191164  46.6875755
  58.8165438  10.6734633  35.1617351  59.1473655  11.2062274  34.5557446
  59.3898526  10.7273521  35.8179302  58.9499117  10.7604202  35.1695133
  51.3566008  11.7965545  51.5545915  50.5638989  12.1109057  51.7398535
  51.4714935  12.0117013  50.7166700  51.2561419  11.8749382  51.4584250
  54.0297327   8.5199536  35.8440931  54.1244182   9.2588830  36.2980557
  53.4056171   8.0917012  36.2775496  53.9506357   8.5660857  35.9749079
  52.2849801  11.6985749  46.4931212  52.8588663  11.0612993  46.6479776
  52.2064605  11.6989831  45.6240870  52.3583036  11.6050860  46.3877623
  40.8846217   8.4774958  40.3313926  41.4619720   8.3411409  40.9706172
  40.1860279   8.0210742  40.5859511  40.8667239   8.3897224  40.4636216
  54.2820348  10.3648276  29.0777883  54.2000511  10.4350463  29.9432870
  54.9200069  10.9278020  28.8861624  54.3640186  10.4587247  29.1767833
  47.6413520  10.1309014  38.5452409  47.3832764   9.2980749  38.5183709
  47.6962002  10.3566627  37.7044910  47.6113297  10.0406785  38.4172546
  46.6148232   7.6846776  39.0317304  46.0397823   7.8438945  39.6681265
  46.2383908   7.0482186  38.5685755  46.4751044   7.6144589  39.0571863
  50.2821520   6.1570126  43.8909683  49.8935953   5.7324343  43.2361874
  49.6176219   6.4052275  44.3986709  50.1268448   6.1308847  43.8697550
  36.3605051   7.3286851  37.0461745  36.4465302   6.9518719  37.8275275
  36.9880848   6.9547297  36.5681703  36.4661602   7.2172333  37.0907222
  51.3860459  10.3868730  32.0886490  52.2001097  10.6783623  31.9769261
  51.3219600   9.7328593  31.5144782  51.4963198  10.3333925  31.9875327
  57.6069949  13.0694726  46.5016065  57.3708586  12.2382791  46.3828126
  58.2513178  13.0180334  47.0870909  57.6664620  12.9392414  46.5701959
  47.8971182   9.0792537  31.5533691  48.2816335   8.8600244  32.3050236
  47.6482802   9.9055483  31.6834767  47.9173255   9.1690684  31.6834767
  48.0639722   2.3598953  51.2696275  47.7493163   3.1298515  51.0065838
  47.7429655   1.7969209  50.6848502  47.9698641   2.3909221  51.1437625
  58.6306369  12.8539175  42.5644360  58.3252186  13.5867232  42.9257675
  57.9112585  12.4477105  42.2837146  58.4793712  12.9020908  42.5757497
  64.3308162   9.4932176  41.8912704  64.2632662   9.5128135  41.0215290
  64.3163824  10.3362503  42.1168374  64.3186918   9.6205911  41.7965181
  43.3995596  14.6820533  35.9247031  42.5733713  14.9282270  35.7981310
  43.4607587  14.6032614  36.7909089  43.2869763  14.7065482  36.0335976
  45.6171619   0.7489474  36.8842472  44.7494045   0.8212074  36.9500081
  45.9046824   1.5511553  37.0730447  45.5311367   0.8783621  36.9217238
  62.1166779   8.2676562  40.1659298  62.6674700   7.6344631  40.4056390
  62.1010894   8.7991955  40.8574803  62.1951975   8.2525510  40.3038157
  48.7689170  12.1015159  44.7119192  48.2700863  12.8130927  44.7904080
  49.5789394  12.4215826  44.6737354  48.8145276  12.2542008  44.7175760
  45.0317287  11.3638112  38.9581913  44.7430536  10.7375584  39.4927640
  45.9000635  11.3058400  39.0246593  45.1177539  11.2625657  39.0472867
  55.8195185   6.5072896  39.2763895  55.4759951   5.7863231  39.6271144
  55.9188228   6.2986747  38.4342253  55.7837228   6.3697099  39.2035575
  56.2808214  12.9698600  34.8187883  56.8466247  13.6291810  34.7346426
  55.6336118  13.3148298  35.2904285  56.2686971  13.1180541  34.8760639
  47.6956228   4.9596204  50.0081490  46.8856003   5.2653983  49.8971332
  48.1730914   5.6801786  50.1234074  47.6459707   5.1110805  50.0088561
  43.5438971   4.2247733  34.3259348  43.2563767   3.8549004  33.5891295
  44.2309440   4.6942589  34.0643053  43.6027869   4.2394703  34.1774424
  52.7514792  15.9137384  34.2424962  52.5101468  15.1805245  33.8352027
  52.9316125  16.4624241  33.5891295  52.7422416  15.8859775  34.0855185
  46.3792643   8.0900682  35.7726752  47.1015295   8.2541840  35.3130558
  45.9000636   8.8110346  35.6666092  46.4156374   8.2198911  35.6892366
  54.3386151   4.4264480  41.1523437  53.4997251   4.4525759  40.9161701
  54.4090518   5.0735216  41.7328784  54.2254544   4.5260606  41.2032554
  44.0300260  10.4958754  44.8780892  44.5421357  10.7743007  44.2289652
  43.7436602  11.2348048  45.2443705  44.0635123  10.6461108  44.8370770
  58.2143674   9.6332467  38.4384679  58.1277649   9.7887893  39.2919458
  57.7594154  10.2770543  38.0644084  58.1346931   9.7508222  38.5091786
  41.1167166   5.0028946  35.1744629  41.2183302   5.8055107  35.5025604
  41.9123053   4.8016282  34.8767709  41.2495072   5.0914845  35.1779984
  47.5483985   2.5885143  44.9381934  47.3567182   2.6040277  45.7881357
  48.3982581   2.7848817  44.9148589  47.6459707   2.6199494  45.0605229
  41.9330898   5.1176124  42.9165750  41.7916390   4.2660065  43.0410258
  42.2171461   5.1604785  42.0927956  41.9538744   4.9975874  42.8133374
  52.0869490   6.9543214  37.0610239  51.8404205   6.8738965  37.8947028
  52.4154613   6.1696682  36.8672766  52.0990734   6.8269480  37.1557762
  55.9817539  13.6626574  40.8497020  55.8431899  14.3607619  41.3545762
  55.2017537  13.5075230  40.4933202  55.8460766  13.7426740  40.8723294
  54.3195624   9.9622949  47.1019402  54.3143663   9.0902766  47.1061828
  55.0256618  10.1611118  46.6288857  54.4240628   9.8626823  47.0326437
  48.0466518   9.6899933  46.4733222  48.1909893  10.2701141  45.8376332
  48.3942166  10.0676230  47.1783076  48.1193979   9.8320637  46.4832217
  50.2186435   8.8890101  44.2558353  49.4709749   9.0821116  43.8506631
  50.3727960   8.0635321  44.0182475  50.1308863   8.7955213  44.1603759
  57.4770912  13.0204827  31.6113519  57.0977721  12.2341965  31.6042808
  56.8137158  13.5691684  31.4685163  57.3229387  12.9849651  31.5894316
  50.4588212   2.7840652  45.1453757  50.9160826   3.5164626  45.2726549
  50.5344541   2.3607117  45.9041013  50.5379182   2.8297890  45.2754834
  42.7021203   3.0306472  46.2343201  42.1663393   2.4186830  46.5503968
  42.7638968   3.6054608  46.8876867  42.6316836   3.0253399  46.3778628
  48.3370590   4.7742756  41.9895581  47.5466665   4.5934216  42.3112917
  48.7331213   3.9969709  41.9725876  48.2787466   4.6330217  42.0348129
  52.8236481  13.6030530  27.4302295  53.5909466  13.6630655  27.0208147
  52.3767790  13.0310972  26.9458613  52.8709908  13.5267106  27.2980005
  53.7214276  12.4085186  39.7155027  53.0459278  12.1770418  40.2168414
  53.7306652  11.8006369  39.0897132  53.6232781  12.2844111  39.6971179
  50.8508420   7.2503015  46.4719080  50.7867562   8.1112972  46.3439217
  50.9905608   6.9335008  45.6714631  50.8623890   7.3303182  46.3347293
  55.7231011  15.2650318  31.9465205  55.8050848  16.0717305  31.6226656
  56.2080753  15.2846278  32.6705978  55.8068169  15.3870981  32.0052104
  49.5327514   9.9435154  40.6135283  49.1089763  10.1439653  39.8774301
  49.3572369   9.0964002  40.7259583  49.4438395   9.8483936  40.5208973
  44.8209959  10.4387206  36.0463255  44.9774578  10.3734009  36.9019248
  45.1610552  11.2135758  35.8341935  44.8943194  10.5436404  36.1417850
  55.2306211  14.0247737  52.0283531  56.0441076  13.7532886  52.1888663
  55.0701178  13.7255277  51.2243727  55.3276160  13.9402663  51.9328937
  52.5078373   4.7081394  44.9678919  52.7220343   4.0692308  44.4142273
  51.8912272   5.1527218  44.5386781  52.4483702   4.6791538  44.8229350
  53.9183041  17.6300142  36.4133140  53.5262833  17.3266857  35.6956006
  54.0736113  18.4669232  36.2238094  53.8836631  17.7083979  36.2789637
  41.3944221   7.6222156  36.3624023  41.7743185   8.0406701  35.6984290
  40.8199585   8.2035612  36.6692866  41.3655546   7.7700015  36.3100764
  54.6717461   6.3170459  45.9062226  53.8594143   6.0096349  45.9875399
  55.1307396   5.8369459  46.4704938  54.6197846   6.2006951  46.0016820
  54.0822716  14.1950131  36.3539171  53.7237371  14.3664774  37.1303203
  53.5961427  14.6563337  35.7967169  53.9581413  14.2889102  36.3864440
  48.8711081   9.8749296  28.8939405  49.1603606  10.6514179  29.1682979
  48.9582880   9.3638028  29.5953904  48.9265337   9.9141215  29.0381903
  51.7670969   7.7230531  50.6890929  52.2370600   8.3472647  51.0758803
  51.8132849   7.0547506  51.2484143  51.8438845   7.7165211  50.8291000
  55.2427455  15.0854027  47.3006371  55.8807176  14.5914223  46.9668827
  54.6001547  15.0131428  46.7158598  55.2421682  15.0013036  47.1648726
  56.9684455   6.9343173  41.8672287  56.5412063   6.8469522  41.1120387
  56.3310508   7.0420949  42.4527131  56.8114063   6.9375833  41.8417729
  55.2981712  15.7773835  43.9411728  56.0874090  15.4262900  44.0613810
  55.4725310  16.5910224  43.6788362  55.4401993  15.8459692  43.9199596
  45.0375022   9.1882561  40.9939517  44.1963029   9.0886435  41.2018411
  45.2465030   9.9578041  41.3453838  44.9439715   9.2874604  41.0766832
  42.5150589   6.8102098  38.8224268  42.1207287   6.8845110  38.0474377
  41.9590706   7.1960044  39.3732629  42.3753401   6.8783873  38.7891927
  48.8491687   7.1163960  40.2437115  48.5454825   6.5619949  40.8447522
  48.1471108   7.2956170  39.7565149  48.7007897   7.0608743  40.2606820
  47.9057784   4.4264480  34.8081816  48.1817518   3.7083393  34.3959384
  48.5056453   5.0249400  34.6002922  48.0351049   4.4084851  34.7162578
  44.9283830  11.5826323  42.4131150  44.3371763  12.2235822  42.3834165
  45.6904854  12.0063941  42.3862449  44.9532091  11.7402162  42.4046297
  45.3244453   2.7428321  43.0799168  45.7845934   2.8167251  43.8174291
  45.3700560   3.5409575  42.7298989  45.3995008   2.8722468  43.1371924
  46.9727803   3.4095016  47.6471195  46.5813368   2.7628363  48.0826972
  47.1413665   4.0006451  48.2665450  46.9398713   3.4009284  47.8033901
  61.0474252  11.4132093  43.4108428  61.1057375  11.8618742  44.1568405
  60.4140719  11.8230906  42.9738508  60.9625547  11.5405828  43.4560976
  54.6873346  17.0335635  39.8463174  54.4893035  17.5226449  39.1519386
  54.0661057  17.2376876  40.4247308  54.5660911  17.1352173  39.8286398
  48.7481325   8.8020532  34.1873419  49.4923370   9.1894808  34.4256369
  48.8942021   7.9577957  34.3513906  48.8791910   8.7351005  34.2467388
  51.7359201   4.3746005  40.0867338  51.2619155   3.8487767  40.5972649
  52.1077336   3.8275478  39.5182200  51.7209089   4.2162002  40.0782485
  42.1132231   6.3717512  45.4550884  42.9757844   6.2713221  45.3688214
  41.7824014   5.7912221  44.8936456  42.1917427   6.2709139  45.3596290
  57.9995931   9.4348381  41.4974119  57.7594154   8.5954796  41.5016545
  58.4787938   9.5148547  42.2214892  58.0348115   9.3229780  41.6048921
  53.6642700   5.2682560  33.1493092  53.1365719   5.3511304  32.4598801
  54.1238408   6.0100431  33.1457736  53.6544551   5.3903222  33.0467787
  60.0001118   6.2149838  39.4503378  59.7610888   6.1745672  38.6124162
  60.1635019   7.0620990  39.5769099  59.9891422   6.3341923  39.3456860
  56.6047148  10.5999787  45.3808423  57.3281347  10.1472314  45.2019443
  56.3397111  10.8804453  44.5980751  56.6728422  10.5750756  45.2387138
  45.4734017   5.1959961  42.1161302  44.8487087   5.2078353  41.5087255
  45.1379612   5.6720136  42.7652542  45.3319508   5.2678478  42.1217870
  45.6575765   3.5385079  28.1733987  45.3088570   4.1904805  28.6365536
  45.1772211   3.5242192  27.4457858  45.5346009   3.6328133  28.1345078
  42.1859692  13.2560421  43.5565066  41.6559617  12.5652860  43.6060041
  42.4584786  13.2470606  42.7277775  42.1484415  13.1527553  43.4412482
  53.2179783  13.8386123  32.2802749  53.9413982  14.3044236  32.1367322
  52.7780374  13.9059733  31.5300346  53.2595475  13.9169960  32.1487530
  52.3865938  10.6983665  43.5303438  51.7722931  10.1541716  43.8252073
  52.9033223  10.1847902  43.0509254  52.3721600  10.5420075  43.5027666
  51.6262235  11.7687936  41.2647736  51.1989843  11.1437654  40.8313172
  51.6187179  11.4862857  42.0906744  51.5621376  11.6340716  41.3227564
  44.7424762   6.8053109  44.3336170  44.9018249   6.0496433  44.7387892
  44.5617656   7.3544048  44.9876908  44.7390121   6.7746922  44.4898876
  49.9547945   2.6456690  41.4790270  49.9790432   2.1116802  40.7903050
  50.2059418   2.1373999  42.1415861  49.9957863   2.4917594  41.4754915
  37.4655534   9.9288185  40.9133415  37.3598983   9.8835029  40.0485499
  36.7155754  10.2741966  41.1947699  37.3391137   9.9729093  40.8270744
  46.2349267   1.3727508  40.8596015  46.2747638   1.8736715  41.5730722
  45.4098931   1.4637902  40.5901938  46.1188793   1.4609325  40.9246553
  48.4178880  10.9388248  48.9616309  47.5674510  11.0759963  49.0973954
  48.5807007  10.2052027  49.4064011  48.3162743  10.8502349  49.0471909
  47.6563630   7.8888018  43.1569914  46.8255560   8.0561836  42.9505162
  47.6015147   7.5123969  43.9418799  47.5253045   7.8577749  43.2418442
  45.4647413   1.3796911  48.7926324  46.0900117   0.8359044  49.0655757
  45.0097893   0.8991829  48.2234115  45.4895674   1.2286392  48.7487918
  46.0299674   6.1643610  33.6860031  46.1702635   6.6616074  34.3888673
  46.5282207   5.4629904  33.8274245  46.1240755   6.1345588  33.8111610
  46.0599896   7.0310721  31.0152608  46.6944976   7.6271146  30.9502070
  46.1425507   6.7314178  31.8298478  46.1656447   7.0751629  31.1255695
  59.0382462   9.5626198  43.8838972  59.6300302  10.2023449  43.9157171
  59.4741457   8.8649235  44.1731039  59.1900893   9.5544548  43.9319805
  47.6378879   2.9624696  30.9898050  47.9594720   2.4827779  30.3357313
  47.9005823   3.7724342  30.7988862  47.7244905   3.0114594  30.8653542
  50.8675852  13.9843570  44.5096866  50.3600943  14.5379417  44.9537497
  50.5702498  14.0451860  43.6915641  50.7480737  14.0749882  44.4545323
  42.5652884   9.2278561  34.2842154  43.0745114   9.8243069  34.6653460
  43.0387157   8.9604535  33.6018574  42.7096260   9.2764377  34.2396677
  53.4783632  17.9006828  32.4400810  52.7612942  17.7267690  31.9748047
  54.1290370  17.6659400  31.9076296  53.4685483  17.8402621  32.2930028
  56.0631604   6.7771417  36.1842115  55.3922793   7.3201119  36.0555181
  56.7571354   7.2466272  35.9423810  56.0660471   6.9269688  36.1297643
  44.9243416   5.8634820  37.1515335  44.2055405   6.2798953  37.4188198
  45.2955778   6.4289059  36.6006973  44.8735348   6.0084101  37.1098142
  54.2242997   6.4962669  43.0417330  54.2040924   6.3145964  43.8952109
  54.2722198   7.3674687  43.0176914  54.2277638   6.5979207  43.1640625
  52.1689327  13.0849861  48.9665807  52.1285182  12.4399538  48.3810963
  52.9812645  13.0286478  49.2791219  52.2832480  12.9808828  48.9262756
  52.1262088  18.2958672  39.6214574  51.7278372  18.4060942  38.8535395
  51.5113308  18.5040738  40.2041134  51.9760978  18.3432240  39.5945874
  50.6989990   4.9032820  32.4888714  50.1054830   5.2249816  31.9373281
  50.7365268   4.0573915  32.2809820  50.6164380   4.8257148  32.3771485
  53.5747807   4.8612324  35.9190464  53.3461500   4.8845026  35.0768823
  53.8345883   4.0369791  36.0385475  53.5793995   4.7428404  35.8115662
  47.8567035   6.7146797  45.5215565  47.3445938   6.1067980  45.8800596
  47.6846532   7.4303390  45.9889540  47.7556672   6.7310097  45.6431788
  42.7032750   5.1584373  48.1717926  42.5335340   5.8185748  47.6266133
  42.2598700   5.3690934  48.8930416  42.6132084   5.2870355  48.1979556
  46.6292569   3.3988871  37.2144660  47.1049936   3.7605951  36.5794841
  46.1281169   4.0545338  37.4944803  46.6257928   3.5483059  37.1621401
  59.8603931  12.8710639  33.0057665  60.2437537  13.6201995  33.2355762
  59.0648044  13.1176458  32.7469654  59.7997713  13.0180333  33.0015239
  51.7336106   4.6371042  47.9617820  52.2907536   4.4084852  47.3296286
  51.4097171   5.3976708  47.6853033  51.7682516   4.7154879  47.8274317
  39.6034815   8.0631238  43.4306416  39.0561534   7.3931884  43.5487285
  40.3927193   7.6961086  43.4949884  39.6386998   7.9096225  43.4575117
  49.4519223   7.7238695  48.9269827  50.2030550   8.0390372  49.2409381
  49.6441800   7.5217866  48.1003749  49.5910637   7.7406077  48.8513223
  48.6719223   5.5430070  30.5818044  49.0518187   5.5609700  29.7969159
  47.9311819   5.9884059  30.4608891  48.6188060   5.6111845  30.4481612
  38.3621784   7.2752046  40.5852439  38.1843545   6.8228655  41.3107355
  38.0740806   8.0778208  40.7690917  38.2934737   7.3274604  40.7195942
  54.0245365   8.5309763  39.8229830  54.5199031   7.8132759  39.7833850
  53.2145141   8.2280561  39.7084317  53.9789259   8.3807410  39.8003555
  49.4703977  12.3807577  31.9726834  48.6615299  12.0574250  31.9260144
  49.9778886  11.6740799  31.9055083  49.4253644  12.2288893  31.9557128
  40.0994254   9.8079770  37.6974198  39.2339773   9.7965460  37.5856970
  40.1993070   9.6209993  38.5445338  39.9868421   9.7785831  37.8063143
  56.0897184  11.2813451  42.5106958  56.5152256  10.7587873  41.9577383
  55.7254104  11.8794288  41.9895581  56.0983787  11.2923678  42.3515968
  52.6775784  14.9947715  38.8408116  53.1486962  15.7087978  39.0098101
  53.0135962  14.3946465  39.3767985  52.7970899  15.0119180  38.9440492
  54.7652768  16.6049029  51.0200188  54.8749734  15.8157589  51.3756935
  55.0943665  16.5154965  50.2174526  54.8305174  16.4754882  50.9542579
  53.3149730  14.7865649  45.6035808  52.7670676  14.1623533  45.3355874
  53.7762759  14.9759921  44.8879888  53.3016939  14.7224700  45.4586240
  48.6638393   1.7691599  33.2645676  49.4854088   1.9389912  33.0227370
  48.2008044   1.9238860  32.5411973  48.7169556   1.8173332  33.1217320
  43.0664284  13.5250777  40.9182912  43.6709141  13.4846611  40.2896733
  42.8591597  14.3721929  40.9486968  43.1253181  13.6438779  40.8299029
  52.8808056  15.7916722  42.1345150  53.7006430  15.6479688  42.3961445
  52.6002134  16.4162921  42.6761588  52.9604800  15.8627074  42.2533089
  38.3015566  12.5085395  40.7881835  38.2039844  11.6981666  41.0971892
  39.0844436  12.4877188  40.4028104  38.4031703  12.3852485  40.7768698
  69.3521707  23.4481574  35.0988026  69.3215711  24.3026211  35.2706295
  69.9503055  23.1476866  35.6574170  69.4358864  23.5298070  35.2062828
  62.5521391  22.5357225  39.8540956  61.6959287  22.6965723  39.9050073
  62.5989045  21.6649289  39.8746018  62.4320503  22.4308027  39.8647022
  65.8615108  28.8043750  49.4601413  66.5681875  28.3095781  49.5888347
  66.0503043  29.2452832  48.7304071  65.9943014  28.7962101  49.3710458
  62.3887491  32.4945312  31.0463735  62.0538859  33.1722234  30.6107957
  62.9014361  32.1050623  30.4580607  62.4153072  32.5369890  30.8950527
  61.9291782  34.4459581  36.9874847  62.3131162  35.0146480  36.4479622
  61.8650923  33.7209091  36.5080663  61.9765209  34.4235044  36.8368709
  65.3973212  24.5949269  42.4972608  65.9429172  25.2734355  42.5566578
  65.3390089  24.4536730  41.6374190  65.4689127  24.6741270  42.3784669
  58.5147287  32.0838335  37.8840961  58.6157650  31.2738689  38.1938088
  57.9189033  31.9895281  37.2540639  58.4419826  31.9503363  37.8367199
  67.1738281  26.0233876  33.3706336  67.0577807  26.7741562  33.7998474
  67.9694168  25.7657829  33.6202423  67.2742871  26.0968723  33.4710428
  54.0102419  20.2744352  40.4077602  53.3907451  19.6836999  40.2387617
  53.9086283  20.8655787  39.7741925  53.9040095  20.2748435  40.2882591
  59.0568607  30.0127899  34.6575678  59.3784448  30.5533106  34.0536986
  59.7040703  29.4424670  34.7897968  59.1994662  30.0087074  34.5882714
  61.1070315  22.0143894  34.7410065  61.8050479  22.1932021  35.2331528
  61.4222647  21.4914233  34.1180454  61.2565652  21.9637666  34.7212075
  53.7371552  23.8196634  42.6521171  53.6130249  24.4059079  43.2870990
  54.3889837  23.3256829  42.9533446  53.8145201  23.8335438  42.7907100
  61.2958250  28.4014339  34.7289856  61.7351886  27.7931439  35.1744629
  61.1462913  28.0221712  33.9575321  61.3379716  28.2552810  34.6809024
  58.7629893  26.9958351  41.9308682  59.4078896  26.5030794  41.6119630
  59.0031670  27.1383137  42.7574760  58.8940478  26.9435793  42.0058215
  61.3015984  29.8413257  41.5815575  61.5839227  29.0464662  41.3602330
  62.0302145  30.3193844  41.6020636  61.4505548  29.7947853  41.5518590
  59.2797178  17.3836290  38.8231340  58.9500508  17.8347434  38.1535038
  58.6042180  17.3052454  39.3704346  59.1307615  17.4387426  38.8054563
  64.8967587  26.7541520  31.6820626  64.8118882  27.6102487  31.8270195
  65.3851970  26.4785844  32.3502785  64.9556484  26.8398842  31.8022707
  66.4873586  13.3721813  37.0680950  66.1727027  14.0625292  37.5001373
  65.9700528  13.3166596  36.3666451  66.3638056  13.4656702  37.0277899
  65.8286020  23.3726314  33.1818361  65.2997491  23.5885948  33.8415667
  66.3511040  24.0662453  33.1019330  65.8274473  23.5069451  33.2673960
  71.2834073  28.9472619  38.5551405  70.4531776  29.1583262  38.7184822
  71.2343325  28.1209673  38.2793689  71.1540808  28.8562225  38.5388771
  57.7185628  27.2689531  31.9825829  57.1342843  27.7739562  32.3891693
  57.3155723  27.0431918  31.2422421  57.5724931  27.3097779  31.9330854
  59.3443810  31.7776473  41.3899315  58.8270752  31.4183888  40.7860623
  60.0418202  31.2538647  41.4005381  59.3709391  31.6474161  41.3029574
  63.0007402  32.2271287  47.3515488  63.0890748  32.0397427  48.1993698
  63.4297115  31.5808717  46.9520335  63.0769505  32.1034295  47.4187239
  60.5677862  31.5102447  46.3333150  60.0048697  31.0975057  46.8572811
  61.3298886  31.4355353  46.7526293  60.5972311  31.4379847  46.4726150
  62.1762842  23.5155183  30.4594749  62.4158846  23.7233167  29.6470093
  62.4978683  22.7112692  30.5683694  62.2600000  23.4269284  30.3555302
  57.4853132  15.4448579  34.3054287  58.2399100  15.8126896  34.0671338
  57.3080667  15.8188133  35.0733467  57.5707611  15.5546767  34.3839176
  70.7788031  21.5943019  42.3501827  69.9416452  21.6645206  42.5849421
  70.7476262  21.5967514  41.4776129  70.6506313  21.6053246  42.2561375
  57.1752760  23.7376055  48.0650195  57.3473264  23.6281950  48.9135477
  57.7122118  24.3830460  47.8281388  57.2797764  23.8168057  48.1555292
  55.8410197  17.8518898  31.0032400  55.6585770  18.0690779  30.1773393
  56.7035810  17.9657911  31.0591015  55.9414786  17.9008796  30.8886887
  56.0777332  30.1107695  42.7468694  56.6175557  29.9678826  43.4172066
  55.3947278  30.5104446  43.1152720  56.0569486  30.1487366  42.9003115
  61.5209916  14.8545309  34.0381424  62.2496077  14.6761264  33.5919580
  61.6104809  15.6963388  34.2488602  61.6416578  14.9529187  34.0034942
  65.5018217  25.7898696  37.9413718  66.2575732  26.2230210  37.9802627
  65.6080541  25.1403466  38.5148354  65.6288387  25.7576180  38.0311744
  68.5398388  29.6171973  38.6916121  68.1033620  29.6208716  39.4475093
  68.2061303  30.2977472  38.2595699  68.4261008  29.7184429  38.7396954
  63.1127462  31.6580306  50.0159271  63.8967878  31.7711154  50.3815014
  62.9124056  30.8321443  50.2117957  63.1993487  31.5527025  50.0993657
  51.4814477  26.3307986  42.9003115  51.2152892  25.5147103  43.0594106
  51.4953041  26.3761142  42.0298631  51.4439199  26.2164891  42.7956597
  68.4595871  16.6585801  40.9345549  69.1021779  16.7283906  41.5207464
  68.7118892  15.9915024  40.4325091  68.5918003  16.5712150  40.9472828
  55.3872224  21.1293071  29.5154873  54.6730401  20.8431250  29.9277306
  55.8716193  21.4689696  30.1561261  55.3531587  21.1374720  29.6710508
  56.2313083  19.8686364  45.5470123  55.5384880  19.3983344  45.7930855
  56.8473411  19.6424669  46.1211830  56.2197613  19.7653496  45.6679276
  63.2697855  33.5690408  43.6625727  62.4713101  33.3289908  43.9199596
  63.7183866  33.6204801  44.4092775  63.2172466  33.5412799  43.8110651
  71.6742734  26.3352893  37.5835758  72.3359168  25.7743562  37.4831667
  71.0334146  25.8404924  37.9088450  71.6771602  26.1789302  37.6168099
  62.5619542  29.6323024  29.8916682  62.9770690  29.3008048  29.2001177
  61.7311472  29.3991927  29.7636818  62.5007551  29.5494280  29.7707529
  67.9607565  27.3518275  37.3247747  68.1963154  27.4963474  36.4974598
  68.1097129  28.1160683  37.7179261  68.0173368  27.4857330  37.2611351
  54.9553642  23.8351768  46.6896968  55.6793615  23.8204799  47.1761863
  55.0569779  24.5447124  46.1918936  55.0771851  23.9376472  46.6875755
  69.7898022  26.1919941  35.1617351  70.1206239  26.7247582  34.5557446
  70.3631110  26.2458829  35.8179302  69.9231701  26.2789510  35.1695133
  62.3298592  27.3150853  51.5545915  61.5371573  27.6294365  51.7398535
  62.4447519  27.5302321  50.7166700  62.2294002  27.3934690  51.4584250
  65.0029911  24.0384844  35.8440931  65.0976765  24.7774138  36.2980557
  64.3788754  23.6102320  36.2775496  64.9238941  24.0846165  35.9749079
  63.2582385  27.2171057  46.4931212  63.8321246  26.5798301  46.6479776
  63.1797188  27.2175139  45.6240870  63.3315619  27.1236168  46.3877623
  65.2552932  25.8833584  29.0777883  65.1733095  25.9535771  29.9432870
  65.8932653  26.4463328  28.8861624  65.3372769  25.9772555  29.1767833
  58.6146103  25.6494322  38.5452409  58.3565347  24.8166057  38.5183709
  58.6694586  25.8751935  37.7044910  58.5845881  25.5592093  38.4172546
  63.6947153  17.7522773  38.6456502  62.9903480  17.2631958  38.8040421
  63.7432128  17.7645247  37.7744946  63.5977205  17.6812421  38.5395842
  57.5880815  23.2032084  39.0317304  57.0130407  23.3624253  39.6681265
  57.2116492  22.5667493  38.5685755  57.4483628  23.1329897  39.0571863
  61.2554104  21.6755434  43.8909683  60.8668537  21.2509651  43.2361874
  60.5908802  21.9237583  44.3986709  61.1001032  21.6494155  43.8697550
  70.8977373  21.4330438  36.6657513  70.6413938  20.6210380  36.4755395
  71.7406687  21.4408005  36.4387700  70.9843399  21.3142436  36.6042330
  65.0780466  15.3730062  41.4033667  65.4590977  14.6908233  41.7901541
  64.2743750  15.0839664  41.2209331  65.0156927  15.2297111  41.4337723
  62.3593042  25.9054038  32.0886490  63.1733681  26.1968931  31.9769261
  62.2952183  25.2513901  31.5144782  62.4695781  25.8519233  31.9875327
  68.5802532  28.5880034  46.5016065  68.3441170  27.7568099  46.3828126
  69.2245761  28.5365642  47.0870909  68.6397203  28.4577722  46.5701959
  58.2300950  29.3775556  37.2158802  58.8674897  29.1387303  37.7610595
  58.6556022  29.5812715  36.4811962  58.3877117  29.3726566  37.1875959
  58.8703766  24.5977845  31.5533691  59.2548918  24.3785552  32.3050236
  58.6215386  25.4240791  31.6834767  58.8905838  24.6875992  31.6834767
  59.0372306  17.8784261  51.2696275  58.7225747  18.6483823  51.0065838
  58.7162238  17.3154517  50.6848502  58.9431225  17.9094529  51.1437625
  69.6038953  28.3724483  42.5644360  69.2984770  29.1052540  42.9257675
  68.8845169  27.9662413  42.2837146  69.4526295  28.4206216  42.5757497
  60.6122422  29.8547978  38.8952588  60.6861431  29.6923150  39.7494438
  61.4291929  30.0438168  38.6513070  60.7438781  29.8584721  38.9850613
  75.3040745  25.0117484  41.8912704  75.2365245  25.0313443  41.0215290
  75.2896408  25.8547811  42.1168374  75.2919502  25.1391218  41.7965181
  56.5904203  16.2674782  36.8842472  55.7226628  16.3397382  36.9500081
  56.8779407  17.0696861  37.0730447  56.5043951  16.3968929  36.9217238
  65.7137092  16.4152641  45.2153793  66.4590684  16.2262452  44.8017219
  65.2974396  16.9410879  44.6567650  65.7622066  16.4654787  45.0718367
  59.1527008  32.8182721  33.6266061  59.4425307  32.4271703  32.9025288
  59.8830489  32.9999426  34.0671337  59.3033892  32.7876535  33.5848868
  73.0899362  23.7861870  40.1659298  73.6407284  23.1529939  40.4056390
  73.0743478  24.3177263  40.8574803  73.1684559  23.7710818  40.3038157
  59.7421753  27.6200467  44.7119192  59.2433447  28.3316235  44.7904080
  60.5521978  27.9401134  44.6737354  59.7877860  27.7727316  44.7175760
  56.0049871  26.8823420  38.9581913  55.7163120  26.2560892  39.4927640
  56.8733219  26.8243708  39.0246593  56.0910123  26.7810964  39.0472867
  66.7927769  22.0258204  39.2763895  66.4492535  21.3048539  39.6271144
  66.8920811  21.8172055  38.4342253  66.7569812  21.8882407  39.2035575
  59.2600879  36.1679494  35.4756903  59.9124937  35.6355936  35.7047929
  58.5626488  35.8148146  35.8624777  59.2531597  36.0369017  35.5669071
  56.2082144  28.5218671  34.8824278  56.9628112  28.9031710  35.0959740
  55.6152757  28.9729815  35.3370974  56.2318858  28.6447499  34.9807156
  67.2540798  28.4883908  34.8187883  67.8198830  29.1477118  34.7346426
  66.6068701  28.8333606  35.2904285  67.2419554  28.6365849  34.8760639
  58.6688811  20.4781512  50.0081490  57.8588587  20.7839291  49.8971332
  59.1463498  21.1987094  50.1234074  58.6192290  20.6296113  50.0088561
  57.5280371  29.6927233  40.2564393  57.0061124  29.8327524  40.9416258
  57.9154391  28.9337897  40.4466510  57.5084072  29.6012756  40.3865470
  54.5171555  19.7433041  34.3259348  54.2296351  19.3734312  33.5891295
  55.2042023  20.2127897  34.0643053  54.5760452  19.7580011  34.1774424
  63.7247376  31.4322692  34.2424962  63.4834052  30.6990553  33.8352027
  63.9048709  31.9809549  33.5891295  63.7155000  31.4045083  34.0855185
  58.9546697  26.7231252  35.6545884  58.7589479  27.3305986  35.0606187
  59.1781042  26.0299196  35.1737558  58.9581338  26.7108777  35.4961965
  57.3525227  23.6085990  35.7726752  58.0747878  23.7727148  35.3130558
  56.8733219  24.3295654  35.6666092  57.3888957  23.7384219  35.6892366
  65.3118734  19.9449788  41.1523437  64.4729835  19.9711067  40.9161701
  65.3823101  20.5920524  41.7328784  65.1987128  20.0445914  41.2032554
  55.0032843  26.0144062  44.8780892  55.5153940  26.2928315  44.2289652
  54.7169186  26.7533356  45.2443705  55.0367706  26.1646416  44.8370770
  63.7588012  16.8435165  35.8851053  64.4614365  16.6442914  35.4071012
  63.4932201  16.0711108  36.1919897  63.8234645  16.6998131  35.8596495
  69.1876258  25.1517775  38.4384679  69.1010232  25.3073201  39.2919458
  68.7326738  25.7955851  38.0644084  69.1079515  25.2693530  38.5091786
  52.0899750  20.5214254  35.1744629  52.1915886  21.3240415  35.5025604
  52.8855636  20.3201590  34.8767709  52.2227655  20.6100153  35.1779984
  58.5216569  18.1070451  44.9381934  58.3299766  18.1225585  45.7881357
  59.3715165  18.3034125  44.9148589  58.6192291  18.1384802  45.0605229
  52.9063482  20.6361432  42.9165750  52.7648973  19.7845373  43.0410258
  53.1904045  20.6790093  42.0927956  52.9271328  20.5161182  42.8133374
  63.0602074  22.4728522  37.0610239  62.8136788  22.3924273  37.8947028
  63.3887197  21.6881990  36.8672766  63.0723318  22.3454788  37.1557762
  66.9550123  29.1811882  40.8497020  66.8164482  29.8792927  41.3545762
  66.1750121  29.0260538  40.4933202  66.8193350  29.2612048  40.8723294
  65.2928208  25.4808257  47.1019402  65.2876246  24.6088073  47.1061828
  65.9989202  25.6796426  46.6288857  65.3973212  25.3812131  47.0326437
  59.0199101  25.2085241  46.4733222  59.1642477  25.7886449  45.8376332
  59.3674750  25.5861538  47.1783076  59.0926563  25.3505945  46.4832217
  61.1919019  24.4075409  44.2558353  60.4442333  24.6006424  43.8506631
  61.3460544  23.5820629  44.0182475  61.1041446  24.3140521  44.1603759
  58.0926856  33.3988013  43.3394249  58.2416420  32.8390929  42.6867653
  58.8726858  33.4780014  43.7226767  58.2300950  33.3273578  43.2991198
  68.4503496  28.5390135  31.6113519  68.0710304  27.7527273  31.6042808
  67.7869741  29.0876992  31.4685163  68.2961970  28.5034959  31.5894316
  60.6180157  33.5702656  44.6178739  60.5423828  32.9011466  45.1729528
  60.5470016  34.2720444  45.1319406  60.5960764  33.5747563  44.7755588
  61.4320796  18.3025960  45.1453757  61.8893410  19.0349934  45.2726549
  61.5077124  17.8792425  45.9041013  61.5111766  18.3483198  45.2754834
  53.6753787  18.5491780  46.2343201  53.1395976  17.9372138  46.5503968
  53.7371552  19.1239916  46.8876867  53.6049420  18.5438707  46.3778628
  65.9048122  11.4815835  39.0147600  66.0231690  11.9392298  38.2814903
  65.7310297  10.6761096  38.7283818  65.8967293  11.4309607  38.8648534
  61.2750404  32.0903654  35.4502345  62.0400295  31.8213298  35.1285010
  61.1728494  31.6053665  36.1672408  61.3731899  31.9793219  35.5082173
  59.3103174  20.2928064  41.9895581  58.5199248  20.1119524  42.3112917
  59.7063796  19.5155016  41.9725876  59.2520050  20.1515525  42.0348129
  63.7969064  29.1215838  27.4302295  64.5642049  29.1815963  27.0208147
  63.3500373  28.5496280  26.9458613  63.8442492  29.0452414  27.2980005
  64.6946860  27.9270494  39.7155027  64.0191862  27.6955726  40.2168414
  64.7039236  27.3191677  39.0897132  64.5965364  27.8029419  39.6971179
  61.8241004  22.7688323  46.4719080  61.7600145  23.6298279  46.3439217
  61.9638192  22.4520316  45.6714631  61.8356474  22.8488490  46.3347293
  66.6963594  30.7835626  31.9465205  66.7783432  31.5902613  31.6226656
  67.1813337  30.8031586  32.6705978  66.7800752  30.9056289  32.0052104
  60.5060098  25.4620462  40.6135283  60.0822347  25.6624961  39.8774301
  60.3304953  24.6149310  40.7259583  60.4170978  25.3669244  40.5208973
  55.7942543  25.9572514  36.0463255  55.9507162  25.8919317  36.9019248
  56.1343136  26.7321066  35.8341935  55.8675778  26.0621712  36.1417850
  62.3321687  25.3330397  34.9156619  62.8737233  24.8300778  35.3795239
  62.6468246  25.2795592  34.1046104  62.4586084  25.2509818  34.8640431
  66.2038795  29.5433045  52.0283531  67.0173660  29.2718194  52.1888663
  66.0433761  29.2440585  51.2243727  66.3008743  29.4587971  51.9328937
  60.5008137  30.7247749  32.1996647  60.5700957  29.8662287  32.3389647
  61.2796592  30.9419630  31.8715671  60.6260987  30.6300613  32.1713804
  63.4810957  20.2266702  44.9678919  63.6952926  19.5877616  44.4142273
  62.8644856  20.6712526  44.5386781  63.4216286  20.1976846  44.8229350
  64.8915625  33.1485450  36.4133140  64.4995416  32.8452165  35.6956006
  65.0468697  33.9854540  36.2238094  64.8569214  33.2269287  36.2789637
  52.3676804  23.1407464  36.3624023  52.7475769  23.5592009  35.6984290
  51.7932169  23.7220920  36.6692866  52.3388129  23.2885323  36.3100764
  65.6450045  21.8355767  45.9062226  64.8326726  21.5281657  45.9875399
  66.1039979  21.3554767  46.4704938  65.5930429  21.7192259  46.0016820
  65.0555299  29.7135439  36.3539171  64.6969954  29.8850082  37.1303203
  64.5694010  30.1748645  35.7967169  64.9313996  29.8074410  36.3864440
  62.8725685  13.3366638  39.9566262  62.0019243  13.3105359  39.9099571
  63.1266027  13.1643830  39.1392108  62.7819245  13.3076781  39.8286399
  59.8443665  25.3934604  28.8939405  60.1336190  26.1699487  29.1682979
  59.9315464  24.8823336  29.5953904  59.8997921  25.4326523  29.0381903
  62.7403552  23.2415838  50.6890929  63.2103183  23.8657955  51.0758803
  62.7865432  22.5732814  51.2484143  62.8171428  23.2350519  50.8291000
  59.8974826  15.3472866  41.4139732  59.3813314  14.6553057  41.5391311
  59.3368755  16.0143643  41.3602331  59.7381339  15.3436124  41.4245798
  61.9667059  15.8865826  43.2432585  61.5798812  15.9114857  44.0246115
  61.4799997  15.3207505  42.7907101  61.8379568  15.8061577  43.2920489
  66.2160039  30.6039335  47.3006371  66.8539759  30.1099531  46.9668827
  65.5734130  30.5316735  46.7158598  66.2154265  30.5198343  47.1648726
  67.9417039  22.4528481  41.8672287  67.5144647  22.3654830  41.1120387
  67.3043092  22.5606256  42.4527131  67.7846646  22.4561141  41.8417729
  61.6324201  12.7732811  45.5342845  62.2617319  13.3093112  45.2563915
  61.8010064  12.6810170  46.3856410  61.7501996  12.8394174  45.6191373
  61.4338116  17.5604006  47.8069256  62.2611545  17.2889155  47.8627871
  61.4545962  18.3564848  48.1633075  61.5590966  17.6383760  47.8684439
  66.2714295  31.2959143  43.9411728  67.0606674  30.9448208  44.0613810
  66.4457893  32.1095532  43.6788362  66.4134577  31.3645000  43.9199596
  56.0107606  24.7067869  40.9939517  55.1695612  24.6071743  41.2018411
  56.2197614  25.4763349  41.3453838  55.9172298  24.8059912  41.0766832
  53.4883173  22.3287406  38.8224268  53.0939870  22.4030418  38.0474377
  52.9323290  22.7145352  39.3732629  53.3485985  22.3969181  38.7891927
  65.1248120  15.3068700  38.5028147  65.3297713  15.2391008  39.3485144
  64.7974543  16.1127521  38.4349324  65.1063367  15.4154640  38.6187802
  59.8224271  22.6349268  40.2437115  59.5187408  22.0805256  40.8447522
  59.1203691  22.8141478  39.7565149  59.6740480  22.5794051  40.2606820
  58.8790368  19.9449788  34.8081816  59.1550102  19.2268701  34.3959384
  59.4789037  20.5434708  34.6002922  59.0083632  19.9270159  34.7162578
  57.8842622  29.8498989  44.9509212  57.7762977  29.8601051  45.8171270
  58.0938403  30.6753769  44.7614166  57.8992733  29.9740064  45.0513304
  68.3781807  15.8600464  37.9830912  67.7656121  16.3470866  38.3684644
  68.4745982  15.1843955  38.5268563  68.3019705  15.8318773  38.1209770
  62.3800888  17.6163305  33.0828411  62.8344635  17.7873866  33.8076256
  62.8540934  17.0031416  32.6826187  62.5169208  17.5514191  33.1302173
  55.9016414  27.1011631  42.4131150  55.3104347  27.7421129  42.3834165
  56.6637437  27.5249249  42.3862449  55.9264674  27.2587470  42.4046297
  56.2977036  18.2613629  43.0799168  56.7578518  18.3352558  43.8174291
  56.3433143  19.0594883  42.7298989  56.3727592  18.3907776  43.1371924
  57.9460386  18.9280324  47.6471195  57.5545951  18.2813671  48.0826972
  58.1146249  19.5191759  48.2665450  57.9131297  18.9194592  47.8033901
  72.0206835  26.9317401  43.4108428  72.0789959  27.3804050  44.1568405
  71.3873303  27.3416214  42.9738508  71.9358130  27.0591136  43.4560976
  65.6605930  32.5520943  39.8463174  65.4625619  33.0411757  39.1519386
  65.0393641  32.7562184  40.4247308  65.5393494  32.6537481  39.8286398
  59.7213908  24.3205840  34.1873419  60.4655953  24.7080116  34.4256369
  59.8674604  23.4763265  34.3513906  59.8524493  24.2536313  34.2467388
  61.6393484  16.1156099  39.2205280  60.7929529  16.2878906  39.0946630
  61.6364616  15.3105442  39.5571108  61.5140634  16.0217128  39.2516407
  62.7091784  19.8931313  40.0867338  62.2351738  19.3673075  40.5972649
  63.0809920  19.3460786  39.5182200  62.6941673  19.7347310  40.0782485
  53.0864814  21.8902820  45.4550884  53.9490427  21.7898529  45.3688214
  52.7556597  21.3097529  44.8936456  53.1650011  21.7894446  45.3596290
  68.9728515  24.9533689  41.4974119  68.7326738  24.1140104  41.5016545
  69.4520522  25.0333855  42.2214892  69.0080698  24.8415088  41.6048921
  64.6375284  20.7867868  33.1493092  64.1098302  20.8696612  32.4598801
  65.0970992  21.5285739  33.1457736  64.6277134  20.9088530  33.0467787
  70.9733702  21.7335146  39.4503378  70.7343472  21.6930980  38.6124162
  71.1367603  22.5806298  39.5769099  70.9624005  21.8527231  39.3456860
  67.5779732  26.1185095  45.3808423  68.3013931  25.6657622  45.2019443
  67.3129694  26.3989761  44.5980751  67.6461005  26.0936064  45.2387138
  56.4466600  20.7145269  42.1161302  55.8219670  20.7263661  41.5087255
  56.1112195  21.1905444  42.7652542  56.3052092  20.7863786  42.1217870
  56.6308349  19.0570387  28.1733987  56.2821153  19.7090112  28.6365536
  56.1504795  19.0427500  27.4457858  56.5078593  19.1513441  28.1345078
  53.1592276  28.7745729  43.5565066  52.6292200  28.0838168  43.6060041
  53.4317369  28.7655914  42.7277775  53.1216998  28.6712861  43.4412482
  64.1912366  29.3571431  32.2802749  64.9146565  29.8229544  32.1367322
  63.7512957  29.4245041  31.5300346  64.2328058  29.4355268  32.1487530
  63.3598521  26.2168973  43.5303438  62.7455514  25.6727024  43.8252073
  63.8765806  25.7033210  43.0509254  63.3454184  26.0605382  43.5027666
  62.5994818  27.2873243  41.2647736  62.1722427  26.6622962  40.8313172
  62.5919763  27.0048165  42.0906744  62.5353960  27.1526024  41.3227564
  55.7157346  22.3238416  44.3336170  55.8750832  21.5681741  44.7387892
  55.5350239  22.8729356  44.9876908  55.7122705  22.2932230  44.4898876
  63.6577649  14.4899652  44.8886960  63.1618210  14.6863326  44.1978527
  64.4146711  14.8892320  44.7175762  63.6964473  14.5777386  44.7607097
  60.9280528  18.1641998  41.4790270  60.9523015  17.6302110  40.7903050
  61.1792002  17.6559307  42.1415861  60.9690447  18.0102902  41.4754915
  57.2081850  16.8912816  40.8596015  57.2480222  17.3922023  41.5730722
  56.3831515  16.9823210  40.5901938  57.0921376  16.9794633  40.9246553
  59.3911463  26.4573556  48.9616309  58.5407094  26.5945270  49.0973954
  59.5539591  25.7237334  49.4064011  59.2895327  26.3687657  49.0471909
  58.6296214  23.4073326  43.1569914  57.7988143  23.5747144  42.9505162
  58.5747731  23.0309277  43.9418799  58.4985629  23.3763057  43.2418442
  56.4379997  16.8982219  48.7926324  57.0632700  16.3544352  49.0655757
  55.9830477  16.4177137  48.2234115  56.4628258  16.7471700  48.7487918
  57.0032258  21.6828918  33.6860031  57.1435219  22.1801382  34.3888673
  57.5014790  20.9815212  33.8274245  57.0973339  21.6530896  33.8111610
  57.0332480  22.5496029  31.0152608  57.6677559  23.1456454  30.9502070
  57.1158091  22.2499486  31.8298478  57.1389031  22.5936937  31.1255695
  70.0115046  25.0811506  43.8838972  70.6032886  25.7208757  43.9157171
  70.4474040  24.3834543  44.1731039  70.1633477  25.0729856  43.9319805
  58.6111463  18.4810004  30.9898050  58.9327304  18.0013087  30.3357313
  58.8738407  19.2909650  30.7988862  58.6977488  18.5299902  30.8653542
  61.8408436  29.5028878  44.5096866  61.3333527  30.0564725  44.9537497
  61.5435082  29.5637168  43.6915641  61.7213321  29.5935190  44.4545323
  64.0070618  17.8682198  43.3521529  64.4325689  17.4154724  42.7405056
  63.3927611  17.3142269  43.6286317  63.9799263  17.7196174  43.3026555
  53.5385468  24.7463869  34.2842154  54.0477697  25.3428377  34.6653460
  54.0119740  24.4789843  33.6018574  53.6828844  24.7949685  34.2396677
  64.4516216  33.4192136  32.4400810  63.7345526  33.2452998  31.9748047
  65.1022954  33.1844708  31.9076296  64.4418066  33.3587929  32.2930028
  62.4464841  14.3397298  36.7612106  61.8033159  14.1894944  37.3297245
  62.1064248  14.0939643  35.9961211  62.3009918  14.2809420  36.7315122
  67.0364187  22.2956725  36.1842115  66.3655377  22.8386427  36.0555181
  67.7303937  22.7651580  35.9423810  67.0393055  22.4454996  36.1297643
  61.0850921  34.4353437  41.4153873  60.8616575  33.6772266  41.7837900
  60.5960764  34.4651458  40.6934313  60.9794370  34.3275661  41.3630614
  67.1992315  18.7512608  39.0932488  67.5519925  18.3242331  39.7678287
  66.3407116  18.6663452  39.2233565  67.1241759  18.6757349  39.2127499
  55.8976000  21.3820128  37.1515335  55.1787989  21.7984261  37.4188198
  56.2688362  21.9474367  36.6006973  55.8467931  21.5269409  37.1098142
  65.1975580  22.0147977  43.0417330  65.1773508  21.8331272  43.8952109
  65.2454781  22.8859995  43.0176914  65.2010221  22.1164515  43.1640625
  63.1421910  28.6035169  48.9665807  63.1017765  27.9584846  48.3810963
  63.9545229  28.5471786  49.2791219  63.2565064  28.4994136  48.9262756
  59.7329378  34.6553895  38.8690958  59.3189776  33.9928025  38.4794800
  60.4176752  34.8031754  38.3486652  59.7727750  34.5794553  38.7347455
  63.0994672  33.8143980  39.6214574  62.7010955  33.9246250  38.8535395
  62.4845892  34.0226046  40.2041134  62.9493561  33.8617548  39.5945874
  61.6722574  20.4218128  32.4888714  61.0787413  20.7435124  31.9373281
  61.7097852  19.5759223  32.2809820  61.5896963  20.3442456  32.3771485
  68.6316375  13.8731020  40.0216801  68.1247239  13.1660160  39.9537978
  69.4283808  13.5424209  40.1517877  68.6743614  13.7204171  40.0315796
  64.5480391  20.3797632  35.9190464  64.3194084  20.4030334  35.0768823
  64.8078467  19.5555099  36.0385475  64.5526579  20.2613712  35.8115662
  58.8299619  22.2332105  45.5215565  58.3178522  21.6253288  45.8800596
  58.6579115  22.9488698  45.9889540  58.7289256  22.2495405  45.6431788
  53.6765334  20.6769681  48.1717926  53.5067924  21.3371056  47.6266133
  53.2331284  20.8876242  48.8930416  53.5864667  20.8055663  48.1979556
  57.6025153  18.9174179  37.2144660  58.0782519  19.2791258  36.5794841
  57.1013753  19.5730646  37.4944803  57.5990512  19.0668367  37.1621401
  70.8336515  28.3895947  33.0057665  71.2170120  29.1387303  33.2355762
  70.0380628  28.6361766  32.7469654  70.7730297  28.5365641  33.0015239
  62.7068689  20.1556350  47.9617820  63.2640119  19.9270160  47.3296286
  62.3829754  20.9162016  47.6853033  62.7415100  20.2340187  47.8274317
  60.4251807  23.2424003  48.9269827  61.1763134  23.5575680  49.2409381
  60.6174383  23.0403174  48.1003749  60.5643221  23.2591385  48.8513223
  59.6451806  21.0615378  30.5818044  60.0250771  21.0795008  29.7969159
  58.9044402  21.5069367  30.4608891  59.5920644  21.1297153  30.4481612
  67.2737097  19.3697570  36.1693623  67.2731323  19.2146226  37.0277899
  67.0693277  20.2160557  36.1135008  67.2436875  19.4718190  36.2881562
  64.9977949  24.0495071  39.8229830  65.4931614  23.3318066  39.7833850
  64.1877725  23.7465869  39.7084317  64.9521842  23.8992718  39.8003555
  60.4436560  27.8992885  31.9726834  59.6347883  27.5759558  31.9260144
  60.9511469  27.1926107  31.9055083  60.3986227  27.7474201  31.9557128
  67.0629768  26.7998759  42.5106958  67.4884839  26.2773181  41.9577383
  66.6986688  27.3979596  41.9895581  67.0716370  26.8108986  42.3515968
  63.6508367  30.5133023  38.8408116  64.1219545  31.2273286  39.0098101
  63.9868546  29.9131773  39.3767985  63.7703482  30.5304487  38.9440492
  65.7385352  32.1234337  51.0200188  65.8482317  31.3342897  51.3756935
  66.0676248  32.0340273  50.2174526  65.8037757  31.9940189  50.9542579
  60.5677862  15.2860494  45.7966211  60.7005768  14.4891487  46.1247186
  60.9523015  15.8126897  46.3764486  60.6434191  15.2460410  45.9309714
  64.2882313  30.3050957  45.6035808  63.7403259  29.6808841  45.3355874
  64.7495342  30.4945229  44.8879888  64.2749523  30.2410008  45.4586240
  63.6410217  12.2090820  42.3947304  62.8356181  12.0988550  42.7115142
  63.5116953  12.3103276  41.5377170  63.5030350  12.2074490  42.3155344
  67.0976178  18.3736312  42.9887001  66.5139167  18.8745518  42.5764568
  67.4180472  17.8665868  42.3551324  67.0589353  18.3728147  42.8345508
  59.6370977  17.2876907  33.2645676  60.4586671  17.4575220  33.0227370
  59.1740628  17.4424168  32.5411973  59.6902139  17.3358640  33.1217320
  58.2266309  15.2819669  44.0444104  58.7710722  14.9410796  44.6348446
  58.2803245  16.1405130  44.1865389  58.3155428  15.3574928  44.1525978
  54.0396868  29.0436085  40.9182912  54.6441725  29.0031919  40.2896733
  53.8324180  29.8907237  40.9486968  54.0985765  29.1624087  40.8299029
  63.8540640  31.3102030  42.1345150  64.6739014  31.1664996  42.3961445
  63.5734717  31.9348229  42.6761588  63.9337383  31.3812382  42.2533089
  73.5253975  38.0542533  39.8540956  72.6691870  38.2151031  39.9050073
  73.5721629  37.1834597  39.8746018  73.4053086  37.9493335  39.8647022
  67.9095115  47.5905251  35.6178188  67.1578014  47.2120789  35.3894233
  68.3581126  47.6223684  34.8696998  67.8644781  47.5390858  35.4735690
  76.8347691  44.3229058  49.4601413  77.5414459  43.8281089  49.5888347
  77.0235627  44.7638140  48.7304071  76.9675597  44.3147409  49.3710458
  73.3620075  48.0130620  31.0463735  73.0271443  48.6907542  30.6107957
  73.8746945  47.6235931  30.4580607  73.3885656  48.0555198  30.8950527
  72.9024366  49.9644889  36.9874847  73.2863745  50.5331787  36.4479622
  72.8383507  49.2394399  36.5080663  72.9497793  49.9420352  36.8368709
  76.3705796  40.1134577  42.4972608  76.9161756  40.7919663  42.5566578
  76.3122672  39.9722038  41.6374190  76.4421710  40.1926578  42.3784669
  69.4879871  47.6023643  37.8840961  69.5890234  46.7923997  38.1938088
  68.8921616  47.5080589  37.2540639  69.4152409  47.4688671  37.8367199
  64.9835003  35.7929660  40.4077602  64.3640034  35.2022307  40.2387617
  64.8818866  36.3841095  39.7741925  64.8772678  35.7933742  40.2882591
  70.0301190  45.5313207  34.6575678  70.3517031  46.0718414  34.0536986
  70.6773287  44.9609978  34.7897968  70.1727245  45.5272382  34.5882714
  72.0802898  37.5329202  34.7410065  72.7783063  37.7117329  35.2331528
  72.3955231  37.0099541  34.1180454  72.2298235  37.4822974  34.7212075
  72.2690834  43.9199647  34.7289856  72.7084469  43.3116747  35.1744629
  72.1195496  43.5407020  33.9575321  72.3112299  43.7738118  34.6809024
  69.7362477  42.5143659  41.9308682  70.3811479  42.0216102  41.6119630
  69.9764254  42.6568445  42.7574760  69.8673062  42.4621101  42.0058215
  72.2748568  45.3598564  41.5815575  72.5571811  44.5649970  41.3602330
  73.0034728  45.8379152  41.6020636  72.4238132  45.3133161  41.5518590
  70.2529762  32.9021598  38.8231340  69.9233092  33.3532742  38.1535038
  69.5774764  32.8237762  39.3704346  70.1040198  32.9572734  38.8054563
  75.8700170  42.2726828  31.6820626  75.7851465  43.1287795  31.8270195
  76.3584553  41.9971152  32.3502785  75.9289067  42.3584149  31.8022707
  77.4606170  28.8907121  37.0680950  77.1459611  29.5810600  37.5001373
  76.9433111  28.8351904  36.3666451  77.3370640  28.9842010  37.0277899
  76.8018603  38.8911622  33.1818361  76.2730075  39.1071256  33.8415667
  77.3243623  39.5847761  33.1019330  76.8007056  39.0254759  33.2673960
  68.6918211  42.7874839  31.9825829  68.1075426  43.2924870  32.3891693
  68.2888306  42.5617226  31.2422421  68.5457515  42.8283087  31.9330854
  64.2462240  48.5029600  38.7849500  63.7629818  49.2280090  38.7609084
  65.0585558  48.8005730  38.8959658  64.2952988  48.6531954  38.7976780
  70.3176394  47.2961781  41.3899315  69.8003336  46.9369196  40.7860623
  71.0150785  46.7723955  41.4005381  70.3441975  47.1659469  41.3029574
  73.9739986  47.7456595  47.3515488  74.0623332  47.5582735  48.1993698
  74.4029698  47.0994024  46.9520335  74.0502088  47.6219603  47.4187239
  71.5410446  47.0287755  46.3333150  70.9781280  46.6160365  46.8572811
  72.3031469  46.9540661  46.7526293  71.5704894  46.9565155  46.4726150
  73.1495426  39.0340491  30.4594749  73.3891429  39.2418475  29.6470093
  73.4711267  38.2298000  30.5683694  73.2332583  38.9454592  30.3555302
  68.4585716  30.9633887  34.3054287  69.2131684  31.3312204  34.0671338
  68.2813250  31.3373441  35.0733467  68.5440194  31.0732075  34.3839176
  67.1006437  49.0185776  38.9369780  67.8027016  48.5037765  38.9942537
  67.0203920  49.3459927  39.7416655  67.1930198  48.9900002  39.0642572
  68.1485344  39.2561363  48.0650195  68.3205847  39.1467258  48.9135477
  68.6854701  39.9015768  47.8281388  68.2530348  39.3353365  48.1555292
  66.8142781  33.3704206  31.0032400  66.6318354  33.5876087  30.1773393
  67.6768394  33.4843219  31.0591015  66.9147370  33.4194104  30.8886887
  67.0509916  45.6293003  42.7468694  67.5908140  45.4864134  43.4172066
  66.3679862  46.0289754  43.1152720  67.0302069  45.6672674  42.9003115
  72.4942500  30.3730617  34.0381424  73.2228660  30.1946571  33.5919580
  72.5837393  31.2148696  34.2488602  72.6149162  30.4714495  34.0034942
  76.4750800  41.3084004  37.9413718  77.2308315  41.7415518  37.9802627
  76.5813125  40.6588774  38.5148354  76.6020971  41.2761488  38.0311744
  74.0860045  47.1765614  50.0159271  74.8700462  47.2896462  50.3815014
  73.8856640  46.3506751  50.2117957  74.1726071  47.0712333  50.0993657
  66.3604808  36.6478378  29.5154873  65.6462985  36.3616558  29.9277306
  66.8448776  36.9875004  30.1561261  66.3264171  36.6560028  29.6710508
  74.2430438  49.0875716  43.6625727  73.4445684  48.8475216  43.9199596
  74.6916450  49.1390109  44.4092775  74.1905050  49.0598107  43.8110651
  73.5352125  45.1508332  29.8916682  73.9503274  44.8193356  29.2001177
  72.7044055  44.9177235  29.7636818  73.4740134  45.0679588  29.7707529
  65.9286226  39.3537076  46.6896968  66.6526198  39.3390107  47.1761863
  66.0302362  40.0632432  46.1918936  66.0504435  39.4561779  46.6875755
  73.3031175  42.8336161  51.5545915  72.5104156  43.1479673  51.7398535
  73.4180102  43.0487629  50.7166700  73.2026586  42.9119998  51.4584250
  75.9762494  39.5570152  35.8440931  76.0709349  40.2959446  36.2980557
  75.3521338  39.1287628  36.2775496  75.8971524  39.6031473  35.9749079
  74.2314968  42.7356365  46.4931212  74.8053830  42.0983609  46.6479776
  74.1529772  42.7360447  45.6240870  74.3048203  42.6421476  46.3877623
  76.2285516  41.4018892  29.0777883  76.1465678  41.4721079  29.9432870
  76.8665236  41.9648636  28.8861624  76.3105353  41.4957863  29.1767833
  69.5878687  41.1679630  38.5452409  69.3297931  40.3351365  38.5183709
  69.6427170  41.3937243  37.7044910  69.5578465  41.0777401  38.4172546
  74.6679737  33.2708080  38.6456502  73.9636064  32.7817266  38.8040421
  74.7164711  33.2830555  37.7744946  74.5709788  33.1997728  38.5395842
  68.5613399  38.7217392  39.0317304  67.9862990  38.8809561  39.6681265
  68.1849075  38.0852801  38.5685755  68.4216211  38.6515205  39.0571863
  72.2286688  37.1940742  43.8909683  71.8401120  36.7694959  43.2361874
  71.5641386  37.4422891  44.3986709  72.0733615  37.1679463  43.8697550
  76.0513049  30.8915370  41.4033667  76.4323561  30.2093541  41.7901541
  75.2476333  30.6024972  41.2209331  75.9889511  30.7482419  41.4337723
  73.3325626  41.4239346  32.0886490  74.1466265  41.7154239  31.9769261
  73.2684767  40.7699208  31.5144782  73.4428365  41.3704541  31.9875327
  69.2033534  44.8960864  37.2158802  69.8407481  44.6572611  37.7610595
  69.6288606  45.0998022  36.4811962  69.3609700  44.8911874  37.1875959
  69.8436349  40.1163153  31.5533691  70.2281502  39.8970860  32.3050236
  69.5947969  40.9426099  31.6834767  69.8638422  40.2061300  31.6834767
  70.0104889  33.3969569  51.2696275  69.6958331  34.1669131  51.0065838
  69.6894822  32.8339825  50.6848502  69.9163809  33.4279837  51.1437625
  71.5855006  45.3733286  38.8952588  71.6594014  45.2108458  39.7494438
  72.4024512  45.5623476  38.6513070  71.7171365  45.3770029  38.9850613
  67.5636786  31.7860090  36.8842472  66.6959212  31.8582690  36.9500081
  67.8511991  32.5882169  37.0730447  67.4776535  31.9154237  36.9217238
  76.6869675  31.9337949  45.2153793  77.4323267  31.7447760  44.8017219
  76.2706980  32.4596187  44.6567650  76.7354649  31.9840095  45.0718367
  70.1259592  48.3368029  33.6266061  70.4157890  47.9457011  32.9025288
  70.8563073  48.5184734  34.0671337  70.2766476  48.3061843  33.5848868
  70.7154337  43.1385775  44.7119192  70.2166031  43.8501543  44.7904080
  71.5254561  43.4586442  44.6737354  70.7610444  43.2912624  44.7175760
  68.0665507  50.3135412  36.6926211  67.8465803  50.0232766  37.4852878
  67.8460029  49.6550367  36.1644123  68.0013102  50.1735120  36.7315120
  77.7660352  37.5443512  39.2763895  77.4225118  36.8233847  39.6271144
  77.8653395  37.3357363  38.4342253  77.7302395  37.4067715  39.2035575
  70.2333463  51.6864802  35.4756903  70.8857521  51.1541244  35.7047929
  69.5359072  51.3333454  35.8624777  70.2264181  51.5554325  35.5669071
  69.6421395  35.9966820  50.0081490  68.8321171  36.3024599  49.8971332
  70.1196082  36.7172402  50.1234074  69.5924874  36.1481421  50.0088561
  68.5012954  45.2112541  40.2564393  67.9793708  45.3512832  40.9416258
  68.8886975  44.4523205  40.4466510  68.4816655  45.1198064  40.3865470
  65.4904139  35.2618349  34.3259348  65.2028934  34.8919620  33.5891295
  66.1774607  35.7313205  34.0643053  65.5493036  35.2765319  34.1774424
  74.6979959  46.9508000  34.2424962  74.4566635  46.2175861  33.8352027
  74.8781292  47.4994857  33.5891295  74.6887583  46.9230391  34.0855185
  69.9279280  42.2416560  35.6545884  69.7322063  42.8491294  35.0606187
  70.1513626  41.5484504  35.1737558  69.9313921  42.2294085  35.4961965
  68.3257810  39.1271298  35.7726752  69.0480462  39.2912456  35.3130558
  67.8465803  39.8480962  35.6666092  68.3621541  39.2569527  35.6892366
  76.2851318  35.4635096  41.1523437  75.4462418  35.4896375  40.9161701
  76.3555685  36.1105832  41.7328784  76.1719711  35.5631222  41.2032554
  65.9765427  41.5329370  44.8780892  66.4886524  41.8113623  44.2289652
  65.6901769  42.2718664  45.2443705  66.0100290  41.6831724  44.8370770
  74.7320596  32.3620473  35.8851053  75.4346949  32.1628222  35.4071012
  74.4664785  31.5896416  36.1919897  74.7967228  32.2183439  35.8596495
  63.0632333  36.0399562  35.1744629  63.1648470  36.8425723  35.5025604
  63.8588220  35.8386898  34.8767709  63.1960239  36.1285461  35.1779984
  69.4949152  33.6255759  44.9381934  69.3032349  33.6410893  45.7881357
  70.3447748  33.8219433  44.9148589  69.5924874  33.6570110  45.0605229
  63.8796065  36.1546740  42.9165750  63.7381557  35.3030681  43.0410258
  64.1636629  36.1975401  42.0927956  63.9003911  36.0346490  42.8133374
  74.0334658  37.9913830  37.0610239  73.7869372  37.9109581  37.8947028
  74.3619781  37.2067298  36.8672766  74.0455901  37.8640096  37.1557762
  77.9282706  44.6997190  40.8497020  77.7897066  45.3978235  41.3545762
  77.1482704  44.5445846  40.4933202  77.7925933  44.7797356  40.8723294
  76.2660792  40.9993565  47.1019402  76.2608830  40.1273381  47.1061828
  76.9721785  41.1981734  46.6288857  76.3705796  40.8997439  47.0326437
  69.9931685  40.7270549  46.4733222  70.1375061  41.3071757  45.8376332
  70.3407333  41.1046845  47.1783076  70.0659146  40.8691253  46.4832217
  72.1651602  39.9260717  44.2558353  71.4174916  40.1191732  43.8506631
  72.3193127  39.1005937  44.0182475  72.0774030  39.8325829  44.1603759
  69.0659440  48.9173321  43.3394249  69.2149004  48.3576236  42.6867653
  69.8459442  48.9965322  43.7226767  69.2033533  48.8458886  43.2991198
  71.5912740  49.0887963  44.6178739  71.5156412  48.4196774  45.1729528
  71.5202600  49.7905752  45.1319406  71.5693347  49.0932871  44.7755588
  72.4053379  33.8211268  45.1453757  72.8625993  34.5535242  45.2726549
  72.4809708  33.3977733  45.9041013  72.4844349  33.8668506  45.2754834
  64.6486370  34.0677088  46.2343201  64.1128560  33.4557446  46.5503968
  64.7104135  34.6425224  46.8876867  64.5782003  34.0624015  46.3778628
  76.8780705  27.0001143  39.0147600  76.9964273  27.4577606  38.2814903
  76.7042881  26.1946404  38.7283818  76.8699876  26.9494915  38.8648534
  72.2482987  47.6088962  35.4502345  73.0132879  47.3398606  35.1285010
  72.1461077  47.1238973  36.1672408  72.3464483  47.4978527  35.5082173
  70.2835757  35.8113372  41.9895581  69.4931832  35.6304832  42.3112917
  70.6796380  35.0340324  41.9725876  70.2252633  35.6700833  42.0348129
  74.7701648  44.6401146  27.4302295  75.5374633  44.7001271  27.0208147
  74.3232957  44.0681588  26.9458613  74.8175075  44.5637722  27.2980005
  75.6679443  43.4455802  39.7155027  74.9924445  43.2141034  40.2168414
  75.6771820  42.8376985  39.0897132  75.5697948  43.3214727  39.6971179
  72.7973587  38.2873631  46.4719080  72.7332729  39.1483587  46.3439217
  72.9370775  37.9705624  45.6714631  72.8089058  38.3673798  46.3347293
  77.6696178  46.3020934  31.9465205  77.7516015  47.1087921  31.6226656
  78.1545920  46.3216894  32.6705978  77.7533336  46.4241597  32.0052104
  71.4792681  40.9805770  40.6135283  71.0554930  41.1810269  39.8774301
  71.3037537  40.1334618  40.7259583  71.3903562  40.8854552  40.5208973
  70.9804375  52.4956283  43.0756740  71.4700305  51.7967072  42.8932405
  70.4088607  52.1980153  43.6632798  70.9688905  52.3482507  43.1357781
  66.7675126  41.4757822  36.0463255  66.9239745  41.4104625  36.9019248
  67.1075719  42.2506374  35.8341935  66.8408361  41.5807020  36.1417850
  73.3054271  40.8515705  34.9156619  73.8469816  40.3486086  35.3795239
  73.6200830  40.7980900  34.1046104  73.4318668  40.7695126  34.8640431
  77.1771378  45.0618353  52.0283531  77.9906244  44.7903501  52.1888663
  77.0166345  44.7625893  51.2243727  77.2741327  44.9773279  51.9328937
  71.4740721  46.2433057  32.1996647  71.5433541  45.3847595  32.3389647
  72.2529176  46.4604938  31.8715671  71.5993571  46.1485921  32.1713804
  74.4543540  35.7452010  44.9678919  74.6685510  35.1062924  44.4142273
  73.8377439  36.1897834  44.5386781  74.3948870  35.7162153  44.8229350
  75.8648208  48.6670758  36.4133140  75.4728000  48.3637473  35.6956006
  76.0201280  49.5039848  36.2238094  75.8301798  48.7454595  36.2789637
  63.3409388  38.6592772  36.3624023  63.7208353  39.0777317  35.6984290
  62.7664753  39.2406228  36.6692866  63.3120713  38.8070631  36.3100764
  76.6182628  37.3541075  45.9062226  75.8059310  37.0466965  45.9875399
  77.0772563  36.8740075  46.4704938  76.5663013  37.2377567  46.0016820
  76.0287883  45.2320747  36.3539171  75.6702538  45.4035390  37.1303203
  75.5426594  45.6933953  35.7967169  75.9046580  45.3259718  36.3864440
  73.8458269  28.8551945  39.9566262  72.9751827  28.8290667  39.9099571
  74.0998610  28.6829138  39.1392108  73.7551829  28.8262089  39.8286399
  70.8176248  40.9119912  28.8939405  71.1068773  41.6884795  29.1682979
  70.9048047  40.4008644  29.5953904  70.8730505  40.9511831  29.0381903
  73.7136136  38.7601146  50.6890929  74.1835767  39.3843263  51.0758803
  73.7598016  38.0918122  51.2484143  73.7904012  38.7535827  50.8291000
  70.8707409  30.8658174  41.4139732  70.3545898  30.1738365  41.5391311
  70.3101338  31.5328951  41.3602331  70.7113923  30.8621432  41.4245798
  72.9399643  31.4051134  43.2432585  72.5531396  31.4300165  44.0246115
  72.4532580  30.8392813  42.7907101  72.8112152  31.3246885  43.2920489
  77.1892622  46.1224643  47.3006371  77.8272343  45.6284839  46.9668827
  76.5466714  46.0502043  46.7158598  77.1886849  46.0383651  47.1648726
  72.6056785  28.2918119  45.5342845  73.2349903  28.8278419  45.2563915
  72.7742647  28.1995478  46.3856410  72.7234579  28.3579482  45.6191373
  72.4070699  33.0789314  47.8069256  73.2344129  32.8074463  47.8627871
  72.4278546  33.8750156  48.1633075  72.5323550  33.1569068  47.8684439
  77.2446879  46.8144451  43.9411728  78.0339257  46.4633516  44.0613810
  77.4190477  47.6280840  43.6788362  77.3867161  46.8830308  43.9199596
  66.9840189  40.2253177  40.9939517  66.1428196  40.1257051  41.2018411
  67.1930197  40.9948657  41.3453838  66.8904882  40.3245220  41.0766832
  64.4615756  37.8472714  38.8224268  64.0672454  37.9215726  38.0474377
  63.9055873  38.2330660  39.3732629  64.3218569  37.9154488  38.7891927
  76.0980703  30.8254008  38.5028147  76.3030296  30.7576316  39.3485144
  75.7707127  31.6312829  38.4349324  76.0795951  30.9339948  38.6187802
  70.7956854  38.1534576  40.2437115  70.4919992  37.5990564  40.8447522
  70.0936275  38.3326786  39.7565149  70.6473064  38.0979358  40.2606820
  68.8575205  45.3684297  44.9509212  68.7495560  45.3786359  45.8171270
  69.0670987  46.1939077  44.7614166  68.8725316  45.4925372  45.0513304
  73.3533472  33.1348613  33.0828411  73.8077218  33.3059174  33.8076256
  73.8273518  32.5216724  32.6826187  73.4901792  33.0699499  33.1302173
  67.2709620  33.7798937  43.0799168  67.7311102  33.8537866  43.8174291
  67.3165727  34.5780191  42.7298989  67.3460175  33.9093084  43.1371924
  68.9192970  34.4465632  47.6471195  68.5278535  33.7998979  48.0826972
  69.0878832  35.0377067  48.2665450  68.8863880  34.4379900  47.8033901
  76.6338513  48.0706251  39.8463174  76.4358202  48.5597065  39.1519386
  76.0126225  48.2747492  40.4247308  76.5126078  48.1722789  39.8286398
  70.6946492  39.8391148  34.1873419  71.4388537  40.2265424  34.4256369
  70.8407188  38.9948573  34.3513906  70.8257077  39.7721620  34.2467388
  72.6126067  31.6341407  39.2205280  71.7662112  31.8064214  39.0946630
  72.6097200  30.8290750  39.5571108  72.4873217  31.5402435  39.2516407
  73.6824368  35.4116621  40.0867338  73.2084322  34.8858383  40.5972649
  74.0542503  34.8646094  39.5182200  73.6674257  35.2532618  40.0782485
  64.0597398  37.4088128  45.4550884  64.9223011  37.3083837  45.3688214
  63.7289181  36.8282837  44.8936456  64.1382594  37.3079754  45.3596290
  75.6107867  36.3053176  33.1493092  75.0830886  36.3881920  32.4598801
  76.0703575  37.0471047  33.1457736  75.6009718  36.4273838  33.0467787
  67.4199184  36.2330577  42.1161302  66.7952254  36.2448969  41.5087255
  67.0844779  36.7090752  42.7652542  67.2784676  36.3049094  42.1217870
  67.6040932  34.5755695  28.1733987  67.2553737  35.2275420  28.6365536
  67.1237378  34.5612808  27.4457858  67.4811176  34.6698749  28.1345078
  75.1644950  44.8756739  32.2802749  75.8879149  45.3414852  32.1367322
  74.7245541  44.9430349  31.5300346  75.2060642  44.9540576  32.1487530
  74.3331105  41.7354281  43.5303438  73.7188098  41.1912332  43.8252073
  74.8498390  41.2218518  43.0509254  74.3186767  41.5790690  43.5027666
  73.5727402  42.8058551  41.2647736  73.1455010  42.1808270  40.8313172
  73.5652346  42.5233473  42.0906744  73.5086543  42.6711332  41.3227564
  66.6889929  37.8423724  44.3336170  66.8483416  37.0867049  44.7387892
  66.5082823  38.3914664  44.9876908  66.6855288  37.8117538  44.4898876
  74.6310232  30.0084960  44.8886960  74.1350793  30.2048634  44.1978527
  75.3879294  30.4077628  44.7175762  74.6697057  30.0962694  44.7607097
  71.9013112  33.6827306  41.4790270  71.9255599  33.1487418  40.7903050
  72.1524585  33.1744615  42.1415861  71.9423030  33.5288210  41.4754915
  68.1814434  32.4098124  40.8596015  68.2212806  32.9107331  41.5730722
  67.3564099  32.5008518  40.5901938  68.0653960  32.4979940  40.9246553
  70.3644047  41.9758864  48.9616309  69.5139677  42.1130578  49.0973954
  70.5272175  41.2422642  49.4064011  70.2627910  41.8872965  49.0471909
  69.6028797  38.9258634  43.1569914  68.7720727  39.0932452  42.9505162
  69.5480315  38.5494585  43.9418799  69.4718212  38.8948365  43.2418442
  67.4112581  32.4167527  48.7926324  68.0365284  31.8729660  49.0655757
  66.9563061  31.9362444  48.2234115  67.4360841  32.2657008  48.7487918
  67.9764841  37.2014226  33.6860031  68.1167802  37.6986690  34.3888673
  68.4747374  36.5000520  33.8274245  68.0705922  37.1716204  33.8111610
  68.0065064  38.0681337  31.0152608  68.6410143  38.6641762  30.9502070
  68.0890674  37.7684794  31.8298478  68.1121615  38.1122245  31.1255695
  69.5844046  33.9995312  30.9898050  69.9059887  33.5198394  30.3357313
  69.8470990  34.8094958  30.7988862  69.6710072  34.0485210  30.8653542
  72.8141019  45.0214186  44.5096866  72.3066110  45.5750033  44.9537497
  72.5167665  45.0822476  43.6915641  72.6945904  45.1120498  44.4545323
  74.9803201  33.3867506  43.3521529  75.4058273  32.9340032  42.7405056
  74.3660195  32.8327577  43.6286317  74.9531847  33.2381482  43.3026555
  75.4248800  48.9377444  32.4400810  74.7078109  48.7638306  31.9748047
  76.0755537  48.7030016  31.9076296  75.4150650  48.8773237  32.2930028
  73.4197424  29.8582606  36.7612106  72.7765742  29.7080252  37.3297245
  73.0796831  29.6124951  35.9961211  73.2742502  29.7994728  36.7315122
  78.0096771  37.8142033  36.1842115  77.3387961  38.3571735  36.0555181
  78.7036521  38.2836888  35.9423810  78.0125638  37.9640304  36.1297643
  72.0583504  49.9538745  41.4153873  71.8349159  49.1957574  41.7837900
  71.5693348  49.9836766  40.6934313  71.9526953  49.8460969  41.3630614
  78.1724898  34.2697916  39.0932488  78.5252508  33.8427639  39.7678287
  77.3139700  34.1848760  39.2233565  78.0974343  34.1942657  39.2127499
  66.8708583  36.9005436  37.1515335  66.1520572  37.3169568  37.4188198
  67.2420945  37.4659675  36.6006973  66.8200515  37.0454717  37.1098142
  76.1708164  37.5333285  43.0417330  76.1506091  37.3516580  43.8952109
  76.2187365  38.4045303  43.0176914  76.1742805  37.6349823  43.1640625
  74.1154494  44.1220477  48.9665807  74.0750349  43.4770154  48.3810963
  74.9277812  44.0657094  49.2791219  74.2297647  44.0179444  48.9262756
  70.7061961  50.1739203  38.8690958  70.2922360  49.5113333  38.4794800
  71.3909336  50.3217061  38.3486652  70.7460333  50.0979861  38.7347455
  74.0727256  49.3329288  39.6214574  73.6743539  49.4431558  38.8535395
  73.4578475  49.5411354  40.2041134  73.9226145  49.3802856  39.5945874
  72.6455158  35.9403436  32.4888714  72.0519997  36.2620432  31.9373281
  72.6830435  35.0944531  32.2809820  72.5629547  35.8627764  32.3771485
  75.5212974  35.8982940  35.9190464  75.2926667  35.9215642  35.0768823
  75.7811050  35.0740407  36.0385475  75.5259162  35.7799020  35.8115662
  69.8032203  37.7517413  45.5215565  69.2911106  37.1438596  45.8800596
  69.6311699  38.4674006  45.9889540  69.7021840  37.7680713  45.6431788
  64.6497917  36.1954989  48.1717926  64.4800508  36.8556363  47.6266133
  64.2063867  36.4061550  48.8930416  64.5597251  36.3240971  48.1979556
  68.5757737  34.4359487  37.2144660  69.0515103  34.7976566  36.5794841
  68.0746336  35.0915954  37.4944803  68.5723096  34.5853675  37.1621401
  73.6801273  35.6741658  47.9617820  74.2372703  35.4455467  47.3296286
  73.3562338  36.4347324  47.6853033  73.7147683  35.7525495  47.8274317
  71.3984390  38.7609311  48.9269827  72.1495717  39.0760988  49.2409381
  71.5906967  38.5588482  48.1003749  71.5375804  38.7776693  48.8513223
  70.6184390  36.5800686  30.5818044  70.9983355  36.5980316  29.7969159
  69.8776986  37.0254675  30.4608891  70.5653228  36.6482461  30.4481612
  78.2469680  34.8882878  36.1693623  78.2463907  34.7331534  37.0277899
  78.0425860  35.7345865  36.1135008  78.2169458  34.9903498  36.2881562
  75.9710532  39.5680379  39.8229830  76.4664198  38.8503374  39.7833850
  75.1610308  39.2651177  39.7084317  75.9254426  39.4178026  39.8003555
  71.4169144  43.4178193  31.9726834  70.6080467  43.0944866  31.9260144
  71.9244053  42.7111415  31.9055083  71.3718811  43.2659509  31.9557128
  78.0362351  42.3184067  42.5106958  78.4617423  41.7958489  41.9577383
  77.6719271  42.9164904  41.9895581  78.0448954  42.3294294  42.3515968
  67.6716431  50.6148284  41.2704304  67.9862990  51.4284673  41.2782086
  68.0809844  50.2298503  41.9386463  67.7784529  50.6776987  41.3708396
  74.6240951  46.0318331  38.8408116  75.0952129  46.7458594  39.0098101
  74.9601129  45.4317081  39.3767985  74.7436066  46.0489795  38.9440492
  76.7117935  47.6419645  51.0200188  76.8214901  46.8528205  51.3756935
  77.0408832  47.5525581  50.2174526  76.7770341  47.5125497  50.9542579
  71.5410446  30.8045802  45.7966211  71.6738351  30.0076795  46.1247186
  71.9255598  31.3312205  46.3764486  71.6166774  30.7645718  45.9309714
  75.2614897  45.8236265  45.6035808  74.7135843  45.1994149  45.3355874
  75.7227926  46.0130537  44.8879888  75.2482106  45.7595315  45.4586240
  74.6142801  27.7276128  42.3947304  73.8088765  27.6173857  42.7115142
  74.4849536  27.8288584  41.5377170  74.4762934  27.7259798  42.3155344
  78.0708761  33.8921620  42.9887001  77.4871750  34.3930826  42.5764568
  78.3913055  33.3851176  42.3551324  78.0321937  33.8913455  42.8345508
  70.6103560  32.8062215  33.2645676  71.4319255  32.9760527  33.0227370
  70.1473211  32.9609476  32.5411973  70.6634723  32.8543948  33.1217320
  69.1998892  30.8004977  44.0444104  69.7443305  30.4596104  44.6348446
  69.2535828  31.6590438  44.1865389  69.2888012  30.8760236  44.1525978
  74.8273223  46.8287338  42.1345150  75.6471597  46.6850304  42.3961445
  74.5467301  47.4533537  42.6761588  74.9069967  46.8997690  42.2533089
  73.6577499  59.1429237  37.5093294  73.4227683  58.3096890  37.4025563
  73.7963139  59.4233903  36.6954495  73.6433161  59.0612741  37.3735649
  75.9567586  51.3114968  40.4077602  75.3372618  50.7207615  40.2387617
  75.8551450  51.9026403  39.7741925  75.8505262  51.3119050  40.2882591
  75.6836719  54.8567250  42.6521171  75.5595416  55.4429695  43.2870990
  76.3355004  54.3627445  42.9533446  75.7610369  54.8706054  42.7907100
  75.2194823  64.0214908  38.7849500  74.7362402  64.7465398  38.7609084
  76.0318142  64.3191038  38.8959658  75.2685571  64.1717262  38.7976780
  77.7875364  48.8889514  31.0032400  77.6050937  49.1061395  30.1773393
  78.6500977  49.0028526  31.0591015  77.8879954  48.9379412  30.8886887
  77.3989796  60.7277436  38.4455388  78.2378695  60.9600369  38.4929150
  77.4301565  59.8581747  38.3762424  77.5271514  60.6334382  38.4420033
  78.0242499  61.1478311  42.7468694  78.5640724  61.0049442  43.4172066
  77.3412445  61.5475062  43.1152720  78.0034653  61.1857982  42.9003115
  73.4279644  57.3678602  42.9003115  73.1618059  56.5517719  43.0594106
  73.4418208  57.4131758  42.0298631  73.3904366  57.2535507  42.7956597
  77.3337391  52.1663686  29.5154873  76.6195568  51.8801866  29.9277306
  77.8181360  52.5060312  30.1561261  77.2996754  52.1745336  29.6710508
  73.8373058  58.1537381  40.1814860  73.6548631  58.1284267  39.3287152
  74.5722727  58.6236319  40.2203768  73.9187122  58.2198744  40.0612778
  76.9018809  54.8722384  46.6896968  77.6258782  54.8575415  47.1761863
  77.0034946  55.5817739  46.1918936  77.0237019  54.9747087  46.6875755
  73.8043968  55.0330882  40.3313926  74.3817471  54.8967333  40.9706172
  73.1058030  54.5766666  40.5859511  73.7864990  54.9453148  40.4636216
  69.2802801  53.8842775  37.0461745  69.3663053  53.5074643  37.8275275
  69.9078599  53.5103221  36.5681703  69.3859352  53.7728257  37.0907222
  74.8678760  62.6534508  41.0993105  74.9082905  62.9249359  40.2712885
  75.4273284  63.1776416  41.5150893  74.9562106  62.7710263  41.0384994
  76.3193346  61.2376457  35.9247031  75.4931464  61.4838194  35.7981310
  76.3805337  61.1588538  36.7909089  76.2067513  61.2621406  36.0335976
  76.4636722  50.7803657  34.3259348  76.1761518  50.4104928  33.5891295
  77.1507190  51.2498513  34.0643053  76.5225619  50.7950627  34.1774424
  76.9498010  57.0514678  44.8780892  77.4619107  57.3298931  44.2289652
  76.6634353  57.7903972  45.2443705  76.9832874  57.2017032  44.8370770
  74.0364917  51.5584870  35.1744629  74.1381053  52.3611031  35.5025604
  74.8320803  51.3572206  34.8767709  74.1692822  51.6470768  35.1779984
  74.8528649  51.6732048  42.9165750  74.7114141  50.8215989  43.0410258
  75.1369212  51.7160709  42.0927956  74.8736495  51.5531798  42.8133374
  75.6218954  49.5862396  46.2343201  75.0861144  48.9742754  46.5503968
  75.6836719  50.1610532  46.8876867  75.5514587  49.5809323  46.3778628
  77.7407710  56.9943130  36.0463255  77.8972329  56.9289932  36.9019248
  78.0808303  57.7691682  35.8341935  77.8140945  57.0992328  36.1417850
  74.3141971  54.1778080  36.3624023  74.6940936  54.5962625  35.6984290
  73.7397336  54.7591536  36.6692866  74.2853296  54.3255939  36.3100764
  77.9572773  55.7438485  40.9939517  77.1160779  55.6442359  41.2018411
  78.1662781  56.5133965  41.3453838  77.8637465  55.8430528  41.0766832
  75.4348340  53.3658022  38.8224268  75.0405038  53.4401034  38.0474377
  74.8788457  53.7515968  39.3732629  75.2951152  53.4339796  38.7891927
  77.8481581  58.1382247  42.4131150  77.2569514  58.7791745  42.3834165
  78.6102604  58.5619864  42.3862449  77.8729841  58.2958086  42.4046297
  78.2442204  49.2984245  43.0799168  78.7043685  49.3723174  43.8174291
  78.2898310  50.0965499  42.7298989  78.3192759  49.4278392  43.1371924
  75.0329981  52.9273436  45.4550884  75.8955594  52.8269145  45.3688214
  74.7021764  52.3468145  44.8936456  75.1115178  52.8265062  45.3596290
  78.3931767  51.7515885  42.1161302  77.7684838  51.7634277  41.5087255
  78.0577362  52.2276060  42.7652542  78.2517259  51.8234402  42.1217870
  78.5773516  50.0941003  28.1733987  78.2286320  50.7460728  28.6365536
  78.0969962  50.0798116  27.4457858  78.4543760  50.1884057  28.1345078
  75.1057443  59.8116345  43.5565066  74.5757367  59.1208784  43.6060041
  75.3782536  59.8026530  42.7277775  75.0682165  59.7083476  43.4412482
  77.6622513  53.3609032  44.3336170  77.8215999  52.6052357  44.7387892
  77.4815406  53.9099972  44.9876908  77.6587872  53.3302846  44.4898876
  70.3853285  56.4844109  40.9133415  70.2796734  56.4390953  40.0485499
  69.6353505  56.8297889  41.1947699  70.2588888  56.5285017  40.8270744
  75.4850635  55.7834485  34.2842154  75.9942864  56.3798993  34.6653460
  75.9584907  55.5160459  33.6018574  75.6294011  55.8320301  34.2396677
  77.8441167  52.4190744  37.1515335  77.1253156  52.8354876  37.4188198
  78.2153529  52.9844983  36.6006973  77.7933099  52.5640025  37.1098142
  75.6230501  51.7140297  48.1717926  75.4533091  52.3741671  47.6266133
  75.1796451  51.9246858  48.8930416  75.5329834  51.8426279  48.1979556
  72.5232565  54.6187162  43.4306416  71.9759285  53.9487808  43.5487285
  73.3124944  54.2517010  43.4949884  72.5584749  54.4652149  43.4575117
  71.2819535  53.8307970  40.5852439  71.1041296  53.3784579  41.3107355
  70.9938557  54.6334131  40.7690917  71.2132488  53.8830528  40.7195942
  73.0192005  56.3635694  37.6974198  72.1537524  56.3521384  37.5856970
  73.1190821  56.1765917  38.5445338  72.9066172  56.3341755  37.8063143
  75.9862035  60.0806701  40.9182912  76.5906892  60.0402535  40.2896733
  75.7789347  60.9277853  40.9486968  76.0450932  60.1994703  40.8299029
  71.2213317  59.0641318  40.7881835  71.1237595  58.2537590  41.0971892
  72.0042187  59.0433112  40.4028104  71.3229454  58.9408408  40.7768698
  56.6313355   9.0098074  22.5518235  55.8796255   8.6313612  22.3234280
  57.0799367   9.0416507  21.8037045  56.5863022   8.9583681  22.4075737
  62.0838315   9.4323443  17.9803782  61.7489683  10.1100365  17.5448004
  62.5965185   9.0428755  17.3920654  62.1103896   9.4748022  17.8290573
  61.6242606  11.3837712  23.9214894  62.0081986  11.9524611  23.3819669
  61.5601747  10.6587222  23.4420710  61.6716033  11.3613175  23.7708756
  58.2098111   9.0216466  24.8181007  58.3108474   8.2116820  25.1278135
  57.6139856   8.9273412  24.1880686  58.1370650   8.8881494  24.7707246
  58.0498851  13.9394055  26.2195863  58.6936306  14.3807219  26.6092022
  58.3755106  13.1347481  26.1326122  58.1930679  13.8859250  26.2641341
  51.4063156   5.0436753  24.4433341  51.1713340   4.2104405  24.3365610
  51.5448796   5.3241418  23.6294542  51.3918818   4.9620256  24.3075696
  58.7519431   6.9506030  21.5915725  59.0735272   7.4911237  20.9877033
  59.3991527   6.3802801  21.7238015  58.8945486   6.9465205  21.5222760
  60.9966808   6.7791388  28.5155621  61.2790051   5.9842793  28.2942377
  61.7252969   7.2571975  28.5360682  61.1456372   6.7325985  28.4858637
  52.9680480   9.9222423  25.7189547  52.4848058  10.6472913  25.6949131
  53.7803798  10.2198553  25.8299705  53.0171228  10.0724777  25.7316826
  59.0394634   8.7154604  28.3239362  58.5221576   8.3562019  27.7200670
  59.7369025   8.1916779  28.3345428  59.0660215   8.5852292  28.2369620
  62.6958226   9.1649418  34.2855535  62.7841572   8.9775559  35.1333745
  63.1247939   8.5186848  33.8860381  62.7720329   9.0412426  34.3527286
  60.2628686   8.4480578  33.2673197  59.6999521   8.0353188  33.7912858
  61.0249709   8.3733484  33.6866340  60.2923135   8.3757979  33.4066197
  55.1475453   6.6284951  25.3795435  55.9864352   6.8607884  25.4269197
  55.1787222   5.7589263  25.3102470  55.2757170   6.5341898  25.3760080
  55.7728156   7.0485826  29.6808741  56.3126381   6.9056958  30.3512113
  55.0898102   7.4482577  30.0492767  55.7520310   7.0865497  29.8343162
  62.8078285   8.5958437  36.9499318  63.5918702   8.7089285  37.3155060
  62.6074880   7.7699574  37.1458004  62.8944311   8.4905157  37.0333704
  51.1765301   3.2686117  29.8343162  50.9103716   2.4525234  29.9934152
  51.1903865   3.3139273  28.9638678  51.1390023   3.1543022  29.7296644
  62.9648679  10.5068539  30.5965774  62.1663925  10.2668039  30.8539642
  63.4134690  10.5582932  31.3432821  62.9123290  10.4790930  30.7450698
  51.5858715   4.0544897  27.1154906  51.4034288   4.0291783  26.2627199
  52.3208384   4.5243835  27.1543815  51.6672778   4.1206259  26.9952825
  57.9251774   6.3153687  24.1498848  58.5625721   6.0765434  24.6950642
  58.3506846   6.5190846  23.4152009  58.0827941   6.3104697  24.1216006
  52.6164417   8.5542023  28.0333152  52.6568562   8.8256874  27.2052932
  53.1758941   9.0783931  28.4490940  52.7047763   8.6717778  27.9725040
  60.3073246   6.7926109  25.8292635  60.3812255   6.6301281  26.6834485
  61.1242753   6.9816299  25.5853116  60.4389605   6.7962852  25.9190660
  54.0679003   7.1383972  22.8587078  53.2417121   7.3845709  22.7321357
  54.1290994   7.0596053  23.7249136  53.9553170   7.1628921  22.9676023
  58.8477832   9.7560852  20.5606108  59.1376130   9.3649834  19.8365335
  59.5781313   9.9377557  21.0011383  58.9984716   9.7254666  20.5188915
  56.7883748  11.7328235  23.6266258  56.5684043  11.4425590  24.4192925
  56.5678270  11.0743190  23.0984170  56.7231342  11.5927943  23.6655166
  58.9551703  13.1057625  22.4096950  59.6075761  12.5734067  22.6387976
  58.2577312  12.7526277  22.7964824  58.9482421  12.9747148  22.5009118
  55.9032968   5.4596802  21.8164324  56.6578936   5.8409842  22.0299787
  55.3103581   5.9107946  22.2711021  55.9269682   5.5825630  21.9147203
  57.2231195   6.6305364  27.1904440  56.7011948   6.7705656  27.8756305
  57.6105215   5.8716028  27.3806557  57.2034896   6.5390888  27.3205516
  63.4198200   8.3700823  21.1765009  63.1784876   7.6368684  20.7692074
  63.5999533   8.9187680  20.5231342  63.4105824   8.3423214  21.0195232
  57.7877680  10.3366144  30.2734295  57.9367244   9.7769060  29.6207700
  58.5677682  10.4158146  30.6566814  57.9251774  10.2651709  30.2331245
  60.3130981  10.5080787  31.5518786  60.2374652   9.8389597  32.1069574
  60.2420840  11.2098575  32.0659452  60.2911588  10.5125694  31.7095634
  60.9701228   9.0281786  22.3842392  61.7351119   8.7591429  22.0625056
  60.8679318   8.5431796  23.1012455  61.0682723   8.9171350  22.4422220
  59.7022615  13.9149106  30.0096787  60.1918545  13.2159896  29.8272452
  59.1306847  13.6172976  30.5972844  59.6907145  13.7675330  30.0697828
  60.1958961   7.6625880  19.1336693  60.2651781   6.8040419  19.2729694
  60.9747416   7.8797761  18.8055718  60.3211811   7.5678744  19.1053851
  64.5866449  10.0863581  23.3473187  64.1946240   9.7830297  22.6296053
  64.7419521  10.9232671  23.1578141  64.5520038  10.1647418  23.2129684
  65.9665119   8.2337274  30.8751775  66.7557497   7.8826339  30.9953857
  66.1408717   9.0473663  30.6128409  66.1085401   8.3023132  30.8539643
  57.5793446   6.7877120  31.8849259  57.4713800   6.7979182  32.7511317
  57.7889227   7.6131900  31.6954213  57.5943557   6.9118195  31.9853351
  55.5967238   4.0389762  29.3471197  55.0055171   4.6799261  29.3174212
  56.3588261   4.4627380  29.3202496  55.6215498   4.1965601  29.3386344
  65.3556754   9.4899074  26.7803221  65.1576442   9.9789889  26.0859433
  64.7344465   9.6940316  27.3587355  65.2344318   9.5915612  26.7626444
  52.8543100   5.7123860  30.4905113  52.3243024   5.0216299  30.5400088
  53.1268193   5.7034045  29.6617822  52.8167822   5.6090992  30.3752529
  48.1338942   2.3851624  27.8473461  48.0282391   2.3398468  26.9825545
  47.3839162   2.7305405  28.1287746  48.0074545   2.4292532  27.7610791
  61.5359260   6.4407010  31.4436913  61.0284351   6.9942856  31.8877544
  61.2385906   6.5015299  30.6255688  61.4164145   6.5313321  31.3885370
  64.1467040  10.3570267  19.3740857  63.4296350  10.1831130  18.9088094
  64.7973777  10.1222840  18.8416343  64.1368890  10.2966060  19.2270075
  60.7801745  11.3731568  28.3493920  60.5567399  10.6150397  28.7177946
  60.2911588  11.4029589  27.6274360  60.6745194  11.2653792  28.2970661
  59.4280202  11.5932026  25.8031005  59.0140600  10.9306156  25.4134846
  60.1127576  11.7409885  25.2826699  59.4678573  11.5172684  25.6687502
  62.7945496  10.7522111  26.5554621  62.3961779  10.8624382  25.7875442
  62.1796715  10.9604178  27.1381181  62.6444385  10.7995679  26.5285921
  56.3934671  12.0341108  28.2044351  56.7081230  12.8477496  28.2122132
  56.8028085  11.6491326  28.8726510  56.5002769  12.0969810  28.3048442
  63.3459191   7.4511154  25.7748163  63.8170369   8.1651417  25.9438148
  63.6819370   6.8509905  26.3108032  63.4654306   7.4682619  25.8780539
  65.4336176   9.0612468  37.9540235  65.5433141   8.2721028  38.3096982
  65.7627072   8.9718404  37.1514573  65.4988581   8.9318321  37.8882625
  53.7347692   5.9814216  27.8522959  54.3392549   5.9410050  27.2236780
  53.5275004   6.8285368  27.8827015  53.7936589   6.1002219  27.7639076
  63.5491464   8.2480161  29.0685197  64.3689837   8.1043127  29.3301492
  63.2685541   8.8726360  29.6101634  63.6288207   8.3190513  29.1873136
  48.9698974   4.9648834  27.7221882  48.8723252   4.1545105  28.0311939
  49.7527844   4.9440627  27.3368150  49.0715110   4.8415924  27.7108745
  73.2204799  14.9920664  26.7881003  72.3642694  15.1529162  26.8390120
  73.2672453  14.1212728  26.8086064  73.1003910  14.8871466  26.7987069
  67.6045939  24.5283382  22.5518235  66.8528838  24.1498920  22.3234280
  68.0531950  24.5601815  21.8037045  67.5595605  24.4768989  22.4075737
  76.5298515  21.2607190  36.3941459  77.2365283  20.7659220  36.5228394
  76.7186451  21.7016271  35.6644117  76.6626421  21.2525540  36.3050505
  73.0570898  24.9508751  17.9803782  72.7222267  25.6285673  17.5448004
  73.5697769  24.5614063  17.3920654  73.0836480  24.9933330  17.8290573
  72.5975190  26.9023020  23.9214894  72.9814569  27.4709919  23.3819669
  72.5334331  26.1772530  23.4420710  72.6448617  26.8798483  23.7708756
  76.0656620  17.0512708  29.4312655  76.6112580  17.7297794  29.4906625
  76.0073496  16.9100169  28.5714236  76.1372534  17.1304710  29.3124716
  69.1830695  24.5401774  24.8181007  69.2841058  23.7302128  25.1278135
  68.5872440  24.4458720  24.1880686  69.1103233  24.4066802  24.7707246
  77.8421689  18.4797315  20.3046383  77.7261214  19.2305001  20.7338521
  78.6377575  18.2221268  20.5542470  77.9426278  18.5532162  20.4050474
  69.0231434  29.4579363  26.2195863  69.6668890  29.8992527  26.6092022
  69.3487690  28.6532789  26.1326122  69.1663263  29.4044558  26.2641341
  62.3795739  20.5622061  24.4433341  62.1445923  19.7289713  24.3365610
  62.5181380  20.8426726  23.6294542  62.3651402  20.4805564  24.3075696
  64.6785827  12.7307791  27.3417649  64.0590858  12.1400438  27.1727663
  64.5769690  13.3219226  26.7081972  64.5723502  12.7311874  27.2222638
  69.7252014  22.4691338  21.5915725  70.0467855  23.0096545  20.9877033
  70.3724111  21.8988109  21.7238015  69.8678069  22.4650513  21.5222760
  71.7753722  14.4707333  21.6750112  72.4733887  14.6495460  22.1671575
  72.0906055  13.9477672  21.0520501  71.9249059  14.4201105  21.6552122
  64.4054960  16.2760073  29.5861218  64.2813656  16.8622518  30.2211037
  65.0573244  15.7820269  29.8873493  64.4828609  16.2898877  29.7247147
  71.9641658  20.8577778  21.6629903  72.4035293  20.2494878  22.1084676
  71.8146320  20.4785151  20.8915368  72.0063123  20.7116249  21.6149071
  69.4313301  19.4521790  28.8648729  70.0762303  18.9594233  28.5459677
  69.6715078  19.5946576  29.6914807  69.5623886  19.3999232  28.9398262
  71.9699392  22.2976696  28.5155621  72.2522635  21.5028101  28.2942377
  72.6985552  22.7757283  28.5360682  72.1188956  22.2511293  28.4858637
  69.9480586   9.8399730  25.7571386  69.6183916  10.2910873  25.0875085
  69.2725588   9.7615893  26.3044393  69.7991022   9.8950865  25.7394610
  75.5650994  19.2104959  18.6160673  75.4802289  20.0665926  18.7610241
  76.0535377  18.9349283  19.2842832  75.6239891  19.2962281  18.7362754
  76.4969427  15.8289753  20.1158408  75.9680899  16.0449387  20.7755714
  77.0194447  16.5225892  20.0359377  76.4957880  15.9632890  20.2014007
  68.3869035  19.7252970  18.9165876  67.8026250  20.2303002  19.3231740
  67.9839130  19.4995357  18.1762468  68.2408339  19.7661218  18.8670901
  63.9413064  25.4407731  25.7189547  63.4580642  26.1658221  25.6949131
  64.7536382  25.7383861  25.8299705  63.9903811  25.5910085  25.7316826
  70.0127218  24.2339912  28.3239362  69.4954159  23.8747327  27.7200670
  70.7101609  23.7102086  28.3345428  70.0392799  24.1037600  28.2369620
  73.6690810  24.6834726  34.2855535  73.7574156  24.4960866  35.1333745
  74.0980522  24.0372156  33.8860381  73.7452912  24.5597734  34.3527286
  71.2361270  23.9665886  33.2673197  70.6732104  23.5538496  33.7912858
  71.9982293  23.8918792  33.6866340  71.2655718  23.8943287  33.4066197
  66.7957261  25.9563907  25.8709827  67.4977840  25.4415896  25.9282584
  66.7154744  26.2838059  26.6756702  66.8881021  25.9278133  25.9982619
  67.8436168  16.1939494  34.9990242  68.0156671  16.0845389  35.8475524
  68.3805525  16.8393900  34.7621434  67.9481172  16.2731496  35.0895339
  66.5093604  10.3082337  17.9372447  66.3269178  10.5254218  17.1113440
  67.3719217  10.4221350  17.9931062  66.6098194  10.3572235  17.8226934
  66.1208036  22.1470259  25.3795435  66.9596936  22.3793192  25.4269197
  66.1519806  21.2774571  25.3102470  66.2489754  22.0527206  25.3760080
  66.7460739  22.5671134  29.6808741  67.2858964  22.4242265  30.3512113
  66.0630686  22.9667885  30.0492767  66.7252893  22.6050805  29.8343162
  76.1701624  18.2462135  24.8753765  76.9259139  18.6793649  24.9142674
  76.2763949  17.5966905  25.4488401  76.2971795  18.2139619  24.9651791
  73.7810869  24.1143745  36.9499318  74.5651286  24.2274593  37.3155060
  73.5807464  23.2884882  37.1458004  73.8676894  24.0090465  37.0333704
  62.1497884  18.7871425  29.8343162  61.8836300  17.9710542  29.9934152
  62.1636449  18.8324581  28.9638678  62.1122607  18.6728330  29.7296644
  66.0555631  13.5856510  16.4494920  65.3413809  13.2994689  16.8617353
  66.5399600  13.9253135  17.0901308  66.0214995  13.5938159  16.6050555
  66.8996491  12.3249803  32.4810170  66.2068288  11.8546783  32.7270901
  67.5156818  12.0988108  33.0551877  66.8881021  12.2216935  32.6019322
  73.9381262  26.0253847  30.5965774  73.1396508  25.7853347  30.8539642
  74.3867274  26.0768240  31.3432821  73.8855874  25.9976238  30.7450698
  73.2302949  22.0886464  16.8256728  73.6454098  21.7571487  16.1341224
  72.3994879  21.8555366  16.6976865  73.1690958  22.0057720  16.7047576
  62.5591298  19.5730205  27.1154906  62.3766871  19.5477091  26.2627199
  63.2940967  20.0429142  27.1543815  62.6405362  19.6391567  26.9952825
  65.6237050  16.2915207  33.6237015  66.3477022  16.2768238  34.1101910
  65.7253186  17.0010563  33.1258983  65.7455259  16.3939911  33.6215802
  72.9981999  19.7714292  38.4885962  72.2054980  20.0857804  38.6738582
  73.1130926  19.9865761  37.6506747  72.8977410  19.8498129  38.3924297
  75.6713318  16.4948283  22.7780978  75.7660173  17.2337577  23.2320603
  75.0472162  16.0665759  23.2115542  75.5922348  16.5409604  22.9089125
  73.9265792  19.6734496  33.4271259  74.5004654  19.0361740  33.5819823
  73.8480596  19.6738578  32.5580916  73.9999027  19.5799607  33.3217670
  62.5262208  16.4523705  27.2653973  63.1035711  16.3160156  27.9046218
  61.8276270  15.9959489  27.5199557  62.5083230  16.3645971  27.3976263
  69.2829511  18.1057761  25.4792456  69.0248755  17.2729496  25.4523756
  69.3377994  18.3315374  24.6384957  69.2529289  18.0155532  25.3512593
  68.2564223  15.6595523  25.9657351  67.6813814  15.8187692  26.6021312
  67.8799899  15.0230933  25.5025801  68.1167035  15.5893336  25.9911909
  71.9237511  14.1318873  30.8249729  71.5351944  13.7073090  30.1701921
  71.2592210  14.3801022  31.3326756  71.7684439  14.1057594  30.8037597
  58.0021042  15.3035598  23.9801792  58.0881294  14.9267467  24.7615322
  58.6296839  14.9296044  23.5021750  58.1077593  15.1921080  24.0247269
  73.0276450  18.3617477  19.0226536  73.8417089  18.6532370  18.9109308
  72.9635591  17.7077340  18.4484829  73.1379189  18.3082672  18.9215374
  68.8984358  21.8338995  24.1498848  69.5358305  21.5950742  24.6950642
  69.3239430  22.0376154  23.4152009  69.0560524  21.8290005  24.1216006
  63.5897000  24.0727331  28.0333152  63.6301146  24.3442182  27.2052932
  64.1491524  24.5969239  28.4490940  63.6780346  24.1903086  27.9725040
  69.5387173  17.0541285  18.4873738  69.9232326  16.8348991  19.2390283
  69.2898793  17.8804230  18.6174814  69.5589246  17.1439431  18.6174814
  69.7055713  10.3347700  38.2036322  69.3909154  11.1047262  37.9405885
  69.3845646   9.7717956  37.6188549  69.6114633  10.3657968  38.0777672
  71.2805830  22.3111417  25.8292635  71.3544838  22.1486589  26.6834485
  72.0975336  22.5001607  25.5853116  71.4122189  22.3148160  25.9190660
  65.0411587  22.6569280  22.8587078  64.2149704  22.9031017  22.7321357
  65.1023578  22.5781361  23.7249136  64.9285754  22.6814229  22.9676023
  67.2587610   8.7238221  23.8182518  66.3910036   8.7960821  23.8840128
  67.5462815   9.5260300  24.0070493  67.1727358   8.8532368  23.8557285
  69.8210416  25.2746160  20.5606108  70.1108714  24.8835142  19.8365335
  70.5513897  25.4562865  21.0011383  69.9717300  25.2439974  20.5188915
  70.4105161  20.0763906  31.6459239  69.9116855  20.7879674  31.7244127
  71.2205385  20.3964573  31.6077401  70.4561268  20.2290755  31.6515807
  67.7616331  27.2513543  23.6266258  67.5416627  26.9610898  24.4192925
  67.5410853  26.5928498  23.0984170  67.6963925  27.1113251  23.6655166
  66.6733278  19.3386859  25.8921959  66.3846527  18.7124331  26.4267687
  67.5416627  19.2807147  25.9586640  66.7593530  19.2374404  25.9812914
  77.4611176  14.4821643  26.2103941  77.1175942  13.7611978  26.5611191
  77.5604219  14.2735494  25.3682300  77.4253219  14.3445846  26.1375621
  69.9284287  28.6242933  22.4096950  70.5808345  28.0919375  22.6387976
  69.2309896  28.2711585  22.7964824  69.9215005  28.4932456  22.5009118
  66.8765552  20.9782110  21.8164324  67.6311520  21.3595149  22.0299787
  66.2836164  21.4293254  22.2711021  66.9002265  21.1010938  21.9147203
  77.9224205  20.9447347  21.7527929  78.4882238  21.6040557  21.6686472
  77.2752109  21.2897045  22.2244332  77.9102962  21.0929288  21.8100686
  68.1963778  22.1490672  27.1904440  67.6744532  22.2890963  27.8756305
  68.5837799  21.3901336  27.3806557  68.1767479  22.0576196  27.3205516
  65.1854962  12.1996480  21.2599395  64.8979758  11.8297751  20.5231342
  65.8725431  12.6691336  20.9983100  65.2443860  12.2143450  21.1114470
  74.3930783  23.8886131  21.1765009  74.1517459  23.1553992  20.7692074
  74.5732116  24.4372988  20.5231342  74.3838407  23.8608522  21.0195232
  69.6230104  19.1794691  22.5885931  69.4272887  19.7869425  21.9946234
  69.8464450  18.4862635  22.1077605  69.6264745  19.1672216  22.4302012
  68.0208634  16.0649429  22.7066799  68.7431286  16.2290587  22.2470605
  67.5416627  16.7859094  22.6006139  68.0572365  16.1947658  22.6232413
  75.9802142  12.4013227  28.0863484  75.1413242  12.4274506  27.8501747
  76.0506509  13.0483963  28.6668831  75.8670535  12.5009353  28.1372601
  65.6716251  18.4707501  31.8120939  66.1837348  18.7491754  31.1629699
  65.3852593  19.2096795  32.1783752  65.7051114  18.6209855  31.7710817
  62.7583157  12.9777693  22.1084676  62.8599294  13.7803854  22.4365651
  63.5539044  12.7765029  21.8107756  62.8911063  13.0663592  22.1120031
  69.1899976  10.5633890  31.8721981  68.9983173  10.5789024  32.7221404
  70.0398572  10.7597564  31.8488636  69.2875698  10.5948241  31.9945276
  63.5746889  13.0924871  29.8505797  63.4332381  12.2408812  29.9750305
  63.8587453  13.1353532  29.0268003  63.5954735  12.9724621  29.7473421
  73.7285482  14.9291961  23.9950285  73.4820196  14.8487712  24.8287074
  74.0570605  14.1445429  23.8012813  73.7406725  14.8018227  24.0897809
  77.6233530  21.6375321  27.7837067  77.4847890  22.3356367  28.2885809
  76.8433528  21.4823977  27.4273248  77.4876757  21.7175487  27.8063341
  75.9611615  17.9371696  34.0359448  75.9559654  17.0651513  34.0401875
  76.6672609  18.1359865  33.5628904  76.0656619  17.8375570  33.9666484
  69.6882509  17.6648680  33.4073269  69.8325885  18.2449888  32.7716379
  70.0358157  18.0424977  34.1123123  69.7609970  17.8069384  33.4172264
  71.8602426  16.8638848  31.1898400  71.1125740  17.0569863  30.7846678
  72.0143951  16.0384068  30.9522521  71.7724854  16.7703960  31.0943806
  68.7610264  25.8551452  30.2734295  68.9099828  25.2954368  29.6207700
  69.5410266  25.9343453  30.6566814  68.8984357  25.7837017  30.2331245
  71.2863564  26.0266095  31.5518786  71.2107236  25.3574905  32.1069574
  71.2153424  26.7283883  32.0659452  71.2644171  26.0311002  31.7095634
  72.1004203  10.7589399  32.0793804  72.5576817  11.4913373  32.2066596
  72.1760532  10.3355864  32.8381060  72.1795173  10.8046637  32.2094880
  64.3437194  11.0055219  33.1683248  63.8079384  10.3935577  33.4844015
  64.4054959  11.5803355  33.8216914  64.2732827  11.0002147  33.3118674
  71.9433811  24.5467094  22.3842392  72.7083702  24.2776737  22.0625056
  71.8411901  24.0617104  23.1012455  72.0415307  24.4356658  22.4422220
  69.9786581  12.7491503  28.9235628  69.1882656  12.5682963  29.2452964
  70.3747204  11.9718456  28.9065922  69.9203457  12.6078964  28.9688176
  75.3630267  20.3833933  26.6495074  74.6875269  20.1519165  27.1508461
  75.3722644  19.7755116  26.0237179  75.2648772  20.2592858  26.6311226
  72.4924411  15.2251762  33.4059127  72.4283553  16.0861719  33.2779264
  72.6321599  14.9083755  32.6054678  72.5039881  15.3051929  33.2687340
  77.3647002  23.2399066  18.8805252  77.4466839  24.0466052  18.5566703
  77.8496744  23.2595025  19.6046025  77.4484160  23.3619728  18.9392150
  71.1743505  17.9183901  27.5475330  70.7505754  18.1188400  26.8114348
  70.9988360  17.0712749  27.6599630  71.0854386  17.8232683  27.4549020
  70.6755199  29.4334414  30.0096787  71.1651129  28.7345204  29.8272452
  70.1039431  29.1358284  30.5972844  70.6639729  29.2860638  30.0697828
  66.4625950  18.4135953  22.9803302  66.6190569  18.3482756  23.8359294
  66.8026543  19.1884505  22.7681982  66.5359185  18.5185151  23.0757896
  73.0005095  17.7893836  21.8496665  73.5420640  17.2864218  22.3135286
  73.3151654  17.7359031  21.0386151  73.1269492  17.7073257  21.7980478
  76.8722202  21.9996484  38.9623578  77.6857068  21.7281633  39.1228710
  76.7117169  21.7004024  38.1583774  76.9692151  21.9151410  38.8668984
  71.1691545  23.1811188  19.1336693  71.2384365  22.3225726  19.2729694
  71.9480000  23.3983069  18.8055718  71.2944395  23.0864052  19.1053851
  74.1494364  12.6830141  31.9018966  74.3636334  12.0441055  31.3482320
  73.5328263  13.1275965  31.4726828  74.0899693  12.6540285  31.7569397
  75.5599032  25.6048889  23.3473187  75.1678824  25.3015604  22.6296053
  75.7152104  26.4417979  23.1578141  75.5252622  25.6832726  23.2129684
  63.0360212  15.5970903  23.2964069  63.4159177  16.0155448  22.6324337
  62.4615577  16.1784359  23.6032913  63.0071537  15.7448762  23.2440810
  76.3133452  14.2919206  32.8402273  75.5010134  13.9845097  32.9215446
  76.7723387  13.8118206  33.4044985  76.2613837  14.1755699  32.9356867
  75.7238707  22.1698878  23.2879217  75.3653362  22.3413521  24.0643250
  75.2377418  22.6312084  22.7307216  75.5997404  22.2637849  23.3204486
  70.5127072  17.8498044  15.8279452  70.8019597  18.6262926  16.1023026
  70.5998871  17.3386775  16.5293951  70.5681329  17.8889962  15.9721950
  73.4086960  15.6979278  37.6230975  73.8786591  16.3221394  38.0098849
  73.4548840  15.0296253  38.1824190  73.4854836  15.6913958  37.7631047
  76.8843446  23.0602774  34.2346418  77.5223167  22.5662970  33.9008874
  76.2417538  22.9880175  33.6498645  76.8837673  22.9761783  34.0988773
  78.6100446  14.9091920  28.8012334  78.1828054  14.8218269  28.0460433
  77.9726499  15.0169696  29.3867178  78.4530054  14.9124580  28.7757775
  76.9397703  23.7522582  30.8751775  77.7290081  23.4011647  30.9953857
  77.1141301  24.5658971  30.6128409  77.0817985  23.8208439  30.8539643
  66.6791013  17.1631308  27.9279564  65.8379020  17.0635182  28.1358458
  66.8881021  17.9326788  28.2793885  66.5855706  17.2623351  28.0106879
  64.1566580  14.7850845  25.7564315  63.7623278  14.8593857  24.9814424
  63.6006697  15.1708791  26.3072676  64.0169393  14.8532620  25.7231974
  70.4907678  15.0912707  27.1777161  70.1870816  14.5368696  27.7787569
  69.7887099  15.2704917  26.6905196  70.3423888  15.0357490  27.1946867
  69.5473775  12.4013227  21.7421863  69.8233510  11.6832140  21.3299431
  70.1472445  12.9998147  21.5342969  69.6767040  12.3833598  21.6502624
  68.5526029  22.3062428  31.8849259  68.4446384  22.3164490  32.7511317
  68.7621811  23.1317208  31.6954213  68.5676140  22.4303503  31.9853351
  66.5699821  19.5575070  29.3471197  65.9787754  20.1984569  29.3174212
  67.3320845  19.9812688  29.3202496  66.5948082  19.7150909  29.3386344
  66.9660444  10.7177068  30.0139214  67.4261926  10.7915998  30.7514338
  67.0116551  11.5158322  29.6639036  67.0410999  10.8471215  30.0711971
  68.6143794  11.3843763  34.5811241  68.2229359  10.7377110  35.0167019
  68.7829656  11.9755198  35.2005497  68.5814704  11.3758031  34.7373947
  76.3289337  25.0084382  26.7803221  76.1309026  25.4975196  26.0859433
  75.7077048  25.2125623  27.3587355  76.2076902  25.1100920  26.7626444
  70.3897316  16.7769279  21.1213465  71.1339361  17.1643555  21.3596415
  70.5358012  15.9326704  21.2853953  70.5207901  16.7099752  21.1807435
  73.3775192  12.3494752  27.0207385  72.9035146  11.8236514  27.5312696
  73.7493327  11.8024225  26.4522246  73.3625081  12.1910749  27.0122532
  63.7548222  14.3466259  32.3890931  64.6173835  14.2461968  32.3028260
  63.4240005  13.7660968  31.8276503  63.8333418  14.2457886  32.2936336
  67.1150008  13.1708708  29.0501349  66.4903078  13.1827100  28.4427301
  66.7795603  13.6468883  29.6992589  66.9735500  13.2427225  29.0557917
  67.2991756  11.5133826  15.1074034  66.9504561  12.1653552  15.5705583
  66.8188202  11.4990939  14.3797905  67.1762000  11.6076880  15.0685125
  63.8275683  21.2309168  30.4905113  63.2975608  20.5401607  30.5400088
  64.1000777  21.2219353  29.6617822  63.7900406  21.1276300  30.3752529
  74.8595774  21.8134870  19.2142796  75.5829973  22.2792983  19.0707369
  74.4196365  21.8808480  18.4640393  74.9011466  21.8918707  19.0827577
  74.0281929  18.6732413  30.4643485  73.4138922  18.1290463  30.7592120
  74.5449214  18.1596649  29.9849301  74.0137591  18.5168822  30.4367713
  73.2678226  19.7436683  28.1987783  72.8405834  19.1186401  27.7653219
  73.2603170  19.4611604  29.0246790  73.2037367  19.6089463  28.2567611
  66.3840753  14.7801856  31.2676217  66.5434240  14.0245180  31.6727939
  66.2033647  15.3292795  31.9216955  66.3806112  14.7495669  31.4238923
  71.5963936  10.6205437  28.4130317  71.6206423  10.0865549  27.7243097
  71.8475409  10.1122746  29.0755908  71.6373854  10.4666341  28.4094962
  59.1071525  17.9036932  27.8473461  59.0014975  17.8583776  26.9825545
  58.3571745  18.2490713  28.1287746  58.9807128  17.9477840  27.7610791
  67.8765258   9.3476255  27.7936062  67.9163630   9.8485462  28.5070769
  67.0514923   9.4386649  27.5241985  67.7604784   9.4358072  27.8586600
  70.0594871  18.9136995  35.8956356  69.2090501  19.0508710  36.0314001
  70.2222999  18.1800774  36.3404058  69.9578734  18.8251097  35.9811955
  69.2979621  15.8636765  30.0909961  68.4671551  16.0310583  29.8845209
  69.2431138  15.4872716  30.8758846  69.1669036  15.8326496  30.1758489
  67.1063405   9.3545658  35.7266371  67.7316108   8.8107791  35.9995804
  66.6513884   8.8740576  35.1574162  67.1311665   9.2035139  35.6827965
  67.6715665  14.1392357  20.6200078  67.8118626  14.6364821  21.3228720
  68.1698198  13.4378651  20.7614292  67.7656746  14.1094335  20.7451657
  67.7015888  15.0059468  17.9492655  68.3360967  15.6019893  17.8842117
  67.7841498  14.7062925  18.7638525  67.8072438  15.0500376  18.0595742
  69.2794870  10.9373443  17.9238097  69.6010711  10.4576526  17.2697359
  69.5421814  11.7473089  17.7328909  69.3660896  10.9863341  17.7993589
  72.5091843  21.9592317  31.4436913  72.0016934  22.5128164  31.8877544
  72.2118489  22.0200607  30.6255688  72.3896728  22.0498629  31.3885370
  64.2068875  17.2027308  21.2182201  64.7161105  17.7991816  21.5993507
  64.6803148  16.9353282  20.5358621  64.3512251  17.2513124  21.1736724
  75.1199623  25.8755575  19.3740857  74.4028933  25.7016437  18.9088094
  75.7706361  25.6408147  18.8416343  75.1101474  25.8151368  19.2270075
  77.7047595  14.7520164  23.1182162  77.0338785  15.2949866  22.9895227
  78.3987345  15.2215019  22.8763857  77.7076462  14.9018435  23.0637690
  71.7534328  26.8916876  28.3493920  71.5299983  26.1335705  28.7177946
  71.2644172  26.9214897  27.6274360  71.6477777  26.7839100  28.2970661
  66.5659407  13.8383567  24.0855382  65.8471396  14.2547700  24.3528245
  66.9371769  14.4037806  23.5347020  66.5151339  13.9832848  24.0438189
  75.8658988  14.4711416  29.9757377  75.8456915  14.2894711  30.8292156
  75.9138189  15.3423434  29.9516961  75.8693629  14.5727954  30.0980672
  73.8105318  21.0598608  35.9005854  73.7701173  20.4148285  35.3151010
  74.6228636  21.0035225  36.2131266  73.9248471  20.9557575  35.8602803
  70.4012785  27.1117334  25.8031005  69.9873184  26.4491464  25.4134846
  71.0860160  27.2595193  25.2826699  70.4411157  27.0357992  25.6687502
  73.7678079  26.2707419  26.5554621  73.3694363  26.3809689  25.7875442
  73.1529299  26.4789485  27.1381181  73.6176969  26.3180987  26.5285921
  72.3405981  12.8781567  19.4228761  71.7470821  13.1998563  18.8713328
  72.3781259  12.0322662  19.2149867  72.2580371  12.8005895  19.3111532
  75.2163798  12.8361071  22.8530511  74.9877491  12.8593773  22.0108869
  75.4761874  12.0118538  22.9725522  75.2209986  12.7177151  22.7455709
  69.4983027  14.6895544  32.4555611  68.9861930  14.0816727  32.8140643
  69.3262523  15.4052137  32.9229587  69.3972664  14.7058844  32.5771835
  64.3448741  13.1333120  35.1057973  64.1751331  13.7934495  34.5606180
  63.9014691  13.3439681  35.8270462  64.2548075  13.2619102  35.1319603
  68.2708561  11.3737618  24.1484707  68.7465927  11.7354698  23.5134888
  67.7697160  12.0294085  24.4284850  68.2673920  11.5231806  24.0961448
  73.3752097  12.6119789  34.8957867  73.9323527  12.3833599  34.2636332
  73.0513162  13.3725455  34.6193079  73.4098507  12.6903626  34.7614364
  61.2450806  16.0379985  30.3646463  60.6977525  15.3680631  30.4827331
  62.0343184  15.6709833  30.4289930  61.2802989  15.8844972  30.3915164
  71.0935214  15.6987442  35.8609874  71.8446541  16.0139119  36.1749428
  71.2857791  15.4966613  35.0343796  71.2326628  15.7154824  35.7853270
  70.3135214  13.5178818  17.5158091  70.6934179  13.5358447  16.7309206
  69.5727810  13.9632806  17.3948938  70.2604051  13.5860592  17.3821659
  60.0037775  15.2500793  27.5192486  59.8259536  14.7977402  28.2447402
  59.7156797  16.0526955  27.7030964  59.9350728  15.3023351  27.6535989
  75.6661356  16.5058511  26.7569876  76.1615022  15.7881506  26.7173897
  74.8561132  16.2029308  26.6424363  75.6205250  16.3556157  26.7343602
  71.1119968  20.3556324  18.9066881  70.3031291  20.0322997  18.8600190
  71.6194877  19.6489546  18.8395130  71.0669635  20.2037640  18.8897175
  61.7410245  17.7828517  24.6314245  60.8755765  17.7714207  24.5197016
  61.8409061  17.5958740  25.4785384  61.6284412  17.7534578  24.7403190
  77.7313175  19.2562198  29.4447005  78.1568247  18.7336620  28.8917430
  77.3670095  19.8543035  28.9235628  77.7399778  19.2672425  29.2856015
  67.3667255  27.5526416  28.2044351  67.6813814  28.3662804  28.2122132
  67.7760668  27.1676634  28.8726510  67.4735353  27.6155118  28.3048442
  74.3191775  22.9696462  25.7748163  74.7902953  23.6836725  25.9438148
  74.6551953  22.3695212  26.3108032  74.4386890  22.9867927  25.8780539
  76.4068759  24.5797776  37.9540235  76.5165725  23.7906336  38.3096982
  76.7359656  24.4903712  37.1514573  76.4721165  24.4503629  37.8882625
  74.9565721  22.7614396  32.5375855  74.4086667  22.1372280  32.2695921
  75.4178750  22.9508668  31.8219935  74.9432930  22.6973447  32.3926286
  70.3054384   9.7440346  20.1985722  71.1270079   9.9138659  19.9567417
  69.8424035   9.8987607  19.4752020  70.3585547   9.7922079  20.0557367
  64.7080275  21.4999524  27.8522959  65.3125132  21.4595358  27.2236780
  64.5007588  22.3470676  27.8827015  64.7669172  21.6187526  27.7639076
  74.5224047  23.7665469  29.0685197  75.3422421  23.6228435  29.3301492
  74.2418125  24.3911668  29.6101634  74.6020791  23.8375821  29.1873136
  59.9431557  20.4834142  27.7221882  59.8455835  19.6730413  28.0311939
  60.7260427  20.4625935  27.3368150  60.0447694  20.3601232  27.7108745
  73.3528323  36.0807368  24.4433341  73.1178507  35.2475021  24.3365610
  73.4913963  36.3612034  23.6294542  73.3383985  35.9990872  24.3075696
  75.6518410  28.2493099  27.3417649  75.0323442  27.6585746  27.1727663
  75.5502274  28.8404534  26.7081972  75.5456086  28.2497182  27.2222638
  75.3787543  31.7945381  29.5861218  75.2546240  32.3807826  30.2211037
  76.0305828  31.3005576  29.8873493  75.4561192  31.8084185  29.7247147
  74.9145647  40.9593039  25.7189547  74.4313226  41.6843529  25.6949131
  75.7268966  41.2569169  25.8299705  74.9636395  41.1095393  25.7316826
  77.7689845  41.4749215  25.8709827  78.4710424  40.9601204  25.9282584
  77.6887328  41.8023366  26.6756702  77.8613605  41.4463441  25.9982619
  77.4826188  25.8267645  17.9372447  77.3001761  26.0439526  17.1113440
  78.3451801  25.9406658  17.9931062  77.5830778  25.8757543  17.8226934
  77.0940620  37.6655567  25.3795435  77.9329519  37.8978500  25.4269197
  77.1252389  36.7959879  25.3102470  77.2222338  37.5712514  25.3760080
  77.7193323  38.0856442  29.6808741  78.2591548  37.9427573  30.3512113
  77.0363269  38.4853193  30.0492767  77.6985477  38.1236113  29.8343162
  73.1230468  34.3056733  29.8343162  72.8568883  33.4895850  29.9934152
  73.1369032  34.3509889  28.9638678  73.0855190  34.1913638  29.7296644
  77.0288215  29.1041818  16.4494920  76.3146392  28.8179997  16.8617353
  77.5132184  29.4438443  17.0901308  76.9947578  29.1123467  16.6050555
  77.8729074  27.8435111  32.4810170  77.1800871  27.3732091  32.7270901
  78.4889402  27.6173416  33.0551877  77.8613604  27.7402243  32.6019322
  73.5323882  35.0915513  27.1154906  73.3499455  35.0662399  26.2627199
  74.2673551  35.5614450  27.1543815  73.6137946  35.1576875  26.9952825
  76.5969633  31.8100515  33.6237015  77.3209606  31.7953546  34.1101910
  76.6985770  32.5195871  33.1258983  76.7187842  31.9125219  33.6215802
  73.4994792  31.9709013  27.2653973  74.0768295  31.8345464  27.9046218
  72.8008854  31.5144797  27.5199557  73.4815813  31.8831279  27.3976263
  68.9753625  30.8220906  23.9801792  69.0613877  30.4452774  24.7615322
  69.6029423  30.4481352  23.5021750  69.0810176  30.7106388  24.0247269
  74.5629584  39.5912639  28.0333152  74.6033729  39.8627490  27.2052932
  75.1224108  40.1154547  28.4490940  74.6512930  39.7088394  27.9725040
  76.0144170  38.1754588  22.8587078  75.1882288  38.4216325  22.7321357
  76.0756161  38.0966669  23.7249136  75.9018337  38.1999537  22.9676023
  78.2320194  24.2423529  23.8182518  77.3642619  24.3146129  23.8840128
  78.5195398  25.0445608  24.0070493  78.1459942  24.3717676  23.8557285
  78.7348915  42.7698851  23.6266258  78.5149210  42.4796205  24.4192925
  78.5143437  42.1113806  23.0984170  78.6696509  42.6298559  23.6655166
  77.6465862  34.8572167  25.8921959  77.3579111  34.2309639  26.4267687
  78.5149210  34.7992455  25.9586640  77.7326114  34.7559712  25.9812914
  77.8498135  36.4967418  21.8164324  78.6044103  36.8780457  22.0299787
  77.2568748  36.9478562  22.2711021  77.8734849  36.6196246  21.9147203
  76.1587546  27.7181788  21.2599395  75.8712342  27.3483059  20.5231342
  76.8458014  28.1876644  20.9983100  76.2176443  27.7328758  21.1114470
  76.6448834  33.9892809  31.8120939  77.1569931  34.2677062  31.1629699
  76.3585177  34.7282103  32.1783752  76.6783697  34.1395163  31.7710817
  73.7315741  28.4963001  22.1084676  73.8331877  29.2989162  22.4365651
  74.5271627  28.2950337  21.8107756  73.8643646  28.5848900  22.1120031
  74.5479473  28.6110179  29.8505797  74.4064965  27.7594120  29.9750305
  74.8320036  28.6538840  29.0268003  74.5687319  28.4909929  29.7473421
  75.3169778  26.5240527  33.1683248  74.7811967  25.9120885  33.4844015
  75.3787543  27.0988663  33.8216914  75.2465411  26.5187454  33.3118674
  77.4358534  33.9321261  22.9803302  77.5923153  33.8668064  23.8359294
  77.7759127  34.7069813  22.7681982  77.5091769  34.0370459  23.0757896
  74.0092795  31.1156211  23.2964069  74.3891760  31.5340756  22.6324337
  73.4348160  31.6969667  23.6032913  73.9804120  31.2634070  23.2440810
  77.6523597  32.6816616  27.9279564  76.8111603  32.5820490  28.1358458
  77.8613605  33.4512096  28.2793885  77.5588289  32.7808659  28.0106879
  75.1299164  30.3036153  25.7564315  74.7355862  30.3779165  24.9814424
  74.5739281  30.6894099  26.3072676  74.9901976  30.3717928  25.7231974
  77.5432405  35.0760378  29.3471197  76.9520338  35.7169877  29.3174212
  78.3053428  35.4997996  29.3202496  77.5680665  35.2336217  29.3386344
  77.9393028  26.2362376  30.0139214  78.3994509  26.3101306  30.7514338
  77.9849134  27.0343630  29.6639036  78.0143583  26.3656523  30.0711971
  74.7280805  29.8651567  32.3890931  75.5906418  29.7647276  32.3028260
  74.3972588  29.2846276  31.8276503  74.8066002  29.7643193  32.2936336
  78.0882591  28.6894016  29.0501349  77.4635661  28.7012408  28.4427301
  77.7528186  29.1654191  29.6992589  77.9468083  28.7612533  29.0557917
  78.2724340  27.0319134  15.1074034  77.9237144  27.6838859  15.5705583
  77.7920786  27.0176247  14.3797905  78.1494584  27.1262188  15.0685125
  74.8008267  36.7494476  30.4905113  74.2708191  36.0586915  30.5400088
  75.0733360  36.7404661  29.6617822  74.7632989  36.6461608  30.3752529
  77.3573337  30.2987164  31.2676217  77.5166823  29.5430488  31.6727939
  77.1766230  30.8478103  31.9216955  77.3538696  30.2680977  31.4238923
  70.0804109  33.4222240  27.8473461  69.9747558  33.3769084  26.9825545
  69.3304329  33.7676021  28.1287746  69.9539712  33.4663148  27.7610791
  78.0795988  24.8730966  35.7266371  78.7048692  24.3293099  35.9995804
  77.6246468  24.3925884  35.1574162  78.1044249  24.7220447  35.6827965
  75.1801459  32.7212616  21.2182201  75.6893688  33.3177124  21.5993507
  75.6535731  32.4538590  20.5358621  75.3244835  32.7698432  21.1736724
  77.5391991  29.3568875  24.0855382  76.8203980  29.7733008  24.3528245
  77.9104353  29.9223114  23.5347020  77.4883922  29.5018156  24.0438189
  75.3181325  28.6518428  35.1057973  75.1483915  29.3119803  34.5606180
  74.8747275  28.8624989  35.8270462  75.2280658  28.7804410  35.1319603
  72.2183389  31.5565293  30.3646463  71.6710109  30.8865939  30.4827331
  73.0075767  31.1895141  30.4289930  72.2535573  31.4030280  30.3915164
  70.9770359  30.7686101  27.5192486  70.7992120  30.3162710  28.2447402
  70.6889381  31.5712262  27.7030964  70.9083312  30.8208659  27.6535989
  72.7142829  33.3013825  24.6314245  71.8488348  33.2899515  24.5197016
  72.8141645  33.1144048  25.4785384  72.6016996  33.2719886  24.7403190
  78.3399839  43.0711723  28.2044351  78.6546398  43.8848112  28.2122132
  78.7493252  42.6861942  28.8726510  78.4467937  43.1340426  28.3048442
  75.6812859  37.0184832  27.8522959  76.2857716  36.9780666  27.2236780
  75.4740171  37.8655984  27.8827015  75.7401756  37.1372834  27.7639076
  70.9164141  36.0019449  27.7221882  70.8188419  35.1915721  28.0311939
  71.6993011  35.9811243  27.3368150  71.0180277  35.8786540  27.7108745
   4.5090090  22.7436043  60.9573293   4.4784095  23.5980680  61.1291562
   5.1071439  22.4431335  61.5159436   4.5927248  22.8252539  61.0648095
   2.3306665  25.3188345  59.2291603   2.2146191  26.0696031  59.6583741
   3.1262552  25.0612298  59.4787690   2.4311254  25.3923192  59.3295694
   0.9854404  22.6680783  59.0403628   0.4565875  22.8840417  59.7000934
   1.5079424  23.3616922  58.9604597   0.9842857  22.8023920  59.1259227
   6.4402457  28.2427088  64.4136672   5.6100160  28.4537731  64.5770089
   6.3911709  27.4164142  64.1378956   6.3109192  28.1516694  64.3974038
   3.6966772  28.9126442  64.5501388   3.2602004  28.9163185  65.3060359
   3.3629687  29.5931941  64.1180965   3.5829392  29.0138898  64.5982221
   6.8311118  25.6307362  63.4421025   7.4927552  25.0698031  63.3416934
   6.1902530  25.1359393  63.7673716   6.8339986  25.4743771  63.4753365
   3.1175949  26.6472745  63.1833014   3.3531538  26.7917943  62.3559865
   3.2665512  27.4115153  63.5764528   3.1741752  26.7811799  63.1196618
   4.9466406  25.4874410  61.0202618   5.2774623  26.0202051  60.4142713
   5.5199494  25.5413298  61.6764569   5.0800085  25.5743979  61.0280399
   2.4109182  27.7838377  60.6773149   2.9767214  28.4431587  60.5931692
   1.7637085  28.1288075  61.1489552   2.3987938  27.9320318  60.7345906
   3.6071880  27.8344604  57.4698786   3.2278688  27.0481742  57.4628075
   2.9438125  28.3831461  57.3270430   3.4530354  27.7989428  57.4479583
   1.8531978  30.0790095  57.8050472   1.9351816  30.8857082  57.4811923
   2.3381721  30.0986055  58.5291245   1.9369136  30.2010758  57.8637370
   5.9904899  27.6850416  58.8642932   6.3738504  28.4341772  59.0941029
   5.1949012  27.9316235  58.6054921   5.9298681  27.8320110  58.8600506
  15.4822674  38.2621351  60.9573293  15.4516678  39.1165988  61.1291562
  16.0804023  37.9616643  61.5159436  15.5659832  38.3437847  61.0648095
   8.6822359  37.3497002  65.7126223   7.8260254  37.5105500  65.7635340
   8.7290013  36.4789066  65.7331284   8.5621470  37.2447804  65.7232289
   3.0663499  46.8859720  61.4763455   2.3146398  46.5075258  61.2479500
   3.5149510  46.9178153  60.7282265   3.0213165  46.8345327  61.3320957
  11.9916075  43.6183527  75.3186679  12.6982843  43.1235558  75.4473614
  12.1804011  44.0592609  74.5889337  12.1243981  43.6101878  75.2295725
   8.5188458  47.3085089  56.9049002   8.1839827  47.9862011  56.4693224
   9.0315329  46.9190400  56.3165874   8.5454040  47.3509667  56.7535793
   8.0592750  49.2599358  62.8460114   8.4432129  49.8286257  62.3064889
   7.9951891  48.5348868  62.3665930   8.1066177  49.2374821  62.6953976
  11.5274180  39.4089046  68.3557875  12.0730140  40.0874132  68.4151845
  11.4691056  39.2676507  67.4959456  11.5990094  39.4881047  68.2369936
   4.6448255  46.8978112  63.7426227   4.7458618  46.0878466  64.0523355
   4.0490000  46.8035058  63.1125906   4.5720793  46.7643140  63.6952466
  13.3039249  40.8373653  59.2291603  13.1878774  41.5881339  59.6583741
  14.0995135  40.5797606  59.4787690  13.4043838  40.9108500  59.3295694
   4.4848994  51.8155701  65.1441083   5.1286450  52.2568865  65.5337242
   4.8105250  51.0109127  65.0571342   4.6280823  51.7620896  65.1886561
   5.1869574  44.8267676  60.5160945   5.5085415  45.3672883  59.9122253
   5.8341671  44.2564447  60.6483235   5.3295629  44.8226851  60.4467980
   7.2371282  36.8283671  60.5995332   7.9351447  37.0071798  61.0916795
   7.5523615  36.3054010  59.9765721   7.3866619  36.7777443  60.5797342
   7.4259218  43.2154116  60.5875123   7.8652853  42.6071216  61.0329896
   7.2763880  42.8361489  59.8160588   7.4680683  43.0692587  60.5394291
   4.8930861  41.8098128  67.7893949   5.5379863  41.3170571  67.4704897
   5.1332638  41.9522914  68.6160027   5.0241446  41.7575570  67.8643482
   7.4316952  44.6553034  67.4400841   7.7140195  43.8604439  67.2187597
   8.1603112  45.1333621  67.4605902   7.5806516  44.6087630  67.4103857
   5.4098146  32.1976067  64.6816606   5.0801476  32.6487211  64.0120305
   4.7343148  32.1192231  65.2289613   5.2608582  32.2527203  64.6639830
  11.0268554  41.5681297  57.5405893  10.9419849  42.4242264  57.6855461
  11.5152937  41.2925621  58.2088052  11.0857451  41.6538619  57.6607974
  12.6174554  28.1861590  62.9266217  12.3027995  28.8765069  63.3586639
  12.1001495  28.1306373  62.2251718  12.4939024  28.2796479  62.8863166
  11.9586987  38.1866091  59.0403628  11.4298459  38.4025725  59.7000934
  12.4812007  38.8802230  58.9604597  11.9575440  38.3209228  59.1259227
  17.4135040  43.7612396  64.4136672  16.5832743  43.9723039  64.5770089
  17.3644293  42.9349450  64.1378956  17.2841776  43.6702002  64.3974038
   3.8486595  42.0829308  57.8411096   3.2643810  42.5879339  58.2476960
   3.4456690  41.8571695  57.1007688   3.7025899  42.1237556  57.7916121
   5.4744778  46.5916250  67.2484582   4.9571719  46.2323665  66.6445890
   6.1719169  46.0678424  67.2590648   5.5010359  46.4613938  67.1614840
   9.1308370  47.0411064  73.2100755   9.2191716  46.8537204  74.0578965
   9.5598082  46.3948494  72.8105601   9.2070472  46.9174072  73.2772506
   8.3063810  38.3294960  56.3180016   8.5459813  38.5372944  55.5055359
   8.6279651  37.5252469  56.4268961   8.3900967  38.2409061  56.2140569
   3.6154100  30.2588356  60.1639554   4.3700068  30.6266673  59.9256604
   3.4381634  30.6327910  60.9318734   3.7008578  30.3686544  60.2424443
   2.2574821  48.3140245  64.7955047   2.9595400  47.7992234  64.8527804
   2.1772304  48.6414396  65.6001922   2.3498581  48.2854471  64.9227839
  16.9088999  36.4082796  68.2087094  16.0717420  36.4784983  68.4434688
  16.8777229  36.4107291  67.3361396  16.7807281  36.4193023  68.1146641
   1.9711164  32.6658675  56.8617667   1.7886738  32.8830556  56.0358660
   2.8336777  32.7797688  56.9176282   2.0715754  32.7148573  56.7472154
   1.5825596  44.5046597  64.3040655   2.4214496  44.7369530  64.3514417
   1.6137366  43.6350909  64.2347690   1.7107314  44.4103544  64.3005300
   2.2078299  44.9247472  68.6053961   2.7476524  44.7818603  69.2757333
   1.5248246  45.3244223  68.9737987   2.1870453  44.9627143  68.7588382
   7.6510884  29.6685086  59.8966691   8.3797044  29.4901041  59.4504847
   7.7405777  30.5103165  60.1073869   7.7717546  29.7668964  59.8620209
  11.6319184  40.6038473  63.7998985  12.3876699  41.0369987  63.8387894
  11.7381509  39.9543243  64.3733621  11.7589355  40.5715957  63.8897011
  14.6699355  44.4311750  64.5501388  14.2334587  44.4348493  65.3060359
  14.3362271  45.1117249  64.1180965  14.5561975  44.5324206  64.5982221
  14.5896838  31.4725578  66.7930816  15.2322747  31.5423683  67.3792731
  14.8419859  30.8054801  66.2910358  14.7218970  31.3851927  66.8058095
   1.5173191  35.9432848  55.3740140   0.8031369  35.6571027  55.7862573
   2.0017160  36.2829473  56.0146528   1.4832555  35.9514497  55.5295775
   9.3998822  48.3830185  69.5210994   8.6014068  48.1429685  69.7784862
   9.8484834  48.4344578  70.2678042   9.3473434  48.3552576  69.6695918
  17.8043702  41.1492670  63.4421025  18.4660136  40.5883339  63.3416934
  17.1635114  40.6544701  63.7673716  17.8072569  40.9929079  63.4753365
   8.6920509  44.4462801  55.7501948   9.1071658  44.1147825  55.0586444
   7.8612439  44.2131704  55.6222085   8.6308518  44.3634057  55.6292796
  14.0908532  42.1658052  63.1833014  14.3264122  42.3103251  62.3559865
  14.2398096  42.9300460  63.5764528  14.1474336  42.2997107  63.1196618
  15.9198989  41.0059718  61.0202618  16.2507206  41.5387359  60.4142713
  16.4932077  41.0598606  61.6764569  16.0532668  41.0929287  61.0280399
  11.1330878  38.8524621  61.7026198  11.2277733  39.5913915  62.1565823
  10.5089722  38.4242097  62.1360762  11.0539908  38.8985942  61.8334345
   9.3883352  42.0310834  72.3516479   9.9622214  41.3938078  72.5065043
   9.3098156  42.0314916  71.4826136   9.4616587  41.9375945  72.2462890
  11.3853900  40.6973361  54.9363150  11.3034062  40.7675548  55.8018137
  12.0233620  41.2603105  54.7446891  11.4673737  40.7912332  55.0353099
   4.7447071  40.4634099  64.4037676   4.4866315  39.6305834  64.3768976
   4.7995554  40.6891712  63.5630177   4.7146849  40.3731870  64.2757813
   9.8248121  32.5662550  64.5041769   9.1204448  32.0771735  64.6625688
   9.8733095  32.5785024  63.6330213   9.7278172  32.4952198  64.3981109
   3.7181783  38.0171861  64.8902571   3.1431374  38.1764030  65.5266532
   3.3417459  37.3807270  64.4271022   3.5784595  37.9469674  64.9157129
   7.3855071  36.4895211  69.7494949   6.9969504  36.0649428  69.0947141
   6.7209770  36.7377360  70.2571976   7.2301999  36.4633932  69.7282817
  17.0278341  36.2470215  62.5242779  16.7714905  35.4350157  62.3340662
  17.8707655  36.2547782  62.2972967  17.1144366  36.1282213  62.4627597
  11.2081433  30.1869839  67.2618934  11.5891945  29.5048010  67.6486808
  10.4044717  29.8979441  67.0794598  11.1457895  30.0436888  67.2922990
   8.4894010  40.7193815  57.9471756   9.3034649  41.0108708  57.8354528
   8.4253151  40.0653678  57.3730049   8.5996749  40.6659010  57.8460594
  14.7103500  43.4019811  72.3601332  14.4742137  42.5707876  72.2413393
  15.3546729  43.3505419  72.9456176  14.7698171  43.2717499  72.4287226
   4.3601918  44.1915333  63.0744068   4.9975865  43.9527080  63.6195862
   4.7856990  44.3952492  62.3397229   4.5178084  44.1866343  63.0461226
   5.0004733  39.4117622  57.4118958   5.3849886  39.1925329  58.1635503
   4.7516353  40.2380568  57.5420034   5.0206806  39.5015769  57.5420034
  15.7339921  43.1864260  68.4229627  15.4285738  43.9192317  68.7842942
  15.0146136  42.7802190  68.1422413  15.5827263  43.2345993  68.4342764
   6.7423390  44.6687755  64.7537855   6.8162398  44.5062927  65.6079705
   7.5592896  44.8577945  64.5098336   6.8739749  44.6724498  64.8435880
  21.4341713  39.8257261  67.7497971  21.3666213  39.8453220  66.8800557
  21.4197375  40.6687588  67.9753641  21.4220469  39.9530995  67.6550448
   2.7205170  31.0814559  62.7427738   1.8527596  31.1537159  62.8085348
   3.0080375  31.8836638  62.9315713   2.6344918  31.2108706  62.7802505
  11.8438059  31.2292418  71.0739060  12.5891651  31.0402229  70.6602486
  11.4275364  31.7550656  70.5152917  11.8923033  31.2794564  70.9303633
   5.2827976  47.6322498  59.4851328   5.5726274  47.2411480  58.7610555
   6.0131457  47.8139203  59.9256603   5.4334860  47.6016312  59.4434135
  19.2200330  38.6001647  66.0244565  19.7708252  37.9669716  66.2641657
  19.2044445  39.1317040  66.7160069  19.2985526  38.5850595  66.1623423
   5.8722721  42.4340244  70.5704459   5.3734415  43.1456012  70.6489347
   6.6822945  42.7540911  70.5322621   5.9178828  42.5867093  70.5761027
   3.2233891  49.6089881  62.5511478   3.0034187  49.3187235  63.3438145
   3.0028413  48.9504836  62.0229390   3.1581485  49.4689589  62.5900387
   2.1350838  41.6963197  64.8167179   1.8464087  41.0700668  65.3512907
   3.0034187  41.6383485  64.8831860   2.2211090  41.5950741  64.9058134
  12.9228736  36.8397981  65.1349161  12.5793502  36.1188316  65.4856411
  13.0221779  36.6311832  64.2927520  12.8870779  36.7022184  65.0620841
   5.3901847  50.9819271  61.3342170   6.0425905  50.4495713  61.5633196
   4.6927456  50.6287923  61.7210044   5.3832565  50.8508794  61.4254338
   2.3383112  43.3358448  60.7409545   3.0929080  43.7171487  60.9545007
   1.7453724  43.7869592  61.1956241   2.3619825  43.4587276  60.8392423
  13.3841765  43.3023685  60.6773149  13.9499798  43.9616895  60.5931692
  12.7369669  43.6473383  61.1489552  13.3720522  43.4505626  60.7345906
   3.6581338  44.5067010  66.1149660   3.1362092  44.6467301  66.8001525
   4.0455359  43.7477674  66.3051777   3.6385039  44.4152533  66.2450736
   9.8548343  46.2462469  60.1010229   9.6135019  45.5130330  59.6937294
  10.0349676  46.7949326  59.4476562   9.8455967  46.2184860  59.9440452
   5.0847664  41.5371029  61.5131151   4.8890447  42.1445763  60.9191454
   5.3082010  40.8438973  61.0322825   5.0882305  41.5248554  61.3547232
   3.4826194  38.4225767  61.6312019   4.2048846  38.5866925  61.1715825
   3.0034187  39.1435431  61.5251359   3.5189925  38.5523996  61.5477633
  11.4419702  34.7589565  67.0108704  10.6030802  34.7850844  66.7746968
  11.5124069  35.4060301  67.5914051  11.3288095  34.8585691  67.0617821
   9.8888980  31.6574942  61.7436320  10.5915333  31.4582691  61.2656278
   9.6233169  30.8850885  62.0505164   9.9535612  31.5137908  61.7181762
  15.3177225  39.9657552  64.2969946  15.2311200  40.1212978  65.1504725
  14.8627705  40.6095628  63.9229351  15.2380482  40.0833307  64.3677053
   9.1903042  37.2868299  62.9195505   8.9437756  37.2064050  63.7532294
   9.5188165  36.5021767  62.7258033   9.2024285  37.1594565  63.0143029
  13.0851090  43.9951659  66.7082287  12.9465450  44.6932704  67.2131029
  12.3051088  43.8400315  66.3518469  12.9494317  44.0751825  66.7308561
  11.4229175  40.2948034  72.9604668  11.4177214  39.4227850  72.9647095
  12.1290169  40.4936203  72.4874124  11.5274179  40.1951908  72.8911704
   5.1500069  40.0225018  72.3318489   5.2943445  40.6026226  71.6961599
   5.4975717  40.4001315  73.0368343   5.2227530  40.1645722  72.3417484
   7.3219986  39.2215186  70.1143620   6.5743300  39.4146201  69.7091898
   7.4761511  38.3960406  69.8767741   7.2342414  39.1280298  70.0189026
   4.2227824  48.2127790  69.1979515   4.3717388  47.6530706  68.5452920
   5.0027826  48.2919791  69.5812034   4.3601917  48.1413355  69.1576465
  14.5804463  43.3529912  57.4698786  14.2011272  42.5667050  57.4628075
  13.9170709  43.9016769  57.3270430  14.4262938  43.3174736  57.4479583
   6.7481124  48.3842433  70.4764006   6.6724796  47.7151243  71.0314794
   6.6770984  49.0860221  70.9904672   6.7261731  48.3887340  70.6340854
  12.0349089  26.2955612  64.8732867  12.1532657  26.7532075  64.1400170
  11.8611265  25.4900873  64.5869084  12.0268260  26.2449384  64.7233800
   7.4051371  46.9043431  61.3087612   8.1701262  46.6353075  60.9870276
   7.3029461  46.4193442  62.0257675   7.5032867  46.7932996  61.3667440
   5.4404141  35.1067841  67.8480848   4.6500216  34.9259301  68.1698184
   5.8364764  34.3294793  67.8311142   5.3821017  34.9655302  67.8933396
   9.9270032  43.9355615  53.2887562  10.6943017  43.9955740  52.8793413
   9.4801341  43.3636057  52.8043880   9.9743459  43.8592191  53.1565272
  10.8247827  42.7410271  65.5740294  10.1492829  42.5095503  66.0753681
  10.8340204  42.1331454  64.9482399  10.7266332  42.6169196  65.5556446
   7.9541971  37.5828100  72.3304347   7.8901113  38.4438056  72.2024484
   8.0939159  37.2660093  71.5299898   7.9657441  37.6628267  72.1932560
   6.6361065  40.2760239  66.4720550   6.2123314  40.4764738  65.7359568
   6.4605920  39.4289087  66.5844850   6.5471946  40.1809021  66.3794240
   1.9243510  40.7712291  61.9048522   2.0808129  40.7059094  62.7604514
   2.2644103  41.5460843  61.6927202   1.9976745  40.8761489  62.0003116
   8.4622655  40.1470174  60.7741885   9.0038200  39.6440555  61.2380506
   8.7769214  40.0935369  59.9631371   8.5887052  40.0649595  60.7225698
  12.3339762  44.3572822  77.8868798  13.1474628  44.0857971  78.0473930
  12.1734729  44.0580362  77.0828994  12.4309711  44.2727748  77.7914204
   6.6309105  45.5387526  58.0581913   6.7001925  44.6802064  58.1974914
   7.4097560  45.7559407  57.7300938   6.7561955  45.4440390  58.0299071
   9.6111924  35.0406479  70.8264186   9.8253894  34.4017393  70.2727540
   8.9945823  35.4852303  70.3972048   9.5517253  35.0116623  70.6814617
  11.0216592  47.9625227  62.2718407  10.6296384  47.6591942  61.5541273
  11.1769664  48.7994317  62.0823361  10.9870182  48.0409064  62.1374904
  11.7751012  36.6495544  71.7647493  10.9627694  36.3421434  71.8460666
  12.2340947  36.1694544  72.3290205  11.7231397  36.5332036  71.8602087
  11.1856267  44.5275216  62.2124437  10.8270922  44.6989859  62.9888470
  10.6994978  44.9888422  61.6552436  11.0614964  44.6214187  62.2449706
   9.0026653  28.1506415  65.8151529   8.1320211  28.1245136  65.7684838
   9.2566994  27.9783607  64.9977374   8.9120213  28.1216558  65.6871666
   5.9744632  40.2074381  54.7524672   6.2637157  40.9839264  55.0268246
   6.0616431  39.6963113  55.4539171   6.0298889  40.2466300  54.8967170
   6.0275793  30.1612643  67.2724999   5.5114282  29.4692834  67.3976578
   5.4669722  30.8283420  67.2187598   5.8682307  30.1575901  67.2831065
  12.3461006  45.4179112  73.1591638  12.9840727  44.9239308  72.8254094
  11.7035098  45.3456512  72.5743865  12.3455233  45.3338120  73.0233993
  14.0718006  37.2668258  67.7257554  13.6445614  37.1794607  66.9705653
  13.4344059  37.3746033  68.3112398  13.9147614  37.2700918  67.7002995
  12.4015263  46.1098920  69.7996995  13.1907641  45.7587985  69.9199077
  12.5758861  46.9235309  69.5373629  12.5435545  46.1784777  69.7784863
   2.1408573  39.5207646  66.8524784   1.2996580  39.4211520  67.0603678
   2.3498581  40.2903126  67.2039105   2.0473266  39.6199689  66.9352099
  11.2549087  30.1208477  64.3613413  11.4598680  30.0530785  65.2070411
  10.9275511  30.9267298  64.2934591  11.2364335  30.2294417  64.4773069
   5.9525238  37.4489045  66.1022381   5.6488376  36.8945033  66.7032789
   5.2504659  37.6281255  65.6150416   5.8041448  37.3933828  66.1192087
   5.0091335  34.7589565  60.6667083   5.2851070  34.0408478  60.2544651
   5.6090005  35.3574485  60.4588189   5.1384600  34.7409936  60.5747844
  14.5082775  30.6740241  63.8416179  13.8957088  31.1610643  64.2269911
  14.6046950  29.9983732  64.3853830  14.4320672  30.6458550  63.9795037
   8.5101856  32.4303082  58.9413678   8.9645602  32.6013643  59.6661523
   8.9841901  31.8171193  58.5411454   8.6470176  32.3653968  58.9887440
   2.0317381  41.9151408  68.2716417   1.4405314  42.5560906  68.2419432
   2.7938405  42.3389026  68.2447716   2.0565642  42.0727247  68.2631564
  18.1507803  41.7457178  69.2693695  18.2090926  42.1943827  70.0153672
  17.5174270  42.1555991  68.8323775  18.0659098  41.8730913  69.3146243
  11.7906897  47.3660720  65.7048441  11.5926586  47.8551534  65.0104653
  11.1694608  47.5701961  66.2832575  11.6694462  47.4677258  65.6871664
   5.8514876  39.1345617  60.0458685   6.5956921  39.5219893  60.2841635
   5.9975572  38.2903042  60.2099173   5.9825461  39.0676089  60.1052655
   7.7694451  30.9295876  65.0790547   6.9230496  31.1018683  64.9531897
   7.7665584  30.1245219  65.4156375   7.6441601  30.8356905  65.1101674
   8.8392752  34.7071090  65.9452605   8.3652706  34.1812852  66.4557916
   9.2110887  34.1600563  65.3767466   8.8242641  34.5487087  65.9367752
  15.1029482  39.7673466  67.3559385  14.8627705  38.9279881  67.3601812
  15.5821489  39.8473632  68.0800159  15.1381666  39.6554865  67.4634188
  10.7676251  35.6007645  59.0078359  10.2399270  35.6836389  58.3184067
  11.2271959  36.3425516  59.0043003  10.7578102  35.7228307  58.9053054
  17.1034669  36.5474923  65.3088644  16.8644439  36.5070757  64.4709429
  17.2668570  37.3946075  65.4354366  17.0924973  36.6667008  65.2042126
  13.7080699  40.9324872  71.2393690  14.4314898  40.4797399  71.0604709
  13.4430662  41.2129538  70.4566017  13.7761973  40.9075841  71.0972405
   2.5767568  35.5285046  67.9746569   1.9520638  35.5403438  67.3672521
   2.2413163  36.0045221  68.6237809   2.4353060  35.6003563  67.9803137
   2.7609316  33.8710164  54.0319254   2.4122121  34.5229889  54.4950803
   2.2805762  33.8567277  53.3043125   2.6379560  33.9653218  53.9930345
  10.3213334  44.1711208  58.1388016  11.0447533  44.6369321  57.9952589
   9.8813925  44.2384818  57.3885613  10.3629026  44.2495045  58.0072797
   9.4899489  41.0308750  69.3888705   8.8756482  40.4866801  69.6837340
  10.0066774  40.5172987  68.9094521   9.4755151  40.8745159  69.3612933
   8.7295786  42.1013020  67.1233003   8.3023394  41.4762739  66.6898439
   8.7220730  41.8187942  67.9492010   8.6654927  41.9665801  67.1812831
   7.0581496  32.9781775  67.3375537   7.0823983  32.4441887  66.6488317
   7.3092969  32.4699084  68.0001128   7.0991414  32.8242679  67.3340182
   3.3382818  31.7052593  66.7181282   3.3781190  32.2061800  67.4315989
   2.5132483  31.7962987  66.4487205   3.2222344  31.7934410  66.7831820
   4.7597181  38.2213103  69.0155181   3.9289111  38.3886921  68.8090429
   4.7048698  37.8449054  69.8004066   4.6286596  38.1902834  69.1003709
   3.1333225  36.4968695  59.5445298   3.2736186  36.9941159  60.2473940
   3.6315758  35.7954989  59.6859512   3.2274306  36.4670673  59.6696877
   3.1633448  37.3635806  56.8737875   3.7978527  37.9596231  56.8087337
   3.2459058  37.0639263  57.6883745   3.2689998  37.4076714  56.9840962
  16.1416013  39.8951283  69.7424239  16.7333854  40.5348534  69.7742437
  16.5775008  39.1974320  70.0316306  16.2934445  39.8869633  69.7905072
   4.7412430  33.2949781  56.8483317   5.0628271  32.8152864  56.1942579
   5.0039374  34.1049427  56.6574129   4.8278456  33.3439679  56.7238809
   7.9709403  44.3168655  70.3682133   7.4634494  44.8704502  70.8122764
   7.6736049  44.3776945  69.5500908   7.8514288  44.4074967  70.3130590
  10.1371585  32.6821975  69.2106796  10.5626657  32.2294501  68.5990323
   9.5228578  32.1282046  69.4871584  10.1100231  32.5335951  69.1611821
  10.5817183  48.2331913  58.2986077   9.8646493  48.0592775  57.8333314
  11.2323921  47.9984485  57.7661563  10.5719034  48.1727706  58.1515295
   8.5765808  29.1537075  62.6197373   7.9334126  29.0034721  63.1882512
   8.2365215  28.9079420  61.8546478   8.4310886  29.0949197  62.5900388
  13.1665155  37.1096502  62.0427382  12.4956345  37.6526204  61.9140447
  13.8604905  37.5791357  61.8009077  13.1694022  37.2594773  61.9882910
   7.2151888  49.2493214  67.2739140   6.9917543  48.4912043  67.6423166
   6.7261732  49.2791235  66.5519580   7.1095337  49.1415438  67.2215881
  13.3293282  33.5652385  64.9517755  13.6820892  33.1382108  65.6263554
  12.4708084  33.4803229  65.0818831  13.2542727  33.4897126  65.0712765
   2.0276967  36.1959905  63.0100602   1.3088956  36.6124038  63.2773465
   2.3989329  36.7614144  62.4592240   1.9768899  36.3409186  62.9683409
  11.3276548  36.8287754  68.9002597  11.3074475  36.6471049  69.7537376
  11.3755749  37.6999772  68.8762181  11.3311189  36.9304292  69.0225892
   9.2722878  43.4174946  74.8251074   9.2318733  42.7724623  74.2396230
  10.0846196  43.3611563  75.1376486   9.3866031  43.3133913  74.7848023
   5.8630345  49.4693672  64.7276225   5.4490744  48.8067802  64.3380066
   6.5477720  49.6171531  64.2071919   5.9028717  49.3934330  64.5932722
   9.2295639  48.6283757  65.4799841   8.8311923  48.7386027  64.7120662
   8.6146859  48.8365823  66.0626401   9.0794529  48.6757325  65.4531141
   7.8023542  35.2357905  58.3473981   7.2088381  35.5574901  57.7958548
   7.8398819  34.3899000  58.1395087   7.7197931  35.1582233  58.2356752
  14.7617342  28.6870797  65.8802068  14.2548207  27.9799937  65.8123245
  15.5584776  28.3563986  66.0103144  14.8044581  28.5343948  65.8901062
  10.6781358  35.1937409  61.7775731  10.4495051  35.2170111  60.9354089
  10.9379434  34.3694876  61.8970742  10.6827546  35.0753489  61.6700929
   3.7326121  33.7313956  63.0729927   4.2083487  34.0931035  62.4380108
   3.2314720  34.3870423  63.3530070   3.7291480  33.8808144  63.0206668
  16.9637482  43.2035724  58.8642932  17.3471088  43.9527080  59.0941029
  16.1681595  43.4501543  58.6054921  16.9031264  43.3505418  58.8600506
   5.7752774  35.8755155  56.4403311   6.1551739  35.8934785  55.6554426
   5.0345370  36.3209144  56.3194158   5.7221611  35.9436930  56.3066879
  13.4038064  34.1837347  62.0278890  13.4032291  34.0286003  62.8863166
  13.1994244  35.0300334  61.9720275  13.3737842  34.2857967  62.1466829
  11.1278916  38.8634848  65.6815096  11.6232582  38.1457843  65.6419117
  10.3178692  38.5605646  65.5669583  11.0822810  38.7132495  65.6588822
   6.5737528  42.7132662  57.8312101   5.7648851  42.3899335  57.7845410
   7.0812437  42.0065884  57.7640350   6.5287195  42.5613978  57.8142395
  13.1930735  41.6138536  68.3692225  13.6185807  41.0912958  67.8162650
  12.8287655  42.2119373  67.8480848  13.2017338  41.6248763  68.2101235
   2.8284815  49.9102753  67.1289571   3.1431374  50.7239142  67.1367352
   3.2378228  49.5252972  67.7971730   2.9352913  49.9731456  67.2293662
   9.7809335  45.3272800  64.6993383  10.2520513  46.0413063  64.8683368
  10.1169513  44.7271550  65.2353252   9.9004450  45.3444264  64.8025759
  10.4183281  45.1190734  71.4621075   9.8704227  44.4948618  71.1941141
  10.8796310  45.3085006  70.7465155  10.4050490  45.0549785  71.3171506
  13.2277145  33.1876089  68.8472268  12.6440134  33.6885295  68.4349835
  13.5481439  32.6805645  68.2136591  13.1890321  33.1867924  68.6930775
   5.7671944  32.1016684  59.1230942   6.5887639  32.2714997  58.8812637
   5.3041595  32.2563945  58.3997240   5.8203107  32.1498417  58.9802587
   9.9841607  46.1241807  67.9930417  10.8039981  45.9804773  68.2546712
   9.7035685  46.7488006  68.5346854  10.0638351  46.1952159  68.1118356
  26.4555258  53.7806659  60.9573293  26.4249262  54.6351295  61.1291562
  27.0536606  53.4801951  61.5159436  26.5392416  53.8623155  61.0648095
  19.6554942  52.8682310  65.7126223  18.7992838  53.0290808  65.7635340
  19.7022596  51.9974374  65.7331284  19.5354054  52.7633112  65.7232289
  14.0396082  62.4045028  61.4763455  13.2878982  62.0260566  61.2479500
  14.4882094  62.4363461  60.7282265  13.9945749  62.3530635  61.3320957
  22.9648659  59.1368835  75.3186679  23.6715426  58.6420866  75.4473614
  23.1536594  59.5777917  74.5889337  23.0976565  59.1287186  75.2295725
  19.4921042  62.8270397  56.9049002  19.1572411  63.5047319  56.4693224
  20.0047913  62.4375708  56.3165874  19.5186623  62.8694975  56.7535793
  19.0325333  64.7784666  62.8460114  19.4164713  65.3471564  62.3064889
  18.9684475  64.0534176  62.3665930  19.0798761  64.7560129  62.6953976
  22.5006763  54.9274354  68.3557875  23.0462724  55.6059440  68.4151845
  22.4423640  54.7861815  67.4959456  22.5722678  55.0066355  68.2369936
  15.6180838  62.4163420  63.7426227  15.7191201  61.6063774  64.0523355
  15.0222584  62.3220366  63.1125906  15.5453377  62.2828448  63.6952466
  24.2771832  56.3558961  59.2291603  24.1611358  57.1066647  59.6583741
  25.0727719  56.0982914  59.4787690  24.3776422  56.4293808  59.3295694
  15.4581578  67.3341009  65.1441083  16.1019033  67.7754173  65.5337242
  15.7837833  66.5294435  65.0571342  15.6013407  67.2806204  65.1886561
   8.8145883  58.4383706  63.3678561   8.5796067  57.6051359  63.2610830
   8.9531523  58.7188372  62.5539762   8.8001545  58.3567210  63.2320916
  11.1135970  50.6069437  66.2662869  10.4941002  50.0162084  66.0972884
  11.0119834  51.1980872  65.6327192  11.0073646  50.6073519  66.1467858
  16.1602158  60.3452984  60.5160945  16.4817999  60.8858191  59.9122253
  16.8074254  59.7749755  60.6483235  16.3028213  60.3412159  60.4467980
  18.2103866  52.3468979  60.5995332  18.9084030  52.5257106  61.0916795
  18.5256198  51.8239318  59.9765721  18.3599203  52.2962751  60.5797342
  10.8405103  54.1521719  68.5106438  10.7163800  54.7384164  69.1456257
  11.4923388  53.6581914  68.8118713  10.9178752  54.1660523  68.6492367
  18.3991801  58.7339424  60.5875123  18.8385437  58.1256524  61.0329896
  18.2496464  58.3546797  59.8160588  18.4413267  58.5877895  60.5394291
  15.8663444  57.3283436  67.7893949  16.5112447  56.8355879  67.4704897
  16.1065221  57.4708222  68.6160027  15.9974029  57.2760878  67.8643482
  18.4049535  60.1738341  67.4400841  18.6872778  59.3789747  67.2187597
  19.1335696  60.6518929  67.4605902  18.5539099  60.1272938  67.4103857
  16.3830729  47.7161375  64.6816606  16.0534059  48.1672519  64.0120305
  15.7075731  47.6377539  65.2289613  16.2341166  47.7712511  64.6639830
  22.0001138  57.0866605  57.5405893  21.9152433  57.9427572  57.6855461
  22.4885521  56.8110929  58.2088052  22.0590035  57.1723926  57.6607974
  23.5907137  43.7046898  62.9266217  23.2760578  44.3950377  63.3586639
  23.0734079  43.6491681  62.2251718  23.4671608  43.7981787  62.8863166
  22.9319571  53.7051399  59.0403628  22.4031042  53.9211033  59.7000934
  23.4544591  54.3987538  58.9604597  22.9308024  53.8394536  59.1259227
  28.3867624  59.2797704  64.4136672  27.5565327  59.4908347  64.5770089
  28.3376876  58.4534758  64.1378956  28.2574359  59.1887310  64.3974038
  14.8219179  57.6014616  57.8411096  14.2376394  58.1064647  58.2476960
  14.4189274  57.3757003  57.1007688  14.6758483  57.6422864  57.7916121
  10.3763207  63.3169377  64.6434767   9.8930786  64.0419867  64.6194351
  11.1886526  63.6145507  64.7544925  10.4253955  63.4671731  64.6562046
  16.4477361  62.1101558  67.2484582  15.9304303  61.7508973  66.6445890
  17.1451753  61.5863732  67.2590648  16.4742943  61.9799246  67.1614840
  20.1040953  62.5596372  73.2100755  20.1924299  62.3722512  74.0578965
  20.5330666  61.9133801  72.8105601  20.1803056  62.4359380  73.2772506
  19.2796393  53.8480268  56.3180016  19.5192397  54.0558252  55.5055359
  19.6012234  53.0437777  56.4268961  19.3633551  53.7594369  56.2140569
  14.5886683  45.7773664  60.1639554  15.3432651  46.1451981  59.9256604
  14.4114218  46.1513218  60.9318734  14.6741162  45.8871852  60.2424443
  13.2307405  63.8325553  64.7955047  13.9327984  63.3177542  64.8527804
  13.1504888  64.1599704  65.6001922  13.3231165  63.8039779  64.9227839
  27.8821582  51.9268104  68.2087094  27.0450003  51.9970291  68.4434688
  27.8509813  51.9292599  67.3361396  27.7539865  51.9378331  68.1146641
  14.2786311  54.0701140  73.9235462  14.4506815  53.9607035  74.7720744
  14.8155669  54.7155545  73.6866654  14.3831315  54.1493142  74.0140559
  12.9443748  48.1843983  56.8617667  12.7619321  48.4015864  56.0358660
  13.8069361  48.2982996  56.9176282  13.0448338  48.2333881  56.7472154
  13.1810883  60.4432780  68.6053961  13.7209108  60.3003911  69.2757333
  12.4980829  60.8429531  68.9737987  13.1603037  60.4812451  68.7588382
  18.6243467  45.1870393  59.8966691  19.3529628  45.0086348  59.4504847
  18.7138360  46.0288473  60.1073869  18.7450129  45.2854272  59.8620209
  22.6051768  56.1223781  63.7998985  23.3609283  56.5555295  63.8387894
  22.7114092  55.4728551  64.3733621  22.7321939  56.0901265  63.8897011
  25.6431939  59.9497058  64.5501388  25.2067171  59.9533801  65.3060359
  25.3094854  60.6302557  64.1180965  25.5294559  60.0509514  64.5982221
  25.5629422  46.9910886  66.7930816  26.2055330  47.0608991  67.3792731
  25.8152443  46.3240109  66.2910358  25.6951554  46.9037235  66.8058095
  12.4905775  51.4618155  55.3740140  11.7763952  51.1756335  55.7862573
  12.9749744  51.8014781  56.0146528  12.4565138  51.4699805  55.5295775
  13.3346634  50.2011449  71.4055390  12.6418431  49.7308429  71.6516121
  13.9506962  49.9749754  71.9797097  13.3231164  50.0978581  71.5264542
  20.3731406  63.9015493  69.5210994  19.5746652  63.6614993  69.7784862
  20.8217417  63.9529886  70.2678042  20.3206017  63.8737884  69.6695918
  28.7776285  56.6677978  63.4421025  29.4392719  56.1068646  63.3416934
  28.1367697  56.1730009  63.7673716  28.7805153  56.5114387  63.4753365
  19.6653093  59.9648109  55.7501948  20.0804241  59.6333133  55.0586444
  18.8345023  59.7317012  55.6222085  19.6041102  59.8819365  55.6292796
   8.9941442  57.4491850  66.0400126   8.8117015  57.4238736  65.1872419
   9.7291111  57.9190788  66.0789035   9.0755506  57.5153213  65.9198045
  25.0641116  57.6843360  63.1833014  25.2996705  57.8288559  62.3559865
  25.2130680  58.4485768  63.5764528  25.1206919  57.8182415  63.1196618
  12.0587193  54.1676853  72.5482235  12.7827166  54.1529884  73.0347130
  12.1603330  54.8772209  72.0504203  12.1805402  54.2701556  72.5461022
  26.8931573  56.5245026  61.0202618  27.2239790  57.0572666  60.4142713
  27.4664661  56.5783914  61.6764569  27.0265252  56.6114595  61.0280399
  22.1063462  54.3709929  61.7026198  22.2010316  55.1099223  62.1565823
  21.4822305  53.9427405  62.1360762  22.0272492  54.4171250  61.8334345
  20.3615936  57.5496142  72.3516479  20.9354797  56.9123386  72.5065043
  20.2830739  57.5500224  71.4826136  20.4349170  57.4561253  72.2462890
   8.9612352  54.3285351  66.1899193   9.5385855  54.1921802  66.8291438
   8.2626414  53.8721135  66.4444777   8.9433373  54.2407617  66.3221483
  22.3586483  56.2158669  54.9363150  22.2766646  56.2860856  55.8018137
  22.9966204  56.7788413  54.7446891  22.4406320  56.3097640  55.0353099
  15.7179654  55.9819407  64.4037676  15.4598899  55.1491142  64.3768976
  15.7728137  56.2077020  63.5630177  15.6879432  55.8917178  64.2757813
  20.7980704  48.0847857  64.5041769  20.0937031  47.5957043  64.6625688
  20.8465679  48.0970332  63.6330213  20.7010756  48.0137505  64.3981109
  14.6914366  53.5357169  64.8902571  14.1163958  53.6949338  65.5266532
  14.3150043  52.8992578  64.4271022  14.5517179  53.4654982  64.9157129
  18.3587655  52.0080519  69.7494949  17.9702088  51.5834736  69.0947141
  17.6942353  52.2562668  70.2571976  18.2034583  51.9819240  69.7282817
  28.0010924  51.7655523  62.5242779  27.7447489  50.9535465  62.3340662
  28.8440238  51.7733090  62.2972967  28.0876950  51.6467521  62.4627597
   4.4371185  53.1797244  62.9047012   4.5231437  52.8029112  63.6860542
   5.0646983  52.8057690  62.4266970   4.5427736  53.0682726  62.9492489
  22.1814017  45.7055147  67.2618934  22.5624528  45.0233318  67.6486808
  21.3777301  45.4164749  67.0794598  22.1190478  45.5622196  67.2922990
  19.4626593  56.2379123  57.9471756  20.2767232  56.5294016  57.8354528
  19.3985735  55.5838985  57.3730049  19.5729332  56.1844318  57.8460594
  25.6836083  58.9205119  72.3601332  25.4474721  58.0893184  72.2413393
  26.3279312  58.8690726  72.9456176  25.7430754  58.7902807  72.4287226
  15.3334502  59.7100641  63.0744068  15.9708449  59.4712388  63.6195862
  15.7589573  59.9137799  62.3397229  15.4910668  59.7051651  63.0461226
  15.9737317  54.9302930  57.4118958  16.3582469  54.7110637  58.1635503
  15.7248937  55.7565876  57.5420034  15.9939389  55.0201077  57.5420034
  16.1405857  48.2109346  77.1281542  15.8259298  48.9808908  76.8651105
  15.8195790  47.6479602  76.5433769  16.0464776  48.2419614  77.0022892
  26.7072504  58.7049568  68.4229627  26.4018321  59.4377625  68.7842942
  25.9878720  58.2987497  68.1422413  26.5559846  58.7531301  68.4342764
  17.7155974  60.1873063  64.7537855  17.7894982  60.0248235  65.6079705
  18.5325480  60.3763253  64.5098336  17.8472332  60.1909806  64.8435880
  32.4074296  55.3442569  67.7497971  32.3398797  55.3638528  66.8800557
  32.3929959  56.1872896  67.9753641  32.3953053  55.4716303  67.6550448
  11.4761730  60.5330926  61.7832298  10.6499848  60.7792663  61.6566577
  11.5373721  60.4543007  62.6494356  11.3635897  60.5575875  61.8921243
  13.6937754  46.5999867  62.7427738  12.8260179  46.6722466  62.8085348
  13.9812958  47.4021946  62.9315713  13.6077502  46.7294014  62.7802505
  22.8170643  46.7477726  71.0739060  23.5624235  46.5587537  70.6602486
  22.4007947  47.2735964  70.5152917  22.8655617  46.7979872  70.9303633
  16.2560559  63.1507806  59.4851328  16.5458858  62.7596788  58.7610555
  16.9864040  63.3324511  59.9256603  16.4067443  63.1201620  59.4434135
  30.1932914  54.1186955  66.0244565  30.7440835  53.4855024  66.2641657
  30.1777029  54.6502348  66.7160069  30.2718110  54.1035903  66.1623423
  16.8455304  57.9525552  70.5704459  16.3466998  58.6641320  70.6489347
  17.6555529  58.2726219  70.5322621  16.8911411  58.1052401  70.5761027
  14.1966475  65.1275189  62.5511478  13.9766770  64.8372543  63.3438145
  13.9760997  64.4690144  62.0229390  14.1314069  64.9874897  62.5900387
  13.1083422  57.2148505  64.8167179  12.8196671  56.5885976  65.3512907
  13.9766770  57.1568793  64.8831860  13.1943674  57.1136049  64.9058134
  23.8961320  52.3583289  65.1349161  23.5526086  51.6373624  65.4856411
  23.9954362  52.1497140  64.2927520  23.8603363  52.2207492  65.0620841
  16.3634431  66.5004579  61.3342170  17.0158489  65.9681021  61.5633196
  15.6660039  66.1473231  61.7210044  16.3565149  66.3694102  61.4254338
  13.3115695  58.8543756  60.7409545  14.0661663  59.2356795  60.9545007
  12.7186308  59.3054900  61.1956241  13.3352409  58.9772584  60.8392423
  24.3574349  58.8208993  60.6773149  24.9232382  59.4802203  60.5931692
  23.7102252  59.1658691  61.1489552  24.3453105  58.9690934  60.7345906
  14.6313922  60.0252318  66.1149660  14.1094676  60.1652609  66.8001525
  15.0187942  59.2662982  66.3051777  14.6117623  59.9337841  66.2450736
  11.6205106  50.0758126  60.1844615  11.3329902  49.7059397  59.4476562
  12.3075574  50.5452982  59.9228320  11.6794003  50.0905096  60.0359690
  20.8280927  61.7647777  60.1010229  20.5867603  61.0315637  59.6937294
  21.0082260  62.3134634  59.4476562  20.8188551  61.7370168  59.9440452
  16.0580248  57.0556337  61.5131151  15.8623030  57.6631071  60.9191454
  16.2814593  56.3624281  61.0322825  16.0614889  57.0433862  61.3547232
  14.4558778  53.9411075  61.6312019  15.1781430  54.1052233  61.1715825
  13.9766770  54.6620739  61.5251359  14.4922508  54.0709304  61.5477633
  22.4152285  50.2774873  67.0108704  21.5763386  50.3036152  66.7746968
  22.4856653  50.9245609  67.5914051  22.3020679  50.3770999  67.0617821
  20.8621563  47.1760250  61.7436320  21.5647916  46.9767999  61.2656278
  20.5965752  46.4036193  62.0505164  20.9268196  47.0323216  61.7181762
  26.2909809  55.4842860  64.2969946  26.2043784  55.6398286  65.1504725
  25.8360289  56.1280936  63.9229351  26.2113066  55.6018615  64.3677053
   9.1933301  50.8539339  61.0329896   9.2949437  51.6565500  61.3610871
   9.9889187  50.6526675  60.7352976   9.3261206  50.9425238  61.0365251
  15.6250120  48.4395536  70.7967201  15.4333317  48.4550670  71.6466624
  16.4748716  48.6359210  70.7733856  15.7225842  48.4709887  70.9190496
  10.0097033  50.9686517  68.7751017   9.8682525  50.1170458  68.8995525
  10.2937596  51.0115178  67.9513223  10.0304879  50.8486267  68.6718641
  20.1635625  52.8053607  62.9195505  19.9170339  52.7249358  63.7532294
  20.4920748  52.0207075  62.7258033  20.1756869  52.6779873  63.0143029
  24.0583674  59.5136967  66.7082287  23.9198033  60.2118012  67.2131029
  23.2783672  59.3585623  66.3518469  23.9226901  59.5937133  66.7308561
  22.3961759  55.8133342  72.9604668  22.3909798  54.9413158  72.9647095
  23.1022753  56.0121511  72.4874124  22.5006763  55.7137216  72.8911704
  16.1232652  55.5410326  72.3318489  16.2676028  56.1211534  71.6961599
  16.4708301  55.9186622  73.0368343  16.1960114  55.6831030  72.3417484
  18.2952570  54.7400494  70.1143620  17.5475884  54.9331509  69.7091898
  18.4494095  53.9145714  69.8767741  18.2074997  54.6465606  70.0189026
  15.1960407  63.7313098  69.1979515  15.3449971  63.1716013  68.5452920
  15.9760409  63.8105099  69.5812034  15.3334501  63.6598663  69.1576465
  25.5537047  58.8715220  57.4698786  25.1743855  58.0852358  57.4628075
  24.8903292  59.4202077  57.3270430  25.3995522  58.8360044  57.4479583
  17.7213708  63.9027740  70.4764006  17.6457379  63.2336551  71.0314794
  17.6503567  64.6045529  70.9904672  17.6994315  63.9072648  70.6340854
  18.5354347  48.6351045  71.0039024  18.9926961  49.3675019  71.1311816
  18.6110676  48.2117510  71.7626280  18.6145317  48.6808283  71.1340100
  10.7787338  48.8816865  72.0928468  10.2429527  48.2697223  72.4089235
  10.8405103  49.4565001  72.7462134  10.7082971  48.8763792  72.2363894
  23.0081673  41.8140920  64.8732867  23.1265241  42.2717383  64.1400170
  22.8343848  41.0086181  64.5869084  23.0000844  41.7634692  64.7233800
  18.3783955  62.4228739  61.3087612  19.1433846  62.1538383  60.9870276
  18.2762045  61.9378750  62.0257675  18.4765450  62.3118304  61.3667440
  16.4136725  50.6253149  67.8480848  15.6232799  50.4444609  68.1698184
  16.8097348  49.8480101  67.8311142  16.3553601  50.4840610  67.8933396
  20.9002615  59.4540923  53.2887562  21.6675601  59.5141048  52.8793413
  20.4533924  58.8821365  52.8043880  20.9476043  59.3777499  53.1565272
  21.7980411  58.2595579  65.5740294  21.1225413  58.0280811  66.0753681
  21.8072787  57.6516762  64.9482399  21.6998916  58.1354504  65.5556446
  18.9274555  53.1013408  72.3304347  18.8633696  53.9623364  72.2024484
  19.0671743  52.7845401  71.5299898  18.9390025  53.1813575  72.1932560
  23.7997146  61.1160711  57.8050472  23.8816983  61.9227698  57.4811923
  24.2846888  61.1356671  58.5291245  23.8834303  61.2381374  57.8637370
  17.6093649  55.7945547  66.4720550  17.1855898  55.9950046  65.7359568
  17.4338504  54.9474395  66.5844850  17.5204529  55.6994329  66.3794240
  12.8976094  56.2897599  61.9048522  13.0540713  56.2244401  62.7604514
  13.2376687  57.0646151  61.6927202  12.9709329  56.3946797  62.0003116
  19.4355238  55.6655482  60.7741885  19.9770784  55.1625863  61.2380506
  19.7501797  55.6120677  59.9631371  19.5619636  55.5834903  60.7225698
  23.3072346  59.8758130  77.8868798  24.1207211  59.6043278  78.0473930
  23.1467312  59.5765670  77.0828994  23.4042294  59.7913056  77.7914204
  17.6041688  61.0572834  58.0581913  17.6734508  60.1987372  58.1974914
  18.3830143  61.2744715  57.7300938  17.7294538  60.9625698  58.0299071
  20.5844508  50.5591787  70.8264186  20.7986477  49.9202701  70.2727540
  19.9678407  51.0037611  70.3972048  20.5249837  50.5301930  70.6814617
  21.9949176  63.4810535  62.2718407  21.6028967  63.1777250  61.5541273
  22.1502248  64.3179625  62.0823361  21.9602766  63.5594372  62.1374904
   9.4710355  53.4732549  62.2209289   9.8509320  53.8917094  61.5569557
   8.8965720  54.0546005  62.5278133   9.4421680  53.6210408  62.1686030
  22.7483596  52.1680852  71.7647493  21.9360278  51.8606742  71.8460666
  23.2073530  51.6879852  72.3290205  22.6963981  52.0517344  71.8602087
  22.1588850  60.0460524  62.2124437  21.8003505  60.2175167  62.9888470
  21.6727561  60.5073730  61.6552436  22.0347547  60.1399495  62.2449706
  19.9759236  43.6691722  65.8151529  19.1052794  43.6430444  65.7684838
  20.2299578  43.4968915  64.9977374  19.8852797  43.6401866  65.6871666
  16.9477216  55.7259689  54.7524672  17.2369741  56.5024572  55.0268246
  17.0349015  55.2148421  55.4539171  17.0031472  55.7651608  54.8967170
  19.8437103  53.5740923  76.5476195  20.3136734  54.1983040  76.9344069
  19.8898983  52.9057899  77.1069410  19.9204979  53.5675604  76.6876267
  17.0008377  45.6797951  67.2724999  16.4846866  44.9878142  67.3976578
  16.4402306  46.3468728  67.2187598  16.8414890  45.6761209  67.2831065
  19.0700610  46.2190911  69.1017852  18.6832364  46.2439942  69.8831382
  18.5833548  45.6532590  68.6492368  18.9413119  46.1386662  69.1505755
  23.3193590  60.9364420  73.1591638  23.9573310  60.4424616  72.8254094
  22.6767681  60.8641820  72.5743865  23.3187816  60.8523428  73.0233993
  25.0450590  52.7853566  67.7257554  24.6178198  52.6979914  66.9705653
  24.4076643  52.8931341  68.3112398  24.8880197  52.7886226  67.7002995
  18.7357752  43.1057896  71.3928112  19.3650870  43.6418196  71.1149182
  18.9043615  43.0135255  72.2441677  18.8535547  43.1719259  71.4776640
  18.5371667  47.8929091  73.6654523  19.3645096  47.6214240  73.7213138
  18.5579513  48.6889933  74.0218341  18.6624517  47.9708845  73.7269706
  23.3747846  61.6284228  69.7996995  24.1640225  61.2773293  69.9199077
  23.5491444  62.4420617  69.5373629  23.5168128  61.6970085  69.7784863
  13.1141157  55.0392954  66.8524784  12.2729163  54.9396828  67.0603678
  13.3231165  55.8088434  67.2039105  13.0205849  55.1384997  66.9352099
  10.5916724  52.6612491  64.6809535  10.1973422  52.7355503  63.9059644
  10.0356841  53.0470437  65.2317896  10.4519536  52.7294265  64.6477194
  22.2281671  45.6393785  64.3613413  22.4331264  45.5716093  65.2070411
  21.9008095  46.4452606  64.2934591  22.2096919  45.7479725  64.4773069
  16.9257822  52.9674353  66.1022381  16.6220959  52.4130341  66.7032789
  16.2237242  53.1466563  65.6150416  16.7774032  52.9119135  66.1192087
  15.9823919  50.2774873  60.6667083  16.2583653  49.5593785  60.2544651
  16.5822588  50.8759793  60.4588189  16.1117183  50.2595244  60.5747844
  25.4815358  46.1925549  63.8416179  24.8689672  46.6795951  64.2269911
  25.5779533  45.5169040  64.3853830  25.4053256  46.1643858  63.9795037
  19.4834439  47.9488390  58.9413678  19.9378186  48.1198951  59.6661523
  19.9574485  47.3356501  58.5411454  19.6202759  47.8839276  58.9887440
  13.0049965  57.4336716  68.2716417  12.4137898  58.0746214  68.2419432
  13.7670988  57.8574333  68.2447716  13.0298225  57.5912555  68.2631564
  13.4010588  48.5938714  68.9384434  13.8612069  48.6677643  69.6759558
  13.4466694  49.3919968  68.5884256  13.4761143  48.7232861  68.9957191
  15.0493937  49.2605409  73.5056461  14.6579502  48.6138756  73.9412239
  15.2179800  49.8516844  74.1250717  15.0164848  49.2519677  73.6619167
  29.1240386  57.2642486  69.2693695  29.1823510  57.7129135  70.0153672
  28.4906854  57.6741299  68.8323775  29.0391681  57.3916221  69.3146243
  22.7639481  62.8846028  65.7048441  22.5659170  63.3736842  65.0104653
  22.1427192  63.0887269  66.2832575  22.6427045  62.9862566  65.6871664
  16.8247459  54.6530925  60.0458685  17.5689504  55.0405201  60.2841635
  16.9708155  53.8088350  60.2099173  16.9558044  54.5861397  60.1052655
  18.7427035  46.4481184  65.0790547  17.8963080  46.6203991  64.9531897
  18.7398167  45.6430527  65.4156375  18.6174185  46.3542212  65.1101674
  19.8125335  50.2256398  65.9452605  19.3385289  49.6998160  66.4557916
  20.1843471  49.6785871  65.3767466  19.7975224  50.0672395  65.9367752
  10.1898365  52.2227905  71.3136151  11.0523978  52.1223614  71.2273480
   9.8590148  51.6422614  70.7521723  10.2683562  52.1219531  71.2181556
  26.0762066  55.2858774  67.3559385  25.8360289  54.4465189  67.3601812
  26.5554073  55.3658940  68.0800159  26.1114249  55.1740173  67.4634188
  21.7408835  51.1192953  59.0078359  21.2131853  51.2021697  58.3184067
  22.2004543  51.8610824  59.0043003  21.7310685  51.2413615  58.9053054
  28.0767253  52.0660231  65.3088644  27.8377023  52.0256065  64.4709429
  28.2401154  52.9131383  65.4354366  28.0657556  52.1852316  65.2042126
  24.6813283  56.4510180  71.2393690  25.4047482  55.9982707  71.0604709
  24.4163245  56.7314846  70.4566017  24.7494556  56.4261149  71.0972405
  13.5500151  51.0470354  67.9746569  12.9253221  51.0588746  67.3672521
  13.2145746  51.5230529  68.6237809  13.4085643  51.1188871  67.9803137
  13.7341900  49.3895472  54.0319254  13.3854704  50.0415197  54.4950803
  13.2538346  49.3752585  53.3043125  13.6112144  49.4838526  53.9930345
  21.2945917  59.6896516  58.1388016  22.0180116  60.1554629  57.9952589
  20.8546508  59.7570126  57.3885613  21.3361610  59.7680353  58.0072797
  20.4632072  56.5494058  69.3888705  19.8489066  56.0052109  69.6837340
  20.9799357  56.0358295  68.9094521  20.4487735  56.3930467  69.3612933
  19.7028370  57.6198328  67.1233003  19.2755978  56.9948047  66.6898439
  19.6953314  57.3373250  67.9492010  19.6387511  57.4851109  67.1812831
  12.8190897  52.6563501  70.1921437  12.9784383  51.9006826  70.5973159
  12.6383790  53.2054441  70.8462175  12.8156256  52.6257315  70.3484143
  20.7611200  44.8224737  70.7472227  20.2651761  45.0188411  70.0563793
  21.5180262  45.2217405  70.5761028  20.7998024  44.9102471  70.6192363
  18.0314079  48.4967083  67.3375537  18.0556566  47.9627195  66.6488317
  18.2825553  47.9884392  68.0001128  18.0723998  48.3427987  67.3340182
  14.3115401  47.2237901  66.7181282  14.3513773  47.7247108  67.4315989
  13.4865066  47.3148295  66.4487205  14.1954927  47.3119717  66.7831820
  15.7329765  53.7398411  69.0155181  14.9021695  53.9072229  68.8090429
  15.6781282  53.3634362  69.8004066  15.6019180  53.7088142  69.1003709
  13.5413548  47.2307304  74.6511591  14.1666252  46.6869437  74.9241024
  13.0864028  46.7502221  74.0819382  13.5661809  47.0796785  74.6073185
  14.1065809  52.0154003  59.5445298  14.2468770  52.5126467  60.2473940
  14.6048342  51.3140297  59.6859512  14.2006890  51.9855981  59.6696877
  14.1366031  52.8821114  56.8737875  14.7711111  53.4781539  56.8087337
  14.2191642  52.5824571  57.6883745  14.2422582  52.9262022  56.9840962
  27.1148597  55.4136591  69.7424239  27.7066437  56.0533842  69.7742437
  27.5507591  54.7159628  70.0316306  27.2667028  55.4054941  69.7905072
  15.7145014  48.8135089  56.8483317  16.0360855  48.3338171  56.1942579
  15.9771958  49.6234735  56.6574129  15.8011039  48.8624987  56.7238809
  18.9441987  59.8353963  70.3682133  18.4367078  60.3889810  70.8122764
  18.6468633  59.8962253  69.5500908  18.8246872  59.9260274  70.3130590
  21.1104169  48.2007283  69.2106796  21.5359240  47.7479809  68.5990323
  20.4961162  47.6467354  69.4871584  21.0832814  48.0521259  69.1611821
  10.6419019  55.0788954  60.1427421  11.1511248  55.6753462  60.5238727
  11.1153291  54.8114928  59.4603841  10.7862395  55.1274770  60.0981944
  21.5549767  63.7517221  58.2986077  20.8379077  63.5778083  57.8333314
  22.2056505  63.5169793  57.7661563  21.5451618  63.6913014  58.1515295
  19.5498392  44.6722383  62.6197373  18.9066710  44.5220029  63.1882512
  19.2097799  44.4264728  61.8546478  19.4043469  44.6134505  62.5900388
  24.1397738  52.6281810  62.0427382  23.4688928  53.1711512  61.9140447
  24.8337488  53.0976665  61.8009077  24.1426606  52.7780081  61.9882910
  18.1884472  64.7678522  67.2739140  17.9650126  64.0097351  67.6423166
  17.6994315  64.7976543  66.5519580  18.0827921  64.6600746  67.2215881
  24.3025866  49.0837693  64.9517755  24.6553476  48.6567416  65.6263554
  23.4440667  48.9988537  65.0818831  24.2275310  49.0082434  65.0712765
  13.0009551  51.7145213  63.0100602  12.2821540  52.1309345  63.2773465
  13.3721913  52.2799452  62.4592240  12.9501482  51.8594494  62.9683409
  22.3009132  52.3473062  68.9002597  22.2807059  52.1656357  69.7537376
  22.3488332  53.2185080  68.8762181  22.3043773  52.4489600  69.0225892
  20.2455461  58.9360254  74.8251074  20.2051316  58.2909931  74.2396230
  21.0578780  58.8796871  75.1376486  20.3598615  58.8319221  74.7848023
  16.8362929  64.9878980  64.7276225  16.4223328  64.3253110  64.3380066
  17.5210303  65.1356838  64.2071919  16.8761301  64.9119638  64.5932722
  20.2028223  64.1469065  65.4799841  19.8044506  64.2571335  64.7120662
  19.5879443  64.3551131  66.0626401  20.0527112  64.1942633  65.4531141
  18.7756125  50.7543213  58.3473981  18.1820964  51.0760209  57.7958548
  18.8131403  49.9084308  58.1395087  18.6930514  50.6767541  58.2356752
  25.7349926  44.2056105  65.8802068  25.2280790  43.4985245  65.8123245
  26.5317360  43.8749294  66.0103144  25.7777165  44.0529256  65.8901062
  21.6513942  50.7122717  61.7775731  21.4227635  50.7355419  60.9354089
  21.9112018  49.8880184  61.8970742  21.6560130  50.5938797  61.6700929
  15.9333170  52.5657190  71.3800831  15.4212073  51.9578373  71.7385863
  15.7612666  53.2813783  71.8474807  15.8322807  52.5820490  71.5017055
  14.7058704  49.2499264  63.0729927  15.1816070  49.6116343  62.4380108
  14.2047304  49.9055731  63.3530070  14.7024063  49.3993452  63.0206668
  27.9370066  58.7221032  58.8642932  28.3203672  59.4712388  59.0941029
  27.1414179  58.9686851  58.6054921  27.8763848  58.8690725  58.8600506
  19.8102240  50.4881435  73.8203087  20.3673671  50.2595244  73.1881552
  19.4863305  51.2487101  73.5438299  19.8448651  50.5665272  73.6859584
  17.5285358  53.5749088  74.7855094  18.2796685  53.8900765  75.0994648
  17.7207934  53.3728259  73.9589016  17.6676772  53.5916470  74.7098490
  16.7485357  51.3940463  56.4403311  17.1284322  51.4120093  55.6554426
  16.0077953  51.8394452  56.3194158  16.6954195  51.4622238  56.3066879
  24.3770648  49.7022655  62.0278890  24.3764874  49.5471311  62.8863166
  24.1726828  50.5485642  61.9720275  24.3470426  49.8043275  62.1466829
   6.4387919  53.1262439  66.4437706   6.2609680  52.6739048  67.1692622
   6.1506941  53.9288600  66.6276184   6.3700872  53.1784997  66.5781209
  22.1011500  54.3820156  65.6815096  22.5965165  53.6643151  65.6419117
  21.2911276  54.0790954  65.5669583  22.0555393  54.2317803  65.6588822
  17.5470111  58.2317970  57.8312101  16.7381434  57.9084643  57.7845410
  18.0545020  57.5251192  57.7640350  17.5019778  58.0799286  57.8142395
   8.1760389  55.6590163  63.5559465   7.3105908  55.6475853  63.4442236
   8.2759205  55.4720386  64.4030604   8.0634556  55.6296224  63.6648410
  24.1663319  57.1323844  68.3692225  24.5918390  56.6098266  67.8162650
  23.8020239  57.7304681  67.8480848  24.1749921  57.1434071  68.2101235
  13.8017399  65.4288061  67.1289571  14.1163958  66.2424450  67.1367352
  14.2110812  65.0438280  67.7971730  13.9085497  65.4916764  67.2293662
  20.7541918  60.8458108  64.6993383  21.2253096  61.5598371  64.8683368
  21.0902097  60.2456858  65.2353252  20.8737033  60.8629572  64.8025759
  17.6711413  45.6185579  71.6551477  17.8039319  44.8216572  71.9832453
  18.0556566  46.1451982  72.2349753  17.7467742  45.5785495  71.7894980
  21.3915865  60.6376042  71.4621075  20.8436811  60.0133926  71.1941141
  21.8528893  60.8270314  70.7465155  21.3783074  60.5735092  71.3171506
  20.7443768  42.5415905  68.2532571  19.9389732  42.4313634  68.5700409
  20.6150504  42.6428361  67.3962437  20.6063901  42.5399575  68.1740611
  24.2009729  48.7061397  68.8472268  23.6172718  49.2070603  68.4349835
  24.5214023  48.1990953  68.2136591  24.1622904  48.7053232  68.6930775
  16.7404528  47.6201992  59.1230942  17.5620222  47.7900304  58.8812637
  16.2774179  47.7749253  58.3997240  16.7935690  47.6683725  58.9802587
  15.3299860  45.6144754  69.9029371  15.8744273  45.2735881  70.4933713
  15.3836796  46.4730215  70.0450656  15.4188979  45.6900013  70.0111245
  11.1430419  59.3761170  66.7768179  11.7475276  59.3357004  66.1482000
  10.9357731  60.2232322  66.8072235  11.2019316  59.4949172  66.6884296
  20.9574191  61.6427115  67.9930417  21.7772565  61.4990081  68.2546712
  20.6768268  62.2673314  68.5346854  21.0370934  61.7137467  68.1118356
  37.4287841  69.2991967  60.9573293  37.3981846  70.1536603  61.1291562
  38.0269190  68.9987259  61.5159436  37.5124999  69.3808463  61.0648095
  30.6287526  68.3867618  65.7126223  29.7725422  68.5476116  65.7635340
  30.6755180  67.5159682  65.7331284  30.5086637  68.2818420  65.7232289
  33.4739347  70.4459662  68.3557875  34.0195307  71.1244748  68.4151845
  33.4156223  70.3047122  67.4959456  33.5455261  70.5251663  68.2369936
  35.2504416  71.8744269  59.2291603  35.1343942  72.6251955  59.6583741
  36.0460302  71.6168222  59.4787690  35.3509005  71.9479116  59.3295694
  19.7878466  73.9569014  63.3678561  19.5528651  73.1236667  63.2610830
  19.9264107  74.2373680  62.5539762  19.7734129  73.8752518  63.2320916
  22.0868554  66.1254745  66.2662869  21.4673585  65.5347392  66.0972884
  21.9852417  66.7166180  65.6327192  21.9806229  66.1258827  66.1467858
  27.1334741  75.8638292  60.5160945  27.4550582  76.4043499  59.9122253
  27.7806838  75.2935063  60.6483235  27.2760796  75.8597467  60.4467980
  29.1836449  67.8654287  60.5995332  29.8816614  68.0442414  61.0916795
  29.4988782  67.3424626  59.9765721  29.3331787  67.8148059  60.5797342
  21.8137687  69.6707027  68.5106438  21.6896384  70.2569472  69.1456257
  22.4655971  69.1767222  68.8118713  21.8911336  69.6845831  68.6492367
  29.3724385  74.2524732  60.5875123  29.8118020  73.6441832  61.0329896
  29.2229048  73.8732105  59.8160588  29.4145850  74.1063203  60.5394291
  26.8396028  72.8468744  67.7893949  27.4845030  72.3541187  67.4704897
  27.0797805  72.9893530  68.6160027  26.9706613  72.7946186  67.8643482
  29.3782119  75.6923649  67.4400841  29.6605362  74.8975055  67.2187597
  30.1068279  76.1704237  67.4605902  29.5271683  75.6458246  67.4103857
  27.3563313  63.2346683  64.6816606  27.0266643  63.6857827  64.0120305
  26.6808315  63.1562847  65.2289613  27.2073749  63.2897819  64.6639830
  32.9733721  72.6051913  57.5405893  32.8885016  73.4612880  57.6855461
  33.4618104  72.3296237  58.2088052  33.0322619  72.6909234  57.6607974
  34.5639721  59.2232206  62.9266217  34.2493162  59.9135685  63.3586639
  34.0466662  59.1676988  62.2251718  34.4404191  59.3167095  62.8863166
  33.9052154  69.2236707  59.0403628  33.3763626  69.4396341  59.7000934
  34.4277174  69.9172846  58.9604597  33.9040607  69.3579844  59.1259227
  39.3600207  74.7983012  64.4136672  38.5297911  75.0093655  64.5770089
  39.3109460  73.9720066  64.1378956  39.2306943  74.7072618  64.3974038
  25.7951762  73.1199924  57.8411096  25.2108978  73.6249955  58.2476960
  25.3921857  72.8942311  57.1007688  25.6491066  73.1608172  57.7916121
  30.2528977  69.3665576  56.3180016  30.4924980  69.5743560  55.5055359
  30.5744818  68.5623085  56.4268961  30.3366135  69.2779677  56.2140569
  25.5619267  61.2958972  60.1639554  26.3165235  61.6637289  59.9256604
  25.3846802  61.6698526  60.9318734  25.6473745  61.4057160  60.2424443
  38.8554166  67.4453412  68.2087094  38.0182587  67.5155599  68.4434688
  38.8242397  67.4477907  67.3361396  38.7272448  67.4563639  68.1146641
  25.2518895  69.5886448  73.9235462  25.4239398  69.4792343  74.7720744
  25.7888252  70.2340853  73.6866654  25.3563899  69.6678450  74.0140559
  23.9176332  63.7029291  56.8617667  23.7351905  63.9201172  56.0358660
  24.7801945  63.8168303  56.9176282  24.0180921  63.7519189  56.7472154
  23.5290764  75.5417213  64.3040655  24.3679663  75.7740146  64.3514417
  23.5602533  74.6721524  64.2347690  23.6572481  75.4474159  64.3005300
  29.5976051  60.7055701  59.8966691  30.3262211  60.5271656  59.4504847
  29.6870944  61.5473781  60.1073869  29.7182713  60.8039580  59.8620209
  33.5784351  71.6409089  63.7998985  34.3341867  72.0740603  63.8387894
  33.6846676  70.9913859  64.3733621  33.7054522  71.6086573  63.8897011
  36.6164523  75.4682366  64.5501388  36.1799754  75.4719108  65.3060359
  36.2827438  76.1487865  64.1180965  36.5027143  75.5694822  64.5982221
  36.5362005  62.5096194  66.7930816  37.1787914  62.5794298  67.3792731
  36.7885026  61.8425417  66.2910358  36.6684138  62.4222543  66.8058095
  23.4638359  66.9803463  55.3740140  22.7496536  66.6941643  55.7862573
  23.9482327  67.3200089  56.0146528  23.4297722  66.9885113  55.5295775
  24.3079218  65.7196757  71.4055390  23.6151015  65.2493737  71.6516121
  24.9239545  65.4935062  71.9797097  24.2963748  65.6163889  71.5264542
  39.7508869  72.1863286  63.4421025  40.4125303  71.6253954  63.3416934
  39.1100281  71.6915317  63.7673716  39.7537736  72.0299695  63.4753365
  30.6385677  75.4833417  55.7501948  31.0536825  75.1518441  55.0586444
  29.8077606  75.2502320  55.6222085  30.5773685  75.4004673  55.6292796
  19.9674025  72.9677158  66.0400126  19.7849599  72.9424044  65.1872419
  20.7023694  73.4376096  66.0789035  20.0488089  73.0338521  65.9198045
  36.0373700  73.2028668  63.1833014  36.2729289  73.3473867  62.3559865
  36.1863263  73.9671076  63.5764528  36.0939503  73.3367723  63.1196618
  23.0319777  69.6862161  72.5482235  23.7559749  69.6715192  73.0347130
  23.1335914  70.3957516  72.0504203  23.1537986  69.7886864  72.5461022
  37.8664156  72.0430334  61.0202618  38.1972373  72.5757974  60.4142713
  38.4397244  72.0969222  61.6764569  37.9997835  72.1299903  61.0280399
  33.0796045  69.8895237  61.7026198  33.1742900  70.6284531  62.1565823
  32.4554889  69.4612712  62.1360762  33.0005075  69.9356558  61.8334345
  19.9344936  69.8470659  66.1899193  20.5118438  69.7107110  66.8291438
  19.2358997  69.3906443  66.4444777  19.9165957  69.7592925  66.3221483
  33.3319067  71.7343977  54.9363150  33.2499229  71.8046164  55.8018137
  33.9698787  72.2973721  54.7446891  33.4138904  71.8282948  55.0353099
  26.6912238  71.5004715  64.4037676  26.4331482  70.6676450  64.3768976
  26.7460721  71.7262328  63.5630177  26.6612016  71.4102486  64.2757813
  31.7713288  63.6033165  64.5041769  31.0669615  63.1142351  64.6625688
  31.8198262  63.6155640  63.6330213  31.6743340  63.5322813  64.3981109
  25.6646950  69.0542477  64.8902571  25.0896541  69.2134646  65.5266532
  25.2882626  68.4177886  64.4271022  25.5249762  68.9840290  64.9157129
  29.3320239  67.5265826  69.7494949  28.9434671  67.1020044  69.0947141
  28.6674937  67.7747976  70.2571976  29.1767166  67.5004548  69.7282817
  38.9743508  67.2840831  62.5242779  38.7180073  66.4720773  62.3340662
  39.8172822  67.2918398  62.2972967  39.0609533  67.1652829  62.4627597
  15.4103769  68.6982552  62.9047012  15.4964021  68.3214420  63.6860542
  16.0379566  68.3242998  62.4266970  15.5160320  68.5868034  62.9492489
  33.1546600  61.2240455  67.2618934  33.5357112  60.5418626  67.6486808
  32.3509884  60.9350057  67.0794598  33.0923062  61.0807504  67.2922990
  30.4359177  71.7564431  57.9471756  31.2499816  72.0479324  57.8354528
  30.3718318  71.1024293  57.3730049  30.5461916  71.7029626  57.8460594
  26.3067085  75.2285948  63.0744068  26.9441032  74.9897696  63.6195862
  26.7322157  75.4323107  62.3397229  26.4643251  75.2236959  63.0461226
  26.9469900  70.4488238  57.4118958  27.3315053  70.2295945  58.1635503
  26.6981521  71.2751184  57.5420034  26.9671973  70.5386385  57.5420034
  27.1138441  63.7294653  77.1281542  26.7991882  64.4994216  76.8651105
  26.7928373  63.1664909  76.5433769  27.0197360  63.7604922  77.0022892
  28.6888557  75.7058371  64.7537855  28.7627565  75.5433543  65.6079705
  29.5058063  75.8948561  64.5098336  28.8204916  75.7095113  64.8435880
  24.6670338  62.1185175  62.7427738  23.7992763  62.1907774  62.8085348
  24.9545542  62.9207254  62.9315713  24.5810086  62.2479322  62.7802505
  33.7903226  62.2663034  71.0739060  34.5356818  62.0772845  70.6602486
  33.3740531  62.7921272  70.5152917  33.8388201  62.3165180  70.9303633
  41.1665497  69.6372263  66.0244565  41.7173419  69.0040332  66.2641657
  41.1509613  70.1687656  66.7160069  41.2450694  69.6221211  66.1623423
  27.8187888  73.4710860  70.5704459  27.3199582  74.1826628  70.6489347
  28.6288112  73.7911527  70.5322621  27.8643995  73.6237709  70.5761027
  24.0816006  72.7333813  64.8167179  23.7929254  72.1071284  65.3512907
  24.9499354  72.6754101  64.8831860  24.1676258  72.6321357  64.9058134
  34.8693903  67.8768596  65.1349161  34.5258669  67.1558932  65.4856411
  34.9686946  67.6682448  64.2927520  34.8335946  67.7392800  65.0620841
  24.2848279  74.3729064  60.7409545  25.0394247  74.7542103  60.9545007
  23.6918892  74.8240208  61.1956241  24.3084993  74.4957892  60.8392423
  35.3306932  74.3394301  60.6773149  35.8964965  74.9987510  60.5931692
  34.6834836  74.6843999  61.1489552  35.3185689  74.4876242  60.7345906
  26.7454946  66.3291905  75.8666757  25.9354722  66.6349684  75.7556599
  27.2229633  67.0497487  75.9819341  26.6958425  66.4806506  75.8673828
  25.6046506  75.5437625  66.1149660  25.0827259  75.6837917  66.8001525
  25.9920526  74.7848290  66.3051777  25.5850206  75.4523149  66.2450736
  22.5937690  65.5943434  60.1844615  22.3062485  65.2244705  59.4476562
  23.2808158  66.0638290  59.9228320  22.6526587  65.6090404  60.0359690
  31.8013511  77.2833085  60.1010229  31.5600186  76.5500945  59.6937294
  31.9814843  77.8319942  59.4476562  31.7921135  77.2555476  59.9440452
  27.0312831  72.5741645  61.5131151  26.8355614  73.1816379  60.9191454
  27.2547177  71.8809589  61.0322825  27.0347472  72.5619170  61.3547232
  25.4291361  69.4596382  61.6312019  26.1514013  69.6237541  61.1715825
  24.9499354  70.1806047  61.5251359  25.4655092  69.5894612  61.5477633
  33.3884869  65.7960181  67.0108704  32.5495969  65.8221460  66.7746968
  33.4589236  66.4430917  67.5914051  33.2753262  65.8956307  67.0617821
  31.8354147  62.6945558  61.7436320  32.5380500  62.4953307  61.2656278
  31.5698336  61.9221501  62.0505164  31.9000779  62.5508524  61.7181762
  37.2642393  71.0028168  64.2969946  37.1776367  71.1583594  65.1504725
  36.8092873  71.6466244  63.9229351  37.1845649  71.1203923  64.3677053
  20.1665884  66.3724647  61.0329896  20.2682021  67.1750808  61.3610871
  20.9621771  66.1711983  60.7352976  20.2993790  66.4610545  61.0365251
  26.5982703  63.9580843  70.7967201  26.4065900  63.9735978  71.6466624
  27.4481299  64.1544518  70.7733856  26.6958425  63.9895195  70.9190496
  20.9829616  66.4871825  68.7751017  20.8415108  65.6355766  68.8995525
  21.2670180  66.5300486  67.9513223  21.0037462  66.3671575  68.6718641
  31.1368209  68.3238915  62.9195505  30.8902923  68.2434666  63.7532294
  31.4653332  67.5392383  62.7258033  31.1489452  68.1965180  63.0143029
  35.0316257  75.0322274  66.7082287  34.8930617  75.7303320  67.2131029
  34.2516255  74.8770931  66.3518469  34.8959484  75.1122441  66.7308561
  27.0965236  71.0595634  72.3318489  27.2408612  71.6396842  71.6961599
  27.4440885  71.4371930  73.0368343  27.1692697  71.2016338  72.3417484
  29.2685153  70.2585802  70.1143620  28.5208467  70.4516816  69.7091898
  29.4226679  69.4331022  69.8767741  29.1807581  70.1650913  70.0189026
  36.5269630  74.3900528  57.4698786  36.1476439  73.6037666  57.4628075
  35.8635876  74.9387385  57.3270430  36.3728105  74.3545352  57.4479583
  29.5086930  64.1536353  71.0039024  29.9659544  64.8860327  71.1311816
  29.5843259  63.7302818  71.7626280  29.5877900  64.1993591  71.1340100
  21.7519922  64.4002173  72.0928468  21.2162111  63.7882531  72.4089235
  21.8137686  64.9750309  72.7462134  21.6815554  64.3949100  72.2363894
  33.9814256  57.3326228  64.8732867  34.0997824  57.7902691  64.1400170
  33.8076432  56.5271489  64.5869084  33.9733427  57.2820000  64.7233800
  27.3869308  66.1438457  67.8480848  26.5965383  65.9629917  68.1698184
  27.7829931  65.3665409  67.8311142  27.3286184  66.0025918  67.8933396
  31.8735199  74.9726231  53.2887562  32.6408184  75.0326356  52.8793413
  31.4266508  74.4006672  52.8043880  31.9208626  74.8962807  53.1565272
  32.7712995  73.7780887  65.5740294  32.0957996  73.5466119  66.0753681
  32.7805371  73.1702070  64.9482399  32.6731499  73.6539812  65.5556446
  29.9007139  68.6198716  72.3304347  29.8366280  69.4808672  72.2024484
  30.0404326  68.3030709  71.5299898  29.9122609  68.6998882  72.1932560
  34.7729729  76.6346019  57.8050472  34.8549567  77.4413005  57.4811923
  35.2579471  76.6541978  58.5291245  34.8566887  76.7566682  57.8637370
  28.5826232  71.3130855  66.4720550  28.1588482  71.5135354  65.7359568
  28.4071088  70.4659703  66.5844850  28.4937113  71.2179637  66.3794240
  23.8708677  71.8082907  61.9048522  24.0273297  71.7429709  62.7604514
  24.2109271  72.5831459  61.6927202  23.9441912  71.9132105  62.0003116
  30.4087822  71.1840790  60.7741885  30.9503367  70.6811171  61.2380506
  30.7234381  71.1305985  59.9631371  30.5352219  71.1020211  60.7225698
  28.5774272  76.5758142  58.0581913  28.6467092  75.7172680  58.1974914
  29.3562727  76.7930023  57.7300938  28.7027122  76.4811006  58.0299071
  31.5577091  66.0777095  70.8264186  31.7719061  65.4388009  70.2727540
  30.9410991  66.5222919  70.3972048  31.4982421  66.0487238  70.6814617
  20.4442939  68.9917857  62.2209289  20.8241904  69.4102402  61.5569557
  19.8698304  69.5731313  62.5278133  20.4154264  69.1395716  62.1686030
  33.7216179  67.6866160  71.7647493  32.9092861  67.3792050  71.8460666
  34.1806114  67.2065160  72.3290205  33.6696564  67.5702652  71.8602087
  33.1321434  75.5645832  62.2124437  32.7736089  75.7360475  62.9888470
  32.6460145  76.0259038  61.6552436  33.0080131  75.6584803  62.2449706
  30.9491820  59.1877030  65.8151529  30.0785378  59.1615751  65.7684838
  31.2032161  59.0154223  64.9977374  30.8585380  59.1587174  65.6871666
  27.9209799  71.2444997  54.7524672  28.2102324  72.0209880  55.0268246
  28.0081598  70.7333729  55.4539171  27.9764056  71.2836916  54.8967170
  27.9740961  61.1983259  67.2724999  27.4579449  60.5063450  67.3976578
  27.4134889  61.8654036  67.2187598  27.8147474  61.1946516  67.2831065
  30.0433194  61.7376219  69.1017852  29.6564947  61.7625250  69.8831382
  29.5566131  61.1717897  68.6492368  29.9145703  61.6571970  69.1505755
  36.0183173  68.3038874  67.7257554  35.5910782  68.2165222  66.9705653
  35.3809226  68.4116649  68.3112398  35.8612781  68.3071534  67.7002995
  29.7090336  58.6243204  71.3928112  30.3383454  59.1603504  71.1149182
  29.8776198  58.5320563  72.2441677  29.8268130  58.6904567  71.4776640
  29.5104251  63.4114399  73.6654523  30.3377680  63.1399548  73.7213138
  29.5312097  64.2075241  74.0218341  29.6357101  63.4894153  73.7269706
  24.0873740  70.5578262  66.8524784  23.2461747  70.4582136  67.0603678
  24.2963748  71.3273742  67.2039105  23.9938433  70.6570305  66.9352099
  21.5649307  68.1797799  64.6809535  21.1706005  68.2540811  63.9059644
  21.0089424  68.5655745  65.2317896  21.4252120  68.2479573  64.6477194
  33.2014254  61.1579093  64.3613413  33.4063848  61.0901401  65.2070411
  32.8740678  61.9637914  64.2934591  33.1829502  61.2665033  64.4773069
  27.8990405  68.4859661  66.1022381  27.5953543  67.9315649  66.7032789
  27.1969826  68.6651871  65.6150416  27.7506615  68.4304443  66.1192087
  26.9556502  65.7960181  60.6667083  27.2316237  65.0779093  60.2544651
  27.5555172  66.3945101  60.4588189  27.0849767  65.7780552  60.5747844
  36.4547942  61.7110857  63.8416179  35.8422256  62.1981259  64.2269911
  36.5512117  61.0354348  64.3853830  36.3785840  61.6829166  63.9795037
  30.4567023  63.4673698  58.9413678  30.9110769  63.6384259  59.6661523
  30.9307069  62.8541809  58.5411454  30.5935343  63.4024583  58.9887440
  23.9782548  72.9522024  68.2716417  23.3870482  73.5931522  68.2419432
  24.7403572  73.3759641  68.2447716  24.0030809  73.1097863  68.2631564
  24.3743171  64.1124022  68.9384434  24.8344653  64.1862951  69.6759558
  24.4199278  64.9105276  68.5884256  24.4493726  64.2418169  68.9957191
  26.0226521  64.7790717  73.5056461  25.6312086  64.1324064  73.9412239
  26.1912384  65.3702152  74.1250717  25.9897431  64.7704985  73.6619167
  27.7980043  70.1716233  60.0458685  28.5422088  70.5590509  60.2841635
  27.9440739  69.3273658  60.2099173  27.9290628  70.1046705  60.1052655
  29.7159618  61.9666491  65.0790547  28.8695663  62.1389299  64.9531897
  29.7130751  61.1615835  65.4156375  29.5906768  61.8727520  65.1101674
  30.7857919  65.7441706  65.9452605  30.3117873  65.2183468  66.4557916
  31.1576055  65.1971179  65.3767466  30.7707808  65.5857702  65.9367752
  21.1630949  67.7413213  71.3136151  22.0256562  67.6408922  71.2273480
  20.8322732  67.1607922  70.7521723  21.2416145  67.6404839  71.2181556
  37.0494649  70.8044082  67.3559385  36.8092872  69.9650497  67.3601812
  37.5286657  70.8844248  68.0800159  37.0846833  70.6925481  67.4634188
  32.7141418  66.6378260  59.0078359  32.1864437  66.7207004  58.3184067
  33.1737127  67.3796132  59.0043003  32.7043269  66.7598923  58.9053054
  39.0499836  67.5845539  65.3088644  38.8109606  67.5441373  64.4709429
  39.2133738  68.4316691  65.4354366  39.0390140  67.7037624  65.2042126
  24.5232735  66.5655662  67.9746569  23.8985805  66.5774054  67.3672521
  24.1878330  67.0415837  68.6237809  24.3818227  66.6374179  67.9803137
  24.7074484  64.9080780  54.0319254  24.3587288  65.5600505  54.4950803
  24.2270929  64.8937893  53.3043125  24.5844727  65.0023834  53.9930345
  32.2678501  75.2081824  58.1388016  32.9912700  75.6739937  57.9952589
  31.8279092  75.2755434  57.3885613  32.3094193  75.2865661  58.0072797
  31.4364656  72.0679366  69.3888705  30.8221649  71.5237417  69.6837340
  31.9531941  71.5543603  68.9094521  31.4220318  71.9115775  69.3612933
  30.6760953  73.1383636  67.1233003  30.2488561  72.5133355  66.6898439
  30.6685898  72.8558558  67.9492010  30.6120094  73.0036417  67.1812831
  23.7923480  68.1748809  70.1921437  23.9516967  67.4192134  70.5973159
  23.6116374  68.7239749  70.8462175  23.7888839  68.1442623  70.3484143
  31.7343783  60.3410045  70.7472227  31.2384344  60.5373719  70.0563793
  32.4912845  60.7402713  70.5761028  31.7730608  60.4287779  70.6192363
  29.0046663  64.0152391  67.3375537  29.0289150  63.4812503  66.6488317
  29.2558136  63.5069700  68.0001128  29.0456582  63.8613295  67.3340182
  25.2847985  62.7423209  66.7181282  25.3246357  63.2432416  67.4315989
  24.4597650  62.8333603  66.4487205  25.1687511  62.8305025  66.7831820
  26.7062348  69.2583719  69.0155181  25.8754278  69.4257537  68.8090429
  26.6513866  68.8819670  69.8004066  26.5751763  69.2273450  69.1003709
  24.5146132  62.7492612  74.6511591  25.1398835  62.2054745  74.9241024
  24.0596612  62.2687529  74.0819382  24.5394392  62.5982093  74.6073185
  25.0798392  67.5339310  59.5445298  25.2201353  68.0311775  60.2473940
  25.5780925  66.8325605  59.6859512  25.1739473  67.5041289  59.6696877
  25.1098615  68.4006421  56.8737875  25.7443694  68.9966847  56.8087337
  25.1924225  68.1009879  57.6883745  25.2155166  68.4447330  56.9840962
  26.6877598  64.3320397  56.8483317  27.0093439  63.8523479  56.1942579
  26.9504541  65.1420043  56.6574129  26.7743623  64.3810295  56.7238809
  29.9174570  75.3539271  70.3682133  29.4099661  75.9075118  70.8122764
  29.6201216  75.4147561  69.5500908  29.7979455  75.4445582  70.3130590
  32.0836753  63.7192591  69.2106796  32.5091824  63.2665117  68.5990323
  31.4693746  63.1652662  69.4871584  32.0565398  63.5706567  69.1611821
  21.6151603  70.5974262  60.1427421  22.1243832  71.1938770  60.5238727
  22.0885875  70.3300236  59.4603841  21.7594978  70.6460078  60.0981944
  30.5230975  60.1907691  62.6197373  29.8799293  60.0405337  63.1882512
  30.1830382  59.9450036  61.8546478  30.3776053  60.1319813  62.5900388
  35.1130322  68.1467117  62.0427382  34.4421512  68.6896820  61.9140447
  35.8070072  68.6161973  61.8009077  35.1159189  68.2965389  61.9882910
  35.2758449  64.6023001  64.9517755  35.6286059  64.1752724  65.6263554
  34.4173251  64.5173845  65.0818831  35.2007894  64.5267742  65.0712765
  23.9742134  67.2330521  63.0100602  23.2554123  67.6494653  63.2773465
  24.3454497  67.7984760  62.4592240  23.9234066  67.3779802  62.9683409
  33.2741715  67.8658370  68.9002597  33.2539642  67.6841665  69.7537376
  33.3220916  68.7370388  68.8762181  33.2776356  67.9674908  69.0225892
  29.7488709  66.2728521  58.3473981  29.1553548  66.5945517  57.7958548
  29.7863986  65.4269616  58.1395087  29.6663098  66.1952849  58.2356752
  36.7082509  59.7241413  65.8802068  36.2013374  59.0170553  65.8123245
  37.5049943  59.3934602  66.0103144  36.7509749  59.5714564  65.8901062
  32.6246525  66.2308025  61.7775731  32.3960218  66.2540727  60.9354089
  32.8844601  65.4065492  61.8970742  32.6292713  66.1124105  61.6700929
  26.9065754  68.0842498  71.3800831  26.3944657  67.4763681  71.7385863
  26.7345250  68.7999091  71.8474807  26.8055391  68.1005798  71.5017055
  25.6791288  64.7684572  63.0729927  26.1548654  65.1301651  62.4380108
  25.1779887  65.4241039  63.3530070  25.6756647  64.9178760  63.0206668
  38.9102649  74.2406340  58.8642932  39.2936255  74.9897696  59.0941029
  38.1146763  74.4872159  58.6054921  38.8496432  74.3876033  58.8600506
  30.7834824  66.0066743  73.8203087  31.3406254  65.7780552  73.1881552
  30.4595889  66.7672409  73.5438299  30.8181234  66.0850580  73.6859584
  27.7217941  66.9125771  56.4403311  28.1016906  66.9305400  55.6554426
  26.9810537  67.3579760  56.3194158  27.6686779  66.9807546  56.3066879
  35.3503231  65.2207962  62.0278890  35.3497458  65.0656619  62.8863166
  35.1459411  66.0670950  61.9720275  35.3203009  65.3228583  62.1466829
  17.4120502  68.6447747  66.4437706  17.2342263  68.1924356  67.1692622
  17.1239525  69.4473908  66.6276184  17.3433456  68.6970305  66.5781209
  33.0744083  69.9005464  65.6815096  33.5697749  69.1828459  65.6419117
  32.2643859  69.5976262  65.5669583  33.0287977  69.7503111  65.6588822
  28.5202695  73.7503278  57.8312101  27.7114018  73.4269951  57.7845410
  29.0277604  73.0436500  57.7640350  28.4752362  73.5984594  57.8142395
  19.1492972  71.1775471  63.5559465  18.2838492  71.1661161  63.4442236
  19.2491788  70.9905694  64.4030604  19.0367139  71.1481532  63.6648410
  35.1395902  72.6509152  68.3692225  35.5650974  72.1283574  67.8162650
  34.7752822  73.2489989  67.8480848  35.1482505  72.6619379  68.2101235
  31.7274502  76.3643416  64.6993383  32.1985680  77.0783679  64.8683368
  32.0634680  75.7642166  65.2353252  31.8469617  76.3814880  64.8025759
  28.6443997  61.1370887  71.6551477  28.7771902  60.3401880  71.9832453
  29.0289149  61.6637290  72.2349753  28.7200326  61.0970803  71.7894980
  31.7176352  58.0601213  68.2532571  30.9122316  57.9498942  68.5700409
  31.5883087  58.1613668  67.3962437  31.5796485  58.0584883  68.1740611
  35.1742312  64.2246705  68.8472268  34.5905301  64.7255911  68.4349835
  35.4946607  63.7176261  68.2136591  35.1355488  64.2238540  68.6930775
  27.7137112  63.1387299  59.1230942  28.5352806  63.3085612  58.8812637
  27.2506763  63.2934560  58.3997240  27.7668274  63.1869032  58.9802587
  26.3032443  61.1330062  69.9029371  26.8476856  60.7921189  70.4933713
  26.3569379  61.9915523  70.0450656  26.3921563  61.2085321  70.0111245
  31.9306774  77.1612423  67.9930417  32.7505148  77.0175389  68.2546712
  31.6500852  77.7858622  68.5346854  32.0103518  77.2322775  68.1118356
  38.3295896  78.7531991  64.6816606  37.9999227  79.2043135  64.0120305
  37.6540898  78.6748155  65.2289613  38.1806333  78.8083126  64.6639830
  45.5372304  74.7417514  62.9266217  45.2225745  75.4320993  63.3586639
  45.0199246  74.6862296  62.2251718  45.4136775  74.8352403  62.8863166
  36.5351851  76.8144280  60.1639554  37.2897819  77.1822597  59.9256604
  36.3579385  77.1883834  60.9318734  36.6206329  76.9242468  60.2424443
  34.8908915  79.2214599  56.8617667  34.7084488  79.4386479  56.0358660
  35.7534528  79.3353611  56.9176282  34.9913505  79.2704497  56.7472154
  40.5708634  76.2241009  59.8966691  41.2994795  76.0456964  59.4504847
  40.6603527  77.0659089  60.1073869  40.6915296  76.3224888  59.8620209
  35.6402921  77.6370483  62.7427738  34.7725347  77.7093082  62.8085348
  35.9278125  78.4392562  62.9315713  35.5542669  77.7664630  62.7802505
  42.8086731  78.2130866  61.7436320  43.5113083  78.0138614  61.2656278
  42.5430919  77.4406809  62.0505164  42.8733363  78.0693832  61.7181762
  44.9546840  72.8511536  64.8732867  45.0730408  73.3087999  64.1400170
  44.7809016  72.0456797  64.5869084  44.9466011  72.8005308  64.7233800
  41.9224404  74.7062338  65.8151529  41.0517962  74.6801059  65.7684838
  42.1764745  74.5339530  64.9977374  41.8317964  74.6772482  65.6871666
  41.4299606  78.9859006  58.9413678  41.8843353  79.1569567  59.6661523
  41.9039652  78.3727117  58.5411454  41.5667927  78.9209891  58.9887440
  40.6892202  77.4851799  65.0790547  39.8428247  77.6574607  64.9531897
  40.6863334  76.6801143  65.4156375  40.5639352  77.3912828  65.1101674
  43.6874002  82.1563568  59.0078359  43.1597021  82.2392312  58.3184067
  44.1469710  82.8981440  59.0043003  43.6775852  82.2784231  58.9053054
  37.6610181  79.8505705  56.8483317  37.9826022  79.3708787  56.1942579
  37.9237125  80.6605351  56.6574129  37.7476207  79.8995603  56.7238809
  41.4963559  75.7092999  62.6197373  40.8531877  75.5590645  63.1882512
  41.1562966  75.4635344  61.8546478  41.3508636  75.6505121  62.5900388
  38.6869695  78.6572607  59.1230942  39.5085390  78.8270920  58.8812637
  38.2239346  78.8119868  58.3997240  38.7400857  78.7054340  58.9802587
  15.1773498  15.1999482  47.8913340  15.1467502  16.0544119  48.0631609
  15.7754847  14.8994775  48.4499483  15.2610656  15.2815979  47.9988142
   8.3773183  14.2875133  52.6466270   7.5211078  14.4483631  52.6975387
   8.4240837  13.4167197  52.6671331   8.2572294  14.1825935  52.6572336
   2.7614323  23.8237851  48.4103502   2.0097222  23.4453389  48.1819547
   3.2100334  23.8556284  47.6622312   2.7163989  23.7723458  48.2661004
  11.6866899  20.5561659  62.2526726  12.3933667  20.0613689  62.3813661
  11.8754835  20.9970740  61.5229384  11.8194805  20.5480009  62.1635772
   8.2139282  24.2463220  43.8389049   7.8790651  24.9240142  43.4033271
   8.7266153  23.8568532  43.2505920   8.2404864  24.2887799  43.6875840
   7.7543574  26.1977489  49.7800160   8.1382953  26.7664388  49.2404936
   7.6902715  25.4726999  49.3005976   7.8017001  26.1752952  49.6294023
  11.2225004  16.3467177  55.2897922  11.7680964  17.0252264  55.3491891
  11.1641880  16.2054638  54.4299503  11.2940918  16.4259179  55.1709982
   4.3399079  23.8356243  50.6766274   4.4409442  23.0256597  50.9863402
   3.7440824  23.7413189  50.0465953   4.2671617  23.7021271  50.6292513
  12.9990073  17.7751784  46.1631650  12.8829598  18.5259470  46.5923788
  13.7945959  17.5175737  46.4127737  13.0994662  17.8486631  46.2635741
   4.1799818  28.7533832  52.0781130   4.8237274  29.1946996  52.4677289
   4.5056074  27.9487258  51.9911389   4.3231647  28.6999027  52.1226608
   4.8820398  21.7645807  47.4500992   5.2036239  22.3051014  46.8462300
   5.5292495  21.1942578  47.5823282   5.0246453  21.7604982  47.3808027
   7.1210041  20.1532247  47.5215170   7.5603677  19.5449348  47.9669943
   6.9714704  19.7739620  46.7500635   7.1631507  20.0070718  47.4734338
   4.5881684  18.7476259  54.7233996   5.2330687  18.2548702  54.4044944
   4.8283462  18.8901045  55.5500074   4.7192270  18.6953701  54.7983529
   7.1267776  21.5931165  54.3740888   7.4091019  20.7982570  54.1527644
   7.8553936  22.0711752  54.3945949   7.2757340  21.5465762  54.3443903
  10.7219378  18.5059428  44.4745939  10.6370673  19.3620395  44.6195508
  11.2103761  18.2303752  45.1428099  10.7808275  18.5916750  44.5948021
  12.3125377   5.1239722  49.8606264  11.9978818   5.8143200  50.2926686
  11.7952319   5.0684504  49.1591765  12.1889848   5.2174610  49.8203213
  11.6537811  15.1244222  45.9743674  11.1249283  15.3403856  46.6340981
  12.1762831  15.8180361  45.8944644  11.6526264  15.2587359  46.0599274
  17.1085864  20.6990527  51.3476719  16.2783567  20.9101171  51.5110136
  17.0595116  19.8727581  51.0719003  16.9792600  20.6080133  51.3314084
   3.5437419  19.0207439  44.7751142   2.9594634  19.5257471  45.1817006
   3.1407514  18.7949826  44.0347734   3.3976723  19.0615688  44.7256168
   5.1695602  23.5294381  54.1824628   4.6522543  23.1701796  53.5785937
   5.8669993  23.0056556  54.1930695   5.1961183  23.3992069  54.0954887
   8.8259194  23.9789195  60.1440802   8.9142540  23.7915336  60.9919012
   9.2548906  23.3326625  59.7445648   8.9021296  23.8552203  60.2112553
   6.3929653  23.2620355  59.1258464   5.8300488  22.8492965  59.6498125
   7.1550677  23.1873261  59.5451607   6.4224102  23.1897756  59.2651464
   8.0014633  15.2673091  43.2520063   8.2410637  15.4751075  42.4395406
   8.3230474  14.4630600  43.3609008   8.0851791  15.1787193  43.1480616
   1.9525645  25.2518376  51.7295094   2.6546224  24.7370365  51.7867850
   1.8723128  25.5792528  52.5341969   2.0449405  25.2232602  51.8567886
  16.6039822  13.3460928  55.1427140  15.7668244  13.4163115  55.3774735
  16.5728053  13.3485422  54.2701443  16.4758105  13.3571155  55.0486688
   1.2776420  21.4424728  51.2380702   2.1165320  21.6747661  51.2854463
   1.3088190  20.5729040  51.1687737   1.4058138  21.3481675  51.2345347
   1.9029123  21.8625603  55.5394007   2.4427348  21.7196735  56.2097380
   1.2199070  22.2622354  55.9078034   1.8821277  21.9005274  55.6928429
  11.3270008  17.5416604  50.7339032  12.0827523  17.9748118  50.7727941
  11.4332333  16.8921374  51.3073668  11.4540179  17.5094088  50.8237057
   8.9379253  23.4098214  62.8084585   9.7219670  23.5229062  63.1740327
   8.7375848  22.5839351  63.0043271   9.0245278  23.3044934  62.8918971
  14.2847662   8.4103709  53.7270863  14.9273571   8.4801814  54.3132778
  14.5370683   7.7432932  53.2250405  14.4169794   8.3230058  53.7398142
   1.2124015  12.8810979  42.3080187   0.4982193  12.5949158  42.7202620
   1.6967984  13.2207605  42.9486575   1.1783379  12.8892628  42.4635822
   9.0949646  25.3208316  56.4551041   8.2964892  25.0807816  56.7124909
   9.5435658  25.3722709  57.2018088   9.0424258  25.2930707  56.6035965
  17.4994526  18.0870801  50.3761072  18.1610960  17.5261470  50.2756980
  16.8585938  17.5922832  50.7013763  17.5023393  17.9307210  50.4093412
   8.3871333  21.3840933  42.6841995   8.8022482  21.0525956  41.9926491
   7.5563263  21.1509835  42.5562132   8.3259342  21.3012189  42.5632843
  13.7859356  19.1036184  50.1173061  14.0214945  19.2481383  49.2899911
  13.9348920  19.8678592  50.5104574  13.8425160  19.2375238  50.0536665
  15.6149813  17.9437850  47.9542665  15.9458030  18.4765490  47.3482759
  16.1882901  17.9976737  48.6104616  15.7483492  18.0307418  47.9620446
  10.8281702  15.7902752  48.6366245  10.9228557  16.5292046  49.0905870
  10.2040546  15.3620228  49.0700809  10.7490732  15.8364073  48.7674392
   9.0834176  18.9688965  59.2856526   9.6573038  18.3316209  59.4405090
   9.0048980  18.9693047  58.4166183   9.1567411  18.8754076  59.1802936
  11.0804723  17.6351492  41.8703197  10.9984886  17.7053679  42.7358184
  11.7184444  18.1981236  41.6786937  11.1624561  17.7290463  41.9693146
   4.4397895  17.4012230  51.3377723   4.1817139  16.5683965  51.3109022
   4.4946377  17.6269843  50.4970223   4.4097672  17.3110001  51.2097860
   9.5198945   9.5040681  51.4381816   8.8155271   9.0149866  51.5965735
   9.5683919   9.5163155  50.5670260   9.4228996   9.4330329  51.3321155
   3.4132607  14.9549992  51.8242618   2.8382198  15.1142161  52.4606579
   3.0368283  14.3185402  51.3611068   3.2735419  14.8847805  51.8497176
   7.0805895  13.4273342  56.6834996   6.6920328  13.0027560  56.0287187
   6.4160594  13.6755491  57.1912023   6.9252823  13.4012063  56.6622864
  16.7229165  13.1848346  49.4582826  16.4665729  12.3728288  49.2680709
  17.5658479  13.1925914  49.2313014  16.8095190  13.0660344  49.3967643
  10.9032257   7.1247971  54.1958980  11.2842769   6.4426142  54.5826855
  10.0995541   6.8357573  54.0134645  10.8408719   6.9815019  54.2263036
   8.1844834  17.6571946  44.8811803   8.9985472  17.9486839  44.7694575
   8.1203975  17.0031809  44.3070096   8.2947573  17.6037141  44.7800640
  14.4054324  20.3397942  59.2941379  14.1692961  19.5086007  59.1753439
  15.0497553  20.2883550  59.8796223  14.4648995  20.2095630  59.3627272
   4.0552742  21.1293464  50.0084115   4.6926689  20.8905211  50.5535909
   4.4807813  21.3330623  49.2737276   4.2128908  21.1244474  49.9801273
   4.6955557  16.3495754  44.3459005   5.0800710  16.1303460  45.0975550
   4.4467177  17.1758699  44.4760081   4.7157630  16.4393900  44.4760081
  15.4290744  20.1242391  55.3569673  15.1236562  20.8570448  55.7182989
  14.7096960  19.7180321  55.0762459  15.2778087  20.1724124  55.3682810
   6.4374214  21.6065886  51.6877901   6.5113222  21.4441058  52.5419751
   7.2543720  21.7956076  51.4438383   6.5690572  21.6102629  51.7775927
  21.1292537  16.7635392  54.6838018  21.0617037  16.7831351  53.8140604
  21.1148199  17.6065719  54.9093688  21.1171293  16.8909127  54.5890494
   4.9778800  24.5700629  46.4191375   5.2677098  24.1789611  45.6950601
   5.7082280  24.7517334  46.8596650   5.1285684  24.5394443  46.3774182
  18.9151154  15.5379778  52.9584612  19.4659075  14.9047847  53.1981704
  18.8995269  16.0695171  53.6500116  18.9936350  15.5228726  53.0963470
   5.5673545  19.3718375  57.5044505   5.0685238  20.0834143  57.5829394
   6.3773769  19.6919042  57.4662668   5.6129651  19.5245224  57.5101074
   2.9184715  26.5468012  49.4851525   2.6985011  26.2565367  50.2778192
   2.6979237  25.8882967  48.9569437   2.8532309  26.4067720  49.5240433
   1.8301662  18.6341328  51.7507226   1.5414911  18.0078800  52.2852954
   2.6985010  18.5761616  51.8171907   1.9161914  18.5328873  51.8398181
  12.6179560  13.7776112  52.0689208  12.2744326  13.0566447  52.4196458
  12.7172603  13.5689963  51.2267566  12.5821603  13.6400315  51.9960888
   5.0852671  27.9197402  48.2682217   5.7376729  27.3873844  48.4973243
   4.3878280  27.5666054  48.6550091   5.0783389  27.7886925  48.3594385
   2.0333936  20.2736579  47.6749591   2.7879904  20.6549619  47.8885054
   1.4404548  20.7247723  48.1296288   2.0570649  20.3965407  47.7732470
  13.0792589  20.2401816  47.6113196  13.6450622  20.8995026  47.5271739
  12.4320493  20.5851514  48.0829598  13.0671346  20.3883757  47.6685953
   3.3532162  21.4445141  53.0489707   2.8312916  21.5845432  53.7341571
   3.7406183  20.6855805  53.2391824   3.3335863  21.3530665  53.1790783
   9.5499167  23.1840600  47.0350275   9.3085843  22.4508461  46.6277340
   9.7300500  23.7327457  46.3816609   9.5406791  23.1562991  46.8780498
   4.7798488  18.4749160  48.4471198   4.5841271  19.0823894  47.8531501
   5.0032834  17.7817104  47.9662872   4.7833129  18.4626685  48.2887279
   3.1777018  15.3603898  48.5652066   3.8999670  15.5245056  48.1055872
   2.6985011  16.0813563  48.4591406   3.2140749  15.4902127  48.4817680
  11.1370526  11.6967697  53.9448751  10.2981626  11.7228975  53.7087014
  11.2074893  12.3438432  54.5254098  11.0238919  11.7963822  53.9957868
   0.8284635  17.7661970  57.6706206   1.3405732  18.0446223  57.0214966
   0.5420977  18.5051264  58.0369019   0.8619498  17.9164324  57.6296084
   9.5839804   8.5953074  48.6776367  10.2866157   8.3960822  48.1996325
   9.3183993   7.8229016  48.9845210   9.6486436   8.4516040  48.6521809
  15.0128049  16.9035683  51.2309993  14.9262024  17.0591109  52.0844772
  14.5578529  17.5473759  50.8569398  14.9331306  17.0211438  51.3017100
   8.8853865  14.2246430  49.8535552   8.6388580  14.1442181  50.6872341
   9.2138989  13.4399898  49.6598080   8.8975109  14.0972696  49.9483075
  12.7801914  20.9329790  53.6422334  12.6416274  21.6310836  54.1471076
  12.0001912  20.7778446  53.2858515  12.6445141  21.0129956  53.6648608
  11.1179999  17.2326165  59.8944715  11.1128038  16.3605982  59.8987142
  11.8240993  17.4314334  59.4214171  11.2225003  17.1330039  59.8251751
   4.8450893  16.9603149  59.2658535   4.9894268  17.5404357  58.6301645
   5.1926541  17.3379446  59.9708390   4.9178354  17.1023853  59.2757530
   7.0170810  16.1593317  57.0483667   6.2694124  16.3524332  56.6431945
   7.1712335  15.3338537  56.8107788   6.9293238  16.0658429  56.9529073
   3.9178648  25.1505921  56.1319562   4.0668211  24.5908837  55.4792967
   4.6978650  25.2297923  56.5152081   4.0552741  25.0791486  56.0916511
  14.2755287  20.2908044  44.4038833  13.8962096  19.5045181  44.3968122
  13.6121533  20.8394901  44.2610477  14.1213762  20.2552868  44.3819630
   6.4431948  25.3220564  57.4104053   6.3675619  24.6529374  57.9654841
   6.3721807  26.0238352  57.9244719   6.4212555  25.3265471  57.5680901
   7.1002195  23.8421563  48.2427659   7.8652086  23.5731206  47.9210323
   6.9980285  23.3571573  48.9597722   7.1983691  23.7311127  48.3007487
   5.1354965  12.0445972  54.7820895   4.3451040  11.8637432  55.1038231
   5.5315588  11.2672925  54.7651189   5.0771841  11.9033433  54.8273443
   9.6220856  20.8733746  40.2227608  10.3893841  20.9333871  39.8133460
   9.1752165  20.3014188  39.7383927   9.6694283  20.7970322  40.0905319
  10.5198651  19.6788402  52.5080341   9.8443653  19.4473634  53.0093728
  10.5291027  19.0709585  51.8822446  10.4217156  19.5547327  52.4896493
   7.6492795  14.5206231  59.2644394   7.5851937  15.3816188  59.1364530
   7.7889983  14.2038224  58.4639945   7.6608265  14.6006398  59.1272607
  12.5215386  22.5353535  44.7390519  12.6035223  23.3420521  44.4151970
  13.0065128  22.5549494  45.4631292  12.6052544  22.6574197  44.7977417
   6.3311889  17.2138370  53.4060597   5.9074138  17.4142870  52.6699615
   6.1556744  16.3667218  53.5184896   6.2422770  17.1187152  53.3134287
   5.8323583  28.7288883  55.8682054   6.3219513  28.0299673  55.6857718
   5.2607815  28.4312753  56.4558111   5.8208113  28.5815107  55.9283095
   1.6194334  17.7090422  48.8388569   1.7758953  17.6437225  49.6944561
   1.9594927  18.4838974  48.6267249   1.6927569  17.8139620  48.9343163
   8.1573479  17.0848306  47.7081932   8.6989024  16.5818687  48.1720553
   8.4720038  17.0313500  46.8971418   8.2837876  17.0027726  47.6565744
  12.0290586  21.2950953  64.8208845  12.8425451  21.0236102  64.9813977
  11.8685553  20.9958493  64.0169040  12.1260535  21.2105879  64.7254250
   6.3259929  22.4765657  44.9921960   6.3952749  21.6180196  45.1314961
   7.1048384  22.6937538  44.6640985   6.4512779  22.3818521  44.9639118
   9.3062748  11.9784610  57.7604233   9.5204718  11.3395524  57.2067587
   8.6896647  12.4230434  57.3312095   9.2468077  11.9494754  57.6154664
  10.7167416  24.9003358  49.2058454  10.3247208  24.5970073  48.4881320
  10.8720488  25.7372448  49.0163407  10.6821006  24.9787195  49.0714951
  11.4701836  13.5873675  58.6987540  10.6578518  13.2799566  58.7800713
  11.9291771  13.1072675  59.2630252  11.4182221  13.4710168  58.7942134
  10.8807091  21.4653347  49.1464484  10.5221746  21.6367990  49.9228517
  10.3945802  21.9266553  48.5892483  10.7565788  21.5592318  49.1789753
   5.6695456  17.1452513  41.6864719   5.9587981  17.9217395  41.9608293
   5.7567255  16.6341244  42.3879218   5.7249713  17.1844431  41.8307216
  12.0411830  22.3557243  60.0931685  12.6791551  21.8617439  59.7594141
  11.3985922  22.2834644  59.5083912  12.0406057  22.2716252  59.9574040
  13.7668830  14.2046389  54.6597601  13.3396438  14.1172738  53.9045700
  13.1294883  14.3124165  55.2452445  13.6098438  14.2079049  54.6343042
  12.0966087  23.0477051  56.7337042  12.8858465  22.6966116  56.8539123
  12.2709685  23.8613440  56.4713676  12.2386368  23.1162909  56.7124910
   1.8359397  16.4585777  53.7864831   0.9947404  16.3589651  53.9943725
   2.0449405  17.2281257  54.1379151   1.7424090  16.5577820  53.8692146
  10.9499911   7.0586608  51.2953460  11.1549504   6.9908916  52.1410457
  10.6226335   7.8645429  51.2274638  10.9315159   7.1672549  51.4113115
   5.6476062  14.3867176  53.0362428   5.3439200  13.8323165  53.6372836
   4.9455483  14.5659386  52.5490462   5.4992272  14.3311959  53.0532134
   4.7042159  11.6967696  47.6007130   4.9801894  10.9786609  47.1884698
   5.3040829  12.2952616  47.3928236   4.8335424  11.6788067  47.5087891
   3.7094413  21.6016897  57.7434526   3.6014768  21.6118959  58.6096584
   3.9190195  22.4271677  57.5539480   3.7244524  21.7257972  57.8438618
  14.2033599   7.6118372  50.7756226  13.5907912   8.0988775  51.1609958
  14.2997774   6.9361863  51.3193877  14.1271496   7.5836681  50.9135084
   8.2052680   9.3681214  45.8753725   8.6596426   9.5391774  46.6001570
   8.6792725   8.7549324  45.4751501   8.3421000   9.3032099  45.9227487
   1.7268205  18.8529539  55.2056464   1.1356138  19.4939038  55.1759479
   2.4889229  19.2767157  55.1787763   1.7516466  19.0105378  55.1971611
  17.8458627  18.6835309  56.2033742  17.9041750  19.1321958  56.9493718
  17.2125094  19.0934122  55.7663822  17.7609922  18.8109044  56.2486290
  11.4857721  24.3038851  52.6388488  11.2877410  24.7929666  51.9444699
  10.8645432  24.5080093  53.2172621  11.3645286  24.4055389  52.6211711
   5.5465700  16.0723748  46.9798732   6.2907745  16.4598024  47.2181682
   5.6926396  15.2281173  47.1439220   5.6776285  16.0054221  47.0392702
  14.7980306  16.7051597  54.2899432  14.5578529  15.8658012  54.2941859
  15.2772313  16.7851764  55.0140206  14.8332490  16.5932997  54.3974234
  10.4627075  12.5385776  45.9418405   9.9350094  12.6214520  45.2524114
  10.9222783  13.2803647  45.9383050  10.4528926  12.6606438  45.8393101
  16.7985493  13.4853054  52.2428691  16.5595263  13.4448888  51.4049476
  16.9619394  14.3324206  52.3694412  16.7875797  13.6045139  52.1382173
  13.4031523  17.8703003  58.1733736  14.1265722  17.4175530  57.9944756
  13.1381486  18.1507669  57.3906064  13.4712797  17.8453972  58.0312452
   2.2718392  12.4663177  54.9086616   1.6471462  12.4781569  54.3012568
   1.9363987  12.9423352  55.5577856   2.1303884  12.5381694  54.9143184
  10.0164158  21.1089339  45.0728062  10.7398357  21.5747452  44.9292636
   9.5764749  21.1762949  44.3225659  10.0579850  21.1873176  44.9412844
   9.1850313  17.9686882  56.3228751   8.5707306  17.4244932  56.6177387
   9.7017598  17.4551118  55.8434568   9.1705975  17.8123291  56.2952980
   8.4246610  19.0391152  54.0573050   7.9974218  18.4140870  53.6238486
   8.4171554  18.7566073  54.8832057   8.3605751  18.9043932  54.1152878
   6.7532320   9.9159906  54.2715584   6.7774807   9.3820018  53.5828364
   7.0043793   9.4077215  54.9341175   6.7942238   9.7620810  54.2680229
   4.4548005  15.1591234  55.9495227   3.6239935  15.3265052  55.7430476
   4.3999522  14.7827185  56.7344113   4.3237420  15.1280966  56.0343756
   2.8284049  13.4346826  46.4785345   2.9687010  13.9319290  47.1813987
   3.3266582  12.7333120  46.6199559   2.9225130  13.4048805  46.6036924
   2.8584271  14.3013937  43.8077922   3.4929351  14.8974362  43.7427384
   2.9409882  14.0017394  44.6223792   2.9640822  14.3454845  43.9181009
  15.8366837  16.8329414  56.6764286  16.4284678  17.4726665  56.7082484
  16.2725832  16.1352451  56.9656353  15.9885268  16.8247765  56.7245119
   4.4363254  10.2327912  43.7823364   4.7579095   9.7530995  43.1282626
   4.6990198  11.0427558  43.5914176   4.5229280  10.2817810  43.6578856
   7.6660227  21.2546787  57.3022180   7.1585318  21.8082633  57.7462811
   7.3686873  21.3155076  56.4840955   7.5465112  21.3453098  57.2470637
   9.8322409   9.6200106  56.1446843  10.2577481   9.1672633  55.5330369
   9.2179402   9.0660177  56.4211631   9.8051055   9.4714082  56.0951868
  10.2768007  25.1710044  45.2326124   9.5597317  24.9970906  44.7673361
  10.9274745  24.9362617  44.7001610  10.2669858  25.1105837  45.0855341
  12.8615979  14.0474633  48.9767429  12.1907168  14.5904335  48.8480494
  13.5555729  14.5169488  48.7349123  12.8644846  14.1972904  48.9222956
   6.9102712  26.1871345  54.2079187   6.6868367  25.4290174  54.5763213
   6.4212556  26.2169366  53.4859627   6.8046161  26.0793569  54.1555928
  13.0244106  10.5030516  51.8857802  13.3771716  10.0760239  52.5603601
  12.1658908  10.4181360  52.0158878  12.9493551  10.4275257  52.0052812
   1.7227791  13.1338036  49.9440648   1.0039780  13.5502169  50.2113512
   2.0940153  13.6992275  49.3932287   1.6719723  13.2787318  49.9023455
  11.0227372  13.7665885  55.8342644  11.0025299  13.5849180  56.6877423
  11.0706573  14.6377904  55.8102228  11.0262013  13.8682423  55.9565939
   8.9673702  20.3553077  61.7591121   8.9269557  19.7102754  61.1736277
   9.7797020  20.2989694  62.0716533   9.0816855  20.2512044  61.7188070
   5.5581169  26.4071803  51.6616272   5.1441568  25.7445933  51.2720113
   6.2428544  26.5549662  51.1411966   5.5979541  26.3312461  51.5272769
   8.9246463  25.5661888  52.4139888   8.5262747  25.6764159  51.6460708
   8.3097683  25.7743954  52.9966448   8.7745353  25.6135456  52.3871188
   7.4974365  12.1736036  45.2814028   6.9039205  12.4953033  44.7298595
   7.5349643  11.3277131  45.0735134   7.4148755  12.0960364  45.1696799
  14.4568166   5.6248928  52.8142114  13.9499031   4.9178068  52.7463292
  15.2535600   5.2942117  52.9443191  14.4995405   5.4722080  52.8241109
  10.3732182  12.1315541  48.7115778  10.1445875  12.1548242  47.8694136
  10.6330258  11.3073008  48.8310789  10.3778370  12.0131620  48.6040976
   3.4276945  10.6692087  50.0069974   3.9034311  11.0309167  49.3720155
   2.9265544  11.3248554  50.2870117   3.4242304  10.8186276  49.9546715
  16.6588306  20.1413855  45.7982979  17.0421912  20.8905211  46.0281076
  15.8632419  20.3879675  45.5394968  16.5982088  20.2883549  45.7940552
   5.4703598  12.8133287  43.3743358   5.8502563  12.8312916  42.5894472
   4.7296194  13.2587275  43.2534205   5.4172435  12.8815061  43.2406926
  13.0988888  11.1215478  48.9618936  13.0983115  10.9664134  49.8203213
  12.8945068  11.9678465  48.9060322  13.0688666  11.2236099  49.0806876
  10.8229740  15.8012980  52.6155143  11.3183406  15.0835975  52.5759164
  10.0129516  15.4983777  52.5009630  10.7773634  15.6510626  52.5928869
   6.2688352  19.6510793  44.7652148   5.4599674  19.3277466  44.7185457
   6.7763261  18.9444015  44.6980396   6.2238019  19.4992109  44.7482442
  12.8881559  18.5516667  55.3032272  13.3136631  18.0291089  54.7502697
  12.5238479  19.1497505  54.7820895  12.8968162  18.5626894  55.1441282
   2.5235639  26.8480885  54.0629618   2.8382198  27.6617273  54.0707399
   2.9329052  26.4631103  54.7311777   2.6303737  26.9109587  54.1633709
   9.4760159  22.2650931  51.6333430   9.9471337  22.9791194  51.8023415
   9.8120337  21.6649682  52.1693299   9.5955274  22.2822396  51.7365805
  11.5637143  23.8752245  63.8125502  11.6734109  23.0860805  64.1682249
  11.8928040  23.7858181  63.0099840  11.6289549  23.7458098  63.7467892
  10.1134105  22.0568866  58.3961122   9.5655051  21.4326749  58.1281187
  10.5747134  22.2463138  57.6805202  10.1001314  21.9927916  58.2511553
  12.9227969  10.1254220  55.7812314  12.3390958  10.6263426  55.3689882
  13.2432263   9.6183776  55.1476638  12.8841145  10.1246055  55.6270822
   5.4622768   9.0394815  46.0570989   6.2838463   9.2093128  45.8152684
   4.9992419   9.1942076  45.3337287   5.5153931   9.0876548  45.9142634
   9.6792431  23.0619938  54.9270463  10.4990805  22.9182904  55.1886759
   9.3986509  23.6866137  55.4686901   9.7589175  23.1330290  55.0458403
  26.1506082  30.7184790  47.8913340  26.1200086  31.5729427  48.0631609
  26.7487430  30.4180083  48.4499483  26.2343239  30.8001286  47.9988142
  19.3505766  29.8060441  52.6466270  18.4943662  29.9668939  52.6975387
  19.3973420  28.9352505  52.6671331  19.2304878  29.7011243  52.6572336
  13.7346906  39.3423159  48.4103502  12.9829806  38.9638697  48.1819547
  14.1832918  39.3741592  47.6622312  13.6896573  39.2908766  48.2661004
  22.6599483  36.0746967  62.2526726  23.3666250  35.5798997  62.3813661
  22.8487418  36.5156048  61.5229384  22.7927389  36.0665317  62.1635772
  19.1871866  39.7648528  43.8389049  18.8523234  40.4425450  43.4033271
  19.6998736  39.3753840  43.2505920  19.2137447  39.8073107  43.6875840
  18.7276157  41.7162797  49.7800160  19.1115537  42.2849696  49.2404936
  18.6635299  40.9912307  49.3005976  18.7749585  41.6938260  49.6294023
  22.1957587  31.8652485  55.2897922  22.7413547  32.5437571  55.3491891
  22.1374464  31.7239946  54.4299503  22.2673502  31.9444487  55.1709982
  15.3131662  39.3541551  50.6766274  15.4142025  38.5441905  50.9863402
  14.7173408  39.2598497  50.0465953  15.2404201  39.2206579  50.6292513
  23.9722656  33.2937092  46.1631650  23.8562182  34.0444778  46.5923788
  24.7678543  33.0361045  46.4127737  24.0727246  33.3671939  46.2635741
  15.1532402  44.2719140  52.0781130  15.7969857  44.7132304  52.4677289
  15.4788657  43.4672566  51.9911389  15.2964231  44.2184335  52.1226608
   8.5096707  35.3761838  50.3018608   8.2746891  34.5429490  50.1950877
   8.6482347  35.6566503  49.4879809   8.4952369  35.2945341  50.1660963
  10.8086794  27.5447568  53.2002916  10.1891826  26.9540215  53.0312930
  10.7070658  28.1359003  52.5667239  10.7024470  27.5451651  53.0807905
  15.8552982  37.2831115  47.4500992  16.1768823  37.8236322  46.8462300
  16.5025078  36.7127886  47.5823282  15.9979037  37.2790290  47.3808027
  17.9054690  29.2847110  47.5335379  18.6034854  29.4635237  48.0256842
  18.2207022  28.7617449  46.9105768  18.0550027  29.2340882  47.5137389
  10.5355927  31.0899850  55.4446485  10.4114624  31.6762295  56.0796303
  11.1874212  30.5960046  55.7458760  10.6129576  31.1038654  55.5832414
  18.0942625  35.6717555  47.5215170  18.5336261  35.0634655  47.9669943
  17.9447288  35.2924928  46.7500635  18.1364091  35.5256026  47.4734338
  15.5614268  34.2661567  54.7233996  16.2063271  33.7734010  54.4044944
  15.8016045  34.4086353  55.5500074  15.6924853  34.2139009  54.7983529
  18.1000359  37.1116473  54.3740888  18.3823602  36.3167878  54.1527644
  18.8286520  37.5897060  54.3945949  18.2489923  37.0651070  54.3443903
  16.0781553  24.6539507  51.6156653  15.7484883  25.1050650  50.9460352
  15.4026555  24.5755670  52.1629660  15.9291990  24.7090642  51.5979877
  21.6951962  34.0244736  44.4745939  21.6103257  34.8805703  44.6195508
  22.1836345  33.7489060  45.1428099  21.7540859  34.1102058  44.5948021
  23.2857961  20.6425029  49.8606264  22.9711402  21.3328508  50.2926686
  22.7684903  20.5869812  49.1591765  23.1622431  20.7359918  49.8203213
  22.6270395  30.6429530  45.9743674  22.0981866  30.8589164  46.6340981
  23.1495415  31.3365669  45.8944644  22.6258848  30.7772667  46.0599274
  14.5170003  34.5392747  44.7751142  13.9327218  35.0442779  45.1817006
  14.1140098  34.3135134  44.0347734  14.3709306  34.5800995  44.7256168
  10.0714031  40.2547508  51.5774814   9.5881610  40.9797998  51.5534398
  10.8837350  40.5523638  51.6884972  10.1204779  40.4049862  51.5902093
  16.1428185  39.0479689  54.1824628  15.6255127  38.6887104  53.5785937
  16.8402577  38.5241863  54.1930695  16.1693766  38.9177377  54.0954887
  19.7991777  39.4974503  60.1440802  19.8875123  39.3100643  60.9919012
  20.2281490  38.8511933  59.7445648  19.8753880  39.3737511  60.2112553
  17.3662237  38.7805663  59.1258464  16.8033072  38.3678273  59.6498125
  18.1283261  38.7058569  59.5451607  17.3956686  38.7083064  59.2651464
  18.9747217  30.7858399  43.2520063  19.2143221  30.9936383  42.4395406
  19.2963058  29.9815908  43.3609008  19.0584375  30.6972500  43.1480616
  14.2837507  22.7151795  47.0979601  15.0383475  23.0830112  46.8596651
  14.1065042  23.0891349  47.8658781  14.3691986  22.8249983  47.1764490
  12.9258229  40.7703684  51.7295094  13.6278808  40.2555673  51.7867850
  12.8455712  41.0977836  52.5341969  13.0181989  40.7417910  51.8567886
  27.5772406  28.8646236  55.1427140  26.7400827  28.9348423  55.3774735
  27.5460637  28.8670730  54.2701443  27.4490688  28.8756463  55.0486688
  13.9737135  31.0079271  60.8575509  14.1457639  30.8985166  61.7060790
  14.5106493  31.6533677  60.6206701  14.0782139  31.0871273  60.9480606
  12.6394572  25.1222114  43.7957714  12.4570145  25.3393995  42.9698707
  13.5020185  25.2361127  43.8516328  12.7399161  25.1712012  43.6812201
  12.2509004  36.9610036  51.2380702  13.0897903  37.1932969  51.2854463
  12.2820773  36.0914348  51.1687737  12.3790722  36.8666983  51.2345347
  12.8761707  37.3810911  55.5394007  13.4159932  37.2382042  56.2097380
  12.1931653  37.7807662  55.9078034  12.8553861  37.4190582  55.6928429
  18.3194291  22.1248525  46.8306738  19.0480452  21.9464480  46.3844894
  18.4089184  22.9666604  47.0413916  18.4400953  22.2232403  46.7960255
  22.3002592  33.0601912  50.7339032  23.0560107  33.4933426  50.7727941
  22.4064916  32.4106682  51.3073668  22.4272762  33.0279396  50.8237057
  25.3382763  36.8875189  51.4841435  24.9017995  36.8911932  52.2400406
  25.0045678  37.5680688  51.0521012  25.2245383  36.9887645  51.5322267
  19.9111837  38.9283522  62.8084585  20.6952253  39.0414370  63.1740327
  19.7108431  38.1024659  63.0043271  19.9977862  38.8230242  62.8918971
   8.2798852  33.6011202  55.6928429   8.0137267  32.7850319  55.8519419
   8.2937416  33.6464358  54.8223944   8.2423574  33.4868107  55.5881911
  25.2580246  23.9289017  53.7270863  25.9006154  23.9987122  54.3132778
  25.5103267  23.2618240  53.2250405  25.3902378  23.8415366  53.7398142
  12.1856599  28.3996287  42.3080187  11.4714776  28.1134466  42.7202620
  12.6700568  28.7392912  42.9486575  12.1515962  28.4077936  42.4635822
  13.0297458  27.1389580  58.3395437  12.3369255  26.6686560  58.5856168
  13.6457786  26.9127885  58.9137144  13.0181988  27.0356712  58.4604589
  20.0682230  40.8393624  56.4551041  19.2697476  40.5993124  56.7124909
  20.5168241  40.8908017  57.2018088  20.0156841  40.8116015  56.6035965
  19.3603917  36.9026241  42.6841995  19.7755065  36.5711264  41.9926491
  18.5295847  36.6695143  42.5562132  19.2991926  36.8197497  42.5632843
   8.6892266  34.3869982  52.9740173   8.5067839  34.3616868  52.1212465
   9.4241935  34.8568919  53.0129082   8.7706330  34.4531344  52.8538092
  24.7591940  34.6221492  50.1173061  24.9947529  34.7666690  49.2899911
  24.9081504  35.3863900  50.5104574  24.8157743  34.7560546  50.0536665
  26.5882397  33.4623157  47.9542665  26.9190614  33.9950798  47.3482759
  27.1615485  33.5162045  48.6104616  26.7216076  33.5492726  47.9620446
  19.1282967  34.5854069  64.3471229  18.3355948  34.8997581  64.5323849
  19.2431894  34.8005537  63.5092013  19.0278377  34.6637906  64.2509564
  21.8014286  31.3088060  48.6366245  21.8961140  32.0477354  49.0905870
  21.1773129  30.8805536  49.0700809  21.7223316  31.3549381  48.7674392
  20.0566760  34.4874273  59.2856526  20.6305621  33.8501517  59.4405090
  19.9781563  34.4878355  58.4166183  20.1299994  34.3939384  59.1802936
   8.6563176  31.2663482  53.1239240   9.2336679  31.1299933  53.7631485
   7.9577238  30.8099266  53.3784824   8.6384197  31.1785748  53.2561529
  22.0537307  33.1536800  41.8703197  21.9717470  33.2238987  42.7358184
  22.6917028  33.7166544  41.6786937  22.1357144  33.2475771  41.9693146
  15.4130478  32.9197538  51.3377723  15.1549722  32.0869273  51.3109022
  15.4678961  33.1455151  50.4970223  15.3830256  32.8295309  51.2097860
  20.4931528  25.0225989  51.4381816  19.7887855  24.5335174  51.5965735
  20.5416503  25.0348463  50.5670260  20.3961580  24.9515637  51.3321155
  14.3865190  30.4735300  51.8242618  13.8114782  30.6327469  52.4606579
  14.0100867  29.8370710  51.3611068  14.2468003  30.4033113  51.8497176
  18.0538479  28.9458650  56.6834996  17.6652912  28.5212867  56.0287187
  17.3893177  29.1940799  57.1912023  17.8985407  28.9197371  56.6622864
  27.6961748  28.7033654  49.4582826  27.4398313  27.8913596  49.2680709
  28.5391062  28.7111222  49.2313014  27.7827774  28.5845652  49.3967643
   4.1322009  30.1175375  49.8387058   4.2182261  29.7407244  50.6200588
   4.7597807  29.7435821  49.3607017   4.2378560  30.0060857  49.8832536
  21.8764841  22.6433278  54.1958980  22.2575352  21.9611450  54.5826855
  21.0728125  22.3542881  54.0134645  21.8141302  22.5000327  54.2263036
  19.1577417  33.1757254  44.8811803  19.9718056  33.4672147  44.7694575
  19.0936559  32.5217117  44.3070096  19.2680156  33.1222449  44.7800640
  25.3786907  35.8583250  59.2941379  25.1425545  35.0271315  59.1753439
  26.0230136  35.8068858  59.8796223  25.4381578  35.7280938  59.3627272
  15.0285326  36.6478772  50.0084115  15.6659272  36.4090519  50.5535909
  15.4540397  36.8515931  49.2737276  15.1861492  36.6429782  49.9801273
   9.7197968  38.8867108  53.8918419   9.7602113  39.1581959  53.0638199
  10.2792492  39.4109016  54.3076207   9.8081314  39.0042863  53.8310307
  15.6688141  31.8681062  44.3459005  16.0533293  31.6488768  45.0975550
  15.4199761  32.6944007  44.4760081  15.6890213  31.9579208  44.4760081
  15.8356681  25.1487477  64.0621589  15.5210122  25.9187039  63.7991152
  15.5146614  24.5857733  63.4773816  15.7415600  25.1797745  63.9362939
  17.4106797  37.1251194  51.6877901  17.4845806  36.9626366  52.5419751
  18.2276304  37.3141384  51.4438383  17.5423156  37.1287937  51.7775927
  11.1712554  37.4709057  48.7172345  10.3450672  37.7170794  48.5906624
  11.2324545  37.3921138  49.5834403  11.0586721  37.4954006  48.8261289
  13.3888578  23.5377998  49.6767785  12.5211003  23.6100598  49.7425394
  13.6763782  24.3400077  49.8655760  13.3028326  23.6672145  49.7142552
  22.5121467  23.6855858  58.0079107  23.2575059  23.4965668  57.5942532
  22.0958771  24.2114096  57.4492963  22.5606441  23.7358003  57.8643680
  15.9511383  40.0885937  46.4191375  16.2409682  39.6974919  45.6950601
  16.6814864  40.2702642  46.8596650  16.1018267  40.0579751  46.3774182
  16.5406128  34.8903683  57.5044505  16.0417822  35.6019451  57.5829394
  17.3506353  35.2104350  57.4662668  16.5862235  35.0430532  57.5101074
  13.8917299  42.0653320  49.4851525  13.6717594  41.7750675  50.2778192
  13.6711821  41.4068275  48.9569437  13.8264893  41.9253028  49.5240433
  12.8034246  34.1526636  51.7507226  12.5147495  33.5264108  52.2852954
  13.6717594  34.0946924  51.8171907  12.8894498  34.0514181  51.8398181
  23.5912144  29.2961420  52.0689208  23.2476910  28.5751755  52.4196458
  23.6905186  29.0875271  51.2267566  23.5554187  29.1585623  51.9960888
  16.0585254  43.4382710  48.2682217  16.7109313  42.9059152  48.4973243
  15.3610863  43.0851362  48.6550091  16.0515972  43.3072233  48.3594385
  13.0066519  35.7921887  47.6749591  13.7612487  36.1734926  47.8885054
  12.4137132  36.2433031  48.1296288  13.0303233  35.9150715  47.7732470
  24.0525173  35.7587124  47.6113196  24.6183205  36.4180334  47.5271739
  23.4053076  36.1036822  48.0829598  24.0403929  35.9069065  47.6685953
  15.4673186  27.7484728  62.8006804  14.6572962  28.0542507  62.6896646
  15.9447873  28.4690310  62.9159388  15.4176665  27.8999329  62.8013875
  14.3264746  36.9630449  53.0489707  13.8045499  37.1030740  53.7341571
  14.7138766  36.2041113  53.2391824  14.3068447  36.8715973  53.1790783
  11.3155930  27.0136257  47.1184661  11.0280726  26.6437528  46.3816609
  12.0026398  27.4831113  46.8568366  11.3744827  27.0283227  46.9699737
  20.5231751  38.7025908  47.0350275  20.2818427  37.9693769  46.6277340
  20.7033084  39.2512765  46.3816609  20.5139375  38.6748299  46.8780498
  15.7531072  33.9934468  48.4471198  15.5573854  34.6009202  47.8531501
  15.9765417  33.3002412  47.9662872  15.7565713  33.9811993  48.2887279
  14.1509602  30.8789206  48.5652066  14.8732253  31.0430364  48.1055872
  13.6717594  31.5998871  48.4591406  14.1873332  31.0087435  48.4817680
  22.1103109  27.2153004  53.9448751  21.2714210  27.2414283  53.7087014
  22.1807476  27.8623740  54.5254098  21.9971503  27.3149130  53.9957868
  11.8017218  33.2847278  57.6706206  12.3138315  33.5631531  57.0214966
  11.5153561  34.0236572  58.0369019  11.8352081  33.4349632  57.6296084
  20.5572387  24.1138382  48.6776367  21.2598740  23.9146130  48.1996325
  20.2916576  23.3414324  48.9845210  20.6219020  23.9701348  48.6521809
   8.8884125  27.7917470  47.9669942   8.9900261  28.5943631  48.2950918
   9.6840011  27.5904806  47.6693023   9.0212030  27.8803369  47.9705298
  15.3200944  25.3773667  57.7307248  15.1284141  25.3928801  58.5806671
  16.1699540  25.5737341  57.7073902  15.4176666  25.4088018  57.8530542
   9.7047857  27.9064648  55.7091064   9.5633348  27.0548589  55.8335572
   9.9888420  27.9493309  54.8853270   9.7255703  27.7864398  55.6058688
  19.8586449  29.7431738  49.8535552  19.6121163  29.6627489  50.6872341
  20.1871572  28.9585206  49.6598080  19.8707693  29.6158004  49.9483075
  23.7534498  36.4515098  53.6422334  23.6148857  37.1496144  54.1471076
  22.9734496  36.2963754  53.2858515  23.6177725  36.5315264  53.6648608
  22.0912583  32.7511473  59.8944715  22.0860621  31.8791290  59.8987142
  22.7973577  32.9499642  59.4214171  22.1957587  32.6515347  59.8251751
  15.8183476  32.4788457  59.2658535  15.9626852  33.0589665  58.6301645
  16.1659125  32.8564754  59.9708390  15.8910938  32.6209161  59.2757530
  17.9903394  31.6778625  57.0483667  17.2426708  31.8709640  56.6431945
  18.1444919  30.8523845  56.8107788  17.9025821  31.5843737  56.9529073
  14.8911231  40.6691229  56.1319562  15.0400795  40.1094145  55.4792967
  15.6711233  40.7483230  56.5152081  15.0285325  40.5976794  56.0916511
  25.2487871  35.8093351  44.4038833  24.8694679  35.0230489  44.3968122
  24.5854116  36.3580208  44.2610477  25.0946345  35.7738175  44.3819630
  17.4164532  40.8405872  57.4104053  17.3408203  40.1714682  57.9654841
  17.3454391  41.5423660  57.9244719  17.3945139  40.8450779  57.5680901
  18.2305171  25.5729176  57.9379071  18.6877785  26.3053150  58.0651863
  18.3061499  25.1495641  58.6966327  18.3096141  25.6186414  58.0680147
  10.4738162  25.8194996  59.0268514   9.9380351  25.2075354  59.3429282
  10.5355927  26.3943132  59.6802181  10.4033795  25.8141924  59.1703941
  22.7032497  18.7519051  51.8072914  22.8216065  19.2095515  51.0740216
  22.5294672  17.9464312  51.5209131  22.6951668  18.7012823  51.6573847
  18.0734779  39.3606871  48.2427659  18.8384670  39.0916514  47.9210323
  17.9712869  38.8756881  48.9597722  18.1716274  39.2496435  48.3007487
  16.1087549  27.5631280  54.7820895  15.3183623  27.3822740  55.1038231
  16.5048171  26.7858233  54.7651189  16.0504425  27.4218741  54.8273443
  21.4931235  35.1973710  52.5080341  20.8176237  34.9658942  53.0093728
  21.5023611  34.5894893  51.8822446  21.3949739  35.0732635  52.4896493
  18.6225379  30.0391539  59.2644394  18.5584520  30.9001496  59.1364530
  18.7622567  29.7223532  58.4639945  18.6340849  30.1191706  59.1272607
  17.3044473  32.7323678  53.4060597  16.8806722  32.9328177  52.6699615
  17.1289328  31.8852526  53.5184896  17.2155353  32.6372460  53.3134287
  16.8056166  44.2474191  55.8682054  17.2952097  43.5484981  55.6857718
  16.2340399  43.9498061  56.4558111  16.7940696  44.1000415  55.9283095
  12.5926918  33.2275730  48.8388569  12.7491537  33.1622533  49.6944561
  12.9327511  34.0024282  48.6267249  12.6660153  33.3324928  48.9343163
  19.1306062  32.6033613  47.7081932  19.6721608  32.1003995  48.1720553
  19.4452621  32.5498808  46.8971418  19.2570459  32.5213034  47.6565744
  23.0023170  36.8136261  64.8208845  23.8158035  36.5421410  64.9813977
  22.8418136  36.5143801  64.0169040  23.0993118  36.7291187  64.7254250
  17.2992512  37.9950965  44.9921960  17.3685332  37.1365503  45.1314961
  18.0780967  38.2122846  44.6640985  17.4245362  37.9003829  44.9639118
  20.2795332  27.4969918  57.7604233  20.4937301  26.8580832  57.2067587
  19.6629231  27.9415742  57.3312095  20.2200661  27.4680062  57.6154664
  21.6900000  40.4188666  49.2058454  21.2979791  40.1155381  48.4881320
  21.8453072  41.2557756  49.0163407  21.6553590  40.4972503  49.0714951
   9.1661179  30.4110680  49.1549336   9.5460144  30.8295225  48.4909604
   8.5916544  30.9924136  49.4618180   9.1372504  30.5588539  49.1026077
  22.4434420  29.1058983  58.6987540  21.6311101  28.7984874  58.7800713
  22.9024354  28.6257983  59.2630252  22.3914805  28.9895476  58.7942134
  21.8539674  36.9838655  49.1464484  21.4954329  37.1553298  49.9228517
  21.3678385  37.4451861  48.5892483  21.7298371  37.0777626  49.1789753
  19.6710060  20.6069854  52.7491576  18.8003618  20.5808575  52.7024885
  19.9250402  20.4347046  51.9317421  19.5803620  20.5779997  52.6211712
  16.6428040  32.6637821  41.6864719  16.9320565  33.4402703  41.9608293
  16.7299839  32.1526552  42.3879218  16.6982296  32.7029739  41.8307216
  19.5387927  30.5119055  63.4816242  20.0087558  31.1361171  63.8684116
  19.5849807  29.8436030  64.0409457  19.6155803  30.5053735  63.6216314
  16.6959201  22.6176082  54.2065046  16.1797689  21.9256274  54.3316625
  16.1353130  23.2846859  54.1527645  16.5365714  22.6139340  54.2171112
  18.7651434  23.1569042  56.0357899  18.3783187  23.1818074  56.8171428
  18.2784372  22.5910721  55.5832415  18.6363943  23.0764793  56.0845802
  23.0144414  37.8742551  60.0931685  23.6524134  37.3802747  59.7594141
  22.3718505  37.8019952  59.5083912  23.0138640  37.7901560  59.9574040
  24.7401414  29.7231697  54.6597601  24.3129022  29.6358046  53.9045700
  24.1027467  29.8309473  55.2452445  24.5831021  29.7264357  54.6343042
  18.4308576  20.0436028  58.3268158  19.0601694  20.5796328  58.0489229
  18.5994439  19.9513387  59.1781724  18.5486371  20.1097390  58.4116687
  18.2322491  24.8307222  60.5994570  19.0595920  24.5592371  60.6553184
  18.2530337  25.6268064  60.9558388  18.3575341  24.9086977  60.6609753
  23.0698670  38.5662359  56.7337042  23.8591049  38.2151424  56.8539123
  23.2442268  39.3798748  56.4713676  23.2118952  38.6348216  56.7124910
  12.8091981  31.9771085  53.7864831  11.9679987  31.8774959  53.9943725
  13.0181989  32.7466565  54.1379151  12.7156673  32.0763128  53.8692146
  10.2867548  29.5990622  51.6149581   9.8924245  29.6733634  50.8399691
   9.7307665  29.9848568  52.1657943  10.1470360  29.6672397  51.5817241
  21.9232495  22.5771916  51.2953460  22.1282088  22.5094224  52.1410457
  21.5958919  23.3830737  51.2274638  21.9047742  22.6857856  51.4113115
  16.6208646  29.9052484  53.0362428  16.3171783  29.3508473  53.6372836
  15.9188066  30.0844694  52.5490462  16.4724855  29.8497267  53.0532134
  15.6774743  27.2153004  47.6007130  15.9534477  26.4971917  47.1884698
  16.2773412  27.8137924  47.3928236  15.8068007  27.1973375  47.5087891
  14.6826997  37.1202205  57.7434526  14.5747352  37.1304267  58.6096584
  14.8922778  37.9456985  57.5539480  14.6977108  37.2443280  57.8438618
  25.1766182  23.1303680  50.7756226  24.5640496  23.6174082  51.1609958
  25.2730357  22.4547171  51.3193877  25.1004080  23.1021989  50.9135084
  19.1785263  24.8866521  45.8753725  19.6329010  25.0577082  46.6001570
  19.6525309  24.2734632  45.4751501  19.3153583  24.8217407  45.9227487
  12.7000789  34.3714847  55.2056464  12.1088722  35.0124346  55.1759479
  13.4621812  34.7952465  55.1787763  12.7249049  34.5290686  55.1971611
  13.0961411  25.5316845  55.8724481  13.5562893  25.6055775  56.6099605
  13.1417518  26.3298099  55.5224303  13.1711967  25.6610992  55.9297238
  14.7444761  26.1983540  60.4396508  14.3530326  25.5516887  60.8752286
  14.9130624  26.7894975  61.0590764  14.7115672  26.1897808  60.5959214
  22.4590305  39.8224159  52.6388488  22.2609994  40.3114973  51.9444699
  21.8378016  40.0265400  53.2172621  22.3377869  39.9240697  52.6211711
  16.5198283  31.5909056  46.9798732  17.2640328  31.9783332  47.2181682
  16.6658979  30.7466481  47.1439220  16.6508868  31.5239529  47.0392702
  18.4377859  23.3859315  52.0130594  17.5913904  23.5582122  51.8871944
  18.4348991  22.5808658  52.3496422  18.3125009  23.2920344  52.0441721
  19.5076159  27.1634529  52.8792652  19.0336113  26.6376291  53.3897963
  19.8794295  26.6164002  52.3107513  19.4926048  27.0050526  52.8707799
   9.8849189  29.1606036  58.2476197  10.7474802  29.0601745  58.1613527
   9.5540972  28.5800745  57.6861770   9.9634386  29.0597663  58.1521603
  21.4359659  28.0571084  45.9418405  20.9082677  28.1399828  45.2524114
  21.8955367  28.7988955  45.9383050  21.4261509  28.1791746  45.8393101
  24.3764107  33.3888311  58.1733736  25.0998306  32.9360838  57.9944756
  24.1114069  33.6692977  57.3906064  24.4445380  33.3639280  58.0312452
  13.2450975  27.9848485  54.9086616  12.6204045  27.9966877  54.3012568
  12.9096570  28.4608660  55.5577856  13.1036467  28.0567002  54.9143184
  13.4292724  26.3273603  40.9659301  13.0805528  26.9793329  41.4290850
  12.9489170  26.3130716  40.2383172  13.3062968  26.4216657  40.9270392
   9.9576651  36.0448945  56.3490380   9.4276575  35.3541384  56.3985355
  10.2301744  36.0359130  55.5203088   9.9201373  35.9416077  56.2337796
  20.9896741  36.6274647  45.0728062  21.7130940  37.0932760  44.9292636
  20.5497332  36.6948257  44.3225659  21.0312433  36.7058484  44.9412844
  20.1582896  33.4872190  56.3228751  19.5439889  32.9430240  56.6177387
  20.6750181  32.9736426  55.8434568  20.1438559  33.3308599  56.2952980
  19.3979194  34.5576460  54.0573050  18.9706802  33.9326178  53.6238486
  19.3904138  34.2751381  54.8832057  19.3338335  34.4229240  54.1152878
  12.5141721  29.5941633  57.1261484  12.6735207  28.8384957  57.5313206
  12.3334614  30.1432572  57.7802222  12.5107080  29.5635446  57.2824190
  20.4562024  21.7602868  57.6812274  19.9602585  21.9566542  56.9903840
  21.2131086  22.1595536  57.5101075  20.4948848  21.8480602  57.5532410
  17.7264903  25.4345214  54.2715584  17.7507390  24.9005326  53.5828364
  17.9776377  24.9262523  54.9341175  17.7674822  25.2806118  54.2680229
   5.2372493  32.7176709  53.7058728   5.1315942  32.6723553  52.8410812
   4.4872713  33.0630490  53.9873013   5.1108096  32.7617617  53.6196058
  14.0066225  24.1616032  53.6521328  14.0464597  24.6625239  54.3656036
  13.1815890  24.2526426  53.3827251  13.8905751  24.2497849  53.7171867
  16.1895838  33.7276772  61.7541623  15.3391469  33.8648487  61.8899268
  16.3523966  32.9940551  62.1989325  16.0879702  33.6390874  61.8397222
  15.4280589  30.6776542  55.9495227  14.5972518  30.8450360  55.7430476
  15.3732106  30.3012493  56.7344113  15.2970004  30.6466273  56.0343756
  13.2364372  24.1685435  61.5851638  13.8617075  23.6247568  61.8581070
  12.7814852  23.6880353  61.0159429  13.2612633  24.0174916  61.5413232
  13.8016633  28.9532134  46.4785345  13.9419594  29.4504598  47.1813987
  14.2999165  28.2518428  46.6199559  13.8957714  28.9234112  46.6036924
  13.8316855  29.8199245  43.8077922  14.4661934  30.4159670  43.7427384
  13.9142466  29.5202702  44.6223792  13.9373406  29.8640153  43.9181009
  26.8099421  32.3514722  56.6764286  27.4017261  32.9911973  56.7082484
  27.2458415  31.6537759  56.9656353  26.9617852  32.3433072  56.7245119
  15.4095838  25.7513220  43.7823364  15.7311679  25.2716303  43.1282626
  15.6722782  26.5612866  43.5914176  15.4961863  25.8003118  43.6578856
  18.6392811  36.7732094  57.3022180  18.1317902  37.3267941  57.7462811
  18.3419457  36.8340384  56.4840955  18.5197696  36.8638406  57.2470637
  20.8054993  25.1385414  56.1446843  21.2310064  24.6857941  55.5330369
  20.1911986  24.5845485  56.4211631  20.7783638  24.9899390  56.0951868
  10.3369843  32.0167085  47.0767468  10.8462072  32.6131593  47.4578774
  10.8104115  31.7493059  46.3943888  10.4813219  32.0652901  47.0321991
  21.2500591  40.6895352  45.2326124  20.5329901  40.5156214  44.7673361
  21.9007329  40.4547924  44.7001610  21.2402441  40.6291145  45.0855341
  19.2449216  21.6100514  49.5537420  18.6017534  21.4598160  50.1222559
  18.9048623  21.3642859  48.7886525  19.0994293  21.5512636  49.5240435
  23.8348562  29.5659941  48.9767429  23.1639752  30.1089643  48.8480494
  24.5288312  30.0354796  48.7349123  23.8377430  29.7158212  48.9222956
  17.8835296  41.7056653  54.2079187  17.6600950  40.9475482  54.5763213
  17.3945139  41.7354674  53.4859627  17.7778745  41.5978877  54.1555928
  23.9976690  26.0215824  51.8857802  24.3504300  25.5945547  52.5603601
  23.1391491  25.9366668  52.0158878  23.9226134  25.9460565  52.0052812
  12.6960375  28.6523344  49.9440648  11.9772364  29.0687477  50.2113512
  13.0672737  29.2177583  49.3932287  12.6452306  28.7972625  49.9023455
  21.9959955  29.2851193  55.8342644  21.9757883  29.1034488  56.6877423
  22.0439156  30.1563211  55.8102228  21.9994596  29.3867731  55.9565939
  19.9406285  35.8738385  61.7591121  19.9002140  35.2288062  61.1736277
  20.7529604  35.8175002  62.0716533  20.0549439  35.7697352  61.7188070
  16.5313753  41.9257111  51.6616272  16.1174151  41.2631241  51.2720113
  17.2161127  42.0734970  51.1411966  16.5712125  41.8497769  51.5272769
  19.8979047  41.0847196  52.4139888  19.4995330  41.1949466  51.6460708
  19.2830267  41.2929262  52.9966448  19.7477936  41.1320764  52.3871188
  18.4706949  27.6921344  45.2814028  17.8771788  28.0138340  44.7298595
  18.5082227  26.8462439  45.0735134  18.3881338  27.6145672  45.1696799
  25.4300750  21.1434236  52.8142114  24.9231614  20.4363376  52.7463292
  26.2268183  20.8127425  52.9443191  25.4727989  20.9907388  52.8241109
  21.3464766  27.6500848  48.7115778  21.1178459  27.6733550  47.8694136
  21.6062842  26.8258315  48.8310789  21.3510954  27.5316928  48.6040976
  15.6283994  29.5035321  58.3140878  15.1162897  28.8956504  58.6725910
  15.4563490  30.2191914  58.7814854  15.5273631  29.5198621  58.4357102
  10.4749709  27.9472897  60.9643240  10.3052299  28.6074272  60.4191447
  10.0315659  28.1579458  61.6855729  10.3849042  28.0758879  60.9904870
  27.6320890  35.6599163  45.7982979  28.0154495  36.4090519  46.0281076
  26.8365003  35.9064982  45.5394968  27.5714672  35.8068857  45.7940552
  19.5053064  27.4259566  60.7543134  20.0624495  27.1973376  60.1221599
  19.1814129  28.1865232  60.4778346  19.5399475  27.5043403  60.6199631
   7.3751773  30.8519762  56.2231730   6.8278493  30.1820408  56.3412598
   8.1644151  30.4849610  56.2875197   7.4103957  30.6984749  56.2500430
  17.2236182  30.5127219  61.7195141  17.9747509  30.8278896  62.0334695
  17.4158758  30.3106390  60.8929063  17.3627596  30.5294601  61.6438537
  16.4436181  28.3318595  43.3743358  16.8235146  28.3498224  42.5894472
  15.7028777  28.7772583  43.2534205  16.3905019  28.4000369  43.2406926
  24.0721472  26.6400786  48.9618936  24.0715698  26.4849442  49.8203213
  23.8677652  27.4863773  48.9060322  24.0421250  26.7421406  49.0806876
   6.1338743  30.0640570  53.3777753   5.9560504  29.6117179  54.1032669
   5.8457765  30.8666732  53.5616231   6.0651696  30.1163128  53.5121256
  21.7962324  31.3198288  52.6155143  22.2915989  30.6021283  52.5759164
  20.9862100  31.0169085  52.5009630  21.7506217  31.1695934  52.5928869
  17.2420935  35.1696101  44.7652148  16.4332258  34.8462774  44.7185457
  17.7495844  34.4629323  44.6980396  17.1970602  35.0177417  44.7482442
   7.8711213  32.5968294  50.4899512   7.0056732  32.5853984  50.3782283
   7.9710028  32.4098517  51.3370651   7.7585380  32.5674355  50.5988456
  23.8614143  34.0701975  55.3032272  24.2869214  33.5476397  54.7502697
  23.4971063  34.6682812  54.7820895  23.8700745  34.0812202  55.1441282
  13.4968222  42.3666193  54.0629618  13.8114781  43.1802581  54.0707399
  13.9061636  41.9816411  54.7311777  13.6036320  42.4294895  54.1633709
  20.4492742  37.7836239  51.6333430  20.9203920  38.4976502  51.8023415
  20.7852921  37.1834989  52.1693299  20.5687857  37.8007704  51.7365805
  22.5369727  39.3937553  63.8125502  22.6466692  38.6046113  64.1682249
  22.8660623  39.3043489  63.0099840  22.6022133  39.2643406  63.7467892
  17.3662237  22.5563710  58.5891524  17.4990143  21.7594703  58.9172500
  17.7507390  23.0830113  59.1689800  17.4418566  22.5163627  58.7235027
  21.0866688  37.5754173  58.3961122  20.5387634  36.9512057  58.1281187
  21.5479717  37.7648445  57.6805202  21.0733898  37.5113224  58.2511553
  20.4394592  19.4794036  55.1872618  19.6340556  19.3691766  55.5040456
  20.3101328  19.5806492  54.3302483  20.3014725  19.4777706  55.1080658
  23.8960553  25.6439528  55.7812314  23.3123542  26.1448734  55.3689882
  24.2164847  25.1369084  55.1476638  23.8573728  25.6431363  55.6270822
  16.4355352  24.5580123  46.0570989  17.2571046  24.7278436  45.8152684
  15.9725003  24.7127384  45.3337287  16.4886514  24.6061856  45.9142634
  15.0250684  22.5522885  56.8369418  15.5695097  22.2114012  57.4273760
  15.0787620  23.4108347  56.9790703  15.1139803  22.6278144  56.9451291
  10.8381243  36.3139301  53.7108226  11.4426100  36.2735135  53.0822047
  10.6308555  37.1610453  53.7412282  10.8970140  36.4327303  53.6224342
  20.6525015  38.5805246  54.9270463  21.4723389  38.4368212  55.1886759
  20.3719092  39.2051445  55.4686901  20.7321758  38.6515598  55.0458403
   6.0732525  35.2973919  53.5807149   5.9756803  34.4870190  53.8897206
   6.8561395  35.2765712  53.1953417   6.1748661  35.1741009  53.5694012
  30.3238350  45.3245749  52.6466270  29.4676246  45.4854247  52.6975387
  30.3706004  44.4537813  52.6671331  30.2037461  45.2196551  52.6572336
  24.7079490  54.8608467  48.4103502  23.9562389  54.4824005  48.1819547
  25.1565501  54.8926900  47.6622312  24.6629157  54.8094074  48.2661004
  33.6332067  51.5932274  62.2526726  34.3398834  51.0984305  62.3813661
  33.8220002  52.0341356  61.5229384  33.7659972  51.5850625  62.1635772
  30.1604450  55.2833836  43.8389049  29.8255818  55.9610758  43.4033271
  30.6731320  54.8939147  43.2505920  30.1870031  55.3258414  43.6875840
  29.7008741  57.2348105  49.7800160  30.0848120  57.8035004  49.2404936
  29.6367882  56.5097615  49.3005976  29.7482168  57.2123568  49.6294023
  33.1690171  47.3837793  55.2897922  33.7146131  48.0622879  55.3491891
  33.1107047  47.2425254  54.4299503  33.2406085  47.4629794  55.1709982
  26.2864246  54.8726859  50.6766274  26.3874609  54.0627213  50.9863402
  25.6905991  54.7783805  50.0465953  26.2136785  54.7391887  50.6292513
  26.1264985  59.7904448  52.0781130  26.7702441  60.2317612  52.4677289
  26.4521241  58.9857874  51.9911389  26.2696814  59.7369643  52.1226608
  19.4829290  50.8947145  50.3018608  19.2479475  50.0614798  50.1950877
  19.6214931  51.1751811  49.4879809  19.4684953  50.8130649  50.1660963
  21.7819378  43.0632876  53.2002916  21.1624409  42.4725523  53.0312930
  21.6803241  43.6544311  52.5667239  21.6757053  43.0636959  53.0807905
  26.8285565  52.8016423  47.4500992  27.1501406  53.3421630  46.8462300
  27.4757662  52.2313194  47.5823282  26.9711620  52.7975598  47.3808027
  21.5088511  46.6085158  55.4446485  21.3847207  47.1947603  56.0796303
  22.1606795  46.1145353  55.7458760  21.5862160  46.6223962  55.5832414
  29.0675209  51.1902863  47.5215170  29.5068844  50.5819963  47.9669943
  28.9179872  50.8110236  46.7500635  29.1096674  51.0441334  47.4734338
  26.5346852  49.7846875  54.7233996  27.1795854  49.2919318  54.4044944
  26.7748629  49.9271661  55.5500074  26.6657437  49.7324317  54.7983529
  29.0732943  52.6301781  54.3740888  29.3556186  51.8353186  54.1527644
  29.8019103  53.1082368  54.3945949  29.2222507  52.5836377  54.3443903
  32.6684545  49.5430044  44.4745939  32.5835840  50.3991011  44.6195508
  33.1568928  49.2674368  45.1428099  32.7273442  49.6287366  44.5948021
  25.4902586  50.0578055  44.7751142  24.9059801  50.5628086  45.1817006
  25.0872681  49.8320442  44.0347734  25.3441890  50.0986303  44.7256168
  21.0446615  55.7732816  51.5774814  20.5614193  56.4983306  51.5534398
  21.8569933  56.0708946  51.6884972  21.0937363  55.9235170  51.5902093
  27.1160769  54.5664997  54.1824628  26.5987711  54.2072412  53.5785937
  27.8135160  54.0427171  54.1930695  27.1426350  54.4362685  54.0954887
  30.7724361  55.0159811  60.1440802  30.8607707  54.8285951  60.9919012
  31.2014073  54.3697241  59.7445648  30.8486463  54.8922819  60.2112553
  28.3394821  54.2990971  59.1258464  27.7765655  53.8863581  59.6498125
  29.1015844  54.2243877  59.5451607  28.3689269  54.2268372  59.2651464
  23.8990812  56.2888992  51.7295094  24.6011391  55.7740981  51.7867850
  23.8188295  56.6163143  52.5341969  23.9914573  56.2603218  51.8567886
  24.9469719  46.5264579  60.8575509  25.1190222  46.4170474  61.7060790
  25.4839076  47.1718985  60.6206701  25.0514723  46.6056581  60.9480606
  23.2241588  52.4795344  51.2380702  24.0630487  52.7118277  51.2854463
  23.2553357  51.6099656  51.1687737  23.3523305  52.3852291  51.2345347
  23.8494291  52.8996219  55.5394007  24.3892515  52.7567350  56.2097380
  23.1664237  53.2992970  55.9078034  23.8286444  52.9375890  55.6928429
  33.2735175  48.5787220  50.7339032  34.0292690  49.0118734  50.7727941
  33.3797500  47.9291990  51.3073668  33.4005346  48.5464704  50.8237057
  36.3115347  52.4060497  51.4841435  35.8750578  52.4097240  52.2400406
  35.9778262  53.0865996  51.0521012  36.1977966  52.5072953  51.5322267
  30.8844420  54.4468830  62.8084585  31.6684837  54.5599678  63.1740327
  30.6841015  53.6209967  63.0043271  30.9710446  54.3415549  62.8918971
  19.2531436  49.1196510  55.6928429  18.9869851  48.3035627  55.8519419
  19.2670000  49.1649666  54.8223944  19.2156158  49.0053415  55.5881911
  24.0030042  42.6574888  58.3395437  23.3101839  42.1871868  58.5856168
  24.6190369  42.4313193  58.9137144  23.9914572  42.5542020  58.4604589
  31.0414813  56.3578932  56.4551041  30.2430059  56.1178432  56.7124909
  31.4900825  56.4093325  57.2018088  30.9889425  56.3301323  56.6035965
  30.3336500  52.4211549  42.6841995  30.7487649  52.0896572  41.9926491
  29.5028430  52.1880451  42.5562132  30.2724509  52.3382804  42.5632843
  19.6624849  49.9055290  52.9740173  19.4800422  49.8802176  52.1212465
  20.3974518  50.3754227  53.0129082  19.7438913  49.9716652  52.8538092
  22.7270601  46.6240292  59.4822282  23.4510573  46.6093323  59.9687177
  22.8286737  47.3335648  58.9844250  22.8488810  46.7264996  59.4801069
  30.1015550  50.1039377  64.3471229  29.3088531  50.4182889  64.5323849
  30.2164477  50.3190845  63.5092013  30.0010961  50.1823214  64.2509564
  31.0299343  50.0059581  59.2856526  31.6038205  49.3686825  59.4405090
  30.9514147  50.0063663  58.4166183  31.1032578  49.9124692  59.1802936
  19.6295760  46.7848790  53.1239240  20.2069262  46.6485241  53.7631485
  18.9309821  46.3284574  53.3784824  19.6116781  46.6971056  53.2561529
  26.3863062  48.4382846  51.3377723  26.1282306  47.6054581  51.3109022
  26.4411545  48.6640459  50.4970223  26.3562840  48.3480617  51.2097860
  25.3597774  45.9920608  51.8242618  24.7847365  46.1512777  52.4606579
  24.9833450  45.3556017  51.3611068  25.2200586  45.9218421  51.8497176
  29.0271063  44.4643958  56.6834996  28.6385495  44.0398175  56.0287187
  28.3625761  44.7126107  57.1912023  28.8717990  44.4382679  56.6622864
  15.1054593  45.6360683  49.8387058  15.1914845  45.2592551  50.6200588
  15.7330390  45.2621129  49.3607017  15.2111144  45.5246165  49.8832536
  30.1310001  48.6942562  44.8811803  30.9450640  48.9857455  44.7694575
  30.0669142  48.0402425  44.3070096  30.2412740  48.6407757  44.7800640
  36.3519491  51.3768558  59.2941379  36.1158128  50.5456623  59.1753439
  36.9962720  51.3254166  59.8796223  36.4114162  51.2466246  59.3627272
  26.0017909  52.1664080  50.0084115  26.6391856  51.9275827  50.5535909
  26.4272981  52.3701239  49.2737276  26.1594075  52.1615090  49.9801273
  20.6930551  54.4052416  53.8918419  20.7334697  54.6767267  53.0638199
  21.2525076  54.9294324  54.3076207  20.7813897  54.5228171  53.8310307
  26.8089265  40.6672785  64.0621589  26.4942706  41.4372347  63.7991152
  26.4879197  40.1043041  63.4773816  26.7148184  40.6983053  63.9362939
  37.3755912  51.1613007  55.3569673  37.0701729  51.8941064  55.7182989
  36.6562127  50.7550937  55.0762459  37.2243254  51.2094740  55.3682810
  28.3839381  52.6436502  51.6877901  28.4578389  52.4811674  52.5419751
  29.2008887  52.8326692  51.4438383  28.5155740  52.6473245  51.7775927
  22.1445138  52.9894365  48.7172345  21.3183255  53.2356102  48.5906624
  22.2057129  52.9106446  49.5834403  22.0319305  53.0139314  48.8261289
  24.3621161  39.0563306  49.6767785  23.4943587  39.1285906  49.7425394
  24.6496366  39.8585385  49.8655760  24.2760910  39.1857453  49.7142552
  33.4854050  39.2041165  58.0079107  34.2307642  39.0150976  57.5942532
  33.0691355  39.7299403  57.4492963  33.5339024  39.2543311  57.8643680
  26.9243967  55.6071245  46.4191375  27.2142265  55.2160227  45.6950601
  27.6547448  55.7887950  46.8596650  27.0750851  55.5765059  46.3774182
  27.5138712  50.4088991  57.5044505  27.0150406  51.1204759  57.5829394
  28.3238936  50.7289658  57.4662668  27.5594819  50.5615840  57.5101074
  24.8649882  57.5838628  49.4851525  24.6450178  57.2935982  50.2778192
  24.6444404  56.9253583  48.9569437  24.7997477  57.4438336  49.5240433
  23.7766830  49.6711944  51.7507226  23.4880078  49.0449416  52.2852954
  24.6450178  49.6132232  51.8171907  23.8627081  49.5699489  51.8398181
  27.0317838  58.9568018  48.2682217  27.6841896  58.4244460  48.4973243
  26.3343447  58.6036670  48.6550091  27.0248556  58.8257541  48.3594385
  23.9799103  51.3107195  47.6749591  24.7345071  51.6920234  47.8885054
  23.3869716  51.7618339  48.1296288  24.0035816  51.4336023  47.7732470
  35.0257756  51.2772432  47.6113196  35.5915789  51.9365642  47.5271739
  34.3785660  51.6222130  48.0829598  35.0136513  51.4254373  47.6685953
  26.4405770  43.2670036  62.8006804  25.6305546  43.5727815  62.6896646
  26.9180457  43.9875618  62.9159388  26.3909249  43.4184637  62.8013875
  25.2997330  52.4815757  53.0489707  24.7778083  52.6216048  53.7341571
  25.6871350  51.7226421  53.2391824  25.2801030  52.3901281  53.1790783
  22.2888514  42.5321565  47.1184661  22.0013309  42.1622836  46.3816609
  22.9758982  43.0016421  46.8568366  22.3477411  42.5468535  46.9699737
  31.4964334  54.2211216  47.0350275  31.2551010  53.4879077  46.6277340
  31.6765667  54.7698073  46.3816609  31.4871958  54.1933607  46.8780498
  26.7263655  49.5119776  48.4471198  26.5306438  50.1194510  47.8531501
  26.9498001  48.8187720  47.9662872  26.7298296  49.4997301  48.2887279
  33.0835693  42.7338312  53.9448751  32.2446793  42.7599591  53.7087014
  33.1540060  43.3809048  54.5254098  32.9704086  42.8334438  53.9957868
  22.7749802  48.8032586  57.6706206  23.2870899  49.0816839  57.0214966
  22.4886144  49.5421880  58.0369019  22.8084665  48.9534940  57.6296084
  19.8616708  43.3102778  47.9669942  19.9632845  44.1128939  48.2950918
  20.6572595  43.1090114  47.6693023  19.9944614  43.3988677  47.9705298
  26.2933527  40.8958975  57.7307248  26.1016724  40.9114109  58.5806671
  27.1432123  41.0922649  57.7073902  26.3909249  40.9273326  57.8530542
  20.6780440  43.4249956  55.7091064  20.5365932  42.5733897  55.8335572
  20.9621004  43.4678617  54.8853270  20.6988286  43.3049706  55.6058688
  34.7267081  51.9700406  53.6422334  34.5881441  52.6681451  54.1471076
  33.9467079  51.8149062  53.2858515  34.5910308  52.0500572  53.6648608
  33.0645167  48.2696781  59.8944715  33.0593205  47.3976598  59.8987142
  33.7706160  48.4684950  59.4214171  33.1690171  48.1700655  59.8251751
  26.7916060  47.9973765  59.2658535  26.9359436  48.5774973  58.6301645
  27.1391708  48.3750062  59.9708390  26.8643521  48.1394469  59.2757530
  28.9635977  47.1963933  57.0483667  28.2159291  47.3894948  56.6431945
  29.1177502  46.3709153  56.8107788  28.8758405  47.1029045  56.9529073
  25.8643815  56.1876537  56.1319562  26.0133379  55.6279453  55.4792967
  26.6443817  56.2668538  56.5152081  26.0017909  56.1162102  56.0916511
  28.3897116  56.3591180  57.4104053  28.3140787  55.6899990  57.9654841
  28.3186975  57.0608968  57.9244719  28.3677722  56.3636087  57.5680901
  29.2037754  41.0914484  57.9379071  29.6610368  41.8238458  58.0651863
  29.2794083  40.6680949  58.6966327  29.2828724  41.1371722  58.0680147
  21.4470746  41.3380304  59.0268514  20.9112935  40.7260662  59.3429282
  21.5088510  41.9128440  59.6802181  21.3766378  41.3327231  59.1703941
  29.0467362  54.8792178  48.2427659  29.8117254  54.6101822  47.9210323
  28.9445452  54.3942189  48.9597722  29.1448858  54.7681743  48.3007487
  27.0820132  43.0816588  54.7820895  26.2916207  42.9008048  55.1038231
  27.4780755  42.3043540  54.7651189  27.0237008  42.9404049  54.8273443
  32.4663819  50.7159018  52.5080341  31.7908820  50.4844250  53.0093728
  32.4756195  50.1080201  51.8822446  32.3682323  50.5917943  52.4896493
  29.5957962  45.5576847  59.2644394  29.5317104  46.4186803  59.1364530
  29.7355150  45.2408840  58.4639945  29.6073433  45.6377014  59.1272607
  34.4680553  53.5724150  44.7390519  34.5500390  54.3791137  44.4151970
  34.9530295  53.5920110  45.4631292  34.5517711  53.6944813  44.7977417
  28.2777056  48.2508986  53.4060597  27.8539305  48.4513485  52.6699615
  28.1021912  47.4037834  53.5184896  28.1887937  48.1557768  53.3134287
  27.7788750  59.7659499  55.8682054  28.2684680  59.0670289  55.6857718
  27.2072982  59.4683369  56.4558111  27.7673280  59.6185723  55.9283095
  23.5659501  48.7461038  48.8388569  23.7224121  48.6807841  49.6944561
  23.9060094  49.5209590  48.6267249  23.6392736  48.8510236  48.9343163
  30.1038646  48.1218921  47.7081932  30.6454191  47.6189302  48.1720553
  30.4185205  48.0684116  46.8971418  30.2303043  48.0398342  47.6565744
  33.9755753  52.3321569  64.8208845  34.7890619  52.0606718  64.9813977
  33.8150720  52.0329109  64.0169040  34.0725702  52.2476495  64.7254250
  28.2725096  53.5136273  44.9921960  28.3417916  52.6550811  45.1314961
  29.0513551  53.7308154  44.6640985  28.3977946  53.4189137  44.9639118
  31.2527915  43.0155226  57.7604233  31.4669885  42.3766140  57.2067587
  30.6361815  43.4601050  57.3312095  31.1933245  42.9865370  57.6154664
  32.6632583  55.9373974  49.2058454  32.2712375  55.6340689  48.4881320
  32.8185655  56.7743064  49.0163407  32.6286173  56.0157811  49.0714951
  20.1393763  45.9295988  49.1549336  20.5192728  46.3480533  48.4909604
  19.5649128  46.5109444  49.4618180  20.1105088  46.0773847  49.1026077
  33.4167003  44.6244291  58.6987540  32.6043685  44.3170181  58.7800713
  33.8756938  44.1443291  59.2630252  33.3647388  44.5080783  58.7942134
  32.8272258  52.5023963  49.1464484  32.4686913  52.6738606  49.9228517
  32.3410969  52.9637169  48.5892483  32.7030955  52.5962934  49.1789753
  30.5120511  46.0304363  63.4816242  30.9820142  46.6546479  63.8684116
  30.5582391  45.3621338  64.0409457  30.5888387  46.0239043  63.6216314
  29.7384018  38.6754350  56.0357899  29.3515771  38.7003382  56.8171428
  29.2516955  38.1096029  55.5832415  29.6096527  38.5950101  56.0845802
  33.9876997  53.3927859  60.0931685  34.6256718  52.8988055  59.7594141
  33.3451089  53.3205259  59.5083912  33.9871224  53.3086867  59.9574040
  29.4041160  35.5621336  58.3268158  30.0334278  36.0981636  58.0489229
  29.5727022  35.4698694  59.1781724  29.5218954  35.6282698  58.4116687
  29.2055075  40.3492530  60.5994570  30.0328504  40.0777679  60.6553184
  29.2262921  41.1453372  60.9558388  29.3307925  40.4272284  60.6609753
  34.0431254  54.0847667  56.7337042  34.8323632  53.7336732  56.8539123
  34.2174852  54.8984056  56.4713676  34.1851536  54.1533524  56.7124910
  23.7824564  47.4956393  53.7864831  22.9412571  47.3960267  53.9943725
  23.9914572  48.2651873  54.1379151  23.6889257  47.5948436  53.8692146
  21.2600131  45.1175930  51.6149581  20.8656829  45.1918942  50.8399691
  20.7040248  45.5033876  52.1657943  21.1202944  45.1857705  51.5817241
  27.5941229  45.4237792  53.0362428  27.2904367  44.8693780  53.6372836
  26.8920650  45.6030002  52.5490462  27.4457439  45.3682575  53.0532134
  25.6559580  52.6387513  57.7434526  25.5479935  52.6489575  58.6096584
  25.8655362  53.4642293  57.5539480  25.6709691  52.7628588  57.8438618
  23.6733372  49.8900155  55.2056464  23.0821305  50.5309653  55.1759479
  24.4354396  50.3137773  55.1787763  23.6981633  50.0475994  55.1971611
  24.0693995  41.0502153  55.8724481  24.5295477  41.1241083  56.6099605
  24.1150102  41.8483407  55.5224303  24.1444550  41.1796300  55.9297238
  25.7177345  41.7168848  60.4396508  25.3262910  41.0702195  60.8752286
  25.8863208  42.3080283  61.0590764  25.6848255  41.7083116  60.5959214
  33.4322888  55.3409467  52.6388488  33.2342577  55.8300281  51.9444699
  32.8110600  55.5450708  53.2172621  33.3110453  55.4426005  52.6211711
  27.4930867  47.1094364  46.9798732  28.2372912  47.4968640  47.2181682
  27.6391563  46.2651789  47.1439220  27.6241452  47.0424837  47.0392702
  20.8581773  44.6791344  58.2476197  21.7207386  44.5787053  58.1613527
  20.5273556  44.0986053  57.6861770  20.9366969  44.5782970  58.1521603
  24.2183559  43.5033793  54.9086616  23.5936629  43.5152185  54.3012568
  23.8829154  43.9793968  55.5577856  24.0769051  43.5752310  54.9143184
  20.9309234  51.5634253  56.3490380  20.4009159  50.8726692  56.3985355
  21.2034328  51.5544438  55.5203088  20.8933957  51.4601385  56.2337796
  31.9629325  52.1459955  45.0728062  32.6863524  52.6118068  44.9292636
  31.5229916  52.2133565  44.3225659  32.0045017  52.2243792  44.9412844
  31.1315480  49.0057497  56.3228751  30.5172473  48.4615548  56.6177387
  31.6482765  48.4921734  55.8434568  31.1171142  48.8493906  56.2952980
  30.3711777  50.0761767  54.0573050  29.9439385  49.4511486  53.6238486
  30.3636721  49.7936689  54.8832057  30.3070918  49.9414548  54.1152878
  23.4874304  45.1126941  57.1261484  23.6467791  44.3570265  57.5313206
  23.3067198  45.6617880  57.7802222  23.4839663  45.0820754  57.2824190
  31.4294607  37.2788176  57.6812274  30.9335168  37.4751850  56.9903840
  32.1863669  37.6780844  57.5101075  31.4681432  37.3665910  57.5532410
  28.6997487  40.9530522  54.2715584  28.7239974  40.4190634  53.5828364
  28.9508960  40.4447831  54.9341175  28.7407405  40.7991426  54.2680229
  16.2105077  48.2362017  53.7058728  16.1048526  48.1908861  52.8410812
  15.4605297  48.5815798  53.9873013  16.0840680  48.2802925  53.6196058
  24.9798809  39.6801340  53.6521328  25.0197181  40.1810547  54.3656036
  24.1548474  39.7711734  53.3827251  24.8638335  39.7683157  53.7171867
  27.1628422  49.2462080  61.7541623  26.3124052  49.3833794  61.8899268
  27.3256550  48.5125858  62.1989325  27.0612285  49.1576181  61.8397222
  26.4013172  46.1961850  55.9495227  25.5705102  46.3635668  55.7430476
  26.3464690  45.8197801  56.7344113  26.2702587  46.1651581  56.0343756
  24.2096956  39.6870743  61.5851638  24.8349659  39.1432876  61.8581070
  23.7547436  39.2065661  61.0159429  24.2345216  39.5360224  61.5413232
  29.6125394  52.2917402  57.3022180  29.1050485  52.8453249  57.7462811
  29.3152040  52.3525692  56.4840955  29.4930279  52.3823714  57.2470637
  31.7787576  40.6570722  56.1446843  32.2042648  40.2043248  55.5330369
  31.1644570  40.1030793  56.4211631  31.7516222  40.5084698  56.0951868
  21.3102427  47.5352393  47.0767468  21.8194656  48.1316901  47.4578774
  21.7836699  47.2678367  46.3943888  21.4545802  47.5838209  47.0321991
  32.2233175  56.2080660  45.2326124  31.5062484  56.0341522  44.7673361
  32.8739912  55.9733232  44.7001610  32.2135025  56.1476453  45.0855341
  28.8567880  57.2241961  54.2079187  28.6333534  56.4660790  54.5763213
  28.3677723  57.2539982  53.4859627  28.7511329  57.1164185  54.1555928
  23.6692958  44.1708652  49.9440648  22.9504947  44.5872785  50.2113512
  24.0405321  44.7362891  49.3932287  23.6184890  44.3157933  49.9023455
  32.9692539  44.8036501  55.8342644  32.9490466  44.6219796  56.6877423
  33.0171740  45.6748519  55.8102228  32.9727180  44.9053039  55.9565939
  30.9138869  51.3923693  61.7591121  30.8734724  50.7473370  61.1736277
  31.7262187  51.3360310  62.0716533  31.0282022  51.2882660  61.7188070
  27.5046336  57.4442419  51.6616272  27.0906735  56.7816549  51.2720113
  28.1893711  57.5920278  51.1411966  27.5444708  57.3683077  51.5272769
  30.8711631  56.6032504  52.4139888  30.4727914  56.7134774  51.6460708
  30.2562850  56.8114570  52.9966448  30.7210520  56.6506072  52.3871188
  26.6016578  45.0220629  58.3140878  26.0895481  44.4141812  58.6725910
  26.4296074  45.7377222  58.7814854  26.5006215  45.0383929  58.4357102
  21.4482292  43.4658205  60.9643240  21.2784883  44.1259580  60.4191447
  21.0048242  43.6764766  61.6855729  21.3581626  43.5944187  60.9904870
  30.4785648  42.9444874  60.7543134  31.0357078  42.7158684  60.1221599
  30.1546713  43.7050540  60.4778346  30.5132058  43.0228711  60.6199631
  18.3484357  46.3705070  56.2231730  17.8011076  45.7005716  56.3412598
  19.1376735  46.0034918  56.2875197  18.3836540  46.2170057  56.2500430
  28.1968765  46.0312527  61.7195141  28.9480092  46.3464204  62.0334695
  28.3891342  45.8291698  60.8929063  28.3360179  46.0479909  61.6438537
  17.1071326  45.5825878  53.3777753  16.9293087  45.1302487  54.1032669
  16.8190348  46.3852039  53.5616231  17.0384279  45.6348436  53.5121256
  32.7694907  46.8383595  52.6155143  33.2648573  46.1206591  52.5759164
  31.9594683  46.5354393  52.5009630  32.7238801  46.6881242  52.5928869
  28.2153519  50.6881409  44.7652148  27.4064842  50.3648082  44.7185457
  28.7228428  49.9814631  44.6980396  28.1703186  50.5362725  44.7482442
  18.8443796  48.1153602  50.4899512  17.9789316  48.1039292  50.3782283
  18.9442612  47.9283825  51.3370651  18.7317963  48.0859663  50.5988456
  34.8346726  49.5887283  55.3032272  35.2601798  49.0661705  54.7502697
  34.4703646  50.1868120  54.7820895  34.8433329  49.5997510  55.1441282
  24.4700806  57.8851500  54.0629618  24.7847365  58.6987889  54.0707399
  24.8794219  57.5001719  54.7311777  24.5768904  57.9480203  54.1633709
  31.4225326  53.3021547  51.6333430  31.8936504  54.0161810  51.8023415
  31.7585504  52.7020297  52.1693299  31.5420441  53.3193012  51.7365805
  33.5102310  54.9122861  63.8125502  33.6199276  54.1231421  64.1682249
  33.8393207  54.8228797  63.0099840  33.5754716  54.7828714  63.7467892
  28.3394821  38.0749018  58.5891524  28.4722726  37.2780011  58.9172500
  28.7239973  38.6015421  59.1689800  28.4151150  38.0348935  58.7235027
  32.0599272  53.0939481  58.3961122  31.5120218  52.4697365  58.1281187
  32.5212301  53.2833753  57.6805202  32.0466482  53.0298532  58.2511553
  34.8693136  41.1624836  55.7812314  34.2856125  41.6634042  55.3689882
  35.1897430  40.6554392  55.1476638  34.8306312  41.1616671  55.6270822
  25.9983267  38.0708193  56.8369418  26.5427680  37.7299320  57.4273760
  26.0520203  38.9293654  56.9790703  26.0872387  38.1463452  56.9451291
  21.8113826  51.8324609  53.7108226  22.4158684  51.7920443  53.0822047
  21.6041139  52.6795761  53.7412282  21.8702723  51.9512611  53.6224342
  31.6257598  54.0990554  54.9270463  32.4455972  53.9553520  55.1886759
  31.3451676  54.7236753  55.4686901  31.7054342  54.1700906  55.0458403
  17.0465109  50.8159226  53.5807149  16.9489387  50.0055498  53.8897206
  17.8293978  50.7951020  53.1953417  17.1481245  50.6926317  53.5694012
  48.0971249  61.7555406  47.8913340  48.0665253  62.6100042  48.0631609
  48.6952597  61.4550698  48.4499483  48.1808407  61.8371902  47.9988142
  41.2970934  60.8431057  52.6466270  40.4408829  61.0039555  52.6975387
  41.3438587  59.9723121  52.6671331  41.1770045  60.7381859  52.6572336
  35.6812073  70.3793775  48.4103502  34.9294973  70.0009313  48.1819547
  36.1298085  70.4112208  47.6622312  35.6361740  70.3279382  48.2661004
  44.6064650  67.1117582  62.2526726  45.3131417  66.6169613  62.3813661
  44.7952586  67.5526664  61.5229384  44.7392556  67.1035933  62.1635772
  41.1337033  70.8019144  43.8389049  40.7988402  71.4796066  43.4033271
  41.6463904  70.4124455  43.2505920  41.1602614  70.8443722  43.6875840
  40.6741324  72.7533413  49.7800160  41.0580704  73.3220311  49.2404936
  40.6100466  72.0282923  49.3005976  40.7214752  72.7308876  49.6294023
  44.1422755  62.9023101  55.2897922  44.6878715  63.5808187  55.3491891
  44.0839631  62.7610562  54.4299503  44.2138669  62.9815102  55.1709982
  37.2596829  70.3912167  50.6766274  37.3607192  69.5812521  50.9863402
  36.6638575  70.2969113  50.0465953  37.1869368  70.2577195  50.6292513
  45.9187823  64.3307708  46.1631650  45.8027349  65.0815394  46.5923788
  46.7143710  64.0731661  46.4127737  46.0192413  64.4042555  46.2635741
  37.0997569  75.3089756  52.0781130  37.7435025  75.7502920  52.4677289
  37.4253825  74.5043182  51.9911389  37.2429398  75.2554951  52.1226608
  30.4561874  66.4132453  50.3018608  30.2212058  65.5800106  50.1950877
  30.5947514  66.6937119  49.4879809  30.4417536  66.3315957  50.1660963
  32.7551961  58.5818184  53.2002916  32.1356993  57.9910831  53.0312930
  32.6535825  59.1729619  52.5667239  32.6489637  58.5822266  53.0807905
  37.8018149  68.3201731  47.4500992  38.1233990  68.8606938  46.8462300
  38.4490245  67.7498502  47.5823282  37.9444204  68.3160906  47.3808027
  39.8519857  60.3217726  47.5335379  40.5500022  60.5005853  48.0256842
  40.1672189  59.7988065  46.9105768  40.0015194  60.2711498  47.5137389
  32.4821094  62.1270466  55.4446485  32.3579791  62.7132911  56.0796303
  33.1339379  61.6330661  55.7458760  32.5594744  62.1409270  55.5832414
  40.0407792  66.7088171  47.5215170  40.4801428  66.1005271  47.9669943
  39.8912455  66.3295544  46.7500635  40.0829258  66.5626642  47.4734338
  37.5079435  65.3032183  54.7233996  38.1528438  64.8104626  54.4044944
  37.7481212  65.4456969  55.5500074  37.6390020  65.2509625  54.7983529
  40.0465527  68.1487088  54.3740888  40.3288769  67.3538494  54.1527644
  40.7751687  68.6267676  54.3945949  40.1955090  68.1021685  54.3443903
  38.0246720  55.6910122  51.6156653  37.6950050  56.1421266  50.9460352
  37.3491722  55.6126286  52.1629660  37.8757157  55.7461258  51.5979877
  43.6417129  65.0615352  44.4745939  43.5568424  65.9176319  44.6195508
  44.1301512  64.7859676  45.1428099  43.7006026  65.1472673  44.5948021
  44.5735562  61.6800146  45.9743674  44.0447033  61.8959780  46.6340981
  45.0960582  62.3736285  45.8944644  44.5724015  61.8143283  46.0599274
  50.0283615  67.2546451  51.3476719  49.1981318  67.4657094  51.5110136
  49.9792867  66.4283505  51.0719003  49.8990350  67.1636057  51.3314084
  36.4635170  65.5763363  44.7751142  35.8792385  66.0813394  45.1817006
  36.0605265  65.3505750  44.0347734  36.3174474  65.6171611  44.7256168
  32.0179198  71.2918124  51.5774814  31.5346777  72.0168614  51.5534398
  32.8302517  71.5894254  51.6884972  32.0669946  71.4420478  51.5902093
  38.0893352  70.0850305  54.1824628  37.5720294  69.7257720  53.5785937
  38.7867744  69.5612479  54.1930695  38.1158934  69.9547993  54.0954887
  41.7456944  70.5345119  60.1440802  41.8340290  70.3471259  60.9919012
  42.1746657  69.8882548  59.7445648  41.8219047  70.4108127  60.2112553
  39.3127404  69.8176279  59.1258464  38.7498239  69.4048889  59.6498125
  40.0748428  69.7429185  59.5451607  39.3421853  69.7453679  59.2651464
  40.9212384  61.8229015  43.2520063  41.1608388  62.0306999  42.4395406
  41.2428225  61.0186524  43.3609008  41.0049542  61.7343116  43.1480616
  36.2302674  53.7522411  47.0979601  36.9848643  54.1200728  46.8596651
  36.0530209  54.1261965  47.8658781  36.3157153  53.8620599  47.1764490
  34.8723396  71.8074300  51.7295094  35.5743975  71.2926289  51.7867850
  34.7920879  72.1348451  52.5341969  34.9647156  71.7788526  51.8567886
  49.5237573  59.9016851  55.1427140  48.6865994  59.9719038  55.3774735
  49.4925804  59.9041346  54.2701443  49.3955856  59.9127078  55.0486688
  35.9202302  62.0449887  60.8575509  36.0922806  61.9355782  61.7060790
  36.4571660  62.6904292  60.6206701  36.0247306  62.1241889  60.9480606
  34.5859739  56.1592730  43.7957714  34.4035312  56.3764611  42.9698707
  35.4485352  56.2731743  43.8516328  34.6864329  56.2082628  43.6812201
  34.1974171  67.9980652  51.2380702  35.0363071  68.2303585  51.2854463
  34.2285940  67.1284963  51.1687737  34.3255889  67.9037599  51.2345347
  34.8226874  68.4181527  55.5394007  35.3625099  68.2752658  56.2097380
  34.1396820  68.8178278  55.9078034  34.8019028  68.4561198  55.6928429
  44.2467759  64.0972528  50.7339032  45.0025274  64.5304042  50.7727941
  44.3530083  63.4477298  51.3073668  44.3737930  64.0650012  50.8237057
  47.2847930  67.9245805  51.4841435  46.8483162  67.9282548  52.2400406
  46.9510846  68.6051304  51.0521012  47.1710550  68.0258261  51.5322267
  41.8577004  69.9654138  62.8084585  42.6417420  70.0784986  63.1740327
  41.6573598  69.1395275  63.0043271  41.9443029  69.8600857  62.8918971
  30.2264019  64.6381818  55.6928429  29.9602434  63.8220935  55.8519419
  30.2402583  64.6834974  54.8223944  30.1888742  64.5238723  55.5881911
  47.2045413  54.9659633  53.7270863  47.8471321  55.0357738  54.3132778
  47.4568434  54.2988856  53.2250405  47.3367545  54.8785982  53.7398142
  34.1321766  59.4366902  42.3080187  33.4179943  59.1505082  42.7202620
  34.6165735  59.7763528  42.9486575  34.0981129  59.4448552  42.4635822
  34.9762626  58.1760196  58.3395437  34.2834422  57.7057176  58.5856168
  35.5922953  57.9498501  58.9137144  34.9647156  58.0727328  58.4604589
  42.0147397  71.8764240  56.4551041  41.2162643  71.6363740  56.7124909
  42.4633409  71.9278633  57.2018088  41.9622008  71.8486631  56.6035965
  50.4192276  64.6426725  50.3761072  51.0808710  64.0817393  50.2756980
  49.7783688  64.1478756  50.7013763  50.4221144  64.4863134  50.4093412
  41.3069084  67.9396856  42.6841995  41.7220233  67.6081880  41.9926491
  40.4761014  67.7065759  42.5562132  41.2457093  67.8568112  42.5632843
  30.6357433  65.4240597  52.9740173  30.4533006  65.3987483  52.1212465
  31.3707102  65.8939535  53.0129082  30.7171497  65.4901960  52.8538092
  46.7057107  65.6592107  50.1173061  46.9412696  65.8037306  49.2899911
  46.8546671  66.4234515  50.5104574  46.7622910  65.7931162  50.0536665
  33.7003185  62.1425600  59.4822282  34.4243157  62.1278631  59.9687177
  33.8019321  62.8520956  58.9844250  33.8221394  62.2450304  59.4801069
  48.5347564  64.4993773  47.9542665  48.8655781  65.0321413  47.3482759
  49.1080652  64.5532661  48.6104616  48.6681243  64.5863342  47.9620446
  41.0748134  65.6224685  64.3471229  40.2821115  65.9368197  64.5323849
  41.1897061  65.8376153  63.5092013  40.9743544  65.7008522  64.2509564
  43.7479453  62.3458676  48.6366245  43.8426307  63.0847970  49.0905870
  43.1238296  61.9176152  49.0700809  43.6688483  62.3919997  48.7674392
  42.0031927  65.5244889  59.2856526  42.5770788  64.8872133  59.4405090
  41.9246730  65.5248971  58.4166183  42.0765162  65.4310000  59.1802936
  30.6028343  62.3034098  53.1239240  31.1801846  62.1670549  53.7631485
  29.9042405  61.8469882  53.3784824  30.5849365  62.2156364  53.2561529
  44.0002474  64.1907416  41.8703197  43.9182637  64.2609603  42.7358184
  44.6382195  64.7537160  41.6786937  44.0822312  64.2846387  41.9693146
  37.3595645  63.9568154  51.3377723  37.1014890  63.1239889  51.3109022
  37.4144128  64.1825767  50.4970223  37.3295423  63.8665925  51.2097860
  42.4396696  56.0596604  51.4381816  41.7353022  55.5705790  51.5965735
  42.4881670  56.0719079  50.5670260  42.3426747  55.9886252  51.3321155
  36.3330358  61.5105916  51.8242618  35.7579949  61.6698085  52.4606579
  35.9566034  60.8741325  51.3611068  36.1933170  61.4403729  51.8497176
  40.0003646  59.9829266  56.6834996  39.6118079  59.5583483  56.0287187
  39.3358345  60.2311415  57.1912023  39.8450574  59.9567987  56.6622864
  49.6426915  59.7404270  49.4582826  49.3863480  58.9284212  49.2680709
  50.4856229  59.7481837  49.2313014  49.7292941  59.6216268  49.3967643
  26.0787176  61.1545991  49.8387058  26.1647428  60.7777859  50.6200588
  26.7062974  60.7806437  49.3607017  26.1843727  61.0431473  49.8832536
  43.8230008  53.6803894  54.1958980  44.2040519  52.9982065  54.5826855
  43.0193292  53.3913496  54.0134645  43.7606469  53.5370943  54.2263036
  41.1042584  64.2127870  44.8811803  41.9183223  64.5042763  44.7694575
  41.0401726  63.5587732  44.3070096  41.2145323  64.1593065  44.7800640
  47.3252075  66.8953866  59.2941379  47.0890712  66.0641931  59.1753439
  47.9695304  66.8439473  59.8796223  47.3846745  66.7651554  59.3627272
  36.9750493  67.6849388  50.0084115  37.6124440  67.4461135  50.5535909
  37.4005564  67.8886547  49.2737276  37.1326659  67.6800398  49.9801273
  31.6663135  69.9237724  53.8918419  31.7067280  70.1952575  53.0638199
  32.2257659  70.4479632  54.3076207  31.7546481  70.0413479  53.8310307
  37.6153308  62.9051677  44.3459005  37.9998460  62.6859384  45.0975550
  37.3664928  63.7314623  44.4760081  37.6355380  62.9949824  44.4760081
  37.7821848  56.1858093  64.0621589  37.4675289  56.9557655  63.7991152
  37.4611781  55.6228349  63.4773816  37.6880767  56.2168361  63.9362939
  48.3488495  66.6798315  55.3569673  48.0434312  67.4126372  55.7182989
  47.6294711  66.2736245  55.0762459  48.1975837  66.7280048  55.3682810
  39.3571965  68.1621810  51.6877901  39.4310973  67.9996982  52.5419751
  40.1741471  68.3512000  51.4438383  39.4888323  68.1658553  51.7775927
  54.0490287  63.3191316  54.6838018  53.9814788  63.3387275  53.8140604
  54.0345950  64.1621643  54.9093688  54.0369044  63.4465050  54.5890494
  33.1177721  68.5079673  48.7172345  32.2915839  68.7541410  48.5906624
  33.1789713  68.4291754  49.5834403  33.0051888  68.5324622  48.8261289
  35.3353745  54.5748614  49.6767785  34.4676171  54.6471214  49.7425394
  35.6228949  55.3770693  49.8655760  35.2493493  54.7042761  49.7142552
  44.4586634  54.7226473  58.0079107  45.2040226  54.5336284  57.5942532
  44.0423938  55.2484711  57.4492963  44.5071608  54.7728619  57.8643680
  37.8976550  71.1256553  46.4191375  38.1874849  70.7345535  45.6950601
  38.6280031  71.3073258  46.8596650  38.0483435  71.0950367  46.3774182
  51.8348905  62.0935702  52.9584612  52.3856826  61.4603771  53.1981704
  51.8193020  62.6251095  53.6500116  51.9134101  62.0784650  53.0963470
  38.4871296  65.9274299  57.5044505  37.9882989  66.6390067  57.5829394
  39.2971520  66.2474966  57.4662668  38.5327402  66.0801148  57.5101074
  35.8382466  73.1023936  49.4851525  35.6182761  72.8121290  50.2778192
  35.6176988  72.4438891  48.9569437  35.7730060  72.9623644  49.5240433
  34.7499413  65.1897252  51.7507226  34.4612662  64.5634723  52.2852954
  35.6182761  65.1317540  51.8171907  34.8359665  65.0884796  51.8398181
  45.5377311  60.3332036  52.0689208  45.1942077  59.6122371  52.4196458
  45.6370353  60.1245887  51.2267566  45.5019354  60.1956239  51.9960888
  38.0050422  74.4753326  48.2682217  38.6574480  73.9429768  48.4973243
  37.3076030  74.1221978  48.6550091  37.9981140  74.3442849  48.3594385
  34.9531686  66.8292503  47.6749591  35.7077654  67.2105542  47.8885054
  34.3602299  67.2803647  48.1296288  34.9768400  66.9521331  47.7732470
  45.9990340  66.7957740  47.6113196  46.5648373  67.4550950  47.5271739
  45.3518243  67.1407438  48.0829598  45.9869096  66.9439681  47.6685953
  37.4138354  58.7855344  62.8006804  36.6038129  59.0913123  62.6896646
  37.8913040  59.5060926  62.9159388  37.3641832  58.9369945  62.8013875
  36.2729913  68.0001065  53.0489707  35.7510667  68.1401356  53.7341571
  36.6603933  67.2411729  53.2391824  36.2533614  67.9086588  53.1790783
  33.2621097  58.0506873  47.1184661  32.9745893  57.6808144  46.3816609
  33.9491565  58.5201729  46.8568366  33.3209994  58.0653843  46.9699737
  42.4696918  69.7396524  47.0350275  42.2283594  69.0064385  46.6277340
  42.6498251  70.2883381  46.3816609  42.4604542  69.7118915  46.8780498
  37.6996239  65.0305084  48.4471198  37.5039021  65.6379818  47.8531501
  37.9230584  64.3373028  47.9662872  37.7030880  65.0182609  48.2887279
  36.0974769  61.9159822  48.5652066  36.8197421  62.0800980  48.1055872
  35.6182761  62.6369486  48.4591406  36.1338499  62.0458051  48.4817680
  44.0568276  58.2523620  53.9448751  43.2179377  58.2784899  53.7087014
  44.1272644  58.8994356  54.5254098  43.9436670  58.3519746  53.9957868
  33.7482385  64.3217894  57.6706206  34.2603482  64.6002147  57.0214966
  33.4618728  65.0607188  58.0369019  33.7817249  64.4720248  57.6296084
  47.9325800  63.4591607  51.2309993  47.8459775  63.6147033  52.0844772
  47.4776280  64.1029683  50.8569398  47.8529057  63.5767362  51.3017100
  30.8349292  58.8288086  47.9669942  30.9365428  59.6314247  48.2950918
  31.6305178  58.6275422  47.6693023  30.9677197  58.9173985  47.9705298
  37.2666111  56.4144283  57.7307248  37.0749308  56.4299417  58.5806671
  38.1164707  56.6107957  57.7073902  37.3641833  56.4458634  57.8530542
  31.6513024  58.9435264  55.7091064  31.5098516  58.0919205  55.8335572
  31.9353587  58.9863925  54.8853270  31.6720870  58.8235014  55.6058688
  41.8051616  60.7802354  49.8535552  41.5586330  60.6998105  50.6872341
  42.1336739  59.9955822  49.6598080  41.8172860  60.6528620  49.9483075
  45.6999665  67.4885714  53.6422334  45.5614024  68.1866759  54.1471076
  44.9199663  67.3334370  53.2858515  45.5642892  67.5685880  53.6648608
  44.0377750  63.7882089  59.8944715  44.0325789  62.9161905  59.8987142
  44.7438744  63.9870258  59.4214171  44.1422754  63.6885963  59.8251751
  37.7648643  63.5159073  59.2658535  37.9092019  64.0960281  58.6301645
  38.1124292  63.8935370  59.9708390  37.8376105  63.6579777  59.2757530
  39.9368561  62.7149241  57.0483667  39.1891875  62.9080256  56.6431945
  40.0910086  61.8894461  56.8107788  39.8490988  62.6214353  56.9529073
  36.8376398  71.7061845  56.1319562  36.9865962  71.1464761  55.4792967
  37.6176401  71.7853846  56.5152081  36.9750492  71.6347410  56.0916511
  47.1953038  66.8463967  44.4038833  46.8159847  66.0601105  44.3968122
  46.5319283  67.3950824  44.2610477  47.0411513  66.8108791  44.3819630
  39.3629699  71.8776488  57.4104053  39.2873370  71.2085298  57.9654841
  39.2919558  72.5794276  57.9244719  39.3410306  71.8821395  57.5680901
  40.1770338  56.6099792  57.9379071  40.6342952  57.3423766  58.0651863
  40.2526667  56.1866257  58.6966327  40.2561308  56.6557030  58.0680147
  32.4203329  56.8565612  59.0268514  31.8845519  56.2445970  59.3429282
  32.4821094  57.4313748  59.6802181  32.3498962  56.8512539  59.1703941
  40.0199946  70.3977486  48.2427659  40.7849837  70.1287130  47.9210323
  39.9178036  69.9127497  48.9597722  40.1181441  70.2867051  48.3007487
  38.0552716  58.6001896  54.7820895  37.2648791  58.4193356  55.1038231
  38.4513339  57.8228848  54.7651189  37.9969592  58.4589357  54.8273443
  42.5418607  67.4289670  40.2227608  43.3091592  67.4889795  39.8133460
  42.0949916  66.8570112  39.7383927  42.5892034  67.3526246  40.0905319
  43.4396402  66.2344326  52.5080341  42.7641404  66.0029558  53.0093728
  43.4488778  65.6265509  51.8822446  43.3414907  66.1103251  52.4896493
  40.5690546  61.0762155  59.2644394  40.5049687  61.9372111  59.1364530
  40.7087734  60.7594148  58.4639945  40.5806016  61.1562322  59.1272607
  45.4413137  69.0909458  44.7390519  45.5232974  69.8976445  44.4151970
  45.9262879  69.1105418  45.4631292  45.5250295  69.2130121  44.7977417
  39.2509640  63.7694294  53.4060597  38.8271889  63.9698793  52.6699615
  39.0754495  62.9223142  53.5184896  39.1620521  63.6743076  53.3134287
  38.7521333  75.2844807  55.8682054  39.2417264  74.5855597  55.6857718
  38.1805566  74.9868677  56.4558111  38.7405863  75.1371031  55.9283095
  34.5392085  64.2646346  48.8388569  34.6956704  64.1993149  49.6944561
  34.8792678  65.0394898  48.6267249  34.6125320  64.3695544  48.9343163
  41.0771230  63.6404229  47.7081932  41.6186775  63.1374610  48.1720553
  41.3917789  63.5869424  46.8971418  41.2035627  63.5583650  47.6565744
  44.9488337  67.8506877  64.8208845  45.7623202  67.5792026  64.9813977
  44.7883303  67.5514417  64.0169040  45.0458285  67.7661803  64.7254250
  39.2457679  69.0321581  44.9921960  39.3150500  68.1736119  45.1314961
  40.0246134  69.2493462  44.6640985  39.3710529  68.9374445  44.9639118
  42.2260499  58.5340534  57.7604233  42.4402468  57.8951448  57.2067587
  41.6094398  58.9786358  57.3312095  42.1665828  58.5050678  57.6154664
  43.6365167  71.4559282  49.2058454  43.2444959  71.1525997  48.4881320
  43.7918239  72.2928372  49.0163407  43.6018757  71.5343119  49.0714951
  31.1126346  61.4481296  49.1549336  31.4925311  61.8665841  48.4909604
  30.5381711  62.0294752  49.4618180  31.0837671  61.5959155  49.1026077
  44.3899587  60.1429599  58.6987540  43.5776269  59.8355489  58.7800713
  44.8489522  59.6628599  59.2630252  44.3379972  60.0266091  58.7942134
  43.8004842  68.0209271  49.1464484  43.4419496  68.1923914  49.9228517
  43.3143552  68.4822477  48.5892483  43.6763538  68.1148242  49.1789753
  38.5893207  63.7008436  41.6864719  38.8785732  64.4773319  41.9608293
  38.6765006  63.1897168  42.3879218  38.6447463  63.7400355  41.8307216
  41.4853094  61.5489670  63.4816242  41.9552726  62.1731787  63.8684116
  41.5314975  60.8806646  64.0409457  41.5620970  61.5424351  63.6216314
  40.7116602  54.1939658  56.0357899  40.3248355  54.2188689  56.8171428
  40.2249539  53.6281337  55.5832415  40.5829110  54.1135409  56.0845802
  44.9609581  68.9113167  60.0931685  45.5989301  68.4173363  59.7594141
  44.3183673  68.8390567  59.5083912  44.9603807  68.8272175  59.9574040
  46.6866581  60.7602313  54.6597601  46.2594189  60.6728661  53.9045700
  46.0492634  60.8680088  55.2452445  46.5296188  60.7634973  54.6343042
  40.3773743  51.0806643  58.3268158  41.0066861  51.6166943  58.0489229
  40.5459606  50.9884002  59.1781724  40.4951538  51.1468006  58.4116687
  40.1787658  55.8677838  60.5994570  41.0061087  55.5962987  60.6553184
  40.1995504  56.6638680  60.9558388  40.3040508  55.9457592  60.6609753
  45.0163838  69.6032975  56.7337042  45.8056216  69.2522040  56.8539123
  45.1907435  70.4169364  56.4713676  45.1584119  69.6718832  56.7124910
  34.7557148  63.0141701  53.7864831  33.9145155  62.9145575  53.9943725
  34.9647156  63.7837181  54.1379151  34.6621841  63.1133744  53.8692146
  32.2332715  60.6361238  51.6149581  31.8389413  60.7104250  50.8399691
  31.6772832  61.0219184  52.1657943  32.0935527  60.7043013  51.5817241
  38.5673813  60.9423100  53.0362428  38.2636950  60.3879088  53.6372836
  37.8653234  61.1215310  52.5490462  38.4190023  60.8867882  53.0532134
  37.6239910  58.2523620  47.6007130  37.8999644  57.5342532  47.1884698
  38.2238579  58.8508540  47.3928236  37.7533175  58.2343991  47.5087891
  36.6292164  68.1572821  57.7434526  36.5212519  68.1674883  58.6096584
  36.8387945  68.9827601  57.5539480  36.6442275  68.2813896  57.8438618
  41.1250430  55.9237137  45.8753725  41.5794177  56.0947698  46.6001570
  41.5990476  55.3105248  45.4751501  41.2618751  55.8588023  45.9227487
  34.6465956  65.4085463  55.2056464  34.0553889  66.0494961  55.1759479
  35.4086979  65.8323081  55.1787763  34.6714216  65.5661302  55.1971611
  35.0426579  56.5687461  55.8724481  35.5028060  56.6426390  56.6099605
  35.0882685  57.3668715  55.5224303  35.1177134  56.6981608  55.9297238
  36.6909928  57.2354156  60.4396508  36.2995493  56.5887503  60.8752286
  36.8595791  57.8265591  61.0590764  36.6580839  57.2268424  60.5959214
  50.7656377  65.2391233  56.2033742  50.8239501  65.6877882  56.9493718
  50.1322845  65.6490046  55.7663822  50.6807672  65.3664968  56.2486290
  44.4055472  70.8594775  52.6388488  44.2075161  71.3485589  51.9444699
  43.7843183  71.0636016  53.2172621  44.2843037  70.9611313  52.6211711
  38.4663450  62.6279672  46.9798732  39.2105495  63.0153948  47.2181682
  38.6124147  61.7837097  47.1439220  38.5974036  62.5610144  47.0392702
  41.4541326  58.2005145  52.8792652  40.9801281  57.6746907  53.3897963
  41.8259462  57.6534618  52.3107513  41.4391215  58.0421142  52.8707799
  31.8314356  60.1976652  58.2476197  32.6939969  60.0972361  58.1613527
  31.5006139  59.6171361  57.6861770  31.9099553  60.0968278  58.1521603
  47.7178057  63.2607521  54.2899432  47.4776280  62.4213936  54.2941859
  48.1970064  63.3407687  55.0140206  47.7530241  63.1488920  54.3974234
  43.3824826  59.0941700  45.9418405  42.8547845  59.1770444  45.2524114
  43.8420534  59.8359571  45.9383050  43.3726676  59.2162362  45.8393101
  49.7183244  60.0408978  52.2428691  49.4793014  60.0004812  51.4049476
  49.8817145  60.8880130  52.3694412  49.7073547  60.1601063  52.1382173
  46.3229274  64.4258927  58.1733736  47.0463473  63.9731454  57.9944756
  46.0579236  64.7063593  57.3906064  46.3910547  64.4009896  58.0312452
  35.1916142  59.0219101  54.9086616  34.5669213  59.0337493  54.3012568
  34.8561737  59.4979276  55.5577856  35.0501634  59.0937618  54.9143184
  35.3757891  57.3644219  40.9659301  35.0270695  58.0163944  41.4290850
  34.8954337  57.3501332  40.2383172  35.2528135  57.4587273  40.9270392
  31.9041818  67.0819561  56.3490380  31.3741742  66.3912000  56.3985355
  32.1766911  67.0729746  55.5203088  31.8666540  66.9786693  56.2337796
  42.9361908  67.6645263  45.0728062  43.6596107  68.1303376  44.9292636
  42.4962499  67.7318873  44.3225659  42.9777601  67.7429100  44.9412844
  42.1048063  64.5242805  56.3228751  41.4905057  63.9800856  56.6177387
  42.6215348  64.0107042  55.8434568  42.0903726  64.3679214  56.2952980
  41.3444361  65.5947075  54.0573050  40.9171969  64.9696794  53.6238486
  41.3369305  65.3121997  54.8832057  41.2803502  65.4599856  54.1152878
  34.4606888  60.6312248  57.1261484  34.6200374  59.8755573  57.5313206
  34.2799781  61.1803188  57.7802222  34.4572247  60.6006062  57.2824190
  42.4027191  52.7973484  57.6812274  41.9067752  52.9937158  56.9903840
  43.1596253  53.1966152  57.5101075  42.4414015  52.8851218  57.5532410
  39.6730070  56.4715830  54.2715584  39.6972558  55.9375942  53.5828364
  39.9241544  55.9633139  54.9341175  39.7139989  56.3176734  54.2680229
  27.1837660  63.7547325  53.7058728  27.0781109  63.7094169  52.8410812
  26.4337880  64.1001105  53.9873013  27.0573263  63.7988233  53.6196058
  35.9531393  55.1986648  53.6521328  35.9929764  55.6995855  54.3656036
  35.1281057  55.2897042  53.3827251  35.8370919  55.2868465  53.7171867
  38.1361005  64.7647388  61.7541623  37.2856636  64.9019102  61.8899268
  38.2989133  64.0311166  62.1989325  38.0344869  64.6761489  61.8397222
  37.3745756  61.7147158  55.9495227  36.5437686  61.8820976  55.7430476
  37.3197273  61.3383109  56.7344113  37.2435171  61.6836889  56.0343756
  35.1829539  55.2056051  61.5851638  35.8082243  54.6618184  61.8581070
  34.7280019  54.7250969  61.0159429  35.2077800  55.0545532  61.5413232
  35.7481800  59.9902750  46.4785345  35.8884761  60.4875214  47.1813987
  36.2464333  59.2889044  46.6199559  35.8422881  59.9604728  46.6036924
  35.7782022  60.8569861  43.8077922  36.4127102  61.4530286  43.7427384
  35.8607633  60.5573318  44.6223792  35.8838573  60.9010769  43.9181009
  48.7564588  63.3885338  56.6764286  49.3482428  64.0282589  56.7082484
  49.1923582  62.6908375  56.9656353  48.9083019  63.3803688  56.7245119
  37.3561005  56.7883836  43.7823364  37.6776846  56.3086919  43.1282626
  37.6187949  57.5983482  43.5914176  37.4427030  56.8373734  43.6578856
  40.5857978  67.8102710  57.3022180  40.0783069  68.3638557  57.7462811
  40.2884624  67.8711000  56.4840955  40.4662863  67.9009022  57.2470637
  42.7520160  56.1756030  56.1446843  43.1775232  55.7228556  55.5330369
  42.1377153  55.6216101  56.4211631  42.7248805  56.0270006  56.0951868
  32.2835010  63.0537701  47.0767468  32.7927239  63.6502209  47.4578774
  32.7569282  62.7863675  46.3943888  32.4278386  63.1023517  47.0321991
  43.1965758  71.7265968  45.2326124  42.4795068  71.5526830  44.7673361
  43.8472496  71.4918540  44.7001610  43.1867609  71.6661761  45.0855341
  45.7813729  60.6030557  48.9767429  45.1104919  61.1460259  48.8480494
  46.4753480  61.0725412  48.7349123  45.7842597  60.7528828  48.9222956
  39.8300463  72.7427269  54.2079187  39.6066118  71.9846098  54.5763213
  39.3410306  72.7725290  53.4859627  39.7243912  72.6349493  54.1555928
  45.9441857  57.0586440  51.8857802  46.2969467  56.6316163  52.5603601
  45.0856658  56.9737284  52.0158878  45.8691301  56.9831181  52.0052812
  34.6425542  59.6893960  49.9440648  33.9237531  60.1058092  50.2113512
  35.0137904  60.2548199  49.3932287  34.5917474  59.8343241  49.9023455
  43.9425123  60.3221809  55.8342644  43.9223050  60.1405104  56.6877423
  43.9904323  61.1933827  55.8102228  43.9459764  60.4238347  55.9565939
  41.8871452  66.9109001  61.7591121  41.8467307  66.2658678  61.1736277
  42.6994771  66.8545618  62.0716533  42.0014606  66.8067968  61.7188070
  38.4778920  72.9627727  51.6616272  38.0639319  72.3001857  51.2720113
  39.1626294  73.1105585  51.1411966  38.5177292  72.8868385  51.5272769
  41.8444214  72.1217812  52.4139888  41.4460497  72.2320082  51.6460708
  41.2295434  72.3299878  52.9966448  41.6943103  72.1691380  52.3871188
  40.4172116  58.7291960  45.2814028  39.8236955  59.0508956  44.7298595
  40.4547394  57.8833055  45.0735134  40.3346505  58.6516288  45.1696799
  43.2929933  58.6871464  48.7115778  43.0643626  58.7104166  47.8694136
  43.5528009  57.8628931  48.8310789  43.2976121  58.5687544  48.6040976
  37.5749161  60.5405937  58.3140878  37.0628064  59.9327120  58.6725910
  37.4028657  61.2562530  58.7814854  37.4738798  60.5569237  58.4357102
  32.4214876  58.9843513  60.9643240  32.2517466  59.6444887  60.4191447
  31.9780826  59.1950074  61.6855729  32.3314209  59.1129495  60.9904870
  36.3474695  57.2248011  50.0069974  36.8232062  57.5865090  49.3720155
  35.8463295  57.8804478  50.2870117  36.3440054  57.3742199  49.9546715
  49.5786057  66.6969779  45.7982979  49.9619663  67.4461135  46.0281076
  48.7830170  66.9435598  45.5394968  49.5179839  66.8439473  45.7940552
  41.4518232  58.4630182  60.7543134  42.0089662  58.2343992  60.1221599
  41.1279297  59.2235848  60.4778346  41.4864642  58.5414019  60.6199631
  29.3216940  61.8890378  56.2231730  28.7743660  61.2191024  56.3412598
  30.1109319  61.5220226  56.2875197  29.3569124  61.7355365  56.2500430
  39.1701349  61.5497835  61.7195141  39.9212676  61.8649512  62.0334695
  39.3623925  61.3477006  60.8929063  39.3092763  61.5665217  61.6438537
  38.3901348  59.3689210  43.3743358  38.7700313  59.3868840  42.5894472
  37.6493944  59.8143199  43.2534205  38.3370186  59.4370985  43.2406926
  46.0186639  57.6771402  48.9618936  46.0180865  57.5220058  49.8203213
  45.8142819  58.5234389  48.9060322  45.9886417  57.7792022  49.0806876
  28.0803910  61.1011186  53.3777753  27.9025671  60.6487795  54.1032669
  27.7922932  61.9037347  53.5616231  28.0116863  61.1533744  53.5121256
  43.7427491  62.3568903  52.6155143  44.2381156  61.6391898  52.5759164
  42.9327267  62.0539701  52.5009630  43.6971384  62.2066550  52.5928869
  29.8176380  63.6338910  50.4899512  28.9521899  63.6224600  50.3782283
  29.9175196  63.4469133  51.3370651  29.7050547  63.6044971  50.5988456
  45.8079310  65.1072591  55.3032272  46.2334381  64.5847013  54.7502697
  45.4436230  65.7053428  54.7820895  45.8165912  65.1182818  55.1441282
  35.4433390  73.4036808  54.0629618  35.7579949  74.2173197  54.0707399
  35.8526803  73.0187027  54.7311777  35.5501488  73.4665511  54.1633709
  42.3957909  68.8206855  51.6333430  42.8669087  69.5347118  51.8023415
  42.7318088  68.2205605  52.1693299  42.5153024  68.8378319  51.7365805
  44.4834894  70.4308169  63.8125502  44.5931859  69.6416729  64.1682249
  44.8125790  70.3414105  63.0099840  44.5487300  70.3014021  63.7467892
  39.3127404  53.5934326  58.5891524  39.4455310  52.7965319  58.9172500
  39.6972557  54.1200729  59.1689800  39.3883733  53.5534242  58.7235027
  43.0331856  68.6124789  58.3961122  42.4852802  67.9882673  58.1281187
  43.4944884  68.8019061  57.6805202  43.0199065  68.5483839  58.2511553
  45.8425720  56.6810144  55.7812314  45.2588709  57.1819350  55.3689882
  46.1630014  56.1739700  55.1476638  45.8038895  56.6801979  55.6270822
  38.3820519  55.5950739  46.0570989  39.2036213  55.7649051  45.8152684
  37.9190170  55.7498000  45.3337287  38.4351681  55.6432472  45.9142634
  36.9715851  53.5893501  56.8369418  37.5160264  53.2484628  57.4273760
  37.0252787  54.4478962  56.9790703  37.0604970  53.6648760  56.9451291
  32.7846410  67.3509917  53.7108226  33.3891267  67.3105751  53.0822047
  32.5773722  68.1981069  53.7412282  32.8435307  67.4697919  53.6224342
  42.5990182  69.6175862  54.9270463  43.4188556  69.4738828  55.1886759
  42.3184260  70.2422061  55.4686901  42.6786925  69.6886214  55.0458403
  28.0197692  66.3344534  53.5807149  27.9221970  65.5240806  53.8897206
  28.8026562  66.3136328  53.1953417  28.1213829  66.2111625  53.5694012
  59.0703832  77.2740714  47.8913340  59.0397837  78.1285350  48.0631609
  59.6685181  76.9736006  48.4499483  59.1540990  77.3557210  47.9988142
  52.2703517  76.3616365  52.6466270  51.4141413  76.5224863  52.6975387
  52.3171171  75.4908429  52.6671331  52.1502629  76.2567167  52.6572336
  55.1155338  78.4208409  55.2897922  55.6611298  79.0993495  55.3491891
  55.0572214  78.2795870  54.4299503  55.1871253  78.5000410  55.1709982
  56.8920407  79.8493016  46.1631650  56.7759933  80.6000702  46.5923788
  57.6876294  79.5916969  46.4127737  56.9924996  79.9227863  46.2635741
  43.7284545  74.1003492  53.2002916  43.1089576  73.5096139  53.0312930
  43.6268408  74.6914927  52.5667239  43.6222220  74.1007574  53.0807905
  48.7750732  83.8387039  47.4500992  49.0966573  84.3792246  46.8462300
  49.4222829  83.2683810  47.5823282  48.9176788  83.8346214  47.3808027
  50.8252440  75.8403034  47.5335379  51.5232605  76.0191161  48.0256842
  51.1404773  75.3173373  46.9105768  50.9747778  75.7896806  47.5137389
  43.4553678  77.6455774  55.4446485  43.3312375  78.2318219  56.0796303
  44.1071962  77.1515969  55.7458760  43.5327327  77.6594578  55.5832414
  51.0140376  82.2273479  47.5215170  51.4534011  81.6190579  47.9669943
  50.8645039  81.8480852  46.7500635  51.0561841  82.0811950  47.4734338
  48.4812019  80.8217491  54.7233996  49.1261021  80.3289934  54.4044944
  48.7213796  80.9642277  55.5500074  48.6122604  80.7694933  54.7983529
  51.0198110  83.6672396  54.3740888  51.3021353  82.8723802  54.1527644
  51.7484271  84.1452984  54.3945949  51.1687674  83.6206993  54.3443903
  48.9979304  71.2095430  51.6156653  48.6682634  71.6606574  50.9460352
  48.3224306  71.1311594  52.1629660  48.8489740  71.2646566  51.5979877
  54.6149712  80.5800660  44.4745939  54.5301007  81.4361627  44.6195508
  55.1034096  80.3044984  45.1428099  54.6738610  80.6657981  44.5948021
  56.2055712  67.1980953  49.8606264  55.8909153  67.8884432  50.2926686
  55.6882653  67.1425736  49.1591765  56.0820182  67.2915842  49.8203213
  55.5468146  77.1985454  45.9743674  55.0179617  77.4145088  46.6340981
  56.0693166  77.8921593  45.8944644  55.5456599  77.3328591  46.0599274
  47.4367753  81.0948671  44.7751142  46.8524969  81.5998702  45.1817006
  47.0337849  80.8691058  44.0347734  47.2907057  81.1356919  44.7256168
  51.8944968  77.3414323  43.2520063  52.1340971  77.5492307  42.4395406
  52.2160809  76.5371832  43.3609008  51.9782126  77.2528424  43.1480616
  47.2035258  69.2707719  47.0979601  47.9581226  69.6386036  46.8596651
  47.0262793  69.6447273  47.8658781  47.2889736  69.3805907  47.1764490
  60.4970157  75.4202159  55.1427140  59.6598578  75.4904346  55.3774735
  60.4658388  75.4226654  54.2701443  60.3688439  75.4312386  55.0486688
  46.8934886  77.5635195  60.8575509  47.0655390  77.4541090  61.7060790
  47.4304243  78.2089600  60.6206701  46.9979890  77.6427197  60.9480606
  45.5592323  71.6778038  43.7957714  45.3767896  71.8949919  42.9698707
  46.4217936  71.7917050  43.8516328  45.6596912  71.7267936  43.6812201
  51.2392042  68.6804448  46.8306738  51.9678202  68.5020403  46.3844894
  51.3286935  69.5222528  47.0413916  51.3598704  68.7788327  46.7960255
  55.2200343  79.6157836  50.7339032  55.9757858  80.0489350  50.7727941
  55.3262667  78.9662606  51.3073668  55.3470513  79.5835320  50.8237057
  41.1996603  80.1567126  55.6928429  40.9335018  79.3406243  55.8519419
  41.2135167  80.2020282  54.8223944  41.1621325  80.0424031  55.5881911
  58.1777997  70.4844941  53.7270863  58.8203905  70.5543045  54.3132778
  58.4301017  69.8174164  53.2250405  58.3100129  70.3971290  53.7398142
  45.1054350  74.9552210  42.3080187  44.3912527  74.6690390  42.7202620
  45.5898318  75.2948836  42.9486575  45.0713713  74.9633860  42.4635822
  45.9495209  73.6945504  58.3395437  45.2567006  73.2242484  58.5856168
  46.5655536  73.4683809  58.9137144  45.9379739  73.5912636  58.4604589
  52.2801668  83.4582164  42.6841995  52.6952816  83.1267188  41.9926491
  51.4493597  83.2251067  42.5562132  52.2189676  83.3753420  42.5632843
  41.6090016  80.9425905  52.9740173  41.4265590  80.9172791  52.1212465
  42.3439685  81.4124843  53.0129082  41.6904080  81.0087268  52.8538092
  57.6789691  81.1777415  50.1173061  57.9145280  81.3222614  49.2899911
  57.8279254  81.9419823  50.5104574  57.7355494  81.3116470  50.0536665
  44.6735768  77.6610908  59.4822282  45.3975740  77.6463939  59.9687177
  44.7751905  78.3706263  58.9844250  44.7953977  77.7635611  59.4801069
  59.5080147  80.0179081  47.9542665  59.8388364  80.5506721  47.3482759
  60.0813235  80.0717969  48.6104616  59.6413826  80.1048650  47.9620446
  54.7212036  77.8643984  48.6366245  54.8158891  78.6033278  49.0905870
  54.0970880  77.4361459  49.0700809  54.6421067  77.9105305  48.7674392
  41.5760927  77.8219406  53.1239240  42.1534429  77.6855857  53.7631485
  40.8774988  77.3655190  53.3784824  41.5581948  77.7341672  53.2561529
  54.9735058  79.7092724  41.8703197  54.8915220  79.7794911  42.7358184
  55.6114778  80.2722468  41.6786937  55.0554895  79.8031695  41.9693146
  48.3328229  79.4753462  51.3377723  48.0747473  78.6425197  51.3109022
  48.3876712  79.7011075  50.4970223  48.3028007  79.3851233  51.2097860
  53.4129279  71.5781912  51.4381816  52.7085606  71.0891098  51.5965735
  53.4614253  71.5904387  50.5670260  53.3159331  71.5071560  51.3321155
  47.3062941  77.0291224  51.8242618  46.7312532  77.1883393  52.4606579
  46.9298617  76.3926633  51.3611068  47.1665753  76.9589037  51.8497176
  50.9736230  75.5014573  56.6834996  50.5850662  75.0768791  56.0287187
  50.3090928  75.7496723  57.1912023  50.8183158  75.4753295  56.6622864
  60.6159499  75.2589578  49.4582826  60.3596064  74.4469520  49.2680709
  61.4588813  75.2667145  49.2313014  60.7025524  75.1401576  49.3967643
  37.0519760  76.6731299  49.8387058  37.1380012  76.2963167  50.6200588
  37.6795557  76.2991745  49.3607017  37.1576311  76.5616781  49.8832536
  54.7962591  69.1989202  54.1958980  55.1773103  68.5167373  54.5826855
  53.9925876  68.9098804  54.0134645  54.7339053  69.0556251  54.2263036
  52.0775168  79.7313178  44.8811803  52.8915807  80.0228071  44.7694575
  52.0134309  79.0773040  44.3070096  52.1877907  79.6778373  44.7800640
  47.9483076  83.2034696  50.0084115  48.5857023  82.9646443  50.5535909
  48.3738148  83.4071854  49.2737276  48.1059242  83.1985706  49.9801273
  48.5885891  78.4236985  44.3459005  48.9731044  78.2044692  45.0975550
  48.3397512  79.2499931  44.4760081  48.6087964  78.5135132  44.4760081
  48.7554432  71.7043400  64.0621589  48.4407873  72.4742963  63.7991152
  48.4344364  71.1413657  63.4773816  48.6613351  71.7353669  63.9362939
  50.3304548  83.6807118  51.6877901  50.4043556  83.5182290  52.5419751
  51.1474055  83.8697308  51.4438383  50.4620907  83.6843860  51.7775927
  46.3086329  70.0933922  49.6767785  45.4408754  70.1656521  49.7425394
  46.5961533  70.8956001  49.8655760  46.2226077  70.2228069  49.7142552
  55.4319217  70.2411781  58.0079107  56.1772809  70.0521592  57.5942532
  55.0156522  70.7670019  57.4492963  55.4804192  70.2913927  57.8643680
  62.8081488  77.6121010  52.9584612  63.3589410  76.9789079  53.1981704
  62.7925604  78.1436403  53.6500116  62.8866685  77.5969958  53.0963470
  49.4603879  81.4459607  57.5044505  48.9615573  82.1575375  57.5829394
  50.2704103  81.7660274  57.4662668  49.5059986  81.5986456  57.5101074
  45.7231997  80.7082560  51.7507226  45.4345245  80.0820031  52.2852954
  46.5915345  80.6502848  51.8171907  45.8092249  80.6070104  51.8398181
  56.5109894  75.8517344  52.0689208  56.1674660  75.1307679  52.4196458
  56.6102937  75.6431195  51.2267566  56.4751937  75.7141547  51.9960888
  45.9264270  82.3477811  47.6749591  46.6810238  82.7290850  47.8885054
  45.3334883  82.7988955  48.1296288  45.9500984  82.4706639  47.7732470
  48.3870937  74.3040652  62.8006804  47.5770713  74.6098431  62.6896646
  48.8645624  75.0246234  62.9159388  48.3374416  74.4555253  62.8013875
  47.2462497  83.5186373  53.0489707  46.7243250  83.6586664  53.7341571
  47.6336517  82.7597037  53.2391824  47.2266198  83.4271896  53.1790783
  44.2353681  73.5692181  47.1184661  43.9478476  73.1993452  46.3816609
  44.9224149  74.0387037  46.8568366  44.2942578  73.5839151  46.9699737
  48.6728822  80.5490392  48.4471198  48.4771605  81.1565126  47.8531501
  48.8963168  79.8558336  47.9662872  48.6763463  80.5367917  48.2887279
  47.0707352  77.4345129  48.5652066  47.7930004  77.5986288  48.1055872
  46.5915345  78.1554794  48.4591406  47.1071083  77.5643359  48.4817680
  55.0300860  73.7708928  53.9448751  54.1911961  73.7970207  53.7087014
  55.1005227  74.4179664  54.5254098  54.9169253  73.8705054  53.9957868
  44.7214969  79.8403202  57.6706206  45.2336066  80.1187455  57.0214966
  44.4351312  80.5792496  58.0369019  44.7549832  79.9905556  57.6296084
  53.4770138  70.6694305  48.6776367  54.1796491  70.4702054  48.1996325
  53.2114327  69.8970248  48.9845210  53.5416770  70.5257271  48.6521809
  58.9058384  78.9776915  51.2309993  58.8192358  79.1332341  52.0844772
  58.4508864  79.6214991  50.8569398  58.8261640  79.0952670  51.3017100
  41.8081875  74.3473394  47.9669942  41.9098012  75.1499555  48.2950918
  42.6037762  74.1460730  47.6693023  41.9409781  74.4359293  47.9705298
  48.2398694  71.9329590  57.7307248  48.0481891  71.9484725  58.5806671
  49.0897290  72.1293265  57.7073902  48.3374416  71.9643942  57.8530542
  42.6245607  74.4620572  55.7091064  42.4831099  73.6104513  55.8335572
  42.9086171  74.5049233  54.8853270  42.6453453  74.3420322  55.6058688
  52.7784200  76.2987662  49.8535552  52.5318914  76.2183413  50.6872341
  53.1069323  75.5141130  49.6598080  52.7905443  76.1713927  49.9483075
  48.7381227  79.0344381  59.2658535  48.8824603  79.6145589  58.6301645
  49.0856876  79.4120677  59.9708390  48.8108688  79.1765085  59.2757530
  50.9101144  78.2334549  57.0483667  50.1624458  78.4265563  56.6431945
  51.0642670  77.4079769  56.8107788  50.8223572  78.1399661  56.9529073
  51.1502921  72.1285100  57.9379071  51.6075536  72.8609074  58.0651863
  51.2259250  71.7051565  58.6966327  51.2293891  72.1742338  58.0680147
  43.3935913  72.3750920  59.0268514  42.8578102  71.7631278  59.3429282
  43.4553677  72.9499056  59.6802181  43.3231545  72.3697847  59.1703941
  55.6230247  65.3074975  51.8072914  55.7413815  65.7651438  51.0740216
  55.4492423  64.5020236  51.5209131  55.6149418  65.2568747  51.6573847
  49.0285299  74.1187204  54.7820895  48.2381374  73.9378664  55.1038231
  49.4245922  73.3414156  54.7651189  48.9702176  73.9774665  54.8273443
  53.5151190  82.9474978  40.2227608  54.2824175  83.0075103  39.8133460
  53.0682499  82.3755420  39.7383927  53.5624617  82.8711554  40.0905319
  54.4128986  81.7529634  52.5080341  53.7373987  81.5214866  53.0093728
  54.4221362  81.1450817  51.8822446  54.3147490  81.6288559  52.4896493
  51.5423130  76.5947463  59.2644394  51.4782271  77.4557419  59.1364530
  51.6820317  76.2779456  58.4639945  51.5538600  76.6747630  59.1272607
  50.2242224  79.2879602  53.4060597  49.8004473  79.4884101  52.6699615
  50.0487079  78.4408450  53.5184896  50.1353104  79.1928384  53.3134287
  45.5124669  79.7831654  48.8388569  45.6689288  79.7178456  49.6944561
  45.8525262  80.5580206  48.6267249  45.5857903  79.8880852  48.9343163
  52.0503813  79.1589537  47.7081932  52.5919359  78.6559918  48.1720553
  52.3650372  79.1054732  46.8971418  52.1768210  79.0768958  47.6565744
  50.2190263  84.5506889  44.9921960  50.2883083  83.6921427  45.1314961
  50.9978718  84.7678770  44.6640985  50.3443113  84.4559753  44.9639118
  53.1993082  74.0525842  57.7604233  53.4135052  73.4136756  57.2067587
  52.5826982  74.4971666  57.3312095  53.1398412  74.0235985  57.6154664
  42.0858930  76.9666604  49.1549336  42.4657895  77.3851149  48.4909604
  41.5114295  77.5480060  49.4618180  42.0570255  77.1144463  49.1026077
  55.3632170  75.6614907  58.6987540  54.5508852  75.3540797  58.7800713
  55.8222105  75.1813907  59.2630252  55.3112555  75.5451399  58.7942134
  54.7737425  83.5394579  49.1464484  54.4152080  83.7109222  49.9228517
  54.2876136  84.0007785  48.5892483  54.6496122  83.6333550  49.1789753
  52.5907811  67.1625777  52.7491576  51.7201369  67.1364499  52.7024885
  52.8448152  66.9902970  51.9317421  52.5001371  67.1335921  52.6211712
  49.5625791  79.2193744  41.6864719  49.8518315  79.9958627  41.9608293
  49.6497589  78.7082476  42.3879218  49.6180047  79.2585663  41.8307216
  49.6156952  69.1732006  54.2065046  49.0995440  68.4812197  54.3316625
  49.0550881  69.8402783  54.1527645  49.4563465  69.1695263  54.2171112
  51.6849185  69.7124966  56.0357899  51.2980938  69.7373997  56.8171428
  51.1982122  69.1466645  55.5832415  51.5561694  69.6320717  56.0845802
  57.6599165  76.2787621  54.6597601  57.2326773  76.1913969  53.9045700
  57.0225218  76.3865396  55.2452445  57.5028772  76.2820281  54.6343042
  51.3506327  66.5991951  58.3268158  51.9799445  67.1352251  58.0489229
  51.5192190  66.5069310  59.1781724  51.4684121  66.6653314  58.4116687
  51.1520242  71.3863146  60.5994570  51.9793671  71.1148295  60.6553184
  51.1728088  72.1823988  60.9558388  51.2773092  71.4642900  60.6609753
  45.7289732  78.5327009  53.7864831  44.8877738  78.4330883  53.9943725
  45.9379739  79.3022489  54.1379151  45.6354424  78.6319052  53.8692146
  43.2065298  76.1546546  51.6149581  42.8121996  76.2289558  50.8399691
  42.6505415  76.5404492  52.1657943  43.0668111  76.2228320  51.5817241
  54.8430245  69.1327840  51.2953460  55.0479839  69.0650148  52.1410457
  54.5156669  69.9386661  51.2274638  54.8245493  69.2413780  51.4113115
  49.5406396  76.4608408  53.0362428  49.2369534  75.9064396  53.6372836
  48.8385817  76.6400618  52.5490462  49.3922606  76.4053190  53.0532134
  48.5972494  73.7708928  47.6007130  48.8732228  73.0527840  47.1884698
  49.1971163  74.3693848  47.3928236  48.7265758  73.7529299  47.5087891
  58.0963933  69.6859604  50.7756226  57.4838247  70.1730006  51.1609958
  58.1928108  69.0103095  51.3193877  58.0201831  69.6577913  50.9135084
  52.0983014  71.4422445  45.8753725  52.5526761  71.6133006  46.6001570
  52.5723060  70.8290556  45.4751501  52.2351334  71.3773330  45.9227487
  45.6198539  80.9270771  55.2056464  45.0286473  81.5680269  55.1759479
  46.3819563  81.3508388  55.1787763  45.6446800  81.0846610  55.1971611
  46.0159162  72.0872769  55.8724481  46.4760644  72.1611698  56.6099605
  46.0615269  72.8854023  55.5224303  46.0909718  72.2166916  55.9297238
  47.6642512  72.7539464  60.4396508  47.2728077  72.1072811  60.8752286
  47.8328375  73.3450899  61.0590764  47.6313422  72.7453732  60.5959214
  49.4396034  78.1464980  46.9798732  50.1838079  78.5339256  47.2181682
  49.5856730  77.3022405  47.1439220  49.5706619  78.0795452  47.0392702
  51.3575609  69.9415238  52.0130594  50.5111655  70.1138046  51.8871944
  51.3546742  69.1364582  52.3496422  51.2322759  69.8476267  52.0441721
  52.4273910  73.7190453  52.8792652  51.9533864  73.1932215  53.3897963
  52.7992046  73.1719926  52.3107513  52.4123799  73.5606450  52.8707799
  42.8046940  75.7161960  58.2476197  43.6672553  75.6157669  58.1613527
  42.4738723  75.1356669  57.6861770  42.8832136  75.6153586  58.1521603
  58.6910640  78.7792829  54.2899432  58.4508863  77.9399244  54.2941859
  59.1702648  78.8592995  55.0140206  58.7262824  78.6674228  54.3974234
  54.3557410  74.6127007  45.9418405  53.8280428  74.6955751  45.2524114
  54.8153118  75.3544879  45.9383050  54.3459260  74.7347670  45.8393101
  60.6915827  75.5594286  52.2428691  60.4525597  75.5190120  51.4049476
  60.8549729  76.4065438  52.3694412  60.6806131  75.6786371  52.1382173
  46.1648726  74.5404409  54.9086616  45.5401796  74.5522801  54.3012568
  45.8294321  75.0164584  55.5577856  46.0234218  74.6122926  54.9143184
  46.3490475  72.8829527  40.9659301  46.0003279  73.5349252  41.4290850
  45.8686920  72.8686640  40.2383172  46.2260719  72.9772581  40.9270392
  53.9094492  83.1830571  45.0728062  54.6328691  83.6488684  44.9292636
  53.4695083  83.2504181  44.3225659  53.9510184  83.2614408  44.9412844
  53.0780647  80.0428113  56.3228751  52.4637640  79.4986164  56.6177387
  53.5947932  79.5292350  55.8434568  53.0636310  79.8864522  56.2952980
  52.3176944  81.1132383  54.0573050  51.8904552  80.4882102  53.6238486
  52.3101889  80.8307305  54.8832057  52.2536085  80.9785164  54.1152878
  45.4339471  76.1497556  57.1261484  45.5932958  75.3940881  57.5313206
  45.2532365  76.6988496  57.7802222  45.4304830  76.1191370  57.2824190
  53.3759774  68.3158792  57.6812274  52.8800336  68.5122466  56.9903840
  54.1328836  68.7151460  57.5101075  53.4146599  68.4036526  57.5532410
  50.6462654  71.9901138  54.2715584  50.6705141  71.4561250  53.5828364
  50.8974128  71.4818447  54.9341175  50.6872573  71.8362042  54.2680229
  38.1570244  79.2732633  53.7058728  38.0513693  79.2279477  52.8410812
  37.4070464  79.6186413  53.9873013  38.0305847  79.3173541  53.6196058
  46.9263976  70.7171956  53.6521328  46.9662348  71.2181163  54.3656036
  46.1013641  70.8082350  53.3827251  46.8103502  70.8053772  53.7171867
  48.3478340  77.2332466  55.9495227  47.5170269  77.4006284  55.7430476
  48.2929857  76.8568417  56.7344113  48.2167754  77.2022197  56.0343756
  46.1562123  70.7241359  61.5851638  46.7814826  70.1803492  61.8581070
  45.7012603  70.2436276  61.0159429  46.1810383  70.5730840  61.5413232
  46.7214383  75.5088057  46.4785345  46.8617344  76.0060522  47.1813987
  47.2196916  74.8074352  46.6199559  46.8155464  75.4790036  46.6036924
  46.7514606  76.3755169  43.8077922  47.3859685  76.9715594  43.7427384
  46.8340217  76.0758626  44.6223792  46.8571157  76.4196077  43.9181009
  48.3293589  72.3069144  43.7823364  48.6509430  71.8272226  43.1282626
  48.5920532  73.1168790  43.5914176  48.4159614  72.3559042  43.6578856
  53.7252744  71.6941338  56.1446843  54.1507815  71.2413864  55.5330369
  53.1109737  71.1401409  56.4211631  53.6981389  71.5455314  56.0951868
  43.2567594  78.5723009  47.0767468  43.7659823  79.1687517  47.4578774
  43.7301866  78.3048983  46.3943888  43.4010969  78.6208825  47.0321991
  52.1646966  68.1656438  49.5537420  51.5215284  68.0154084  50.1222559
  51.8246373  67.9198783  48.7886525  52.0192044  68.1068560  49.5240435
  56.7546313  76.1215865  48.9767429  56.0837503  76.6645567  48.8480494
  57.4486063  76.5910720  48.7349123  56.7575180  76.2714136  48.9222956
  56.9174440  72.5771748  51.8857802  57.2702050  72.1501471  52.5603601
  56.0589242  72.4922592  52.0158878  56.8423885  72.5016489  52.0052812
  45.6158125  75.2079268  49.9440648  44.8970115  75.6243400  50.2113512
  45.9870488  75.7733507  49.3932287  45.5650057  75.3528549  49.9023455
  54.9157706  75.8407117  55.8342644  54.8955634  75.6590412  56.6877423
  54.9636907  76.7119135  55.8102228  54.9192347  75.9423655  55.9565939
  51.3904700  74.2477268  45.2814028  50.7969539  74.5694264  44.7298595
  51.4279977  73.4018363  45.0735134  51.3079089  74.1701596  45.1696799
  58.3498500  67.6990160  52.8142114  57.8429365  66.9919300  52.7463292
  59.1465934  67.3683349  52.9443191  58.3925740  67.5463311  52.8241109
  54.2662516  74.2056772  48.7115778  54.0376209  74.2289474  47.8694136
  54.5260593  73.3814239  48.8310789  54.2708704  74.0872852  48.6040976
  48.5481745  76.0591245  58.3140878  48.0360648  75.4512428  58.6725910
  48.3761241  76.7747838  58.7814854  48.4471382  76.0754545  58.4357102
  43.3947459  74.5028821  60.9643240  43.2250050  75.1630195  60.4191447
  42.9513409  74.7135382  61.6855729  43.3046793  74.6314803  60.9904870
  47.3207279  72.7433319  50.0069974  47.7964645  73.1050398  49.3720155
  46.8195878  73.3989786  50.2870117  47.3172638  72.8927507  49.9546715
  52.4250815  73.9815490  60.7543134  52.9822245  73.7529299  60.1221599
  52.1011880  74.7421156  60.4778346  52.4597225  74.0599327  60.6199631
  40.2949524  77.4075686  56.2231730  39.7476243  76.7376332  56.3412598
  41.0841902  77.0405534  56.2875197  40.3301708  77.2540673  56.2500430
  49.3633932  74.8874518  43.3743358  49.7432897  74.9054148  42.5894472
  48.6226528  75.3328507  43.2534205  49.3102770  74.9556293  43.2406926
  56.9919223  73.1956710  48.9618936  56.9913449  73.0405366  49.8203213
  56.7875403  74.0419697  48.9060322  56.9619000  73.2977330  49.0806876
  39.0536493  76.6196494  53.3777753  38.8758255  76.1673103  54.1032669
  38.7655516  77.4222655  53.5616231  38.9849447  76.6719052  53.5121256
  54.7160075  77.8754211  52.6155143  55.2113740  77.1577206  52.5759164
  53.9059850  77.5725009  52.5009630  54.6703968  77.7251858  52.5928869
  50.1618686  81.7252025  44.7652148  49.3530009  81.4018698  44.7185457
  50.6693595  81.0185247  44.6980396  50.1168353  81.5733341  44.7482442
  40.7908963  79.1524218  50.4899512  39.9254483  79.1409908  50.3782283
  40.8907779  78.9654441  51.3370651  40.6783130  79.1230279  50.5988456
  56.7811893  80.6257899  55.3032272  57.2066965  80.1032321  54.7502697
  56.4168813  81.2238736  54.7820895  56.7898496  80.6368126  55.1441282
  53.3690493  84.3392163  51.6333430  53.8401671  85.0532426  51.8023415
  53.7050671  83.7390913  52.1693299  53.4885608  84.3563627  51.7365805
  50.2859988  69.1119634  58.5891524  50.4187893  68.3150627  58.9172500
  50.6705141  69.6386037  59.1689800  50.3616317  69.0719550  58.7235027
  53.3592343  66.0349960  55.1872618  52.5538307  65.9247689  55.5040456
  53.2299078  66.1362415  54.3302483  53.2212476  66.0333630  55.1080658
  56.8158304  72.1995452  55.7812314  56.2321292  72.7004658  55.3689882
  57.1362598  71.6925008  55.1476638  56.7771479  72.1987287  55.6270822
  49.3553103  71.1136047  46.0570989  50.1768797  71.2834359  45.8152684
  48.8922754  71.2683307  45.3337287  49.4084265  71.1617779  45.9142634
  47.9448435  69.1078809  56.8369418  48.4892848  68.7669936  57.4273760
  47.9985370  69.9664270  56.9790703  48.0337554  69.1834068  56.9451291
  25.8456906   7.6562921  34.8253386  25.8150910   8.5107558  34.9971656
  26.4438254   7.3558214  35.3839530  25.9294063   7.7379418  34.9328189
  19.0456590   6.7438572  39.5806317  18.1894486   6.9047070  39.6315434
  19.0924244   5.8730636  39.6011378  18.9255702   6.6389374  39.5912383
  13.4297730  16.2801290  35.3443548  12.6780630  15.9016828  35.1159594
  13.8783742  16.3119724  34.5962359  13.3847397  16.2286897  35.2001051
  22.3550307  13.0125098  49.1866773  23.0617074  12.5177128  49.3153707
  22.5438242  13.4534179  48.4569431  22.4878213  13.0043448  49.0975819
  18.8822690  16.7026659  30.7729096  18.5474058  17.3803581  30.3373318
  19.3949560  16.3131971  30.1845967  18.9088271  16.7451238  30.6215887
  18.4226981  18.6540928  36.7140207  18.8066361  19.2227827  36.1744982
  18.3586122  17.9290438  36.2346023  18.4700408  18.6316392  36.5634070
  21.8908411   8.8030616  42.2237969  22.4364371   9.4815703  42.2831938
  21.8325288   8.6618077  41.3639550  21.9624326   8.8822618  42.1050029
  15.0082486  16.2919682  37.6106321  15.1092849  15.4820036  37.9203449
  14.4124232  16.1976629  36.9806000  14.9355025  16.1584710  37.5632559
  23.6673480  10.2315223  33.0971696  23.5513006  10.9822909  33.5263834
  24.4629367   9.9739176  33.3467783  23.7678069  10.3050070  33.1975788
  14.8483226  21.2097271  39.0121177  15.4920681  21.6510435  39.4017335
  15.1739481  20.4050697  38.9251436  14.9915055  21.1562466  39.0566654
   8.2047531  12.3139969  37.2358655   7.9697715  11.4807621  37.1290923
   8.3433171  12.5944634  36.4219856   8.1903193  12.2323472  37.1001010
  15.5503806  14.2209246  34.3841039  15.8719647  14.7614453  33.7802347
  16.1975902  13.6506018  34.5163329  15.6929861  14.2168421  34.3148074
  17.6005514   6.2225241  34.4675425  18.2985678   6.4013369  34.9596889
  17.9157846   5.6995580  33.8445815  17.7500851   6.1719013  34.4477436
  10.2306751   8.0277981  42.3786531  10.1065448   8.6140427  43.0136350
  10.8825036   7.5338177  42.6798806  10.3080400   8.0416785  42.5172461
  17.7893449  12.6095686  34.4555217  18.2287084  12.0012787  34.9009990
  17.6398112  12.2303059  33.6840682  17.8314915  12.4634157  34.4074384
  15.2565092  11.2039698  41.6574042  15.9014095  10.7112141  41.3384991
  15.4966869  11.3464485  42.4840121  15.3875677  11.1517140  41.7323576
  17.7951183  14.0494604  41.3080935  18.0774426  13.2546010  41.0867691
  18.5237344  14.5275191  41.3285996  17.9440747  14.0029201  41.2783950
  21.3902786  10.9622867  31.4085986  21.3054081  11.8183834  31.5535555
  21.8787169  10.6867191  32.0768145  21.4491683  11.0480189  31.5288068
  22.9808785  -2.4196839  36.7946311  22.6662226  -1.7293361  37.2266733
  22.4635727  -2.4752057  36.0931811  22.8573255  -2.3261951  36.7543260
  22.3221219   7.5807662  32.9083721  21.7932690   7.7967295  33.5681028
  22.8446239   8.2743800  32.8284691  22.3209672   7.7150798  32.9939321
  14.2120827  11.4770878  31.7091189  13.6278042  11.9820910  32.1157053
  13.8090922  11.2513265  30.9687781  14.0660130  11.5179127  31.6596215
   9.7664855  17.1925639  38.5114861   9.2832433  17.9176129  38.4874444
  10.5788173  17.4901770  38.6225019   9.8155603  17.3427993  38.5242140
  15.8379009  15.9857820  41.1164675  15.3205951  15.6265235  40.5125983
  16.5353401  15.4619995  41.1270741  15.8644590  15.8555508  41.0294934
  19.4942601  16.4352634  47.0780848  19.5825947  16.2478775  47.9259059
  19.9232314  15.7890064  46.6785695  19.5704704  16.3115642  47.1452600
  17.0613061  15.7183794  46.0598510  16.4983896  15.3056404  46.5838172
  17.8234085  15.6436700  46.4791654  17.0907510  15.6461195  46.1991511
  18.6698041   7.7236530  30.1860110  18.9094045   7.9314514  29.3735453
  18.9913882   6.9194039  30.2949054  18.7535199   7.6350632  30.0820663
  12.6209052  17.7081815  38.6635141  13.3229632  17.1933804  38.7207897
  12.5406536  18.0355967  39.4682016  12.7132813  17.6796042  38.7907933
  27.2723230   5.8024367  42.0767187  26.4351651   5.8726554  42.3114782
  27.2411461   5.8048862  41.2041489  27.1441512   5.8134594  41.9826735
  13.6687959   7.9457402  47.7915556  13.8408463   7.8363297  48.6400837
  14.2057317   8.5911808  47.5546748  13.7732963   8.0249404  47.8820652
  11.9459828  13.8988167  38.1720749  12.7848727  14.1311100  38.2194510
  11.9771597  13.0292479  38.1027784  12.0741545  13.8045114  38.1685393
  12.5712531  14.3189043  42.4734054  13.1110756  14.1760174  43.1437427
  11.8882477  14.7185793  42.8418080  12.5504685  14.3568713  42.6268476
  21.9953416   9.9980043  37.6679079  22.7510931  10.4311558  37.7067987
  22.1015740   9.3484813  38.2413715  22.1223586   9.9657527  37.7577104
  19.6062661  15.8661653  49.7424632  20.3903077  15.9792501  50.1080374
  19.4059255  15.0402790  49.9383318  19.6928686  15.7608373  49.8259018
   7.9749676  10.5389333  42.6268476   7.7088091   9.7228450  42.7859466
   7.9888240  10.5842489  41.7563991   7.9374398  10.4246238  42.5221958
  24.9531070   0.8667148  40.6610909  25.5956978   0.9365253  41.2472825
  25.2054091   0.1996371  40.1590451  25.0853202   0.7793497  40.6738189
  11.8807423   5.3374418  29.2420234  11.1665600   5.0512597  29.6542666
  12.3651392   5.6771044  29.8826621  11.8466786   5.3456067  29.3975869
  19.7633054  17.7771755  43.3891087  18.9648300  17.5371255  43.6464956
  20.2119065  17.8286148  44.1358135  19.7107665  17.7494146  43.5376012
  28.1677933  10.5434240  37.3101119  28.8294367   9.9824909  37.2097027
  27.5269345  10.0486271  37.6353810  28.1706801  10.3870649  37.3433459
  19.0554741  13.8404372  29.6182042  19.4705889  13.5089396  28.9266538
  18.2246670  13.6073274  29.4902179  18.9942750  13.7575628  29.4972889
   8.3843090  11.3248113  39.9080220   8.2018663  11.2994999  39.0552512
   9.1192759  11.7947051  39.9469129   8.4657154  11.3909475  39.7878138
  24.4542764  11.5599623  37.0513108  24.6898353  11.7044822  36.2239958
  24.6032327  12.3242031  37.4444621  24.5108567  11.6938677  36.9876711
  11.4488841   8.0433116  46.4162329  12.1728814   8.0286146  46.9027223
  11.5504978   8.7528471  45.9184297  11.5707050   8.1457819  46.4141115
  26.2833221  10.4001289  34.8882711  26.6141438  10.9328929  34.2822806
  26.8566309  10.4540176  35.5444662  26.4166900  10.4870858  34.8960493
  18.8233791  11.5232200  51.2811276  18.0306772  11.8375712  51.4663895
  18.9382718  11.7383669  50.4432060  18.7229201  11.6016037  51.1849610
  21.4965110   8.2466191  35.5706291  21.5911964   8.9855485  36.0245917
  20.8723953   7.8183667  36.0040856  21.4174140   8.2927512  35.7014439
  19.7517584  11.4252404  46.2196572  20.3256445  10.7879648  46.3745136
  19.6732387  11.4256486  45.3506230  19.8250818  11.3317515  46.1142983
   8.3514000   8.2041613  40.0579287   8.9287503   8.0678064  40.6971532
   7.6528062   7.7477398  40.3124871   8.3335021   8.1163880  40.1901576
  21.7488131  10.0914931  28.8043244  21.6668294  10.1617118  29.6698230
  22.3867851  10.6544675  28.6126984  21.8307968  10.1853902  28.9033193
  15.1081302   9.8575669  38.2717770  14.8500546   9.0247404  38.2449069
  15.1629785  10.0833282  37.4310270  15.0781080   9.7673440  38.1437907
  20.1882352   1.9604120  38.3721862  19.4838679   1.4713305  38.5305782
  20.2367327   1.9726594  37.5010307  20.0912404   1.8893768  38.2661202
  14.0816014   7.4113432  38.7582665  13.5065606   7.5705600  39.3946626
  13.7051691   6.7748841  38.2951115  13.9418827   7.3411245  38.7837223
  17.7489303   5.8836781  43.6175043  17.3603736   5.4590999  42.9627234
  17.0844001   6.1318931  44.1252070  17.5936231   5.8575502  43.5962911
  27.3912572   5.6411786  36.3922873  27.1349137   4.8291727  36.2020756
  28.2341886   5.6489353  36.1653060  27.4778597   5.5223783  36.3307690
  21.5715664  -0.4188590  41.1299027  21.9526176  -1.1010419  41.5166901
  20.7678949  -0.7078988  40.9474692  21.5092126  -0.5621542  41.1603083
  18.8528241  10.1135385  31.8151850  19.6668880  10.4050278  31.7034621
  18.7887382   9.4595248  31.2410143  18.9630980  10.0600580  31.7140687
  25.0737731  12.7961382  46.2281426  24.8376369  11.9649446  46.1093486
  25.7180960  12.7446989  46.8136270  25.1332402  12.6659070  46.2967319
  14.7236149  13.5856903  36.9424162  15.3610096  13.3468650  37.4875955
  15.1491221  13.7894062  36.2077323  14.8812316  13.5807913  36.9141319
   9.4148792  15.8245239  40.8258466   9.4552937  16.0960090  39.9978245
   9.9743316  16.3487147  41.2416254   9.5032138  15.9420994  40.7650354
  15.3638964   8.8059193  31.2799051  15.7484117   8.5866899  32.0315597
  15.1150585   9.6322138  31.4100128  15.3841037   8.8957339  31.4100128
  26.0974152  12.5805830  42.2909720  25.7919969  13.3133887  42.6523036
  25.3780368  12.1743760  42.0102506  25.9461494  12.6287563  42.3022857
  17.1057621  14.0629326  38.6217948  17.1796630  13.9004497  39.4759798
  17.9227128  14.2519515  38.3778430  17.2373980  14.0666068  38.7115974
  31.7975944   9.2198831  41.6178064  31.7300444   9.2394790  40.7480651
  31.7831607  10.0629158  41.8433735  31.7854701   9.3472566  41.5230541
  10.8663378  14.4087188  35.6512392  10.0401496  14.6548926  35.5246671
  10.9275369  14.3299269  36.5174450  10.7537545  14.4332137  35.7601336
  22.2072291   0.6233989  44.9419154  22.9525883   0.4343799  44.5282579
  21.7909595   1.1492227  44.3833010  22.2557265   0.6736134  44.7983727
  15.6462207  17.0264069  33.3531422  15.9360506  16.6353050  32.6290648
  16.3765688  17.2080774  33.7936697  15.7969091  16.9957882  33.3114229
  29.5834561   7.9943217  39.8924659  30.1342483   7.3611286  40.1321751
  29.5678677   8.5258610  40.5840163  29.6619758   7.9792165  40.0303517
  16.2356952  11.8281815  44.4384552  15.7368646  12.5397582  44.5169441
  17.0457177  12.1482481  44.4002715  16.2813059  11.9808663  44.4441121
  13.5868123  19.0031451  36.4191571  13.3668418  18.7128806  37.2118238
  13.3662645  18.3446406  35.8909484  13.5215717  18.8631159  36.4580480
  12.4985070  11.0904768  38.6847273  12.2098319  10.4642239  39.2193000
  13.3668418  11.0325055  38.7511954  12.5845322  10.9892312  38.7738228
  23.2862968   6.2339551  39.0029255  22.9427734   5.5129886  39.3536505
  23.3856010   6.0253402  38.1607613  23.2505011   6.0963754  38.9300935
  15.7536078  20.3760841  35.2022264  16.4060136  19.8437283  35.4313290
  15.0561687  20.0229493  35.5890138  15.7466796  20.2450364  35.2934432
  12.7017343  12.7300019  34.6089638  13.4563311  13.1113058  34.8225101
  12.1087956  13.1811162  35.0636335  12.7254057  12.8528846  34.7072517
  23.7475997  12.6965255  34.5453243  24.3134029  13.3558465  34.4611786
  23.1003900  13.0414953  35.0169645  23.7354753  12.8447196  34.6026000
  15.1624010   4.6862859  49.7346850  14.3523786   4.9920639  49.6236693
  15.6398697   5.4068441  49.8499435  15.1127489   4.8377460  49.7353922
  14.0215570  13.9008580  39.9829754  13.4996323  14.0408872  40.6681618
  14.4089590  13.1419244  40.1731871  14.0019271  13.8094104  40.1130830
  20.2182575  15.6404039  33.9690322  19.9769251  14.9071900  33.5617387
  20.3983908  16.1890896  33.3156656  20.2090199  15.6126430  33.8120545
  15.4481895  10.9312599  35.3811245  15.2524678  11.5387333  34.7871548
  15.6716241  10.2380543  34.9002919  15.4516537  10.9190124  35.2227325
  13.8460426   7.8167337  35.4992113  14.5683077   7.9808495  35.0395919
  13.3668418   8.5377002  35.3931453  13.8824156   7.9465566  35.4157727
  21.8053933   4.1531136  40.8788798  20.9665034   4.1792415  40.6427061
  21.8758300   4.8001871  41.4594145  21.6922327   4.2527261  40.9297915
  11.4968042  10.2225409  44.6046253  12.0089139  10.5009663  43.9555013
  11.2104385  10.9614703  44.9709066  11.5302905  10.3727763  44.5636131
  20.2523211   1.0516513  35.6116414  20.9549564   0.8524261  35.1336372
  19.9867400   0.2792455  35.9185257  20.3169844   0.9079479  35.5861855
  25.6811457   9.3599122  38.1650040  25.5945431   9.5154548  39.0184818
  25.2261937  10.0037198  37.7909445  25.6014714   9.4774878  38.2357146
  15.0151768   2.3151798  44.6647294  14.8234965   2.3306932  45.5146718
  15.8650364   2.5115472  44.6413949  15.1127490   2.3466149  44.7870589
  19.5537273   6.6809870  36.7875599  19.3071987   6.6005620  37.6212388
  19.8822396   5.8963337  36.5938127  19.5658517   6.5536135  36.8823122
  23.4485322  13.3893229  40.5762380  23.3099681  14.0874275  41.0811123
  22.6685320  13.2341885  40.2198562  23.3128549  13.4693396  40.5988655
  21.7863407   9.6889604  46.8284762  21.7811445   8.8169421  46.8327189
  22.4924401   9.8877773  46.3554218  21.8908411   9.5893478  46.7591797
  15.5134300   9.4166588  46.1998582  15.6577676   9.9967796  45.5641692
  15.8609949   9.7942885  46.9048437  15.5861762   9.5587292  46.2097577
  17.6854218   8.6156757  43.9823714  16.9377532   8.8087771  43.5771992
  17.8395743   7.7901976  43.7447835  17.5976645   8.5221868  43.8869120
  14.5862055  17.6069360  43.0659609  14.7351619  17.0472276  42.4133013
  15.3662057  17.6861362  43.4492128  14.7236149  17.5354925  43.0256558
  17.1115356  17.7784003  44.3444100  17.0359027  17.1092813  44.8994888
  17.0405215  18.4801791  44.8584766  17.0895963  17.7828910  44.5020948
  17.9255995   2.5107307  44.8719118  18.3828609   3.2431282  44.9991910
  18.0012323   2.0873772  45.6306373  18.0046964   2.5564545  45.0020194
  17.7685603  16.2985002  35.1767706  18.5335494  16.0294645  34.8550370
  17.6663693  15.8135012  35.8937769  17.8667098  16.1874566  35.2347533
  15.8038373   4.5009411  41.7160942  15.0134447   4.3200871  42.0378277
  16.1998995   3.7236364  41.6991236  15.7455249   4.3596872  41.7613490
  20.2904263  13.3297185  27.1567655  21.0577248  13.3897310  26.7473507
  19.8435572  12.7577627  26.6723974  20.3377691  13.2533761  27.0245365
  21.1882059  12.1351841  39.4420387  20.5127061  11.9037074  39.9433775
  21.1974435  11.5273024  38.8162493  21.0900563  12.0110767  39.4236540
  18.3176203   6.9769670  46.1984440  18.2535344   7.8379627  46.0704577
  18.4573391   6.6601663  45.3979992  18.3291673   7.0569837  46.0612653
  23.1898793  14.9916974  31.6730565  23.2718631  15.7983960  31.3492016
  23.6748536  15.0112933  32.3971339  23.2735951  15.1137636  31.7317464
  16.9995297   9.6701810  40.3400643  16.5757546   9.8706309  39.6039662
  16.8240152   8.8230658  40.4524943  16.9106177   9.5750591  40.2474333
  16.5006990  21.1852323  42.8022101  16.9902920  20.4863112  42.6197765
  15.9291222  20.8876193  43.3898158  16.4891520  21.0378546  42.8623141
  12.2877742  10.1653861  35.7728616  12.4442361  10.1000664  36.6284608
  12.6278335  10.9402414  35.5607296  12.3610977  10.2703059  35.8683210
  18.8256886   9.5411745  34.6421979  19.3672432   9.0382126  35.1060600
  19.1403445   9.4876939  33.8311464  18.9521283   9.4591166  34.5905791
  22.6973994  13.7514392  51.7548891  23.5108859  13.4799541  51.9154024
  22.5368960  13.4521932  50.9509087  22.7943942  13.6669318  51.6594297
  16.9943336  14.9329096  31.9262007  17.0636156  14.0743635  32.0655008
  17.7731791  15.1500977  31.5981032  17.1196186  14.8381960  31.8979164
  19.9746156   4.4348049  44.6944280  20.1888125   3.7958963  44.1407634
  19.3580055   4.8793873  44.2652141  19.9151485   4.4058193  44.5494711
  21.3850824  17.3566797  36.1398500  20.9930615  17.0533513  35.4221367
  21.5403896  18.1935887  35.9503454  21.3504413  17.4350634  36.0054998
   8.8612003   7.3488812  36.0889383   9.2410968   7.7673356  35.4249650
   8.2867368   7.9302267  36.3958226   8.8323328   7.4966670  36.0366124
  22.1385244   6.0437114  45.6327587  21.3261925   5.7363005  45.7140759
  22.5975178   5.5636114  46.1970299  22.0865628   5.9273607  45.7282181
  21.5490498  13.9216786  36.0804531  21.1905153  14.0931429  36.8568563
  21.0629209  14.3829992  35.5232530  21.4249195  14.0155757  36.1129800
  16.3378864   9.6015952  28.6204765  16.6271389  10.3780834  28.8948340
  16.4250663   9.0904683  29.3219265  16.3933120   9.6407870  28.7647263
  19.2338751   7.4497186  50.4156289  19.7038382   8.0739302  50.8024163
  19.2800631   6.7814161  50.9749504  19.3106627   7.4431866  50.5556360
  22.7095238  14.8120682  47.0271732  23.3474958  14.3180878  46.6934188
  22.0669329  14.7398083  46.4423959  22.7089464  14.7279691  46.8914087
  17.9273315   1.7685353  47.5334617  18.7546744   1.4970502  47.5893231
  17.9481161   2.5646195  47.8898435  18.0526165   1.8465108  47.5949800
  22.7649494  15.5040491  43.6677089  23.5541872  15.1529555  43.7879170
  22.9393092  16.3176879  43.4053722  22.9069776  15.5726348  43.6464957
  12.5042805   8.9149216  40.7204877  11.6630811   8.8153090  40.9283771
  12.7132813   9.6844697  41.0719198  12.4107497   9.0141260  40.8032192
   9.9818372   6.5368753  38.5489628   9.5875069   6.6111765  37.7739738
   9.4258489   6.9226700  39.0997990   9.8421184   6.6050528  38.5157288
  21.6183318  -0.4849953  38.2293507  21.8232912  -0.5527645  39.0750504
  21.2909742   0.3208868  38.1614684  21.5998566  -0.3764012  38.3453162
  16.3159470   6.8430615  39.9702475  16.0122607   6.2886604  40.5712883
  15.6138890   7.0222825  39.4830509  16.1675679   6.7875398  39.9872181
  15.3725567   4.1531135  34.5347177  15.6485301   3.4350048  34.1224744
  15.9724236   4.7516055  34.3268283  15.5018831   4.1351506  34.4427938
  14.3777821  14.0580336  44.6774573  14.2698176  14.0682398  45.5436631
  14.5873602  14.8835117  44.4879527  14.3927932  14.1821411  44.7778664
  24.8717006   0.0681812  37.7096272  24.2591320   0.5552214  38.0950004
  24.9681181  -0.6074698  38.2533924  24.7954904   0.0400120  37.8475131
  18.8736087   1.8244653  32.8093772  19.3279834   1.9955213  33.5341616
  19.3476133   1.2112763  32.4091548  19.0104407   1.7595538  32.8567533
  12.3951613  11.3092979  42.1396510  11.8039546  11.9502477  42.1099525
  13.1572636  11.7330596  42.1127810  12.4199873  11.4668817  42.1311658
  14.4395585   3.1361671  47.3736555  14.0481150   2.4895018  47.8092333
  14.6081448   3.7273106  47.9930810  14.4066495   3.1275939  47.5299261
  22.1541129  16.7602290  39.5728535  21.9560818  17.2493105  38.8784746
  21.5328840  16.9643532  40.1512668  22.0328693  16.8618828  39.5551758
  16.2149107   8.5287187  33.9138779  16.9591152   8.9161463  34.1521729
  16.3609803   7.6844612  34.0779267  16.3459692   8.4617660  33.9732749
  19.2026983   4.1012660  39.8132698  18.7286937   3.5754422  40.3238009
  19.5745119   3.5542133  39.2447560  19.1876872   3.9428657  39.8047846
  25.4663714   9.1615036  41.2239479  25.2261937   8.3221451  41.2281905
  25.9455721   9.2415203  41.9480252  25.5015897   9.0496436  41.3314281
  21.1310483   4.9949215  32.8758452  20.6033501   5.0777959  32.1864161
  21.5906191   5.7367086  32.8723097  21.1212333   5.1169877  32.7733147
  27.4668901   5.9416493  39.1768738  27.2278671   5.9012327  38.3389523
  27.6302802   6.7887645  39.3034459  27.4559204   6.0608578  39.0722220
  24.0714931  10.3266442  45.1073783  24.7949130   9.8738969  44.9284803
  23.8064893  10.6071108  44.3246111  24.1396204  10.3017411  44.9652499
  12.9401799   4.9226616  41.8426662  12.3154869   4.9345008  41.2352615
  12.6047394   5.3986791  42.4917903  12.7987291   4.9945133  41.8483231
   9.6527475  12.9827076  43.2830427   9.1227399  12.2919515  43.3325401
   9.9252568  12.9737261  42.4543135   9.6152197  12.8794208  43.1677843
  20.6847565  13.5652778  32.0068109  21.4081764  14.0310891  31.8632683
  20.2448156  13.6326388  31.2565706  20.7263257  13.6436615  31.8752891
  19.8533720  10.4250321  43.2568798  19.2390713   9.8808371  43.5517434
  20.3701005   9.9114557  42.7774614  19.8389383  10.2686730  43.2293027
  19.0930017  11.4954591  40.9913097  18.6657625  10.8704309  40.5578532
  19.0854962  11.2129513  41.8172104  19.0289159  11.3607371  41.0492924
  12.2092545   6.5319764  44.0601531  12.3686031   5.7763088  44.4653253
  12.0285438   7.0810703  44.7142269  12.2057904   6.5013578  44.2164237
  20.1512848  -1.3019001  44.6152320  19.6553409  -1.1055326  43.9243887
  20.9081910  -0.9026332  44.4441122  20.1899672  -1.2141267  44.4872457
  17.4215727   2.3723345  41.2055631  17.4458214   1.8383458  40.5168411
  17.6727201   1.8640654  41.8681221  17.4625646   2.2184249  41.2020276
   4.9323317   9.6554840  40.6398775   4.8266766   9.6101685  39.7750859
   4.1823537  10.0008621  40.9213060   4.8058920   9.6995748  40.5536105
  15.8846662  10.6654903  48.6881670  15.0342293  10.8026618  48.8239315
  16.0474790   9.9318682  49.1329372  15.7830526  10.5769005  48.7737269
  15.1231413   7.6154673  42.8835274  14.2923342   7.7828491  42.6770522
  15.0682930   7.2390624  43.6684160  14.9920828   7.5844405  42.9683802
  13.4967457   5.8910265  33.4125392  13.6370418   6.3882729  34.1154033
  13.9949989   5.1896559  33.5539606  13.5908538   5.8612244  33.5376971
  13.5267679   6.7577376  30.7417969  14.1612758   7.3537801  30.6767431
  13.6093290   6.4580834  31.5563839  13.6324230   6.8018284  30.8521055
  26.5050245   9.2892853  43.6104333  27.0968085   9.9290104  43.6422531
  26.9409239   8.5915890  43.8996400  26.6568676   9.2811204  43.6585166
  15.1046662   2.6891351  30.7163411  15.4262503   2.2094434  30.0622673
  15.3673606   3.4990997  30.5254222  15.1912687   2.7381249  30.5918903
  18.3343635  13.7110226  44.2362227  17.8268726  14.2646073  44.6802857
  18.0370281  13.7718516  43.4181001  18.2148520  13.8016537  44.1810684
  20.5005817   2.0763545  43.0786890  20.9260888   1.6236072  42.4670416
  19.8862810   1.5223616  43.3551677  20.4734462   1.9277521  43.0291915
  10.0320667   8.9545217  34.0107515  10.5412896   9.5509724  34.3918820
  10.5054939   8.6871190  33.3283934  10.1764043   9.0031032  33.9662038
  20.9451415  17.6273483  32.1666170  20.2280725  17.4534346  31.7013408
  21.5958153  17.3926056  31.6341656  20.9353265  17.5669276  32.0195388
  23.5299386   6.5038072  35.9107475  22.8590576   7.0467774  35.7820541
  24.2239136   6.9732927  35.6689170  23.5328254   6.6536343  35.8563003
  17.5786120  18.6434784  41.1419234  17.3551774  17.8853613  41.5103260
  17.0895963  18.6732805  40.4199673  17.4729569  18.5357008  41.0895975
  23.6927514   2.9593956  38.8197849  24.0455124   2.5323678  39.4943647
  22.8342315   2.8744799  38.9498925  23.6176958   2.8838696  38.9392859
  12.3911199   5.5901475  36.8780695  11.6723188   6.0065608  37.1453559
  12.7623561   6.1555714  36.3272333  12.3403130   5.7350757  36.8363502
  21.6910779   6.2229324  42.7682691  21.6708707   6.0412619  43.6217470
  21.7389980   7.0941343  42.7442275  21.6945420   6.3245862  42.8905986
  19.6357109  12.8116516  48.6931167  19.5952964  12.1666193  48.1076323
  20.4480428  12.7553133  49.0056580  19.7500263  12.7075483  48.6528117
  16.2264577  18.8635242  38.5956318  15.8124975  18.2009372  38.2060160
  16.9111951  19.0113101  38.0752013  16.2662949  18.7875900  38.4612816
  19.5929871  18.0225327  39.3479935  19.1946154  18.1327598  38.5800755
  18.9781091  18.2307394  39.9306495  19.4428760  18.0698895  39.3211234
  18.1657773   4.6299475  32.2154075  17.5722612   4.9516472  31.6638642
  18.2033051   3.7840571  32.0075181  18.0832162   4.5523803  32.1036846
  25.1251574  -1.9187633  39.7482161  24.6182438  -2.6258493  39.6803339
  25.9219007  -2.2494444  39.8783238  25.1678813  -2.0714481  39.7581156
  21.0415590   4.5878980  35.6455825  20.8129283   4.6111681  34.8034183
  21.3013666   3.7636447  35.7650835  21.0461778   4.4695060  35.5381023
  15.3234818   6.4413453  45.2480925  14.8113721   5.8334636  45.6065956
  15.1514314   7.1570045  45.7154901  15.2224455   6.4576752  45.3697149
  14.0960352   3.1255526  36.9410021  14.5717718   3.4872606  36.3060202
  13.5948952   3.7811993  37.2210163  14.0925711   3.2749715  36.8886762
  19.2003888   4.3637697  47.6883181  19.7575318   4.1351507  47.0561646
  18.8764953   5.1243363  47.4118393  19.2350298   4.4421534  47.5539678
  16.9187006   7.4505351  48.6535188  17.6698333   7.7657027  48.9674742
  17.1109582   7.2484522  47.8269110  17.0578420   7.4672732  48.5778584
  16.1387005   5.2696726  30.3083405  16.5185970   5.2876355  29.5234519
  15.3979601   5.7150715  30.1874252  16.0855843   5.3378500  30.1746973
  23.7672296   3.5778917  35.8958983  23.7666522   3.4227573  36.7543260
  23.5628476   4.4241904  35.8400369  23.7372074   3.6799538  36.0146923
  21.4913148   8.2576419  39.5495190  21.9866813   7.5399414  39.5099210
  20.6812924   7.9547216  39.4349677  21.4457041   8.1074065  39.5268916
  16.9371759  12.1074232  31.6992195  16.1283082  11.7840905  31.6525504
  17.4446668  11.4007454  31.6320443  16.8921426  11.9555548  31.6822489
   7.5662037   9.5346425  37.4239559   6.7007556   9.5232116  37.3122330
   7.6660852   9.3476648  38.2710698   7.4536204   9.5052486  37.5328503
  23.5564967  11.0080106  42.2372319  23.9820038  10.4854528  41.6842744
  23.1921886  11.6060944  41.7160942  23.5651569  11.0190333  42.0781329
  13.1919046  19.3044324  40.9969664  13.5065605  20.1180712  41.0047446
  13.6012460  18.9194542  41.6651824  13.2987144  19.3673026  41.0973756
  20.1443566  14.7214370  38.5673476  20.6154744  15.4354633  38.7363462
  20.4803745  14.1213121  39.1033346  20.2638681  14.7385835  38.6705852
  22.2320551  16.3315684  50.7465548  22.3417516  15.5424244  51.1022296
  22.5611447  16.2421620  49.9439886  22.2972956  16.2021537  50.6807939
  20.7817512  14.5132305  45.3301169  20.2338458  13.8890188  45.0621234
  21.2430541  14.7026577  44.6145248  20.7684722  14.4491355  45.1851600
  23.5911377   2.5817659  42.7152361  23.0074366   3.0826866  42.3029929
  23.9115671   2.0747215  42.0816685  23.5524552   2.5809494  42.5610868
  16.1306176   1.4958254  32.9911036  16.9521870   1.6656567  32.7492731
  15.6675827   1.6505515  32.2677334  16.1837338   1.5439987  32.8482680
  10.5332067  13.2517432  40.6448273  11.1376924  13.2113266  40.0162094
  10.3259379  14.0988584  40.6752329  10.5920964  13.3705435  40.5564389
  20.3475839  15.5183377  41.8610510  21.1674213  15.3746343  42.1226805
  20.0669916  16.1429576  42.4026948  20.4272582  15.5893729  41.9798450
   5.7683349  12.2352050  40.5147196   5.6707627  11.4248321  40.8237253
   6.5512219  12.2143843  40.1293464   5.8699485  12.1119140  40.5034059
  19.1780114  27.8325277  37.2358655  18.9430299  26.9992929  37.1290923
  19.3165755  28.1129942  36.4219856  19.1635777  27.7508780  37.1001010
  21.4770202  20.0011007  40.1342962  20.8575233  19.4103654  39.9652977
  21.3754065  20.5922442  39.5007286  21.3707877  20.0015090  40.0147952
  21.2039335  23.5463289  42.3786531  21.0798031  24.1325734  43.0136350
  21.8557619  23.0523485  42.6798806  21.2812984  23.5602093  42.5172461
  33.9541369  13.0988469  36.7946311  33.6394810  13.7891947  37.2266733
  33.4368310  13.0433251  36.0931811  33.8305839  13.1923357  36.7543260
  28.0345645  31.2369102  46.0598510  27.4716479  30.8241712  46.5838172
  28.7966668  31.1622008  46.4791654  28.0640093  31.1646503  46.1991511
  29.6430625  23.2421838  30.1860110  29.8826628  23.4499822  29.3735453
  29.9646466  22.4379347  30.2949054  29.7267782  23.1535940  30.0820663
  24.6420543  23.4642710  47.7915556  24.8141046  23.3548605  48.6400837
  25.1789900  24.1097116  47.5546748  24.7465547  23.5434712  47.8820652
  23.3077979  17.5785553  30.7297761  23.1253553  17.7957434  29.9038754
  24.1703593  17.6924566  30.7856375  23.4082569  17.6275451  30.6152248
  23.5445114  29.8374351  42.4734054  24.0843339  29.6945482  43.1437427
  22.8615061  30.2371101  42.8418080  23.5237268  29.8754021  42.6268476
  18.9482260  26.0574641  42.6268476  18.6820675  25.2413758  42.7859466
  18.9620824  26.1027797  41.7563991  18.9106982  25.9431546  42.5221958
  35.9263653  16.3852456  40.6610909  36.5689562  16.4550561  41.2472825
  36.1786674  15.7181679  40.1590451  36.0585785  16.2978805  40.6738189
  23.6980866  19.5953020  45.2735483  23.0052663  19.1249999  45.5196215
  24.3141193  19.3691324  45.8477191  23.6865396  19.4920151  45.3944636
  19.3575673  26.8433421  39.9080220  19.1751246  26.8180307  39.0552512
  20.0925342  27.3132359  39.9469129  19.4389737  26.9094783  39.7878138
  22.4221425  23.5618424  46.4162329  23.1461397  23.5471454  46.9027223
  22.5237561  24.2713779  45.9184297  22.5439634  23.6643127  46.4141115
  29.7966374  27.0417508  51.2811276  29.0039355  27.3561020  51.4663895
  29.9115301  27.2568977  50.4432060  29.6961785  27.1201345  51.1849610
  19.3246584  23.7226921  40.0579287  19.9020086  23.5863372  40.6971532
  18.6260645  23.2662706  40.3124871  19.3067605  23.6349188  40.1901576
  14.8005417  22.5738814  36.7727105  14.8865669  22.1970683  37.5540635
  15.4281214  22.1999260  36.2947063  14.9061968  22.4624296  36.8172582
  20.3881375  31.3430547  40.8258466  20.4285521  31.6145398  39.9978245
  20.9475899  31.8672455  41.2416254  20.4764721  31.4606302  40.7650354
  26.5040088  17.6050916  50.9961636  26.1893530  18.3750479  50.7331198
  26.1830021  17.0421172  50.4113863  26.4099008  17.6361184  50.8702986
  33.1804874  16.1419297  44.9419154  33.9258466  15.9529107  44.5282579
  32.7642179  16.6677535  44.3833010  33.2289848  16.1921442  44.7983727
  23.4717653  26.6090075  38.6847273  23.1830902  25.9827547  39.2193000
  24.3401002  26.5510363  38.7511954  23.5577905  26.5077620  38.7738228
  26.1356594  20.2048167  49.7346850  25.3256370  20.5105947  49.6236693
  26.6131281  20.9253749  49.8499435  26.0860073  20.3562768  49.7353922
  22.4700626  25.7410717  44.6046253  22.9821723  26.0194970  43.9555013
  22.1836968  26.4800011  44.9709066  22.5035489  25.8913071  44.5636131
  19.5567532  20.2480909  34.9009989  19.6583669  21.0507070  35.2290965
  20.3523419  20.0468245  34.6033070  19.6895438  20.3366808  34.9045345
  20.3731264  20.3628087  42.6431111  20.2316756  19.5112028  42.7675619
  20.6571828  20.4056748  41.8193317  20.3939110  20.2427837  42.5398735
  25.5594639  33.1254668  43.0659609  25.7084203  32.5657584  42.4133013
  26.3394641  33.2046670  43.4492128  25.6968732  33.0540233  43.0256558
  28.0847939  33.2969311  44.3444100  28.0091611  32.6278121  44.8994888
  28.0137799  33.9987099  44.8584766  28.0628546  33.3014218  44.5020948
  33.3715904  11.2082490  38.7412960  33.4899472  11.6658954  38.0080263
  33.1978080  10.4027752  38.4549178  33.3635075  11.1576262  38.5913894
  23.2610325  25.6839169  35.7728616  23.4174944  25.6185972  36.6284608
  23.6010918  26.4587722  35.5607296  23.3343560  25.7888367  35.8683210
  33.6706577  29.2699700  51.7548891  34.4841443  28.9984849  51.9154024
  33.5101544  28.9707240  50.9509087  33.7676526  29.1854626  51.6594297
  19.8344587  22.8674119  36.0889383  20.2143552  23.2858664  35.4249650
  19.2599952  23.4487575  36.3958226  19.8055912  23.0151978  36.0366124
  30.2071335  22.9682494  50.4156289  30.6770966  23.5924610  50.8024163
  30.2533215  22.2999469  50.9749504  30.2839211  22.9617174  50.5556360
  29.0991984  12.4999467  45.2608205  29.7285102  13.0359767  44.9829276
  29.2677846  12.4076826  46.1121771  29.2169778  12.5660829  45.3456733
  28.9005898  17.2870661  47.5334617  29.7279328  17.0155810  47.5893231
  28.9213745  18.0831503  47.8898435  29.0258749  17.3650416  47.5949800
  23.4775388  24.4334524  40.7204877  22.6363395  24.3338398  40.9283771
  23.6865396  25.2030004  41.0719198  23.3840081  24.5326568  40.8032192
  20.9550955  22.0554061  38.5489628  20.5607653  22.1297073  37.7739738
  20.3991072  22.4412007  39.0997990  20.8153768  22.1235836  38.5157288
  25.3510404  29.5765644  44.6774573  25.2430759  29.5867706  45.5436631
  25.5606186  30.4020424  44.4879527  25.3660515  29.7006719  44.7778664
  35.8449590  15.5867119  37.7096272  35.2323903  16.0737522  38.0950004
  35.9413765  14.9110610  38.2533924  35.7687487  15.5585428  37.8475131
  23.3684196  26.8278287  42.1396510  22.7772129  27.4687785  42.1099525
  24.1305220  27.2515904  42.1127810  23.3932457  26.9854125  42.1311658
  23.7644819  17.9880284  42.8064528  24.2246301  18.0619214  43.5439652
  23.8100926  18.7861538  42.4564349  23.8395374  18.1174431  42.8637284
  25.4128169  18.6546979  47.3736555  25.0213734  18.0080326  47.8092333
  25.5814031  19.2458414  47.9930810  25.3799079  18.6461247  47.5299261
  20.5532597  21.6169475  45.1816244  21.4158210  21.5165184  45.0953574
  20.2224380  21.0364184  44.6201816  20.6317793  21.5161102  45.0861650
  24.0976131  18.7837042  27.8999347  23.7488936  19.4356768  28.3630897
  23.6172577  18.7694155  27.1723219  23.9746375  18.8780096  27.8610439
  20.6260058  28.5012384  43.2830427  20.0959983  27.8104823  43.3325401
  20.8985152  28.4922569  42.4543135  20.5884781  28.3979516  43.1677843
  23.1825128  22.0505072  44.0601531  23.3418615  21.2948396  44.4653253
  23.0018022  22.5996011  44.7142269  23.1790487  22.0198885  44.2164237
  31.1245431  14.2166307  44.6152320  30.6285992  14.4129982  43.9243887
  31.8814493  14.6158976  44.4441122  31.1632256  14.3044041  44.4872457
  15.9055901  25.1740148  40.6398775  15.7999350  25.1286993  39.7750859
  15.1556121  25.5193929  40.9213060  15.7791503  25.2181056  40.5536105
  26.8579246  26.1840211  48.6881670  26.0074876  26.3211926  48.8239315
  27.0207374  25.4503990  49.1329372  26.7563109  26.0954313  48.7737269
  23.9047780  16.6248874  48.5191685  24.5300483  16.0811007  48.7921117
  23.4498260  16.1443792  47.9499475  23.9296040  16.4738356  48.4753279
  21.0053250  24.4730525  34.0107515  21.5145480  25.0695032  34.3918820
  21.4787523  24.2056498  33.3283934  21.1496626  24.5216340  33.9662038
  36.0984157  13.5997675  39.7482161  35.5915022  12.8926815  39.6803339
  36.8951591  13.2690864  39.8783238  36.1411396  13.4470827  39.7581156
  21.1433116  20.4036336  47.8983287  20.9735707  21.0637711  47.3531494
  20.6999066  20.6142897  48.6195776  21.0532450  20.5322318  47.9244916
  30.1736472  19.8823005  47.6883181  30.7307902  19.6536815  47.0561646
  29.8497537  20.6428671  47.4118393  30.2082882  19.9606842  47.5539678
  18.0435181  23.3083201  43.1571777  17.4961900  22.6383847  43.2752645
  18.8327559  22.9413049  43.2215244  18.0787364  23.1548188  43.1840477
  27.8919589  22.9690659  48.6535188  28.6430916  23.2842335  48.9674742
  28.0842166  22.7669829  47.8269110  28.0311003  22.9858040  48.5778584
  16.8022150  22.5204009  40.3117800  16.6243911  22.0680618  41.0372715
  16.5141172  23.3230171  40.4956277  16.7335103  22.5726567  40.4461303
  18.5394620  25.0531733  37.4239559  17.6740140  25.0417423  37.3122330
  18.6393436  24.8661956  38.2710698  18.4268787  25.0237794  37.5328503
  24.1651630  34.8229632  40.9969664  24.4798189  35.6366020  41.0047446
  24.5745043  34.4379850  41.6651824  24.2719728  34.8858334  41.0973756
  28.0345645  15.0127149  45.5231571  28.1673550  14.2158142  45.8512547
  28.4190797  15.5393552  46.1029847  28.1101973  14.9727066  45.6575074
  25.6934091  15.0086324  43.7709465  26.2378504  14.6677451  44.3613807
  25.7471027  15.8671786  43.9130749  25.7823211  15.0841583  43.8791338
  21.5064650  28.7702740  40.6448273  22.1109508  28.7298574  40.0162094
  21.2991963  29.6173892  40.6752329  21.5653547  28.8890743  40.5564389
  16.7415932  27.7537358  40.5147196  16.6440210  26.9433629  40.8237253
  17.5244802  27.7329151  40.1293464  16.8432069  27.6304448  40.5034059
  55.2748058  59.5681022  49.1866773  55.9814825  59.0733052  49.3153707
  55.4635993  60.0090103  48.4569431  55.4075963  59.5599372  49.0975819
  51.3424732  65.2096852  36.7140207  51.7264111  65.7783751  36.1744982
  51.2783873  64.4846362  36.2346023  51.3898159  65.1872315  36.5634070
  47.7680977  67.7653195  39.0121177  48.4118432  68.2066359  39.4017335
  48.0937232  66.9606621  38.9251436  47.9112805  67.7118390  39.0566654
  50.7148934  60.6050528  41.3080935  50.9972177  59.8101933  41.0867691
  51.4435094  61.0831115  41.3285996  50.8638498  60.5585125  41.2783950
  60.6967022  59.7109890  38.2816766  59.8664726  59.9220533  38.4450182
  60.6476275  58.8846944  38.0059049  60.5673758  59.6199496  38.2654131
  42.6862606  63.7481563  38.5114861  42.2030184  64.4732053  38.4874444
  43.4985924  64.0457693  38.6225019  42.7353354  63.8983917  38.5242140
  48.7576760  62.5413744  41.1164675  48.2403702  62.1821159  40.5125983
  49.4551151  62.0175918  41.1270741  48.7842341  62.4111432  41.0294934
  52.4140352  62.9908558  47.0780848  52.5023698  62.8034698  47.9259059
  52.8430065  62.3445988  46.6785695  52.4902454  62.8671566  47.1452600
  49.9810812  62.2739718  46.0598510  49.4181647  61.8612328  46.5838172
  50.7431835  62.1992624  46.4791654  50.0105260  62.2017119  46.1991511
  45.5406803  64.2637739  38.6635141  46.2427382  63.7489728  38.7207897
  45.4604286  64.5911891  39.4682016  45.6330564  64.2351965  38.7907933
  45.4910282  60.8744966  42.4734054  46.0308507  60.7316097  43.1437427
  44.8080228  61.2741717  42.8418080  45.4702436  60.9124637  42.6268476
  57.9531338  60.3809244  38.4181482  57.5166570  60.3845987  39.1740453
  57.6194253  61.0614743  37.9861059  57.8393958  60.4821700  38.4662314
  52.5260411  62.4217577  49.7424632  53.3100828  62.5348425  50.1080374
  52.3257006  61.5958714  49.9383318  52.6126437  62.3164296  49.8259018
  52.6830805  64.3327679  43.3891087  51.8846050  64.0927179  43.6464956
  53.1316816  64.3842072  44.1358135  52.6305416  64.3050070  43.5376012
  59.2030971  56.9557212  34.8882711  59.5339188  57.4884853  34.2822806
  59.7764059  57.0096100  35.5444662  59.3364650  57.0426781  34.8960493
  51.7431541  58.0788124  51.2811276  50.9504522  58.3931636  51.4663895
  51.8580469  58.2939592  50.4432060  51.6426952  58.1571961  51.1849610
  52.6715334  57.9808328  46.2196572  53.2454196  57.3435572  46.3745136
  52.5930138  57.9812410  45.3506230  52.7448569  57.8873439  46.1142983
  57.9935482  59.3517305  46.2281426  57.7574119  58.5205370  46.1093486
  58.6378711  59.3002913  46.8136270  58.0530153  59.2214993  46.2967319
  59.0171903  59.1361754  42.2909720  58.7117720  59.8689811  42.6523036
  58.2978118  58.7299684  42.0102506  58.8659245  59.1843487  42.3022857
  64.7173695  55.7754755  41.6178064  64.6498195  55.7950714  40.7480651
  64.7029357  56.6185082  41.8433735  64.7052451  55.9028489  41.5230541
  48.5659958  63.5819992  33.3531422  48.8558256  63.1908974  32.6290648
  49.2963439  63.7636697  33.7936697  48.7166842  63.5513806  33.3114229
  46.5065873  65.5587375  36.4191571  46.2866169  65.2684730  37.2118238
  46.2860395  64.9002330  35.8909484  46.4413468  65.4187083  36.4580480
  48.6733829  66.9316765  35.2022264  49.3257887  66.3993207  35.4313290
  47.9759438  66.5785417  35.5890138  48.6664547  66.8006288  35.2934432
  56.6673747  59.2521179  34.5453243  57.2331780  59.9114389  34.4611786
  56.0201651  59.5970877  35.0169645  56.6552504  59.4003120  34.6026000
  53.1380326  62.1959963  33.9690322  52.8967002  61.4627824  33.5617387
  53.3181658  62.7446820  33.3156656  53.1287950  62.1682354  33.8120545
  56.3683073  59.9449153  40.5762380  56.2297432  60.6430198  41.0811123
  55.5883070  59.7897809  40.2198562  56.2326299  60.0249319  40.5988655
  54.7061158  56.2445528  46.8284762  54.7009196  55.3725345  46.8327189
  55.4122152  56.4433697  46.3554218  54.8106162  56.1449402  46.7591797
  47.5059806  64.1625284  43.0659609  47.6549370  63.6028200  42.4133013
  48.2859808  64.2417285  43.4492128  47.6433900  64.0910849  43.0256558
  57.8636445  59.3027406  31.3378880  57.4843254  58.5164544  31.3308169
  57.2002691  59.8514263  31.1950524  57.7094920  59.2672230  31.3159676
  50.0313107  64.3339927  44.3444100  49.9556778  63.6648737  44.8994888
  49.9602966  65.0357715  44.8584766  50.0093714  64.3384834  44.5020948
  50.6883354  62.8540925  35.1767706  51.4533245  62.5850569  34.8550370
  50.5861444  62.3690936  35.8937769  50.7864849  62.7430490  35.2347533
  56.1096544  61.5472897  31.6730565  56.1916382  62.3539884  31.3492016
  56.5946286  61.5668857  32.3971339  56.1933702  61.6693560  31.7317464
  49.4204741  67.7408246  42.8022101  49.9100671  67.0419036  42.6197765
  48.8488973  67.4432116  43.3898158  49.4089271  67.5934470  42.8623141
  55.6171744  60.3070316  51.7548891  56.4306610  60.0355465  51.9154024
  55.4566711  60.0077856  50.9509087  55.7141693  60.2225242  51.6594297
  54.3048574  63.9122721  36.1398500  53.9128366  63.6089436  35.4221367
  54.4601647  64.7491811  35.9503454  54.2702164  63.9906558  36.0054998
  54.4688249  60.4772710  36.0804531  54.1102904  60.6487353  36.8568563
  53.9826960  60.9385916  35.5232530  54.3446946  60.5711681  36.1129800
  55.6292988  61.3676606  47.0271732  56.2672709  60.8736802  46.6934188
  54.9867080  61.2954007  46.4423959  55.6287215  61.2835615  46.8914087
  55.6847245  62.0596414  43.6677089  56.4739623  61.7085479  43.7879170
  55.8590843  62.8732803  43.4053722  55.8267527  62.1282271  43.6464957
  47.2975571  60.6136260  44.6774573  47.1895926  60.6238322  45.5436631
  47.5071353  61.4391040  44.4879527  47.3125682  60.7377335  44.7778664
  55.0738880  63.3158214  39.5728535  54.8758568  63.8049028  38.8784746
  54.4526591  63.5199455  40.1512668  54.9526444  63.4174752  39.5551758
  56.9912682  56.8822366  45.1073783  57.7146880  56.4294893  44.9284803
  56.7262644  57.1627032  44.3246111  57.0593955  56.8573335  44.9652499
  53.6045316  60.1208702  32.0068109  54.3279515  60.5866815  31.8632683
  53.1645907  60.1882312  31.2565706  53.6461008  60.1992539  31.8752891
  37.8521068  56.2110764  40.6398775  37.7464517  56.1657608  39.7750859
  37.1021288  56.5564545  40.9213060  37.7256671  56.2551672  40.5536105
  51.2541385  60.2666149  44.2362227  50.7466476  60.8201996  44.6802857
  50.9568032  60.3274439  43.4181001  51.1346270  60.3572461  44.1810684
  53.8649166  64.1829407  32.1666170  53.1478475  64.0090269  31.7013408
  54.5155903  63.9481979  31.6341656  53.8551016  64.1225200  32.0195388
  50.4983871  65.1990708  41.1419234  50.2749525  64.4409537  41.5103260
  50.0093714  65.2288729  40.4199673  50.3927320  65.0912932  41.0895975
  52.5554860  59.3672440  48.6931167  52.5150715  58.7222117  48.1076323
  53.3678178  59.3109057  49.0056580  52.6698014  59.2631407  48.6528117
  49.1462328  65.4191166  38.5956318  48.7322726  64.7565296  38.2060160
  49.8309702  65.5669025  38.0752013  49.1860699  65.3431824  38.4612816
  52.5127622  64.5781251  39.3479935  52.1143905  64.6883521  38.5800755
  51.8978841  64.7863317  39.9306495  52.3626511  64.6254819  39.3211234
  60.2469464  59.1533218  32.7323026  60.6303070  59.9024574  32.9621123
  59.4513578  59.3999037  32.4735015  60.1863247  59.3002912  32.7280599
  46.1116797  65.8600247  40.9969664  46.4263356  66.6736636  41.0047446
  46.5210211  65.4750466  41.6651824  46.2184895  65.9228950  41.0973756
  53.0641317  61.2770294  38.5673476  53.5352495  61.9910557  38.7363462
  53.4001495  60.6769044  39.1033346  53.1836432  61.2941759  38.6705852
  55.1518301  62.8871608  50.7465548  55.2615267  62.0980168  51.1022296
  55.4809198  62.7977544  49.9439886  55.2170707  62.7577461  50.6807939
  53.7015263  61.0688228  45.3301169  53.1536209  60.4446112  45.0621234
  54.1628292  61.2582500  44.6145248  53.6882473  61.0047279  45.1851600
  53.2673589  62.0739301  41.8610510  54.0871963  61.9302267  42.1226805
  52.9867667  62.6985500  42.4026948  53.3470333  62.1449653  41.9798450
  38.6881100  58.7907973  40.5147196  38.5905378  57.9804245  40.8237253
  39.4709969  58.7699767  40.1293464  38.7897236  58.6675064  40.5034059
  69.7387240  69.7304153  34.8253386  69.7081244  70.5848790  34.9971656
  70.3368589  69.4299445  35.3839530  69.8224398  69.8120649  34.9328189
  62.9386925  68.8179804  39.5806317  62.0824820  68.9788302  39.6315434
  62.9854578  67.9471868  39.6011378  62.8186036  68.7130606  39.5912383
  57.3228064  78.3542522  35.3443548  56.5710964  77.9758060  35.1159594
  57.7714076  78.3860955  34.5962359  57.2777731  78.3028129  35.2001051
  66.2480641  75.0866329  49.1866773  66.9547408  74.5918360  49.3153707
  66.4368577  75.5275411  48.4569431  66.3808547  75.0784680  49.0975819
  65.7838746  70.8771848  42.2237969  66.3294706  71.5556934  42.2831938
  65.7255622  70.7359309  41.3639550  65.8554660  70.9563849  42.1050029
  58.9012821  78.3660914  37.6106321  59.0023183  77.5561268  37.9203449
  58.3054566  78.2717860  36.9806000  58.8285359  78.2325942  37.5632559
  67.5603814  72.3056455  33.0971696  67.4443340  73.0564141  33.5263834
  68.3559701  72.0480408  33.3467783  67.6608404  72.3791302  33.1975788
  52.0977865  74.3881200  37.2358655  51.8628049  73.5548853  37.1290923
  52.2363506  74.6685866  36.4219856  52.0833527  74.3064704  37.1001010
  54.3967952  66.5566931  40.1342962  53.7772984  65.9659578  39.9652977
  54.2951816  67.1478366  39.5007286  54.2905628  66.5571014  40.0147952
  59.4434140  76.2950478  34.3841039  59.7649981  76.8355685  33.7802347
  60.0906236  75.7247249  34.5163329  59.5860195  76.2909653  34.3148074
  61.4935848  68.2966473  34.4675425  62.1916013  68.4754600  34.9596889
  61.8088180  67.7736812  33.8445815  61.6431185  68.2460245  34.4477436
  54.1237085  70.1019213  42.3786531  53.9995782  70.6881658  43.0136350
  54.7755370  69.6079408  42.6798806  54.2010735  70.1158017  42.5172461
  61.6823783  74.6836918  34.4555217  62.1217419  74.0754018  34.9009990
  61.5328446  74.3044291  33.6840682  61.7245249  74.5375389  34.4074384
  59.1495426  73.2780930  41.6574042  59.7944429  72.7853373  41.3384991
  59.3897203  73.4205716  42.4840121  59.2806011  73.2258372  41.7323576
  61.6881518  76.1235835  41.3080935  61.9704761  75.3287241  41.0867691
  62.4167678  76.6016423  41.3285996  61.8371081  76.0770432  41.2783950
  59.6662712  63.6658869  38.5496700  59.3366042  64.1170013  37.8800399
  58.9907713  63.5875033  39.0969707  59.5173148  63.7210005  38.5319923
  65.2833120  73.0364099  31.4085986  65.1984415  73.8925066  31.5535555
  65.7717503  72.7608423  32.0768145  65.3422017  73.1221421  31.5288068
  66.8739119  59.6544392  36.7946311  66.5592560  60.3447871  37.2266733
  66.3566061  59.5989175  36.0931811  66.7503590  59.7479281  36.7543260
  66.2151553  69.6548893  32.9083721  65.6863025  69.8708527  33.5681028
  66.7376573  70.3485032  32.8284691  66.2140006  69.7892030  32.9939321
  58.1051161  73.5512110  31.7091189  57.5208376  74.0562141  32.1157053
  57.7021256  73.3254497  30.9687781  57.9590465  73.5920358  31.6596215
  53.6595190  79.2666871  38.5114861  53.1762768  79.9917361  38.4874444
  54.4718508  79.5643001  38.6225019  53.7085937  79.4169225  38.5242140
  59.7309344  78.0599052  41.1164675  59.2136285  77.7006467  40.5125983
  60.4283735  77.5361226  41.1270741  59.7574925  77.9296740  41.0294934
  60.9543395  77.7925026  46.0598510  60.3914230  77.3797636  46.5838172
  61.7164419  77.7177932  46.4791654  60.9837844  77.7202426  46.1991511
  62.5628375  69.7977762  30.1860110  62.8024379  70.0055746  29.3735453
  62.8844216  68.9935271  30.2949054  62.6465533  69.7091863  30.0820663
  57.8718666  61.7271158  34.0319648  58.6264634  62.0949475  33.7936698
  57.6946200  62.1010712  34.7998827  57.9573144  61.8369346  34.1104536
  56.5139387  79.7823047  38.6635141  57.2159966  79.2675036  38.7207897
  56.4336870  80.1097198  39.4682016  56.6063147  79.7537273  38.7907933
  71.1653564  67.8765598  42.0767187  70.3281985  67.9467785  42.3114782
  71.1341795  67.8790093  41.2041489  71.0371847  67.8875825  41.9826735
  57.5618293  70.0198634  47.7915556  57.7338797  69.9104529  48.6400837
  58.0987651  70.6653039  47.5546748  57.6663297  70.0990636  47.8820652
  56.2275730  64.1341477  30.7297761  56.0451303  64.3513358  29.9038754
  57.0901343  64.2480490  30.7856375  56.3280320  64.1831375  30.6152248
  55.8390162  75.9729399  38.1720749  56.6779062  76.2052332  38.2194510
  55.8701931  75.1033711  38.1027784  55.9671880  75.8786346  38.1685393
  56.4642865  76.3930274  42.4734054  57.0041090  76.2501405  43.1437427
  55.7812811  76.7927025  42.8418080  56.4435019  76.4309945  42.6268476
  61.9075449  61.1367888  33.7646785  62.6361610  60.9583843  33.3184941
  61.9970342  61.9785967  33.9753963  62.0282111  61.2351766  33.7300302
  65.8883750  72.0721275  37.6679079  66.6441265  72.5052789  37.7067987
  65.9946075  71.4226045  38.2413715  66.0153921  72.0398759  37.7577104
  51.8680010  72.6130565  42.6268476  51.6018426  71.7969682  42.7859466
  51.8818574  72.6583721  41.7563991  51.8304733  72.4987470  42.5221958
  68.8461404  62.9408380  40.6610909  69.4887313  63.0106485  41.2472825
  69.0984425  62.2737603  40.1590451  68.9783536  62.8534729  40.6738189
  55.7737757  67.4115650  29.2420234  55.0595934  67.1253829  29.6542666
  56.2581726  67.7512275  29.8826621  55.7397121  67.4197299  29.3975869
  56.6178617  66.1508943  45.2735483  55.9250413  65.6805923  45.5196215
  57.2338944  65.9247248  45.8477191  56.6063147  66.0476075  45.3944636
  62.9485075  75.9145603  29.6182042  63.3636224  75.5830627  28.9266538
  62.1177005  75.6814506  29.4902179  62.8873084  75.8316859  29.4972889
  52.2773424  73.3989344  39.9080220  52.0948997  73.3736230  39.0552512
  53.0123093  73.8688282  39.9469129  52.3587488  73.4650707  39.7878138
  68.3473098  73.6340854  37.0513108  68.5828687  73.7786053  36.2239958
  68.4962662  74.3983262  37.4444621  68.4038901  73.7679909  36.9876711
  55.3419176  70.1174347  46.4162329  56.0659148  70.1027378  46.9027223
  55.4435312  70.8269703  45.9184297  55.4637385  70.2199051  46.4141115
  70.1763555  72.4742520  34.8882711  70.5071772  73.0070161  34.2822806
  70.7496643  72.5281408  35.5444662  70.3097234  72.5612089  34.8960493
  62.7164125  73.5973432  51.2811276  61.9237106  73.9116944  51.4663895
  62.8313052  73.8124900  50.4432060  62.6159536  73.6757269  51.1849610
  65.3895444  70.3207423  35.5706291  65.4842298  71.0596717  36.0245917
  64.7654288  69.8924899  36.0040856  65.3104474  70.3668744  35.7014439
  63.6447918  73.4993636  46.2196572  64.2186779  72.8620880  46.3745136
  63.5662722  73.4997718  45.3506230  63.7181153  73.4058747  46.1142983
  52.2444334  70.2782845  40.0579287  52.8217837  70.1419296  40.6971532
  51.5458396  69.8218629  40.3124871  52.2265356  70.1905111  40.1901576
  65.6418465  72.1656163  28.8043244  65.5598628  72.2358350  29.6698230
  66.2798186  72.7285907  28.6126984  65.7238303  72.2595134  28.9033193
  59.0011636  71.9316901  38.2717770  58.7430881  71.0988636  38.2449069
  59.0560119  72.1574514  37.4310270  58.9711414  71.8414672  38.1437907
  64.0812687  64.0345352  38.3721862  63.3769013  63.5454537  38.5305782
  64.1297661  64.0467826  37.5010307  63.9842738  63.9634999  38.2661202
  57.9746349  69.4854663  38.7582665  57.3995940  69.6446832  39.3946626
  57.5982025  68.8490072  38.2951115  57.8349161  69.4152476  38.7837223
  61.6419637  67.9578013  43.6175043  61.2534070  67.5332230  42.9627234
  60.9774336  68.2060162  44.1252070  61.4866565  67.9316734  43.5962911
  71.2842906  67.7153017  36.3922873  71.0279471  66.9032959  36.2020756
  72.1272220  67.7230584  36.1653060  71.3708932  67.5965015  36.3307690
  47.7203167  69.1294738  36.7727105  47.8063419  68.7526606  37.5540635
  48.3478965  68.7555184  36.2947063  47.8259718  69.0180220  36.8172582
  65.4645999  61.6552641  41.1299027  65.8456511  60.9730812  41.5166901
  64.6609283  61.3662243  40.9474692  65.4022461  61.5119690  41.1603083
  62.7458576  72.1876617  31.8151850  63.5599214  72.4791510  31.7034621
  62.6817717  71.5336480  31.2410143  62.8561315  72.1341812  31.7140687
  58.6166484  75.6598135  36.9424162  59.2540431  75.4209882  37.4875955
  59.0421555  75.8635294  36.2077323  58.7742650  75.6549145  36.9141319
  53.3079126  77.8986471  40.8258466  53.3483271  78.1701322  39.9978245
  53.8673650  78.4228379  41.2416254  53.3962472  78.0162226  40.7650354
  59.2569299  70.8800424  31.2799051  59.6414452  70.6608131  32.0315597
  59.0080919  71.7063370  31.4100128  59.2771371  70.9698571  31.4100128
  59.4237839  64.1606840  50.9961636  59.1091280  64.9306402  50.7331198
  59.1027772  63.5977096  50.4113863  59.3296758  64.1917108  50.8702986
  60.9987956  76.1370557  38.6217948  61.0726964  75.9745729  39.4759798
  61.8157462  76.3260747  38.3778430  61.1304314  76.1407300  38.7115974
  54.7593712  76.4828420  35.6512392  53.9331830  76.7290157  35.5246671
  54.8205704  76.4040501  36.5174450  54.6467879  76.5073369  35.7601336
  56.9769736  62.5497361  36.6107832  56.1092162  62.6219961  36.6765441
  57.2644940  63.3519440  36.7995807  56.8909484  62.6791508  36.6482599
  66.1002625  62.6975220  44.9419154  66.8456217  62.5085031  44.5282579
  65.6839930  63.2233458  44.3833010  66.1487599  62.7477366  44.7983727
  59.5392541  79.1005300  33.3531422  59.8290840  78.7094282  32.6290648
  60.2696022  79.2822005  33.7936697  59.6899426  79.0699114  33.3114229
  73.4764896  70.0684449  39.8924659  74.0272817  69.4352518  40.1321751
  73.4609011  70.5999842  40.5840163  73.5550092  70.0533397  40.0303517
  60.1287287  73.9023046  44.4384552  59.6298980  74.6138814  44.5169441
  60.9387511  74.2223713  44.4002715  60.1743393  74.0549895  44.4441121
  57.4798457  81.0772683  36.4191571  57.2598752  80.7870037  37.2118238
  57.2592979  80.4187638  35.8909484  57.4146051  80.9372391  36.4580480
  56.3915404  73.1645999  38.6847273  56.1028653  72.5383470  39.2193000
  57.2598752  73.1066287  38.7511954  56.4775656  73.0633543  38.7738228
  67.1793302  68.3080783  39.0029255  66.8358068  67.5871118  39.3536505
  67.2786345  68.0994634  38.1607613  67.1435345  68.1704986  38.9300935
  56.5947678  74.8041250  34.6089638  57.3493646  75.1854289  34.8225101
  56.0018290  75.2552394  35.0636335  56.6184391  74.9270078  34.7072517
  59.0554345  66.7604091  49.7346850  58.2454120  67.0661870  49.6236693
  59.5329031  67.4809673  49.8499435  59.0057823  66.9118692  49.7353922
  57.9145904  75.9749812  39.9829754  57.3926658  76.1150103  40.6681618
  58.3019924  75.2160476  40.1731871  57.8949605  75.8835335  40.1130830
  54.9037088  66.0255620  34.0524708  54.6161884  65.6556891  33.3156656
  55.5907556  66.4950476  33.7908413  54.9625986  66.0402590  33.9039784
  59.3412230  73.0053831  35.3811245  59.1455012  73.6128565  34.7871548
  59.5646575  72.3121775  34.9002919  59.3446871  72.9931356  35.2227325
  57.7390760  69.8908569  35.4992113  58.4613412  70.0549727  35.0395919
  57.2598753  70.6118233  35.3931453  57.7754490  70.0206798  35.4157727
  65.6984267  66.2272367  40.8788798  64.8595368  66.2533646  40.6427061
  65.7688635  66.8743103  41.4594145  65.5852661  66.3268493  40.9297915
  55.3898376  72.2966641  44.6046253  55.9019473  72.5750894  43.9555013
  55.1034719  73.0355935  44.9709066  55.4233240  72.4468995  44.5636131
  64.1453546  63.1257744  35.6116414  64.8479898  62.9265493  35.1336372
  63.8797734  62.3533687  35.9185257  64.2100178  62.9820710  35.5861855
  69.5741791  71.4340354  38.1650040  69.4875766  71.5895780  39.0184818
  69.1192271  72.0778430  37.7909445  69.4945048  71.5516109  38.2357146
  52.4765283  66.8036833  34.9009989  52.5781419  67.6062994  35.2290965
  53.2721170  66.6024169  34.6033070  52.6093188  66.8922732  34.9045345
  58.9082102  64.3893030  44.6647294  58.7165299  64.4048164  45.5146718
  59.7580698  64.5856704  44.6413949  59.0057824  64.4207381  44.7870589
  53.2929015  66.9184011  42.6431111  53.1514507  66.0667952  42.7675619
  53.5769578  66.9612672  41.8193317  53.3136861  66.7983761  42.5398735
  63.4467607  68.7551101  36.7875599  63.2002322  68.6746852  37.6212388
  63.7752730  67.9704569  36.5938127  63.4588851  68.6277367  36.8823122
  65.6793741  71.7630836  46.8284762  65.6741780  70.8910652  46.8327189
  66.3854735  71.9619005  46.3554218  65.7838745  71.6634710  46.7591797
  59.4064635  71.4907820  46.1998582  59.5508010  72.0709028  45.5641692
  59.7540283  71.8684117  46.9048437  59.4792096  71.6328524  46.2097577
  61.5784552  70.6897988  43.9823714  60.8307866  70.8829003  43.5771992
  61.7326077  69.8643208  43.7447835  61.4906980  70.5963100  43.8869120
  58.4792390  79.6810592  43.0659609  58.6281953  79.1213508  42.4133013
  59.2592392  79.7602593  43.4492128  58.6166483  79.6096157  43.0256558
  61.8186329  64.5848539  44.8719118  62.2758943  65.3172513  44.9991910
  61.8942658  64.1615004  45.6306373  61.8977299  64.6305777  45.0020194
  54.0619320  64.8314359  45.9608561  53.5261510  64.2194717  46.2769329
  54.1237085  65.4062495  46.6142228  53.9914953  64.8261286  46.1043988
  66.2913655  57.7638414  38.7412960  66.4097223  58.2214877  38.0080263
  66.1175831  56.9583675  38.4549178  66.2832826  57.7132186  38.5913894
  61.6615937  78.3726233  35.1767706  62.4265828  78.1035877  34.8550370
  61.5594027  77.8876244  35.8937769  61.7597433  78.2615798  35.2347533
  59.6968707  66.5750643  41.7160942  58.9064782  66.3942103  42.0378277
  60.0929330  65.7977595  41.6991236  59.6385583  66.4338104  41.7613490
  64.1834598  75.4038417  27.1567655  64.9507583  75.4638542  26.7473507
  63.7365907  74.8318859  26.6723974  64.2308025  75.3274993  27.0245365
  65.0812393  74.2093073  39.4420387  64.4057395  73.9778305  39.9433775
  65.0904769  73.6014256  38.8162493  64.9830898  74.0851998  39.4236540
  62.2106537  69.0510902  46.1984440  62.1465678  69.9120858  46.0704577
  62.3503725  68.7342895  45.3979992  62.2222007  69.1311069  46.0612653
  60.8925631  71.7443041  40.3400643  60.4687880  71.9447540  39.6039662
  60.7170486  70.8971889  40.4524943  60.8036512  71.6491823  40.2474333
  56.1808076  72.2395093  35.7728616  56.3372695  72.1741896  36.6284608
  56.5208669  73.0143645  35.5607296  56.2541311  72.3444291  35.8683210
  62.7187221  71.6152976  34.6421979  63.2602766  71.1123357  35.1060600
  63.0333780  71.5618171  33.8311464  62.8451618  71.5332397  34.5905791
  60.8873670  77.0070328  31.9262007  60.9566491  76.1484866  32.0655008
  61.6662125  77.2242209  31.5981032  61.0126520  76.9123192  31.8979164
  63.8676490  66.5089281  44.6944280  64.0818460  65.8700195  44.1407634
  63.2510389  66.9535105  44.2652141  63.8081819  66.4799425  44.5494711
  52.7542338  69.4230043  36.0889383  53.1341302  69.8414588  35.4249650
  52.1797702  70.0043499  36.3958226  52.7253662  69.5707902  36.0366124
  66.0315578  68.1178346  45.6327587  65.2192260  67.8104236  45.7140759
  66.4905513  67.6377346  46.1970299  65.9795963  68.0014838  45.7282181
  65.4420833  75.9958018  36.0804531  65.0835487  76.1672661  36.8568563
  64.9559543  76.4571224  35.5232530  65.3179530  76.0896989  36.1129800
  63.2591219  59.6189217  39.6831622  62.3884777  59.5927938  39.6364932
  63.5131560  59.4466409  38.8657468  63.1684779  59.5899360  39.5551759
  60.2309198  71.6757183  28.6204765  60.5201723  72.4522066  28.8948340
  60.3180997  71.1645915  29.3219265  60.2863454  71.7149102  28.7647263
  63.1269086  69.5238417  50.4156289  63.5968717  70.1480534  50.8024163
  63.1730966  68.8555393  50.9749504  63.2036961  69.5173098  50.5556360
  60.2840359  61.6295445  41.1405093  59.7678848  60.9375636  41.2656672
  59.7234288  62.2966222  41.0867691  60.1246872  61.6258703  41.1511159
  62.3532593  62.1688405  42.9697945  61.9664346  62.1937436  43.7511475
  61.8665530  61.6030084  42.5172462  62.2245102  62.0884156  43.0185849
  68.3282572  68.7351060  41.5937648  67.9010180  68.6477409  40.8385747
  67.6908625  68.8428835  42.1792492  68.1712179  68.7383720  41.5683089
  62.0189734  59.0555390  45.2608205  62.6482852  59.5915691  44.9829276
  62.1875597  58.9632749  46.1121771  62.1367529  59.1216753  45.3456733
  61.8203649  63.8426585  47.5334617  62.6477079  63.5711734  47.5893231
  61.8411495  64.6387427  47.8898435  61.9456499  63.9206339  47.5949800
  56.3973139  70.9890448  40.7204877  55.5561146  70.8894322  40.9283771
  56.6063147  71.7585928  41.0719198  56.3037832  71.0882491  40.8032192
  53.8748706  68.6109985  38.5489628  53.4805404  68.6852997  37.7739738
  53.3188823  68.9967931  39.0997990  53.7351518  68.6791760  38.5157288
  65.5113653  61.5891279  38.2293507  65.7163246  61.5213587  39.0750504
  65.1840077  62.3950100  38.1614684  65.4928901  61.6977219  38.3453162
  60.2089804  68.9171847  39.9702475  59.9052941  68.3627835  40.5712883
  59.5069225  69.0964057  39.4830509  60.0606014  68.8616629  39.9872181
  59.2655901  66.2272367  34.5347177  59.5415635  65.5091279  34.1224744
  59.8654570  66.8257287  34.3268283  59.3949166  66.2092738  34.4427938
  58.2708155  76.1321568  44.6774573  58.1628510  76.1423630  45.5436631
  58.4803936  76.9576348  44.4879527  58.2858266  76.2562643  44.7778664
  68.7647341  62.1423043  37.7096272  68.1521654  62.6293445  38.0950004
  68.8611515  61.4666534  38.2533924  68.6885238  62.1141352  37.8475131
  62.7666422  63.8985884  32.8093772  63.2210168  64.0696445  33.5341616
  63.2406467  63.2853995  32.4091548  62.9034742  63.8336770  32.8567533
  56.2881947  73.3834210  42.1396510  55.6969880  74.0243708  42.1099525
  57.0502970  73.8071828  42.1127810  56.3130208  73.5410049  42.1311658
  56.6842570  64.5436208  42.8064528  57.1444051  64.6175137  43.5439652
  56.7298676  65.3417462  42.4564349  56.7593125  64.6730355  42.8637284
  58.3325919  65.2102903  47.3736555  57.9411485  64.5636250  47.8092333
  58.5011782  65.8014338  47.9930810  58.2996830  65.2017171  47.5299261
  60.1079442  70.6028419  33.9138779  60.8521486  70.9902695  34.1521729
  60.2540138  69.7585844  34.0779267  60.2390027  70.5358891  33.9732749
  62.0259017  62.3978678  38.9470641  61.1795062  62.5701485  38.8211990
  62.0230149  61.5928021  39.2836469  61.9006167  62.3039707  38.9781767
  63.0957317  66.1753892  39.8132698  62.6217272  65.6495654  40.3238009
  63.4675453  65.6283365  39.2447560  63.0807206  66.0169889  39.8047846
  53.4730348  68.1725399  45.1816244  54.3355961  68.0721108  45.0953574
  53.1422131  67.5920108  44.6201816  53.5515544  68.0717025  45.0861650
  69.3594048  71.2356268  41.2239479  69.1192271  70.3962683  41.2281905
  69.8386055  71.3156434  41.9480252  69.3946232  71.1237667  41.3314281
  65.0240817  67.0690447  32.8758452  64.4963836  67.1519191  32.1864161
  65.4836525  67.8108318  32.8723097  65.0142667  67.1911109  32.7733147
  71.3599235  68.0157725  39.1768738  71.1209005  67.9753559  38.3389523
  71.5233136  68.8628877  39.3034459  71.3489538  68.1349810  39.0722220
  67.9645265  72.4007674  45.1073783  68.6879464  71.9480201  44.9284803
  67.6995227  72.6812340  44.3246111  68.0326538  72.3758643  44.9652499
  56.8332133  66.9967848  41.8426662  56.2085204  67.0086240  41.2352615
  56.4977728  67.4728023  42.4917903  56.6917625  67.0686365  41.8483231
  57.0173882  65.3392966  27.8999347  56.6686686  65.9912691  28.3630897
  56.5370328  65.3250079  27.1723219  56.8944126  65.4336020  27.8610439
  53.5457809  75.0568308  43.2830427  53.0157734  74.3660747  43.3325401
  53.8182902  75.0478493  42.4543135  53.5082531  74.9535440  43.1677843
  64.5777900  75.6394010  32.0068109  65.3012098  76.1052123  31.8632683
  64.1378491  75.7067620  31.2565706  64.6193592  75.7177847  31.8752891
  63.7464055  72.4991552  43.2568798  63.1321048  71.9549603  43.5517434
  64.2631340  71.9855789  42.7774614  63.7319717  72.3427961  43.2293027
  62.9860352  73.5695822  40.9913097  62.5587960  72.9445541  40.5578532
  62.9785296  73.2870744  41.8172104  62.9219493  73.4348603  41.0492924
  56.1022879  68.6060995  44.0601531  56.2616366  67.8504320  44.4653253
  55.9215772  69.1551935  44.7142269  56.0988238  68.5754809  44.2164237
  64.0443182  60.7722231  44.6152320  63.5483743  60.9685905  43.9243887
  64.8012244  61.1714899  44.4441122  64.0830007  60.8599965  44.4872457
  48.8253651  71.7296072  40.6398775  48.7197100  71.6842916  39.7750859
  48.0753871  72.0749853  40.9213060  48.6989254  71.7736980  40.5536105
  57.5947384  63.1735395  40.5861375  57.6345755  63.6744602  41.2996083
  56.7697048  63.2645789  40.3167298  57.4786910  63.2617212  40.6511913
  59.7776997  72.7396135  48.6881670  58.9272627  72.8767849  48.8239315
  59.9405124  72.0059913  49.1329372  59.6760860  72.6510236  48.7737269
  59.0161747  69.6895905  42.8835274  58.1853677  69.8569723  42.6770522
  58.9613264  69.3131856  43.6684160  58.8851162  69.6585636  42.9683802
  56.8245530  63.1804798  48.5191685  57.4498234  62.6366931  48.7921117
  56.3696010  62.6999716  47.9499475  56.8493791  63.0294279  48.4753279
  57.3897791  67.9651497  33.4125392  57.5300752  68.4623961  34.1154033
  57.8880324  67.2637791  33.5539606  57.4838872  67.9353475  33.5376971
  57.4198013  68.8318608  30.7417969  58.0543093  69.4279033  30.6767431
  57.5023624  68.5322065  31.5563839  57.5254564  68.8759516  30.8521055
  70.3980579  71.3634085  43.6104333  70.9898419  72.0031336  43.6422531
  70.8339574  70.6657122  43.8996400  70.5499010  71.3552435  43.6585166
  58.9976996  64.7632583  30.7163411  59.3192837  64.2835666  30.0622673
  59.2603940  65.5732229  30.5254222  59.0843022  64.8122481  30.5918903
  62.2273969  75.7851457  44.2362227  61.7199060  76.3387304  44.6802857
  61.9300615  75.8459747  43.4181001  62.1078854  75.8757769  44.1810684
  64.3936151  64.1504777  43.0786890  64.8191223  63.6977303  42.4670416
  63.7793144  63.5964848  43.3551677  64.3664796  64.0018753  43.0291915
  53.9251001  71.0286448  34.0107515  54.4343231  71.6250956  34.3918820
  54.3985273  70.7612422  33.3283934  54.0694377  71.0772264  33.9662038
  62.8330374  60.6219877  36.4877467  62.1898692  60.4717523  37.0562605
  62.4929781  60.3762222  35.7226571  62.6875451  60.5631999  36.4580482
  67.4229720  68.5779304  35.9107475  66.7520910  69.1209006  35.7820541
  68.1169471  69.0474159  35.6689170  67.4258588  68.7277575  35.8563003
  67.5857848  65.0335187  38.8197849  67.9385458  64.6064910  39.4943647
  66.7272649  64.9486031  38.9498925  67.5107293  64.9579928  38.9392859
  56.2841533  67.6642707  36.8780695  55.5653522  68.0806840  37.1453559
  56.6553895  68.2296946  36.3272333  56.2333465  67.8091988  36.8363502
  65.5841114  68.2970556  42.7682691  65.5639041  68.1153851  43.6217470
  65.6320314  69.1682574  42.7442275  65.5875755  68.3987094  42.8905986
  63.5287444  74.8857748  48.6931167  63.4883298  74.2407425  48.1076323
  64.3410762  74.8294365  49.0056580  63.6430597  74.7816715  48.6528117
  62.0588107  66.7040707  32.2154075  61.4652947  67.0257703  31.6638642
  62.0963385  65.8581802  32.0075181  61.9762496  66.6265035  32.1036846
  69.0181908  60.1553599  39.7482161  68.5112773  59.4482739  39.6803339
  69.8149342  59.8246788  39.8783238  69.0609147  60.0026750  39.7581156
  64.9345924  66.6620211  35.6455825  64.7059617  66.6852913  34.8034183
  65.1944000  65.8377678  35.7650835  64.9392112  66.5436291  35.5381023
  59.2165152  68.5154684  45.2480925  58.7044055  67.9075867  45.6065956
  59.0444648  69.2311277  45.7154901  59.1154789  68.5317984  45.3697149
  54.0630867  66.9592260  47.8983287  53.8933457  67.6193635  47.3531494
  53.6196817  67.1698821  48.6195776  53.9730201  67.0878242  47.9244916
  57.9890686  65.1996758  36.9410021  58.4648053  65.5613837  36.3060202
  57.4879286  65.8553225  37.2210163  57.9856045  65.3490946  36.8886762
  63.0934223  66.4378929  47.6883181  63.6505653  66.2092739  47.0561646
  62.7695288  67.1984595  47.4118393  63.1280633  66.5162766  47.5539678
  50.9632931  69.8639125  43.1571777  50.4159651  69.1939771  43.2752645
  51.7525310  69.4968973  43.2215244  50.9985115  69.7104112  43.1840477
  60.8117340  69.5246582  48.6535188  61.5628667  69.8398259  48.9674742
  61.0039916  69.3225753  47.8269110  60.9508754  69.5413964  48.5778584
  60.0317339  67.3437957  30.3083405  60.4116304  67.3617587  29.5234519
  59.2909936  67.7891946  30.1874252  59.9786177  67.4119732  30.1746973
  67.6602630  65.6520149  35.8958983  67.6596856  65.4968805  36.7543260
  67.4558810  66.4983136  35.8400369  67.6302408  65.7540769  36.0146923
  49.7219901  69.0759933  40.3117800  49.5441662  68.6236542  41.0372715
  49.4338923  69.8786094  40.4956277  49.6532854  69.1282491  40.4461303
  65.3843482  70.3317650  39.5495190  65.8797147  69.6140645  39.5099210
  64.5743258  70.0288448  39.4349677  65.3387375  70.1815297  39.5268916
  60.8302094  74.1815464  31.6992195  60.0213416  73.8582137  31.6525504
  61.3377002  73.4748686  31.6320443  60.7851760  74.0296780  31.6822489
  51.4592371  71.6087657  37.4239559  50.5937890  71.5973347  37.3122330
  51.5591187  71.4217880  38.2710698  51.3466538  71.5793718  37.5328503
  67.4495301  73.0821338  42.2372319  67.8750372  72.5595760  41.6842744
  67.0852221  73.6802175  41.7160942  67.4581904  73.0931565  42.0781329
  57.0849381  81.3785555  40.9969664  57.3995940  82.1921944  41.0047446
  57.4942794  80.9935774  41.6651824  57.1917479  81.4414258  41.0973756
  64.0373900  76.7955602  38.5673476  64.5085079  77.5095865  38.7363462
  64.3734079  76.1954352  39.1033346  64.1569015  76.8127066  38.6705852
  60.9543395  61.5683073  45.5231571  61.0871301  60.7714066  45.8512547
  61.3388548  62.0949476  46.1029847  61.0299724  61.5282989  45.6575074
  64.6747847  76.5873536  45.3301169  64.1268793  75.9631420  45.0621234
  65.1360875  76.7767808  44.6145248  64.6615056  76.5232587  45.1851600
  64.0275751  58.4913399  42.1212664  63.2221714  58.3811129  42.4380503
  63.8982486  58.5925855  41.2642530  63.8895883  58.4897069  42.0420705
  67.4841711  64.6558891  42.7152361  66.9004700  65.1568097  42.3029929
  67.8046005  64.1488447  42.0816685  67.4454886  64.6550726  42.5610868
  60.0236510  63.5699486  32.9911036  60.8452205  63.7397798  32.7492731
  59.5606161  63.7246747  32.2677334  60.0767672  63.6181219  32.8482680
  58.6131842  61.5642248  43.7709465  59.1576255  61.2233375  44.3613807
  58.6668778  62.4227709  43.9130749  58.7020962  61.6397507  43.8791338
  54.4262401  75.3258664  40.6448273  55.0307258  75.2854498  40.0162094
  54.2189713  76.1729816  40.6752329  54.4851298  75.4446666  40.5564389
  49.6613683  74.3093281  40.5147196  49.5637961  73.4989553  40.8237253
  50.4442553  74.2885075  40.1293464  49.7629820  74.1860372  40.5034059
  36.5140313   0.1126360  21.7593433  36.4834317   0.9670997  21.9311703
  37.1121662  -0.1878347  22.3179577  36.5977471   0.1942857  21.8668236
  29.7139998  -0.7997989  26.5146364  28.8577893  -0.6389491  26.5655481
  29.7607652  -1.6705925  26.5351425  29.5939109  -0.9047187  26.5252430
  24.0981138   8.7364729  22.2783595  23.3464037   8.3580267  22.0499640
  24.5467149   8.7683163  21.5302406  24.0530804   8.6850336  22.1341097
  33.0233714   5.4688537  36.1206820  33.7300482   4.9740568  36.2493754
  33.2121650   5.9097618  35.3909478  33.1561620   5.4606887  36.0315865
  29.5506097   9.1590099  17.7069142  29.2157466   9.8367020  17.2713365
  30.0632968   8.7695410  17.1186014  29.5771679   9.2014677  17.5555934
  29.0910389  11.1104367  23.6480254  29.4749768  11.6791266  23.1085029
  29.0269530  10.3853878  23.1686070  29.1383816  11.0879831  23.4974117
  32.5591819   1.2594055  29.1578015  33.1047779   1.9379142  29.2171985
  32.5008695   1.1181516  28.2979597  32.6307733   1.3386057  29.0390076
  25.6765894   8.7483121  24.5446368  25.7776257   7.9383475  24.8543496
  25.0807639   8.6540068  23.9146046  25.6038432   8.6148149  24.4972606
  34.3356888   2.6878662  20.0311743  34.2196413   3.4386348  20.4603881
  35.1312774   2.4302616  20.2807830  34.4361477   2.7613509  20.1315835
  25.5166633  13.6660710  25.9461224  26.1604089  14.1073874  26.3357382
  25.8422889  12.8614137  25.8591483  25.6598462  13.6125905  25.9906701
  18.8730938   4.7703408  24.1698701  18.6381122   3.9371060  24.0630970
  19.0116579   5.0508073  23.3559902  18.8586601   4.6886911  24.0341056
  26.2187213   6.6772685  21.3181086  26.5403054   7.2177893  20.7142394
  26.8659310   6.1069457  21.4503375  26.3613268   6.6731860  21.2488121
  28.2688921  -1.3211320  21.4015472  28.9669086  -1.1423192  21.8936936
  28.5841254  -1.8440980  20.7785862  28.4184258  -1.3717548  21.3817482
  20.8990159   0.4841420  29.3126578  20.7748855   1.0703866  29.9476397
  21.5508443  -0.0098384  29.6138853  20.9763808   0.4980225  29.4512507
  28.4576857   5.0659125  21.3895264  28.8970492   4.4576226  21.8350037
  28.3081519   4.6866499  20.6180729  28.4998322   4.9197596  21.3414431
  25.9248500   3.6603137  28.5914089  26.5697502   3.1675580  28.2725038
  26.1650277   3.8027924  29.4180168  26.0559085   3.6080579  28.6663622
  28.4634591   6.5058043  28.2420982  28.7457834   5.7109449  28.0207738
  29.1920751   6.9838630  28.2626043  28.6124155   6.4592640  28.2123997
  32.0586193   3.4186307  18.3426033  31.9737488   4.2747273  18.4875602
  32.5470576   3.1430631  19.0108192  32.1175090   3.5043628  18.4628115
  32.9904626   0.0371101  19.8423768  32.4616098   0.2530734  20.5021074
  33.5129646   0.7307239  19.7624737  32.9893079   0.1714238  19.9279367
  38.4452679   5.6117405  25.2156813  37.6150382   5.8228049  25.3790229
  38.3961932   4.7854460  24.9399096  38.3159415   5.5207011  25.1994178
  20.4348263   9.6489079  25.4454908  19.9515841  10.3739568  25.4214491
  21.2471581   9.9465209  25.5565065  20.4839010   9.7991432  25.4582187
  26.5062417   8.4421259  28.0504722  25.9889358   8.0828674  27.4466030
  27.2036808   7.9183434  28.0610788  26.5327998   8.3118947  27.9634981
  30.1626009   8.8916073  34.0120895  30.2509355   8.7042214  34.8599105
  30.5915721   8.2453503  33.6125742  30.2388111   8.7679081  34.0792647
  27.7296469   8.1747233  32.9938557  27.1667303   7.7619843  33.5178219
  28.4917492   8.1000139  33.4131701  27.7590917   8.1024634  33.1331558
  23.2892460  10.1645255  25.5975187  23.9913039   9.6497244  25.6547944
  23.2089943  10.4919406  26.4022063  23.3816220  10.1359481  25.7247980
  37.9406638  -1.7412194  29.0107234  37.1035059  -1.6710007  29.2454828
  37.9094868  -1.7387699  28.1381536  37.8124920  -1.7301967  28.9166782
  24.3371367   0.4020841  34.7255603  24.5091870   0.2926736  35.5740884
  24.8740724   1.0475247  34.4886795  24.4416371   0.4812843  34.8160699
  22.6143235   6.3551606  25.1060796  23.4532135   6.5874539  25.1534557
  22.6455005   5.4855918  25.0367831  22.7424953   6.2608553  25.1025440
  23.2395938   6.7752482  29.4074101  23.7794163   6.6323613  30.0777473
  22.5565885   7.1749232  29.7758127  23.2188092   6.8132153  29.5608523
  32.6636823   2.4543482  24.6019125  33.4194338   2.8874997  24.6408034
  32.7699148   1.8048252  25.1753761  32.7906994   2.4220966  24.6917151
  35.7016994   6.2816760  25.3521528  35.2652226   6.2853502  26.1080500
  35.3679910   6.9622259  24.9201106  35.5879614   6.3829215  25.4002361
  30.2746068   8.3225092  36.6764679  31.0586485   8.4355940  37.0420421
  30.0742663   7.4966229  36.8723365  30.3612093   8.2171812  36.7599065
  18.6433083   2.9952772  29.5608523  18.3771499   2.1791889  29.7199513
  18.6571648   3.0405928  28.6904038  18.6057806   2.8809677  29.4562005
  30.4316461  10.2335194  30.3231134  29.6331707   9.9934694  30.5805003
  30.8802473  10.2849587  31.0698182  30.3791073  10.2057586  30.4716059
  38.8361341   2.9997679  24.2441166  39.4977775   2.4388348  24.1437074
  38.1952753   2.5049710  24.5693857  38.8390208   2.8434088  24.2773506
  29.7238148   6.2967811  16.5522089  30.1389297   5.9652835  15.8606585
  28.8930078   6.0636713  16.4242226  29.6626157   6.2139067  16.4312936
  19.0526497   3.7811552  26.8420267  18.8702070   3.7558438  25.9892559
  19.7876166   4.2510490  26.8809176  19.1340561   3.8472914  26.7218185
  35.1226171   4.0163062  23.9853154  35.3581761   4.1608261  23.1580005
  35.2715735   4.7805470  24.3784668  35.1791975   4.1502116  23.9216758
  22.1172249   0.4996555  33.3502375  22.8412221   0.4849585  33.8367270
  22.2188385   1.2091910  32.8524344  22.2390458   0.6021258  33.3481162
  36.9516628   2.8564728  21.8222758  37.2824845   3.3892368  21.2162853
  37.5249716   2.9103616  22.4784709  37.0850307   2.9434297  21.8300540
  29.4917198   3.9795639  38.2151322  28.6990179   4.2939151  38.4003942
  29.6066125   4.1947108  37.3772107  29.3912609   4.0579476  38.1189657
  32.1648517   0.7029630  22.5046338  32.2595372   1.4418925  22.9585964
  31.5407361   0.2747106  22.9380903  32.0857547   0.7490951  22.6354486
  30.4200991   3.8815843  33.1536619  30.9939853   3.2443087  33.3085183
  30.3415795   3.8819926  32.2846277  30.4934226   3.7880955  33.0483030
  19.0197407   0.6605053  26.9919333  19.5970910   0.5241503  27.6311579
  18.3211469   0.2040837  27.2464918  19.0018429   0.5727319  27.1241623
  25.7764710   2.3139108  25.2057817  25.5183954   1.4810843  25.1789116
  25.8313192   2.5396721  24.3650317  25.7464488   2.2236879  25.0777953
  24.7499422  -0.1323129  25.6922711  24.1749013   0.0269039  26.3286672
  24.3735098  -0.7687720  25.2291162  24.6102234  -0.2025316  25.7177270
  28.4172710  -1.6599780  30.5515090  28.0287143  -2.0845562  29.8967281
  27.7527409  -1.4117630  31.0592116  28.2619638  -1.6861059  30.5302958
  29.5211649   2.5698825  18.7491897  30.3352288   2.8613717  18.6374668
  29.4570790   1.9158687  18.1750190  29.6314388   2.5164019  18.6480734
  35.7421139   5.2524821  33.1621472  35.5059776   4.4212885  33.0433533
  36.3864368   5.2010428  33.7476317  35.8015810   5.1222509  33.2307366
  25.3919557   6.0420342  23.8764209  26.0293504   5.8032090  24.4216002
  25.8174629   6.2457501  23.1417369  25.5495723   6.0371352  23.8481366
  20.0832199   8.2808679  27.7598513  20.1236345   8.5523530  26.9318292
  20.6426723   8.8050587  28.1756301  20.1715545   8.3984434  27.6990401
  36.7657560   5.0369269  29.2249767  36.4603377   5.7697326  29.5863083
  36.0463775   4.6307199  28.9442553  36.6144902   5.0851002  29.2362904
  27.7741029   6.5192765  25.5557995  27.8480037   6.3567937  26.4099845
  28.5910535   6.7082954  25.3118477  27.9057388   6.5229507  25.6456021
  42.4659352   1.6762270  28.5518111  42.3983852   1.6958229  27.6820698
  42.4515014   2.5192597  28.7773782  42.4538108   1.8036005  28.4570588
  21.5346786   6.8650627  22.5852439  20.7084903   7.1112365  22.4586717
  21.5958777   6.7862708  23.4514497  21.4220953   6.8895576  22.6941383
  26.3145615   9.4827508  20.2871469  26.6043913   9.0916489  19.5630695
  27.0449095   9.6644213  20.7276744  26.4652499   9.4521321  20.2454276
  40.2517969   0.4506656  26.8264706  40.8025891  -0.1825275  27.0661798
  40.2362084   0.9822049  27.5180210  40.3303165   0.4355604  26.9643564
  26.9040360   4.2845254  31.3724599  26.4052053   4.9961021  31.4509487
  27.7140584   4.6045920  31.3342761  26.9496467   4.4372102  31.3781168
  24.2551530  11.4594890  23.3531618  24.0351826  11.1692245  24.1458285
  24.0346052  10.8009845  22.8249531  24.1899124  11.3194598  23.3920527
  23.1668477   3.5468207  25.6187320  22.8781726   2.9205678  26.1533047
  24.0351825   3.4888494  25.6852000  23.2528729   3.4455751  25.7078274
  33.9546375  -1.3097010  25.9369302  33.6111141  -2.0306675  26.2876551
  34.0539418  -1.5183159  25.0947660  33.9188418  -1.4472807  25.8640982
  26.4219486  12.8324280  22.1362311  27.0743544  12.3000722  22.3653337
  25.7245095  12.4792932  22.5230185  26.4150204  12.7013803  22.2274478
  23.3700751   5.1863458  21.5429685  24.1246719   5.5676497  21.7565147
  22.7771363   5.6374601  21.9976381  23.3937464   5.3092285  21.6412563
  34.4159404   5.1528694  21.4793290  34.9817437   5.8121904  21.3951833
  33.7687308   5.4978392  21.9509692  34.4038161   5.3010635  21.5366046
  25.8307418  -2.8573702  36.6686897  25.0207194  -2.5515922  36.5576740
  26.3082105  -2.1368120  36.7839481  25.7810897  -2.7059101  36.6693968
  24.6898977   6.3572019  26.9169800  24.1679731   6.4972311  27.6021665
  25.0772998   5.5982683  27.1071918  24.6702678   6.2657543  27.0470877
  30.8865982   8.0967478  20.9030369  30.6452658   7.3635339  20.4957434
  31.0667315   8.6454335  20.2496702  30.8773606   8.0689869  20.7460592
  26.1165303   3.3876038  22.3151291  25.9208086   3.9950773  21.7211594
  26.3399649   2.6943982  21.8342965  26.1199944   3.3753564  22.1567372
  24.5143833   0.2730776  22.4332160  25.2366485   0.4371934  21.9735966
  24.0351826   0.9940441  22.3271500  24.5507564   0.4029006  22.3497774
  32.4737341  -3.3905425  27.8128845  31.6348441  -3.3644146  27.5767108
  32.5441708  -2.7434690  28.3934191  32.3605734  -3.2909299  27.8637962
  22.1651450   2.6788848  31.5386300  22.6772547   2.9573102  30.8895059
  21.8787792   3.4178142  31.9049113  22.1986313   2.8291202  31.4976178
  36.3494864   1.8162562  25.0990086  36.2628839   1.9717988  25.9524865
  35.8945344   2.4600637  24.7249491  36.2698121   1.9338317  25.1697193
  25.6835175  -5.2284763  31.5987341  25.4918372  -5.2129629  32.4486765
  26.5333771  -5.0321089  31.5753996  25.7810897  -5.1970412  31.7210636
  30.2220681  -0.8626691  23.7215646  29.9755395  -0.9430940  24.5552435
  30.5505804  -1.6473224  23.5278173  30.2341924  -0.9900426  23.8163169
  34.1168729   5.8456668  27.5102427  33.9783089   6.5437714  28.0151170
  33.3368727   5.6905324  27.1538609  33.9811956   5.9256835  27.5328701
  32.4546814   2.1453043  33.7624809  32.4494853   1.2732860  33.7667235
  33.1607808   2.3441212  33.2894265  32.5591818   2.0456918  33.6931844
  26.1817708   1.8730027  33.1338629  26.3261084   2.4531235  32.4981739
  26.5293356   2.2506324  33.8388484  26.2545169   2.0150731  33.1437624
  28.3537625   1.0720196  30.9163761  27.6060939   1.2651210  30.5112039
  28.5079150   0.2465415  30.6787882  28.2660053   0.9785307  30.8209166
  25.2545463  10.0632799  29.9999656  25.4035027   9.5035715  29.3473060
  26.0345465  10.1424801  30.3832175  25.3919556   9.9918365  29.9596605
  35.6122102   5.2034922  18.2718926  35.2328911   4.4172060  18.2648216
  34.9488348   5.7521779  18.1290571  35.4580577   5.1679746  18.2499723
  27.7798763  10.2347442  31.2784147  27.7042435   9.5656252  31.8334935
  27.7088623  10.9365230  31.7924813  27.7579370  10.2392349  31.4360995
  28.5939402  -5.0329254  31.8059164  29.0512016  -4.3005279  31.9331957
  28.6695731  -5.4562788  32.5646420  28.6730372  -4.9872016  31.9360241
  28.4369010   8.7548441  22.1107753  29.2018901   8.4858085  21.7890417
  28.3347100   8.2698451  22.8277815  28.5350506   8.6438005  22.1687580
  26.4721780  -3.0427150  28.6500988  25.6817855  -3.2235690  28.9718324
  26.8682403  -3.8200197  28.6331283  26.4138656  -3.1839689  28.6953537
  31.8565466   4.5915280  26.3760434  31.1810468   4.3600513  26.8773821
  31.8657842   3.9836463  25.7502539  31.7583971   4.4674206  26.3576587
  28.9859610  -0.5666891  33.1324487  28.9218752   0.2943066  33.0044624
  29.1256798  -0.8834897  32.3320039  28.9975080  -0.4866724  32.9952700
  33.8582201   7.4480413  18.6070612  33.9402038   8.2547399  18.2832063
  34.3431943   7.4676372  19.3311386  33.9419359   7.5701075  18.6657511
  27.6678704   2.1265249  27.2740690  27.2440953   2.3269748  26.5379709
  27.4923559   1.2794097  27.3864990  27.5789585   2.0314030  27.1814380
  22.9561149   2.6217300  22.7068663  23.1125768   2.5564103  23.5624655
  23.2961742   3.3965853  22.4947342  23.0294384   2.7266498  22.8023257
  29.4940294   1.9975184  21.5762026  30.0355839   1.4945565  22.0400647
  29.8086853   1.9440378  20.7651511  29.6204691   1.9154605  21.5245838
  33.3657401   6.2077831  38.6888938  34.1792267   5.9362980  38.8494071
  33.2052368   5.9085371  37.8849134  33.4627350   6.1232757  38.5934344
  27.6626744   7.3892535  18.8602054  27.7319564   6.5307074  18.9995054
  28.4415199   7.6064416  18.5321079  27.7879594   7.2945399  18.8319211
  30.6429563  -3.1088512  31.6284326  30.8571533  -3.7477598  31.0747680
  30.0263462  -2.6642688  31.1992188  30.5834892  -3.1378368  31.4834757
  32.0534231   9.8130237  23.0738547  31.6614023   9.5096952  22.3561413
  32.2087303  10.6499326  22.8843501  32.0187821   9.8914073  22.9395044
  32.8068651  -1.4999447  32.5667633  31.9945333  -1.8073556  32.6480806
  33.2658586  -1.9800446  33.1310346  32.7549036  -1.6162954  32.6622228
  32.2173906   6.3780225  23.0144578  31.8588561   6.5494868  23.7908610
  31.7312617   6.8393431  22.4572576  32.0932603   6.4719196  23.0469847
  29.9022159  -0.0939375  37.3496336  30.3721790   0.5302741  37.7364210
  29.9484039  -0.7622400  37.9089550  29.9790035  -0.1004695  37.4896407
  33.3778645   7.2684121  33.9611779  34.0158366   6.7744317  33.6274235
  32.7352737   7.1961522  33.3764006  33.3772872   7.1843130  33.8254134
  35.1035645  -0.8826733  28.5277694  34.6763253  -0.9700384  27.7725794
  34.4661698  -0.7748957  29.1132538  34.9465253  -0.8794073  28.5023136
  33.4332902   7.9603930  30.6017135  34.2225280   7.6092994  30.7219217
  33.6076500   8.7740318  30.3393769  33.5753183   8.0289787  30.5805003
  23.1726212   1.3712655  27.6544924  22.3314219   1.2716530  27.8623818
  23.3816220   2.1408136  28.0059245  23.0790905   1.4704699  27.7372239
  20.6501779  -1.0067808  25.4829675  20.2558477  -0.9324796  24.7079785
  20.0941896  -0.6209861  26.0338037  20.5104592  -0.9386033  25.4497335
  26.9842877  -0.7005945  26.9042522  26.6806015  -1.2549957  27.5052929
  26.2822298  -0.5213735  26.4170556  26.8359087  -0.7561163  26.9212227
  25.0461228   6.5143775  31.6114620  24.9381583   6.5245837  32.4776678
  25.2557010   7.3398556  31.4219573  25.0611339   6.6384850  31.7118711
  23.0635020   3.7656418  29.0736557  22.4722953   4.4065916  29.0439572
  23.8256044   4.1894035  29.0467857  23.0883281   3.9232256  29.0651704
  25.1078993  -4.4074890  34.3076602  24.7164558  -5.0541543  34.7432380
  25.2764855  -3.8163454  34.9270857  25.0749903  -4.4160622  34.4639308
  39.1825442   3.5962187  30.0713835  39.2408565   4.0448836  30.8173812
  38.5491909   4.0061000  29.6343915  39.0976737   3.7235922  30.1166384
  32.8224536   9.2165729  26.5068582  32.6244225   9.7056544  25.8124793
  32.2012247   9.4206971  27.0852715  32.7012101   9.3182268  26.4891805
  26.8832515   0.9850626  20.8478826  27.6274560   1.3724902  21.0861776
  27.0293211   0.1408051  21.0119314  27.0143100   0.9181099  20.9072796
  29.8710391  -3.4423901  26.7472745  29.3970345  -3.9682139  27.2578056
  30.2428526  -3.9894428  26.1787607  29.8560280  -3.6007904  26.7387892
  36.1347121   1.6178475  28.1579526  35.8945344   0.7784890  28.1621952
  36.6139128   1.6978642  28.8820299  36.1699305   1.5059875  28.2654328
  38.1352308  -1.6020068  26.1108785  37.8962078  -1.6424234  25.2729569
  38.2986209  -0.7548916  26.2374506  38.1242612  -1.4827983  26.0062267
  34.7398338   2.7829882  32.0413830  35.4632537   2.3302408  31.8624850
  34.4748301   3.0634547  31.2586158  34.8079612   2.7580850  31.8992545
  23.6085207  -2.6209945  28.7766709  22.9838277  -2.6091553  28.1692662
  23.2730802  -2.1449770  29.4257949  23.4670699  -2.5491428  28.7823278
  20.3210882   5.4390515  30.2170473  19.7910807   4.7482954  30.2665448
  20.5935976   5.4300701  29.3883182  20.2835605   5.3357647  30.1017889
  31.3530973   6.0216218  18.9408156  32.0765172   6.4874331  18.7972729
  30.9131564   6.0889827  18.1905753  31.3946665   6.1000054  18.8092937
  30.5217128   2.8813760  30.1908845  29.9074121   2.3371810  30.4857480
  31.0384413   2.3677996  29.7114661  30.5072790   2.7250169  30.1633073
  29.7613425   3.9518030  27.9253144  29.3341033   3.3267748  27.4918579
  29.7538369   3.6692952  28.7512151  29.6972566   3.8170810  27.9832971
  22.8775952  -1.0116797  30.9941578  23.0369439  -1.7673473  31.3993300
  22.6968846  -0.4625858  31.6482315  22.8741311  -1.0422983  31.1504284
  28.0899135  -5.1713216  28.1395678  28.1141622  -5.7053103  27.4508458
  28.3410608  -5.6795907  28.8021268  28.1309053  -5.3252312  28.1360322
  15.6006724   2.1118279  27.5738822  15.4950174   2.0665124  26.7090906
  14.8506944   2.4572060  27.8553107  15.4742327   2.1559187  27.4876152
  26.5530070   3.1218343  35.6221717  25.7025700   3.2590057  35.7579362
  26.7158197   2.3882121  36.0669418  26.4513933   3.0332444  35.7077316
  25.7914820   0.0718112  29.8175321  24.9606750   0.2391930  29.6110569
  25.7366337  -0.3045937  30.6024206  25.6604235   0.0407844  29.9023849
  37.1733652   1.7456292  30.5444380  37.7651493   2.3853543  30.5762578
  37.6092647   1.0479329  30.8336447  37.3252083   1.7374643  30.5925212
  29.0027042   6.1673665  31.1702274  28.4952133   6.7209512  31.6142904
  28.7053688   6.2281955  30.3521048  28.8831927   6.2579976  31.1150730
  31.6134822  10.0836922  19.1006217  30.8964132   9.9097785  18.6353455
  32.2641560   9.8489495  18.5681703  31.6036673  10.0232715  18.9535435
  34.1982794  -1.0398489  22.8447522  33.5273984  -0.4968787  22.7160588
  34.8922544  -0.5703634  22.6029217  34.2011661  -0.8900218  22.7903050
  28.2469527  11.0998223  28.0759281  28.0235182  10.3417052  28.4443307
  27.7579371  11.1296244  27.3539720  28.1412976  10.9920448  28.0236022
  23.0594606  -1.9535086  23.8120742  22.3406595  -1.5370953  24.0793606
  23.4306968  -1.3880847  23.2612380  23.0086538  -1.8085804  23.7703549
  32.3594187  -1.3207237  29.7022738  32.3392114  -1.5023942  30.5557517
  32.4073388  -0.4495218  29.6782321  32.3628828  -1.2190699  29.8246032
  30.3040517   5.2679955  35.6271214  30.2636372   4.6229632  35.0416370
  31.1163835   5.2116573  35.9396626  30.4183670   5.1638922  35.5868163
  26.8947984  11.3198681  25.5296365  26.4808383  10.6572811  25.1400207
  27.5795359  11.4676540  25.0092059  26.9346356  11.2439339  25.3952862
  30.2613278  10.4788766  26.2819982  29.8629562  10.5891037  25.5140802
  29.6464498  10.6870833  26.8646542  30.1112168  10.5262334  26.2551281
  31.7098997  -2.9557581  22.5795872  31.4812690  -2.9324880  21.7374230
  31.9697073  -3.7800114  22.6990882  31.7145185  -3.0741501  22.4721069
  25.9918225  -1.1023108  32.1820972  25.4797129  -1.7101925  32.5406003
  25.8197722  -0.3866516  32.6494948  25.8907863  -1.0859809  32.3037196
  24.7643760  -4.4181035  23.8750067  25.2401126  -4.0563955  23.2400248
  24.2632359  -3.7624567  24.1550210  24.7609119  -4.2686846  23.8226808
  37.9955121   5.0540733  19.6663072  38.3788727   5.8032089  19.8961169
  37.1999234   5.3006553  19.4075061  37.9348903   5.2010427  19.6620646
  29.8687296  -3.1798864  34.6223227  30.4258726  -3.4085054  33.9901693
  29.5448361  -2.4193198  34.3458440  29.9033706  -3.1015027  34.4879725
  27.5870413  -0.0931210  35.5875235  28.3381740   0.2220467  35.9014789
  27.7792990  -0.2952039  34.7609156  27.7261827  -0.0763828  35.5118630
  32.1596555   0.7139858  26.4835237  32.6550221  -0.0037147  26.4439257
  31.3496331   0.4110655  26.3689724  32.1140449   0.5637504  26.4608963
  27.6055167   4.5637671  18.6332241  26.7966490   4.2404345  18.5865551
  28.1130076   3.8570893  18.5660490  27.5604834   4.4118987  18.6162536
  18.2345444   1.9909864  24.3579606  17.3690964   1.9795555  24.2462377
  18.3344260   1.8040087  25.2050745  18.1219611   1.9615925  24.4668550
  34.2248374   3.4643545  29.1712366  34.6503446   2.9417967  28.6182791
  33.8605294   4.0624383  28.6500989  34.2334977   3.4753772  29.0121375
  23.8602454  11.7607763  27.9309711  24.1749013  12.5744151  27.9387493
  24.2695867  11.3757981  28.5991870  23.9670552  11.8236465  28.0313803
  30.8126974   7.1777810  25.5013523  31.2838152   7.8918072  25.6703508
  31.1487152   6.5776560  26.0373393  30.9322089   7.1949274  25.6045899
  32.9003958   8.7879123  37.6805595  33.0100924   7.9987684  38.0362342
  33.2294855   8.6985059  36.8779933  32.9656364   8.6584976  37.6147986
  31.4500920   6.9695744  32.2641216  30.9021866   6.3453627  31.9961281
  31.9113949   7.1590016  31.5485295  31.4368129   6.9054794  32.1191647
  21.2015474   5.7080871  27.5788320  21.8060331   5.6676705  26.9502140
  20.9942787   6.5552023  27.6092375  21.2604371   5.8268874  27.4904436
  31.0159246   7.9746816  28.7950557  31.8357620   7.8309782  29.0566852
  30.7353324   8.5993015  29.3366995  31.0955990   8.0457168  28.9138496
  16.4366756   4.6915489  27.4487243  16.3391034   3.8811760  27.7577299
  17.2195626   4.6707282  27.0633511  16.5382893   4.5682579  27.4374106
  47.4872897  15.6311668  21.7593433  47.4566901  16.4856305  21.9311703
  48.0854245  15.3306961  22.3179577  47.5710054  15.7128165  21.8668236
  40.6872581  14.7187319  26.5146364  39.8310477  14.8795817  26.5655481
  40.7340235  13.8479383  26.5351425  40.5671693  14.6138121  26.5252430
  40.5238681  24.6775407  17.7069142  40.1890050  25.3552328  17.2713365
  41.0365551  24.2880718  17.1186014  40.5504262  24.7199985  17.5555934
  43.5324402  16.7779363  29.1578015  44.0780363  17.4564450  29.2171985
  43.4741279  16.6366824  28.2979597  43.6040317  16.8571365  29.0390076
  45.3089471  18.2063970  20.0311743  45.1928997  18.9571656  20.4603881
  46.1045358  17.9487923  20.2807830  45.4094061  18.2798817  20.1315835
  29.8463522  20.2888716  24.1698701  29.6113706  19.4556368  24.0630970
  29.9849162  20.5693381  23.3559902  29.8319184  20.2072219  24.0341056
  32.1453609  12.4574446  27.0683009  31.5258641  11.8667094  26.8993024
  32.0437473  13.0485882  26.4347332  32.0391285  12.4578529  26.9487999
  37.1919797  22.1957993  21.3181086  37.5135638  22.7363200  20.7142394
  37.8391893  21.6254765  21.4503375  37.3345852  22.1917168  21.2488121
  39.2421505  14.1973988  21.4015472  39.9401669  14.3762116  21.8936936
  39.5573837  13.6744327  20.7785862  39.3916842  14.1467760  21.3817482
  31.8722742  16.0026728  29.3126578  31.7481439  16.5889174  29.9476397
  32.5241027  15.5086924  29.6138853  31.9496391  16.0165532  29.4512507
  39.4309440  20.5844433  21.3895264  39.8703076  19.9761534  21.8350037
  39.2814103  20.2051806  20.6180729  39.4730906  20.4382904  21.3414431
  36.8981083  19.1788445  28.5914089  37.5430086  18.6860888  28.2725038
  37.1382860  19.3213232  29.4180168  37.0291668  19.1265887  28.6663622
  39.4367174  22.0243351  28.2420982  39.7190417  21.2294757  28.0207738
  40.1653335  22.5023938  28.2626043  39.5856738  21.9777948  28.2123997
  37.4148368   9.5666385  25.4836747  37.0851698  10.0177528  24.8140446
  36.7393370   9.4882548  26.0309753  37.2658805   9.6217520  25.4659970
  43.0318777  18.9371614  18.3426033  42.9470072  19.7932581  18.4875602
  43.5203160  18.6615939  19.0108192  43.0907674  19.0228936  18.4628115
  44.6224776   5.5551908  23.7286358  44.3078217   6.2455386  24.1606780
  44.1051718   5.4996690  23.0271858  44.4989246   5.6486796  23.6883307
  43.9637210  15.5556409  19.8423768  43.4348681  15.7716042  20.5021074
  44.4862230  16.2492547  19.7624737  43.9625663  15.6899546  19.9279367
  49.4185263  21.1302713  25.2156813  48.5882966  21.3413357  25.3790229
  49.3694515  20.3039768  24.9399096  49.2891998  21.0392319  25.1994178
  35.8536818  19.4519625  18.6431236  35.2694033  19.9569657  19.0497100
  35.4506913  19.2262012  17.9027828  35.7076121  19.4927874  18.5936261
  31.4080846  25.1674387  25.4454908  30.9248425  25.8924876  25.4214491
  32.2204165  25.4650517  25.5565065  31.4571594  25.3176740  25.4582187
  40.3114032  15.6985277  17.1200157  40.5510036  15.9063261  16.3075500
  40.6329873  14.8942786  17.2289101  40.3951190  15.6099379  17.0160710
  35.6204322   7.6278673  20.9659695  36.3750290   7.9956990  20.7276745
  35.4431857   8.0018228  21.7338874  35.7058801   7.7376861  21.0444583
  48.9139221  13.7773114  29.0107234  48.0767642  13.8475301  29.2454828
  48.8827452  13.7797609  28.1381536  48.7857503  13.7883341  28.9166782
  35.3103950  15.9206149  34.7255603  35.4824454  15.8112044  35.5740884
  35.8473308  16.5660555  34.4886795  35.4148954  15.9998151  34.8160699
  33.9761387  10.0348992  17.6637808  33.7936960  10.2520873  16.8378800
  34.8387000  10.1488005  17.7196422  34.0765976  10.0838890  17.5492295
  33.5875819  21.8736914  25.1060796  34.4264718  22.1059847  25.1534557
  33.6187588  21.0041226  25.0367831  33.7157537  21.7793861  25.1025440
  39.6561106   7.0375403  20.6986831  40.3847267   6.8591358  20.2524988
  39.7455999   7.8793483  20.9094010  39.7767768   7.1359281  20.6640349
  43.6369407  17.9728790  24.6019125  44.3926922  18.4060305  24.6408034
  43.7431731  17.3233560  25.1753761  43.7639577  17.9406274  24.6917151
  46.6749578  21.8002068  25.3521528  46.2384810  21.8038810  26.1080500
  46.3412493  22.4807566  24.9201106  46.5612198  21.9014523  25.4002361
  29.6165667  18.5138080  29.5608523  29.3504082  17.6977197  29.7199513
  29.6304231  18.5591236  28.6904038  29.5790389  18.3994985  29.4562005
  46.5947061   8.8415895  27.5950956  47.2372969   8.9114000  28.1812872
  46.8470082   8.1745118  27.0930498  46.7269193   8.7542244  27.6078236
  33.5223414  13.3123165  16.1760281  32.8081591  13.0261344  16.5882713
  34.0067383  13.6519791  16.8166668  33.4882777  13.3204814  16.3315916
  34.3664273  12.0516459  32.2075530  33.6736070  11.5813438  32.4536262
  34.9824601  11.8254763  32.7817237  34.3548803  11.9483591  32.3284683
  49.8093924  18.5182987  24.2441166  50.4710358  17.9573656  24.1437074
  49.1685336  18.0235018  24.5693857  49.8122792  18.3619396  24.2773506
  40.6970732  21.8153119  16.5522089  41.1121880  21.4838143  15.8606585
  39.8662662  21.5822021  16.4242226  40.6358741  21.7324375  16.4312936
  30.0259081  19.2996860  26.8420267  29.8434654  19.2743746  25.9892559
  30.7608750  19.7695798  26.8809176  30.1073145  19.3658222  26.7218185
  46.0958755  19.5348370  23.9853154  46.3314344  19.6793569  23.1580005
  46.2448319  20.2990778  24.3784668  46.1524558  19.6687424  23.9216758
  47.9249212  18.3750036  21.8222758  48.2557429  18.9077676  21.2162853
  48.4982300  18.4288923  22.4784709  48.0582891  18.4619605  21.8300540
  43.1381101  16.2214938  22.5046338  43.2327955  16.9604233  22.9585964
  42.5139944  15.7932414  22.9380903  43.0590131  16.2676259  22.6354486
  41.3933575  19.4001151  33.1536619  41.9672436  18.7628395  33.3085183
  41.3148378  19.4005233  32.2846277  41.4666809  19.3066262  33.0483030
  29.9929991  16.1790361  26.9919333  30.5703494  16.0426811  27.6311579
  29.2944053  15.7226145  27.2464918  29.9751012  16.0912627  27.1241623
  43.3904122  18.0663678  15.7383290  43.3084285  18.1365865  16.6038277
  44.0283843  18.6293422  15.5467031  43.4723959  18.1602649  15.8373240
  36.7497293  17.8324416  25.2057817  36.4916538  16.9996151  25.1789116
  36.8045776  18.0582029  24.3650317  36.7197071  17.7422187  25.0777953
  41.8298343   9.9352867  25.3061909  41.1254670   9.4462052  25.4645828
  41.8783318   9.9475341  24.4350354  41.7328395   9.8642515  25.2001249
  35.7232005  15.3862179  25.6922711  35.1481597  15.5454347  26.3286672
  35.3467682  14.7497588  25.2291162  35.5834818  15.3159992  25.7177270
  39.3905294  13.8585528  30.5515090  39.0019727  13.4339746  29.8967281
  38.7259992  14.1067678  31.0592116  39.2352222  13.8324249  30.5302958
  49.0328563  13.6160533  23.3262920  48.7765128  12.8040474  23.1360803
  49.8757877  13.6238100  23.0993107  49.1194589  13.4972530  23.2647737
  25.4688824  15.0302253  23.7067152  25.5549076  14.6534122  24.4880682
  26.0964622  14.6562699  23.2287110  25.5745375  14.9187736  23.7512629
  43.2131656   7.5560157  28.0639074  43.5942167   6.8738328  28.4506948
  42.4094940   7.2669759  27.8814738  43.1508117   7.4127205  28.0943130
  40.4944232  18.0884132  18.7491897  41.3084871  18.3799025  18.6374668
  40.4303374  17.4343995  18.1750190  40.6046971  18.0349327  18.6480734
  46.7153722  20.7710129  33.1621472  46.4792360  19.9398193  33.0433533
  47.3596951  20.7195736  33.7476317  46.7748393  20.6407817  33.2307366
  36.3652141  21.5605650  23.8764209  37.0026087  21.3217397  24.4216002
  36.7907212  21.7642809  23.1417369  36.5228307  21.5556660  23.8481366
  31.0564783  23.7993986  27.7598513  31.0968928  24.0708838  26.9318292
  31.6159307  24.3235895  28.1756301  31.1448129  23.9169742  27.6990401
  37.0054956  16.7807940  18.2139098  37.3900108  16.5615646  18.9655643
  36.7566576  17.6070885  18.3440175  37.0257028  16.8706086  18.3440175
  37.1723496  10.0614355  37.9301682  36.8576937  10.8313918  37.6671245
  36.8513429   9.4984611  37.3453909  37.0782415  10.0924624  37.8043032
  47.7390143  20.5554577  29.2249767  47.4335960  21.2882634  29.5863083
  47.0196359  20.1492507  28.9442553  47.5877485  20.6036310  29.2362904
  38.7473613  22.0378073  25.5557995  38.8212621  21.8753244  26.4099845
  39.5643119  22.2268262  25.3118477  38.8789971  22.0414815  25.6456021
  53.4391935  17.1947578  28.5518111  53.3716435  17.2143537  27.6820698
  53.4247598  18.0377905  28.7773782  53.4270692  17.3221313  28.4570588
  32.5079369  22.3835935  22.5852439  31.6817487  22.6297673  22.4586717
  32.5691360  22.3048016  23.4514497  32.3953536  22.4080884  22.6941383
  34.7255393   8.4504876  23.5447879  33.8577818   8.5227476  23.6105488
  35.0130597   9.2526955  23.7335854  34.6395141   8.5799023  23.5822645
  43.8488282   8.5982736  31.8759201  44.5941874   8.4092546  31.4622626
  43.4325586   9.1240974  31.3173057  43.8973256   8.6484881  31.7323774
  37.2878198  25.0012816  20.2871469  37.5776497  24.6101797  19.5630695
  38.0181679  25.1829521  20.7276744  37.4385082  24.9706629  20.2454276
  51.2250553  15.9691964  26.8264706  51.7758474  15.3360033  27.0661798
  51.2094668  16.5007357  27.5180210  51.3035749  15.9540912  26.9643564
  37.8772943  19.8030562  31.3724599  37.3784637  20.5146329  31.4509487
  38.6873168  20.1231228  31.3342761  37.9229050  19.9557410  31.3781168
  34.1401061  19.0653515  25.6187320  33.8514310  18.4390986  26.1533047
  35.0084409  19.0073802  25.6852000  34.2261313  18.9641059  25.7078274
  44.9278959  14.2088298  25.9369302  44.5843725  13.4878633  26.2876551
  45.0272001  14.0002149  25.0947660  44.8921002  14.0712501  25.8640982
  34.3433334  20.7048766  21.5429685  35.0979302  21.0861805  21.7565147
  33.7503947  21.1559909  21.9976381  34.3670048  20.8277593  21.6412563
  45.3891988  20.6714002  21.4793290  45.9550021  21.3307212  21.3951833
  44.7419891  21.0163700  21.9509692  45.3770744  20.8195943  21.5366046
  36.8040001  12.6611606  36.6686897  35.9939777  12.9669386  36.5576740
  37.2814688  13.3817188  36.7839481  36.7543480  12.8126207  36.6693968
  35.6631561  21.8757327  26.9169800  35.1412314  22.0157619  27.6021665
  36.0505581  21.1167991  27.1071918  35.6435262  21.7842851  27.0470877
  32.6522745  11.9263136  20.9864755  32.3647541  11.5564406  20.2496702
  33.3393213  12.3957991  20.7248460  32.7111642  11.9410105  20.8379831
  41.8598566  23.6152786  20.9030369  41.6185242  22.8820647  20.4957434
  42.0399899  24.1639643  20.2496702  41.8506190  23.5875177  20.7460592
  37.0897887  18.9061346  22.3151291  36.8940669  19.5136081  21.7211594
  37.3132232  18.2129290  21.8342965  37.0932528  18.8938871  22.1567372
  35.4876417  15.7916084  22.4332160  36.2099069  15.9557242  21.9735966
  35.0084409  16.5125749  22.3271500  35.5240147  15.9214313  22.3497774
  43.4469924  12.1279883  27.8128845  42.6081025  12.1541162  27.5767108
  43.5174291  12.7750618  28.3934191  43.3338318  12.2276009  27.8637962
  41.8939202   9.0265260  22.5456461  42.5965555   8.8273008  22.0676419
  41.6283391   8.2541202  22.8525304  41.9585835   8.8828226  22.5201902
  47.3227448  17.3347869  25.0990086  47.2361423  17.4903296  25.9524865
  46.8677928  17.9785945  24.7249491  47.2430705  17.4523625  25.1697193
  30.2250940  12.7044348  21.8350036  30.3267076  13.5070510  22.1631012
  31.0206826  12.5031684  21.5373117  30.3578845  12.7930247  21.8385391
  36.6567759  10.2900545  31.5987341  36.4650956  10.3055679  32.4486765
  37.5066355  10.4864219  31.5753996  36.7543481  10.3214896  31.7210636
  31.0414672  12.8191526  29.5771158  30.9000164  11.9675467  29.7015666
  31.3255235  12.8620187  28.7533364  31.0622518  12.6991276  29.4738782
  41.1953264  14.6558617  23.7215646  40.9487978  14.5754367  24.5552435
  41.5238387  13.8712084  23.5278173  41.2074508  14.5284882  23.8163169
  45.0901313  21.3641976  27.5102427  44.9515672  22.0623022  28.0151170
  44.3101311  21.2090632  27.1538609  44.9544540  21.4442143  27.5328701
  43.4279398  17.6638351  33.7624809  43.4227437  16.7918168  33.7667235
  44.1340392  17.8626520  33.2894265  43.5324402  17.5642225  33.6931844
  37.1550291  17.3915335  33.1338629  37.2993667  17.9716543  32.4981739
  37.5025940  17.7691632  33.8388484  37.2277753  17.5336039  33.1437624
  39.3270209  16.5905504  30.9163761  38.5793523  16.7836518  30.5112039
  39.4811734  15.7650723  30.6787882  39.2392636  16.4970615  30.8209166
  46.5854686  20.7220230  18.2718926  46.2061494  19.9357368  18.2648216
  45.9220931  21.2707087  18.1290571  46.4313161  20.6865054  18.2499723
  39.5671986  10.4856054  31.8059164  40.0244600  11.2180029  31.9331957
  39.6428315  10.0622520  32.5646420  39.6462956  10.5313292  31.9360241
  31.8104977  10.7321874  32.8948608  31.2747166  10.1202232  33.2109375
  31.8722742  11.3070010  33.5482275  31.7400610  10.7268802  33.0384035
  44.0399312   3.6645929  25.6753007  44.1582880   4.1222393  24.9420310
  43.8661487   2.8591191  25.3889225  44.0318483   3.6139702  25.5253941
  39.4101594  24.2733749  22.1107753  40.1751485  24.0043392  21.7890417
  39.3079684  23.7883759  22.8277815  39.5083089  24.1623313  22.1687580
  37.4454364  12.4758158  28.6500988  36.6550438  12.2949618  28.9718324
  37.8414986  11.6985111  28.6331283  37.3871240  12.3345619  28.6953537
  41.9320254  21.3045933  14.0907702  42.6993240  21.3646057  13.6813554
  41.4851563  20.7326374  13.6064021  41.9793682  21.2282508  13.9585412
  42.8298050  20.1100588  26.3760434  42.1543052  19.8785821  26.8773821
  42.8390426  19.5021771  25.7502539  42.7316555  19.9859514  26.3576587
  39.9592194  14.9518417  33.1324487  39.8951335  15.8128374  33.0044624
  40.0989382  14.6350411  32.3320039  39.9707664  15.0318584  32.9952700
  44.8314785  22.9665721  18.6070612  44.9134622  23.7732707  18.2832063
  45.3164527  22.9861680  19.3311386  44.9151942  23.0886383  18.6657511
  38.6411288  17.6450557  27.2740690  38.2173537  17.8455056  26.5379709
  38.4656143  16.7979405  27.3864990  38.5522168  17.5499338  27.1814380
  33.9293733  18.1402608  22.7068663  34.0858352  18.0749411  23.5624655
  34.2694326  18.9151161  22.4947342  34.0026968  18.2451806  22.8023257
  40.4672877  17.5160492  21.5762026  41.0088423  17.0130873  22.0400647
  40.7819436  17.4625686  20.7651511  40.5937274  17.4339913  21.5245838
  38.6359327  22.9077843  18.8602054  38.7052147  22.0492382  18.9995054
  39.4147782  23.1249724  18.5321079  38.7612177  22.8130707  18.8319211
  41.6162147  12.4096796  31.6284326  41.8304116  11.7707710  31.0747680
  40.9996046  12.8542620  31.1992188  41.5567476  12.3806940  31.4834757
  43.0266815  25.3315544  23.0738547  42.6346606  25.0282260  22.3561413
  43.1819887  26.1684634  22.8843501  42.9920405  25.4099381  22.9395044
  30.5027994  15.3237559  23.0229430  30.8826959  15.7422103  22.3589697
  29.9283359  15.9051014  23.3298273  30.4739319  15.4715417  22.9706171
  43.7801235  14.0185861  32.5667633  42.9677917  13.7111752  32.6480806
  44.2391169  13.5384861  33.1310346  43.7281620  13.9022354  32.6622228
  43.1906489  21.8965533  23.0144578  42.8321144  22.0680176  23.7908610
  42.7045200  22.3578739  22.4572576  43.0665186  21.9904504  23.0469847
  41.0076875   5.5196732  26.6171669  40.1370433   5.4935453  26.5704979
  41.2617217   5.3473924  25.7997515  40.9170436   5.4906876  26.4891806
  37.9794855  17.5764699  15.5544812  38.2687380  18.3529581  15.8288386
  38.0666654  17.0653430  16.2559312  38.0349111  17.6156617  15.6987310
  40.8754742  15.4245933  37.3496336  41.3454373  16.0488049  37.7364210
  40.9216622  14.7562908  37.9089550  40.9522618  15.4180613  37.4896407
  38.0326016   7.5302960  28.0745140  37.5164505   6.8383152  28.1996719
  37.4719945   8.1973737  28.0207738  37.8732529   7.5266218  28.0851206
  40.1018249   8.0695920  29.9037992  39.7150003   8.0944952  30.6851522
  39.6151187   7.5037599  29.4512509  39.9730758   7.9891671  29.9525896
  46.0768229  14.6358575  28.5277694  45.6495837  14.5484924  27.7725794
  45.4394282  14.7436351  29.1132538  45.9197836  14.6391235  28.5023136
  39.7675391   4.9562906  32.1948252  40.3968509   5.4923206  31.9169322
  39.9361254   4.8640265  33.0461818  39.8853186   5.0224268  32.2796780
  39.5689306   9.7434100  34.4674664  40.3962735   9.4719249  34.5233278
  39.5897152  10.5394942  34.8238482  39.6942156   9.8213855  34.5289847
  44.4065485  23.4789238  30.6017135  45.1957864  23.1278302  30.7219217
  44.5809083  24.2925626  30.3393769  44.5485767  23.5475095  30.5805003
  34.1458796  16.8897963  27.6544924  33.3046802  16.7901837  27.8623818
  34.3548804  17.6593444  28.0059245  34.0523488  16.9890007  27.7372239
  31.6234363  14.5117500  25.4829675  31.2291061  14.5860512  24.7079785
  31.0674480  14.8975447  26.0338037  31.4837175  14.5799275  25.4497335
  43.2599310   7.4898794  25.1633554  43.4648903   7.4221102  26.0090551
  42.9325734   8.2957615  25.0954731  43.2414557   7.5984735  25.2793209
  37.9575461  14.8179362  26.9042522  37.6538598  14.2635351  27.5052929
  37.2554881  14.9971572  26.4170556  37.8091670  14.7624145  26.9212227
  37.0141558  12.1279882  21.4687224  37.2901292  11.4098795  21.0564791
  37.6140227  12.7264802  21.2608330  37.1434822  12.1100253  21.3767985
  46.5132997   8.0430559  24.6436319  45.9007311   8.5300961  25.0290051
  46.6097172   7.3674049  25.1873971  46.4370895   8.0148867  24.7815178
  40.5152078   9.7993400  19.7433819  40.9695825   9.9703960  20.4681663
  40.9892124   9.1861510  19.3431594  40.6520398   9.7344285  19.7907580
  34.0367604  19.2841726  29.0736557  33.4455537  19.9251224  29.0439572
  34.7988627  19.7079343  29.0467857  34.0615864  19.4417564  29.0651704
  34.4328226  10.4443723  29.7404575  34.8929708  10.5182653  30.4779699
  34.4784333  11.2424977  29.3904396  34.5078782  10.5737870  29.7977331
  36.0811576  11.1110418  34.3076602  35.6897141  10.4643765  34.7432380
  36.2497439  11.7021854  34.9270857  36.0482487  11.1024686  34.4639308
  50.1558025  19.1147495  30.0713835  50.2141149  19.5634144  30.8173812
  49.5224493  19.5246308  29.6343915  50.0709320  19.2421230  30.1166384
  43.7957120  24.7351037  26.5068582  43.5976809  25.2241852  25.8124793
  43.1744831  24.9392279  27.0852715  43.6744684  24.8367575  26.4891805
  37.8565098  16.5035934  20.8478826  38.6007143  16.8910210  21.0861776
  38.0025794  15.6593359  21.0119314  37.9875683  16.4366407  20.9072796
  39.7744674   8.2986193  25.8810687  38.9280719   8.4709001  25.7552037
  39.7715806   7.4935537  26.2176516  39.6491824   8.2047222  25.9121814
  40.8442974  12.0761407  26.7472745  40.3702928  11.5503169  27.2578056
  41.2161110  11.5290880  26.1787607  40.8292863  11.9177404  26.7387892
  47.1079705  17.1363783  28.1579526  46.8677928  16.2970198  28.1621952
  47.5871712  17.2163950  28.8820299  47.1431888  17.0245183  28.2654328
  42.7726474  12.9697962  19.8098499  42.2449492  13.0526706  19.1204208
  43.2322182  13.7115833  19.8063144  42.7628324  13.0918624  19.7073194
  49.1084892  13.9165240  26.1108785  48.8694662  13.8761074  25.2729569
  49.2718793  14.7636392  26.2374506  49.0975195  14.0357325  26.0062267
  45.7130922  18.3015189  32.0413830  46.4365121  17.8487716  31.8624850
  45.4480884  18.5819855  31.2586158  45.7812195  18.2766158  31.8992545
  34.5817790  12.8975363  28.7766709  33.9570860  12.9093755  28.1692662
  34.2463385  13.3735538  29.4257949  34.4403282  12.9693880  28.7823278
  34.7659539  11.2400482  14.8339394  34.4172343  11.8920207  15.2970944
  34.2855985  11.2257595  14.1063265  34.6429783  11.3343535  14.7950485
  42.3263556  21.5401525  18.9408156  43.0497755  22.0059638  18.7972729
  41.8864147  21.6075135  18.1905753  42.3679249  21.6185362  18.8092937
  41.4949711  18.3999068  30.1908845  40.8806704  17.8557118  30.4857480
  42.0116996  17.8863304  29.7114661  41.4805374  18.2435477  30.1633073
  40.7346009  19.4703338  27.9253144  40.3073617  18.8453056  27.4918579
  40.7270953  19.1878260  28.7512151  40.6705150  19.3356118  27.9832971
  33.8508536  14.5068511  30.9941578  34.0102022  13.7511835  31.3993300
  33.6701429  15.0559450  31.6482315  33.8473895  14.4762325  31.1504284
  41.7928839   6.6729746  31.5492367  41.2969400   6.8693421  30.8583934
  42.5497901   7.0722415  31.3781169  41.8315663   6.7607480  31.4212504
  39.0631718  10.3472092  28.1395678  39.0874205   9.8132205  27.4508458
  39.3143192   9.8389401  28.8021268  39.1041637  10.1932996  28.1360322
  26.5739308  17.6303587  27.5738822  26.4682757  17.5850432  26.7090906
  25.8239528  17.9757368  27.8553107  26.4474911  17.6744495  27.4876152
  35.3433040   9.0742911  27.5201422  35.3831412   9.5752117  28.2336129
  34.5182705   9.1653304  27.2507345  35.2272566   9.1624727  27.5851960
  37.5262653  18.6403651  35.6221717  36.6758284  18.7775365  35.7579362
  37.6890781  17.9067429  36.0669418  37.4246517  18.5517752  35.7077316
  36.7647404  15.5903420  29.8175321  35.9339334  15.7577238  29.6110569
  36.7098921  15.2139371  30.6024206  36.6336819  15.5593152  29.9023849
  34.5731187   9.0812313  35.4531732  35.1983890   8.5374446  35.7261164
  34.1181667   8.6007231  34.8839522  34.5979448   8.9301795  35.4093326
  35.1383448  13.8659012  20.3465439  35.2786409  14.3631476  21.0494080
  35.6365980  13.1645306  20.4879652  35.2324529  13.8360991  20.4717018
  35.1683670  14.7326123  17.6758016  35.8028750  15.3286548  17.6107477
  35.2509281  14.4329581  18.4903886  35.2740221  14.7767031  17.7861102
  48.1466236  17.2641600  30.5444380  48.7384076  17.9038851  30.5762578
  48.5825230  16.5664637  30.8336447  48.2984667  17.2559951  30.5925212
  36.7462653  10.6640098  17.6503458  37.0678494  10.1843181  16.9962720
  37.0089597  11.4739744  17.4594269  36.8328678  10.7129996  17.5258950
  42.1421808  10.0512292  30.0126937  42.5676879   9.5984819  29.4010463
  41.5278801   9.4972363  30.2891724  42.1150453   9.9026269  29.9631962
  31.6736658  16.9293964  20.9447562  32.1828887  17.5258471  21.3258867
  32.1470930  16.6619937  20.2623981  31.8180034  16.9779779  20.9002084
  42.5867406  25.6022230  19.1006217  41.8696716  25.4283093  18.6353455
  43.2374144  25.3674803  18.5681703  42.5769256  25.5418023  18.9535435
  40.5816031   6.5227392  23.4217514  39.9384349   6.3725038  23.9902652
  40.2415438   6.2769737  22.6566618  40.4361108   6.4639515  23.3920529
  45.1715377  14.4786819  22.8447522  44.5006567  15.0216521  22.7160588
  45.8655127  14.9481674  22.6029217  45.1744245  14.6285090  22.7903050
  39.2202111  26.6183531  28.0759281  38.9967765  25.8602360  28.4443307
  38.7311954  26.6481552  27.3539720  39.1145560  26.5105755  28.0236022
  45.3343505  10.9342703  25.7537895  45.6871115  10.5072425  26.4283694
  44.4758306  10.8493546  25.8838972  45.2592949  10.8587443  25.8732906
  34.0327190  13.5650222  23.8120742  33.3139179  13.9814355  24.0793606
  34.4039552  14.1304461  23.2612380  33.9819121  13.7099504  23.7703549
  43.3326770  14.1978071  29.7022738  43.3124698  14.0161366  30.5557517
  43.3805971  15.0690090  29.6782321  43.3361411  14.2994609  29.8246032
  41.2345862  25.9974074  26.2819982  40.8362145  26.1076345  25.5140802
  40.6197082  26.2056141  26.8646542  41.0844751  26.0447642  26.2551281
  39.8073764  12.6048222  19.1494121  39.2138603  12.9265219  18.5978689
  39.8449042  11.7589318  18.9415228  39.7248153  12.5272550  19.0376893
  46.7667565   6.0561114  26.6822208  46.2598429   5.3490254  26.6143385
  47.5634998   5.7254303  26.8123285  46.8094804   5.9034266  26.6921203
  42.6831581  12.5627727  22.5795872  42.4545274  12.5860428  21.7374230
  42.9429657  11.7385194  22.6990882  42.6877769  12.4443807  22.4721069
  36.9650809  14.4162200  32.1820972  36.4529712  13.8083383  32.5406003
  36.7930305  15.1318792  32.6494948  36.8640446  14.4325499  32.3037196
  31.8116524  12.8599775  34.8323334  31.6419114  13.5201150  34.2871540
  31.3682474  13.0706336  35.5535823  31.7215857  12.9885757  34.8584963
  35.7376343  11.1004273  23.8750067  36.2133709  11.4621353  23.2400248
  35.2364943  11.7560741  24.1550210  35.7341702  11.2498462  23.8226808
  48.9687705  20.5726041  19.6663072  49.3521310  21.3217397  19.8961169
  48.1731818  20.8191861  19.4075061  48.9081487  20.7195735  19.6620646
  40.8419879  12.3386444  34.6223227  41.3991310  12.1100254  33.9901693
  40.5180944  13.0992110  34.3458440  40.8766290  12.4170281  34.4879725
  38.5602997  15.4254098  35.5875235  39.3114324  15.7405774  35.9014789
  38.7525573  15.2233269  34.7609156  38.6994411  15.4421479  35.5118630
  37.7802996  13.2445473  17.2423451  38.1601961  13.2625102  16.4574566
  37.0395592  13.6899462  17.1214299  37.7271834  13.3127247  17.1087020
  45.4088287  11.5527664  22.8299030  45.4082513  11.3976321  23.6883306
  45.2044467  12.3990651  22.7740416  45.3788065  11.6548285  22.9486969
  27.4705558  14.9767448  27.2457847  27.2927319  14.5244057  27.9712762
  27.1824580  15.7793610  27.4296324  27.4018511  15.0290006  27.3801349
  43.1329139  16.2325166  26.4835237  43.6282804  15.5148161  26.4439257
  42.3228915  15.9295963  26.3689724  43.0873032  16.0822812  26.4608963
  38.5787750  20.0822979  18.6332241  37.7699073  19.7589653  18.5865551
  39.0862659  19.3756201  18.5660490  38.5337417  19.9304295  18.6162536
  29.2078028  17.5095172  24.3579606  28.3423547  17.4980863  24.2462377
  29.3076844  17.3225395  25.2050745  29.0952195  17.4801233  24.4668550
  45.1980958  18.9828853  29.1712366  45.6236029  18.4603275  28.6182791
  44.8337878  19.5809691  28.6500989  45.2067560  18.9939080  29.0121375
  41.7859557  22.6963117  25.5013523  42.2570735  23.4103380  25.6703508
  42.1219736  22.0961868  26.0373393  41.9054672  22.7134582  25.6045899
  38.7029052   7.4690588  32.4571618  38.8356958   6.6721581  32.7852593
  39.0874205   7.9956991  33.0369894  38.7785381   7.4290505  32.5915121
  41.7761407   4.3920914  29.0552711  40.9707371   4.2818644  29.3720549
  41.6468143   4.4933370  28.1982577  41.6381540   4.3904584  28.9760752
  45.2327368  10.5566406  29.6492408  44.6490357  11.0575613  29.2369975
  45.5531662  10.0495962  29.0156731  45.1940543  10.5558241  29.4950915
  37.7722167   9.4707001  19.9251083  38.5937861   9.6405314  19.6832778
  37.3091818   9.6254262  19.2017380  37.8253329   9.5188734  19.7822727
  36.3617499   7.4649763  30.7049512  36.9061912   7.1240890  31.2953853
  36.4154435   8.3235225  30.8470796  36.4506618   7.5405022  30.8131385
  32.1748058  21.2266179  27.5788320  32.7792915  21.1862013  26.9502140
  31.9675370  22.0737331  27.6092375  32.2336955  21.3454182  27.4904436
  41.9891830  23.4932124  28.7950557  42.8090204  23.3495090  29.0566852
  41.7085907  24.1178323  29.3366995  42.0688573  23.5642476  28.9138496
  27.4099340  20.2100797  27.4487243  27.3123618  19.3997068  27.7577299
  28.1928210  20.1892590  27.0633511  27.5115476  20.0867887  27.4374106
  58.4605480  31.1496976  21.7593433  58.4299485  32.0041613  21.9311703
  59.0586829  30.8492269  22.3179577  58.5442638  31.2313473  21.8668236
  51.6605165  30.2372627  26.5146364  50.8043061  30.3981125  26.5655481
  51.7072819  29.3664691  26.5351425  51.5404276  30.1323429  26.5252430
  51.4971265  40.1960714  17.7069142  51.1622633  40.8737636  17.2713365
  52.0098135  39.8066026  17.1186014  51.5236846  40.2385293  17.5555934
  56.2822055  33.7249278  20.0311743  56.1661581  34.4756964  20.4603881
  57.0777941  33.4673231  20.2807830  56.3826644  33.7984125  20.1315835
  40.8196105  35.8074024  24.1698701  40.5846290  34.9741676  24.0630970
  40.9581746  36.0878689  23.3559902  40.8051768  35.7257527  24.0341056
  43.1186193  27.9759754  27.0683009  42.4991224  27.3852402  26.8993024
  43.0170056  28.5671189  26.4347332  43.0123868  27.9763837  26.9487999
  48.1652380  37.7143301  21.3181086  48.4868221  38.2548508  20.7142394
  48.8124477  37.1440072  21.4503375  48.3078435  37.7102476  21.2488121
  50.2154088  29.7159296  21.4015472  50.9134253  29.8947424  21.8936936
  50.5306421  29.1929635  20.7785862  50.3649425  29.6653068  21.3817482
  50.4042024  36.1029741  21.3895264  50.8435659  35.4946842  21.8350037
  50.2546687  35.7237114  20.6180729  50.4463489  35.9568212  21.3414431
  48.3880952  25.0851693  25.4836747  48.0584282  25.5362836  24.8140446
  47.7125954  25.0067856  26.0309753  48.2391388  25.1402828  25.4659970
  54.0051360  34.4556922  18.3426033  53.9202655  35.3117889  18.4875602
  54.4935743  34.1801246  19.0108192  54.0640258  34.5414244  18.4628115
  55.5957360  21.0737216  23.7286358  55.2810801  21.7640694  24.1606780
  55.0784301  21.0181998  23.0271858  55.4721830  21.1672104  23.6883307
  54.9369793  31.0741717  19.8423768  54.4081265  31.2901350  20.5021074
  55.4594813  31.7677855  19.7624737  54.9358246  31.2084853  19.9279367
  60.3917846  36.6488021  25.2156813  59.5615549  36.8598665  25.3790229
  60.3427099  35.8225076  24.9399096  60.2624582  36.5577627  25.1994178
  46.8269401  34.9704933  18.6431236  46.2426616  35.4754965  19.0497100
  46.4239496  34.7447320  17.9027828  46.6808705  35.0113182  18.5936261
  51.2846616  31.2170585  17.1200157  51.5242619  31.4248569  16.3075500
  51.6062457  30.4128094  17.2289101  51.3683774  31.1284687  17.0160710
  46.5936906  23.1463981  20.9659695  47.3482874  23.5142298  20.7276745
  46.4164441  23.5203536  21.7338874  46.6791384  23.2562169  21.0444583
  59.8871805  29.2958422  29.0107234  59.0500226  29.3660609  29.2454828
  59.8560036  29.2982916  28.1381536  59.7590087  29.3068649  28.9166782
  44.9493971  25.5534300  17.6637808  44.7669544  25.7706181  16.8378800
  45.8119584  25.6673313  17.7196422  45.0498560  25.6024198  17.5492295
  50.6293690  22.5560711  20.6986831  51.3579850  22.3776666  20.2524988
  50.7188583  23.3978791  20.9094010  50.7500352  22.6544589  20.6640349
  54.6101990  33.4914098  24.6019125  55.3659505  33.9245613  24.6408034
  54.7164315  32.8418868  25.1753761  54.7372161  33.4591582  24.6917151
  57.6482162  37.3187375  25.3521528  57.2117393  37.3224118  26.1080500
  57.3145077  37.9992874  24.9201106  57.5344782  37.4199831  25.4002361
  57.5679644  24.3601203  27.5950956  58.2105553  24.4299308  28.1812872
  57.8202665  23.6930426  27.0930498  57.7001777  24.2727552  27.6078236
  44.4955998  28.8308473  16.1760281  43.7814175  28.5446652  16.5882713
  44.9799966  29.1705099  16.8166668  44.4615361  28.8390122  16.3315916
  60.7826508  34.0368295  24.2441166  61.4442942  33.4758964  24.1437074
  60.1417920  33.5420326  24.5693857  60.7855375  33.8804704  24.2773506
  51.6703316  37.3338427  16.5522089  52.0854464  37.0023451  15.8606585
  50.8395245  37.1007329  16.4242226  51.6091324  37.2509683  16.4312936
  57.0691338  35.0533678  23.9853154  57.3046928  35.1978877  23.1580005
  57.2180902  35.8176086  24.3784668  57.1257142  35.1872732  23.9216758
  58.8981795  33.8935344  21.8222758  59.2290012  34.4262984  21.2162853
  59.4714883  33.9474231  22.4784709  59.0315474  33.9804912  21.8300540
  54.1113684  31.7400246  22.5046338  54.2060539  32.4789540  22.9585964
  53.4872528  31.3117722  22.9380903  54.0322714  31.7861567  22.6354486
  54.3636706  33.5848986  15.7383290  54.2816868  33.6551173  16.6038277
  55.0016426  34.1478730  15.5467031  54.4456543  33.6787957  15.8373240
  52.8030927  25.4538175  25.3061909  52.0987254  24.9647360  25.4645828
  52.8515901  25.4660649  24.4350354  52.7060979  25.3827823  25.2001249
  46.6964589  30.9047487  25.6922711  46.1214180  31.0639655  26.3286672
  46.3200265  30.2682896  25.2291162  46.5567401  30.8345299  25.7177270
  60.0061147  29.1345841  23.3262920  59.7497712  28.3225782  23.1360803
  60.8490461  29.1423408  23.0993107  60.0927172  29.0157838  23.2647737
  54.1864239  23.0745465  28.0639074  54.5674751  22.3923636  28.4506948
  53.3827523  22.7855067  27.8814738  54.1240701  22.9312513  28.0943130
  51.4676816  33.6069440  18.7491897  52.2817455  33.8984333  18.6374668
  51.4035957  32.9529303  18.1750190  51.5779555  33.5534635  18.6480734
  47.3384724  37.0790958  23.8764209  47.9758671  36.8402705  24.4216002
  47.7639796  37.2828117  23.1417369  47.4960890  37.0741968  23.8481366
  58.7122727  36.0739885  29.2249767  58.4068544  36.8067942  29.5863083
  57.9928942  35.6677815  28.9442553  58.5610069  36.1221618  29.2362904
  64.4124519  32.7132886  28.5518111  64.3449019  32.7328845  27.6820698
  64.3980181  33.5563213  28.7773782  64.4003275  32.8406621  28.4570588
  45.6987977  23.9690184  23.5447879  44.8310402  24.0412784  23.6105488
  45.9863181  24.7712263  23.7335854  45.6127725  24.0984331  23.5822645
  54.8220865  24.1168044  31.8759201  55.5674457  23.9277854  31.4622626
  54.4058170  24.6426282  31.3173057  54.8705840  24.1670189  31.7323774
  48.2610782  40.5198124  20.2871469  48.5509080  40.1287105  19.5630695
  48.9914263  40.7014828  20.7276744  48.4117666  40.4891937  20.2454276
  62.1983136  31.4877272  26.8264706  62.7491058  30.8545341  27.0661798
  62.1827251  32.0192665  27.5180210  62.2768332  31.4726220  26.9643564
  55.9011542  29.7273606  25.9369302  55.5576308  29.0063941  26.2876551
  56.0004585  29.5187457  25.0947660  55.8653585  29.5897809  25.8640982
  48.3684653  43.8694896  22.1362311  49.0208711  43.3371338  22.3653337
  47.6710262  43.5163548  22.5230185  48.3615371  43.7384419  22.2274478
  45.3165918  36.2234074  21.5429685  46.0711886  36.6047113  21.7565147
  44.7236531  36.6745217  21.9976381  45.3402632  36.3462901  21.6412563
  56.3624571  36.1899310  21.4793290  56.9282604  36.8492520  21.3951833
  55.7152475  36.5349008  21.9509692  56.3503328  36.3381251  21.5366046
  43.6255329  27.4448444  20.9864755  43.3380124  27.0749714  20.2496702
  44.3125797  27.9143299  20.7248460  43.6844226  27.4595413  20.8379831
  52.8331150  39.1338094  20.9030369  52.5917825  38.4005955  20.4957434
  53.0132482  39.6824951  20.2496702  52.8238774  39.1060485  20.7460592
  48.0630470  34.4246654  22.3151291  47.8673253  35.0321388  21.7211594
  48.2864816  33.7314598  21.8342965  48.0665111  34.4124179  22.1567372
  46.4609000  31.3101392  22.4332160  47.1831652  31.4742550  21.9735966
  45.9816993  32.0311057  22.3271500  46.4972731  31.4399621  22.3497774
  54.4202508  27.6465191  27.8128845  53.5813608  27.6726470  27.5767108
  54.4906875  28.2935926  28.3934191  54.3070901  27.7461316  27.8637962
  52.8671786  24.5450568  22.5456461  53.5698139  24.3458316  22.0676419
  52.6015975  23.7726510  22.8525304  52.9318418  24.4013534  22.5201902
  58.2960032  32.8533177  25.0990086  58.2094006  33.0088603  25.9524865
  57.8410512  33.4971253  24.7249491  58.2163288  32.9708932  25.1697193
  41.1983523  28.2229656  21.8350036  41.2999660  29.0255817  22.1631012
  41.9939410  28.0216992  21.5373117  41.3311429  28.3115555  21.8385391
  52.1685848  30.1743924  23.7215646  51.9220562  30.0939675  24.5552435
  52.4970971  29.3897392  23.5278173  52.1807091  30.0470190  23.8163169
  56.0633896  36.8827284  27.5102427  55.9248256  37.5808330  28.0151170
  55.2833894  36.7275940  27.1538609  55.9277123  36.9627450  27.5328701
  50.3002792  32.1090811  30.9163761  49.5526106  32.3021826  30.5112039
  50.4544318  31.2836031  30.6787882  50.2125220  32.0155923  30.8209166
  57.5587269  36.2405538  18.2718926  57.1794078  35.4542676  18.2648216
  56.8953515  36.7892395  18.1290571  57.4045744  36.2050362  18.2499723
  55.0131895  19.1831237  25.6753007  55.1315463  19.6407701  24.9420310
  54.8394071  18.3776499  25.3889225  55.0051066  19.1325009  25.5253941
  50.3834177  39.7919057  22.1107753  51.1484069  39.5228700  21.7890417
  50.2812267  39.3069067  22.8277815  50.4815673  39.6808621  22.1687580
  48.4186947  27.9943466  28.6500988  47.6283022  27.8134926  28.9718324
  48.8147570  27.2170419  28.6331283  48.3603823  27.8530927  28.6953537
  52.9052838  36.8231240  14.0907702  53.6725823  36.8831365  13.6813554
  52.4584147  36.2511682  13.6064021  52.9526265  36.7467816  13.9585412
  53.8030634  35.6285896  26.3760434  53.1275635  35.3971129  26.8773821
  53.8123010  35.0207079  25.7502539  53.7049138  35.5044821  26.3576587
  55.8047368  38.4851029  18.6070612  55.8867206  39.2918015  18.2832063
  56.2897110  38.5046988  19.3311386  55.8884526  38.6071691  18.6657511
  44.9026316  33.6587916  22.7068663  45.0590936  33.5934719  23.5624655
  45.2426909  34.4336469  22.4947342  44.9759551  33.7637114  22.8023257
  51.4405461  33.0345800  21.5762026  51.9821006  32.5316181  22.0400647
  51.7552020  32.9810994  20.7651511  51.5669858  32.9525221  21.5245838
  49.6091911  38.4263151  18.8602054  49.6784731  37.5677690  18.9995054
  50.3880366  38.6435032  18.5321079  49.7344761  38.3316015  18.8319211
  53.9999398  40.8500852  23.0738547  53.6079190  40.5467568  22.3561413
  54.1552471  41.6869942  22.8843501  53.9652988  40.9284689  22.9395044
  54.7533818  29.5371169  32.5667633  53.9410500  29.2297060  32.6480806
  55.2123753  29.0570169  33.1310346  54.7014203  29.4207662  32.6622228
  54.1639073  37.4150841  23.0144578  53.8053728  37.5865484  23.7908610
  53.6777784  37.8764047  22.4572576  54.0397770  37.5089812  23.0469847
  51.9809459  21.0382040  26.6171669  51.1103017  21.0120761  26.5704979
  52.2349800  20.8659232  25.7997515  51.8903019  21.0092183  26.4891806
  48.9527438  33.0950007  15.5544812  49.2419963  33.8714889  15.8288386
  49.0399237  32.5838738  16.2559312  49.0081695  33.1341925  15.6987310
  49.0058600  23.0488268  28.0745140  48.4897088  22.3568460  28.1996719
  48.4452528  23.7159045  28.0207738  48.8465113  23.0451526  28.0851206
  51.0750833  23.5881228  29.9037992  50.6882586  23.6130260  30.6851522
  50.5883770  23.0222907  29.4512509  50.9463342  23.5076979  29.9525896
  57.0500812  30.1543883  28.5277694  56.6228421  30.0670232  27.7725794
  56.4126865  30.2621659  29.1132538  56.8930420  30.1576543  28.5023136
  50.7407975  20.4748214  32.1948252  51.3701093  21.0108514  31.9169322
  50.9093837  20.3825573  33.0461818  50.8585769  20.5409576  32.2796780
  42.5966946  30.0302808  25.4829675  42.2023644  30.1045820  24.7079785
  42.0407063  30.4160755  26.0338037  42.4569759  30.0984583  25.4497335
  54.2331893  23.0084102  25.1633554  54.4381487  22.9406410  26.0090551
  53.9058317  23.8142923  25.0954731  54.2147141  23.1170043  25.2793209
  48.9308044  30.3364670  26.9042522  48.6271182  29.7820659  27.5052929
  48.2287465  30.5156880  26.4170556  48.7824254  30.2809453  26.9212227
  47.9874141  27.6465190  21.4687224  48.2633876  26.9284103  21.0564791
  48.5872811  28.2450110  21.2608330  48.1167406  27.6285561  21.3767985
  57.4865581  23.5615866  24.6436319  56.8739894  24.0486269  25.0290051
  57.5829756  22.8859357  25.1873971  57.4103479  23.5334175  24.7815178
  51.4884662  25.3178708  19.7433819  51.9428408  25.4889268  20.4681663
  51.9624708  24.7046818  19.3431594  51.6252982  25.2529593  19.7907580
  45.4060810  25.9629031  29.7404575  45.8662292  26.0367961  30.4779699
  45.4516917  26.7610285  29.3904396  45.4811365  26.0923178  29.7977331
  61.1290609  34.6332803  30.0713835  61.1873733  35.0819452  30.8173812
  60.4957076  35.0431616  29.6343915  61.0441904  34.7606538  30.1166384
  54.7689704  40.2536345  26.5068582  54.5709392  40.7427160  25.8124793
  54.1477415  40.4577587  27.0852715  54.6477268  40.3552883  26.4891805
  48.8297682  32.0221242  20.8478826  49.5739727  32.4095518  21.0861776
  48.9758378  31.1778667  21.0119314  48.9608267  31.9551715  20.9072796
  50.7477257  23.8171501  25.8810687  49.9013302  23.9894309  25.7552037
  50.7448390  23.0120845  26.2176516  50.6224407  23.7232530  25.9121814
  51.8175558  27.5946715  26.7472745  51.3435512  27.0688477  27.2578056
  52.1893694  27.0476188  26.1787607  51.8025447  27.4362712  26.7387892
  58.0812288  32.6549091  28.1579526  57.8410511  31.8155506  28.1621952
  58.5604295  32.7349258  28.8820299  58.1164472  32.5430491  28.2654328
  53.7459057  28.4883270  19.8098499  53.2182076  28.5712014  19.1204208
  54.2054766  29.2301141  19.8063144  53.7360908  28.6103932  19.7073194
  60.0817475  29.4350548  26.1108785  59.8427245  29.3946382  25.2729569
  60.2451377  30.2821700  26.2374506  60.0707779  29.5542633  26.0062267
  56.6863505  33.8200497  32.0413830  57.4097704  33.3673024  31.8624850
  56.4213468  34.1005163  31.2586158  56.7544779  33.7951466  31.8992545
  45.5550374  28.4160671  28.7766709  44.9303444  28.4279063  28.1692662
  45.2195969  28.8920846  29.4257949  45.4135866  28.4879188  28.7823278
  45.7392123  26.7585789  14.8339394  45.3904927  27.4105515  15.2970944
  45.2588568  26.7442902  14.1063265  45.6162366  26.8528843  14.7950485
  53.2996140  37.0586833  18.9408156  54.0230339  37.5244946  18.7972729
  52.8596731  37.1260443  18.1905753  53.3411832  37.1370670  18.8092937
  52.7661422  22.1915054  31.5492367  52.2701983  22.3878729  30.8583934
  53.5230484  22.5907723  31.3781169  52.8048247  22.2792788  31.4212504
  50.0364302  25.8657400  28.1395678  50.0606789  25.3317513  27.4508458
  50.2875775  25.3574709  28.8021268  50.0774220  25.7118304  28.1360322
  46.3165624  24.5928218  27.5201422  46.3563996  25.0937425  28.2336129
  45.4915289  24.6838612  27.2507345  46.2005150  24.6810035  27.5851960
  46.1116031  29.3844320  20.3465439  46.2518992  29.8816784  21.0494080
  46.6098564  28.6830614  20.4879652  46.2057112  29.3546299  20.4717018
  46.1416254  30.2511431  17.6758016  46.7761333  30.8471856  17.6107477
  46.2241864  29.9514888  18.4903886  46.2472805  30.2952339  17.7861102
  59.1198819  32.7826908  30.5444380  59.7116660  33.4224159  30.5762578
  59.5557814  32.0849945  30.8336447  59.2717251  32.7745259  30.5925212
  47.7195236  26.1825406  17.6503458  48.0411078  25.7028489  16.9962720
  47.9822180  26.9925052  17.4594269  47.8061262  26.2315304  17.5258950
  53.1154391  25.5697600  30.0126937  53.5409463  25.1170127  29.4010463
  52.5011385  25.0157671  30.2891724  53.0883037  25.4211576  29.9631962
  42.6469242  32.4479272  20.9447562  43.1561471  33.0443779  21.3258867
  43.1203514  32.1805245  20.2623981  42.7912617  32.4965087  20.9002084
  53.5599990  41.1207538  19.1006217  52.8429299  40.9468401  18.6353455
  54.2106727  40.8860111  18.5681703  53.5501840  41.0603331  18.9535435
  51.5548614  22.0412700  23.4217514  50.9116932  21.8910346  23.9902652
  51.2148021  21.7955045  22.6566618  51.4093692  21.9824823  23.3920529
  56.1447961  29.9972127  22.8447522  55.4739151  30.5401829  22.7160588
  56.8387711  30.4666982  22.6029217  56.1476828  30.1470398  22.7903050
  56.3076088  26.4528010  25.7537895  56.6603698  26.0257733  26.4283694
  55.4490890  26.3678854  25.8838972  56.2325533  26.3772751  25.8732906
  45.0059773  29.0835530  23.8120742  44.2871762  29.4999663  24.0793606
  45.3772136  29.6489769  23.2612380  44.9551705  29.2284812  23.7703549
  54.3059354  29.7163379  29.7022738  54.2857281  29.5346674  30.5557517
  54.3538555  30.5875398  29.6782321  54.3093995  29.8179917  29.8246032
  50.7806348  28.1233530  19.1494121  50.1871187  28.4450527  18.5978689
  50.8181625  27.2774625  18.9415228  50.6980737  28.0457858  19.0376893
  57.7400148  21.5746422  26.6822208  57.2331013  20.8675562  26.6143385
  58.5367582  21.2439611  26.8123285  57.7827388  21.4219574  26.6921203
  53.6564164  28.0813035  22.5795872  53.4277857  28.1045736  21.7374230
  53.9162240  27.2570502  22.6990882  53.6610352  27.9629115  22.4721069
  46.7108927  26.6189581  23.8750067  47.1866293  26.9806661  23.2400248
  46.2097526  27.2746048  24.1550210  46.7074286  26.7683770  23.8226808
  59.9420288  36.0911349  19.6663072  60.3253894  36.8402705  19.8961169
  59.1464402  36.3377169  19.4075061  59.8814071  36.2381043  19.6620646
  48.7535580  28.7630781  17.2423451  49.1334545  28.7810410  16.4574566
  48.0128176  29.2084770  17.1214299  48.7004418  28.8312555  17.1087020
  56.3820870  27.0712972  22.8299030  56.3815097  26.9161628  23.6883306
  56.1777050  27.9175959  22.7740416  56.3520648  27.1733593  22.9486969
  54.1061722  31.7510474  26.4835237  54.6015388  31.0333469  26.4439257
  53.2961498  31.4481271  26.3689724  54.0605616  31.6008120  26.4608963
  49.5520334  35.6008287  18.6332241  48.7431657  35.2774960  18.5865551
  50.0595243  34.8941509  18.5660490  49.5070001  35.4489603  18.6162536
  56.1713541  34.5014161  29.1712366  56.5968613  33.9788583  28.6182791
  55.8070461  35.0994999  28.6500989  56.1800144  34.5124388  29.0121375
  52.7592141  38.2148425  25.5013523  53.2303319  38.9288688  25.6703508
  53.0952319  37.6147176  26.0373393  52.8787256  38.2319890  25.6045899
  49.6761636  22.9875896  32.4571618  49.8089541  22.1906889  32.7852593
  50.0606788  23.5142299  33.0369894  49.7517965  22.9475813  32.5915121
  52.7493991  19.9106222  29.0552711  51.9439955  19.8003952  29.3720549
  52.6200726  20.0118678  28.1982577  52.6114124  19.9089892  28.9760752
  56.2059951  26.0751714  29.6492408  55.6222940  26.5760921  29.2369975
  56.5264245  25.5681270  29.0156731  56.1673127  26.0743549  29.4950915
  48.7454751  24.9892309  19.9251083  49.5670445  25.1590622  19.6832778
  48.2824401  25.1439570  19.2017380  48.7985913  25.0374042  19.7822727
  47.3350082  22.9835071  30.7049512  47.8794495  22.6426198  31.2953853
  47.3887018  23.8420533  30.8470796  47.4239202  23.0590330  30.8131385
  69.4338064  46.6682284  21.7593433  69.4032068  47.5226921  21.9311703
  70.0319413  46.3677577  22.3179577  69.5175222  46.7498781  21.8668236
  62.6337749  45.7557935  26.5146364  61.7775644  45.9166433  26.5655481
  62.6805402  44.8849999  26.5351425  62.5136860  45.6508737  26.5252430
  57.0178888  55.2920653  22.2783595  56.2661788  54.9136191  22.0499640
  57.4664900  55.3239086  21.5302406  56.9728555  55.2406260  22.1341097
  65.9431465  52.0244461  36.1206820  66.6498232  51.5296491  36.2493754
  66.1319401  52.4653542  35.3909478  66.0759371  52.0162811  36.0315865
  62.4703848  55.7146022  17.7069142  62.1355217  56.3922944  17.2713365
  62.9830719  55.3251334  17.1186014  62.4969429  55.7570601  17.5555934
  62.0108139  57.6660291  23.6480254  62.3947519  58.2347190  23.1085029
  61.9467281  56.9409801  23.1686070  62.0581567  57.6435754  23.4974117
  65.4789570  47.8149979  29.1578015  66.0245530  48.4935066  29.2171985
  65.4206446  47.6737440  28.2979597  65.5505484  47.8941981  29.0390076
  58.5963644  55.3039045  24.5446368  58.6974007  54.4939399  24.8543496
  58.0005390  55.2095991  23.9146046  58.5236183  55.1704073  24.4972606
  67.2554638  49.2434586  20.0311743  67.1394164  49.9942272  20.4603881
  68.0510525  48.9858539  20.2807830  67.3559228  49.3169433  20.1315835
  58.4364384  60.2216634  25.9461224  59.0801840  60.6629798  26.3357382
  58.7620640  59.4170060  25.8591483  58.5796213  60.1681829  25.9906701
  51.7928689  51.3259332  24.1698701  51.5578873  50.4926984  24.0630970
  51.9314330  51.6063997  23.3559902  51.7784351  51.2442835  24.0341056
  54.0918776  43.4945062  27.0683009  53.4723808  42.9037709  26.8993024
  53.9902640  44.0856497  26.4347332  53.9856452  43.4949145  26.9487999
  59.1384964  53.2328609  21.3181086  59.4600805  53.7733816  20.7142394
  59.7857060  52.6625380  21.4503375  59.2811019  53.2287784  21.2488121
  61.1886672  45.2344604  21.4015472  61.8866837  45.4132732  21.8936936
  61.5039004  44.7114943  20.7785862  61.3382009  45.1838376  21.3817482
  61.3774607  51.6215049  21.3895264  61.8168243  51.0132150  21.8350037
  61.2279270  51.2422422  20.6180729  61.4196073  51.4753520  21.3414431
  61.3832342  53.0613967  28.2420982  61.6655584  52.2665372  28.0207738
  62.1118502  53.5394554  28.2626043  61.5321905  53.0148564  28.2123997
  59.3613535  40.6037001  25.4836747  59.0316865  41.0548144  24.8140446
  58.6858537  40.5253164  26.0309753  59.2123972  40.6588136  25.4659970
  64.9783944  49.9742230  18.3426033  64.8935239  50.8303197  18.4875602
  65.4668327  49.6986554  19.0108192  65.0372841  50.0599552  18.4628115
  66.5689943  36.5922524  23.7286358  66.2543384  37.2826002  24.1606780
  66.0516885  36.5367306  23.0271858  66.4454414  36.6857412  23.6883307
  65.9102377  46.5927024  19.8423768  65.3813848  46.8086658  20.5021074
  66.4327397  47.2863163  19.7624737  65.9090830  46.7270161  19.9279367
  71.3650430  52.1673329  25.2156813  70.5348133  52.3783973  25.3790229
  71.3159682  51.3410383  24.9399096  71.2357165  52.0762935  25.1994178
  57.8001985  50.4890241  18.6431236  57.2159200  50.9940273  19.0497100
  57.3972080  50.2632628  17.9027828  57.6541289  50.5298490  18.5936261
  59.4260168  54.9977183  28.0504722  58.9087109  54.6384598  27.4466030
  60.1234559  54.4739358  28.0610788  59.4525749  54.8674871  27.9634981
  63.0823759  55.4471997  34.0120895  63.1707105  55.2598138  34.8599105
  63.5113472  54.8009427  33.6125742  63.1585862  55.3235005  34.0792647
  60.6494219  54.7303157  32.9938557  60.0865054  54.3175767  33.5178219
  61.4115243  54.6556063  33.4131701  60.6788668  54.6580558  33.1331558
  62.2579199  46.7355893  17.1200157  62.4975203  46.9433877  16.3075500
  62.5795040  45.9313402  17.2289101  62.3416357  46.6469995  17.0160710
  57.5669490  38.6649289  20.9659695  58.3215458  39.0327606  20.7276745
  57.3897024  39.0388843  21.7338874  57.6523968  38.7747477  21.0444583
  56.2090211  56.7201178  25.5975187  56.9110790  56.2053167  25.6547944
  56.1287694  57.0475330  26.4022063  56.3013971  56.6915404  25.7247980
  70.8604388  44.8143730  29.0107234  70.0232809  44.8845917  29.2454828
  70.8292619  44.8168224  28.1381536  70.7322671  44.8253957  28.9166782
  55.9226554  41.0719608  17.6637808  55.7402127  41.2891489  16.8378800
  56.7852167  41.1858621  17.7196422  56.0231144  41.1209506  17.5492295
  55.5340986  52.9107530  25.1060796  56.3729886  53.1430463  25.1534557
  55.5652755  52.0411842  25.0367831  55.6622704  52.8164477  25.1025440
  61.6026273  38.0746019  20.6986831  62.3312434  37.8961974  20.2524988
  61.6921166  38.9164099  20.9094010  61.7232935  38.1729897  20.6640349
  65.5834574  49.0099406  24.6019125  66.3392089  49.4430920  24.6408034
  65.6896898  48.3604176  25.1753761  65.7104745  48.9776890  24.6917151
  68.6214745  52.8372683  25.3521528  68.1849977  52.8409426  26.1080500
  68.2877661  53.5178182  24.9201106  68.5077365  52.9385139  25.4002361
  68.5412228  39.8786511  27.5950956  69.1838136  39.9484616  28.1812872
  68.7935249  39.2115734  27.0930498  68.6734360  39.7912860  27.6078236
  55.4688581  44.3493781  16.1760281  54.7546758  44.0631960  16.5882713
  55.9532550  44.6890406  16.8166668  55.4347945  44.3575430  16.3315916
  71.7559091  49.5553603  24.2441166  72.4175525  48.9944272  24.1437074
  71.1150503  49.0605634  24.5693857  71.7587959  49.3990012  24.2773506
  62.6435899  52.8523735  16.5522089  63.0587048  52.5208758  15.8606585
  61.8127829  52.6192637  16.4242226  62.5823908  52.7694991  16.4312936
  68.0423922  50.5718986  23.9853154  68.2779511  50.7164185  23.1580005
  68.1913486  51.3361394  24.3784668  68.0989725  50.7058040  23.9216758
  69.8714379  49.4120652  21.8222758  70.2022596  49.9448292  21.2162853
  70.4447467  49.4659539  22.4784709  70.0048058  49.4990220  21.8300540
  65.0846268  47.2585554  22.5046338  65.1793122  47.9974848  22.9585964
  64.4605111  46.8303030  22.9380903  65.0055298  47.3046875  22.6354486
  63.3398742  50.4371767  33.1536619  63.9137603  49.7999011  33.3085183
  63.2613545  50.4375849  32.2846277  63.4131977  50.3436878  33.0483030
  65.3369289  49.1034294  15.7383290  65.2549452  49.1736481  16.6038277
  65.9749010  49.6664038  15.5467031  65.4189127  49.1973265  15.8373240
  58.6962460  48.8695032  25.2057817  58.4381705  48.0366767  25.1789116
  58.7510943  49.0952645  24.3650317  58.6662238  48.7792803  25.0777953
  63.7763511  40.9723483  25.3061909  63.0719837  40.4832668  25.4645828
  63.8248485  40.9845957  24.4350354  63.6793562  40.9013131  25.2001249
  57.6697173  46.4232794  25.6922711  57.0946764  46.5824963  26.3286672
  57.2932849  45.7868204  25.2291162  57.5299985  46.3530607  25.7177270
  70.9793730  44.6531148  23.3262920  70.7230295  43.8411090  23.1360803
  71.8223044  44.6608716  23.0993107  71.0659756  44.5343146  23.2647737
  65.1596823  38.5930773  28.0639074  65.5407334  37.9108944  28.4506948
  64.3560107  38.3040375  27.8814738  65.0973284  38.4497821  28.0943130
  62.4409399  49.1254748  18.7491897  63.2550038  49.4169641  18.6374668
  62.3768541  48.4714611  18.1750190  62.5512138  49.0719943  18.6480734
  68.6618890  51.8080744  33.1621472  68.4257527  50.9768809  33.0433533
  69.3062119  51.7566352  33.7476317  68.7213560  51.6778432  33.2307366
  58.3117308  52.5976266  23.8764209  58.9491255  52.3588013  24.4216002
  58.7372379  52.8013425  23.1417369  58.4693474  52.5927276  23.8481366
  58.9520123  47.8178556  18.2139098  59.3365275  47.5986262  18.9655643
  58.7031743  48.6441501  18.3440175  58.9722195  47.9076702  18.3440175
  69.6855310  51.5925193  29.2249767  69.3801127  52.3253250  29.5863083
  68.9661526  51.1863123  28.9442553  69.5342653  51.6406926  29.2362904
  60.6938780  53.0748688  25.5557995  60.7677788  52.9123860  26.4099845
  61.5108286  53.2638878  25.3118477  60.8255138  53.0785431  25.6456021
  75.3857102  48.2318194  28.5518111  75.3181603  48.2514153  27.6820698
  75.3712765  49.0748521  28.7773782  75.3735859  48.3591929  28.4570588
  54.4544536  53.4206551  22.5852439  53.6282654  53.6668288  22.4586717
  54.5156528  53.3418632  23.4514497  54.3418703  53.4451500  22.6941383
  56.6720560  39.4875492  23.5447879  55.8042986  39.5598092  23.6105488
  56.9595764  40.2897571  23.7335854  56.5860308  39.6169639  23.5822645
  65.7953449  39.6353352  31.8759201  66.5407041  39.4463162  31.4622626
  65.3790753  40.1611590  31.3173057  65.8438423  39.6855497  31.7323774
  59.2343365  56.0383431  20.2871469  59.5241664  55.6472413  19.5630695
  59.9646846  56.2200136  20.7276744  59.3850250  56.0077245  20.2454276
  73.1715720  47.0062580  26.8264706  73.7223641  46.3730649  27.0661798
  73.1559835  47.5377973  27.5180210  73.2500916  46.9911528  26.9643564
  57.1749281  58.0150814  23.3531618  56.9549576  57.7248169  24.1458285
  56.9543803  57.3565769  22.8249531  57.1096875  57.8750522  23.3920527
  56.0866228  50.1024130  25.6187320  55.7979477  49.4761602  26.1533047
  56.9549576  50.0444418  25.6852000  56.1726480  50.0011675  25.7078274
  66.8744126  45.2458914  25.9369302  66.5308892  44.5249249  26.2876551
  66.9737168  45.0372765  25.0947660  66.8386169  45.1083117  25.8640982
  59.3417237  59.3880204  22.1362311  59.9941295  58.8556646  22.3653337
  58.6442845  59.0348856  22.5230185  59.3347955  59.2569727  22.2274478
  56.2898502  51.7419381  21.5429685  57.0444470  52.1232421  21.7565147
  55.6969114  52.1930525  21.9976381  56.3135215  51.8648209  21.6412563
  67.3357155  51.7084618  21.4793290  67.9015188  52.3677828  21.3951833
  66.6885058  52.0534316  21.9509692  67.3235911  51.8566559  21.5366046
  54.5987912  42.9633752  20.9864755  54.3112708  42.5935022  20.2496702
  55.2858380  43.4328607  20.7248460  54.6576809  42.9780721  20.8379831
  63.8063733  54.6523402  20.9030369  63.5650409  53.9191263  20.4957434
  63.9865066  55.2010259  20.2496702  63.7971357  54.6245793  20.7460592
  59.0363054  49.9431962  22.3151291  58.8405836  50.5506696  21.7211594
  59.2597399  49.2499906  21.8342965  59.0397695  49.9309487  22.1567372
  57.4341584  46.8286700  22.4332160  58.1564236  46.9927858  21.9735966
  56.9549577  47.5496365  22.3271500  57.4705314  46.9584929  22.3497774
  65.3935091  43.1650499  27.8128845  64.5546192  43.1911777  27.5767108
  65.4639459  43.8121234  28.3934191  65.2803485  43.2646624  27.8637962
  63.8404370  40.0635876  22.5456461  64.5430722  39.8643624  22.0676419
  63.5748558  39.2911818  22.8525304  63.9051002  39.9198842  22.5201902
  69.2692615  48.3718485  25.0990086  69.1826590  48.5273911  25.9524865
  68.8143095  49.0156561  24.7249491  69.1895872  48.4894240  25.1697193
  52.1716107  43.7414964  21.8350036  52.2732243  44.5441125  22.1631012
  52.9671994  43.5402300  21.5373117  52.3044012  43.8300863  21.8385391
  63.1418431  45.6929232  23.7215646  62.8953146  45.6124983  24.5552435
  63.4703554  44.9082700  23.5278173  63.1539675  45.5655498  23.8163169
  67.0366480  52.4012592  27.5102427  66.8980839  53.0993638  28.0151170
  66.2566478  52.2461248  27.1538609  66.9009707  52.4812758  27.5328701
  65.3744565  48.7008967  33.7624809  65.3692604  47.8288784  33.7667235
  66.0805559  48.8997136  33.2894265  65.4789569  48.6012841  33.6931844
  58.1743213  56.6188723  29.9999656  58.3232777  56.0591639  29.3473060
  58.9543216  56.6980725  30.3832175  58.3117307  56.5474288  29.9596605
  68.5319853  51.7590846  18.2718926  68.1526662  50.9727983  18.2648216
  67.8686098  52.3077703  18.1290571  68.3778328  51.7235670  18.2499723
  60.6996514  56.7903366  31.2784147  60.6240185  56.1212176  31.8334935
  60.6286373  57.4921154  31.7924813  60.6777121  56.7948273  31.4360995
  65.9864479  34.7016545  25.6753007  66.1048047  35.1593009  24.9420310
  65.8126655  33.8961807  25.3889225  65.9783650  34.6510317  25.5253941
  61.3566761  55.3104365  22.1107753  62.1216652  55.0414008  21.7890417
  61.2544851  54.8254375  22.8277815  61.4548257  55.1993929  22.1687580
  63.8785422  52.3416548  14.0907702  64.6458407  52.4016673  13.6813554
  63.4316731  51.7696990  13.6064021  63.9258849  52.2653124  13.9585412
  64.7763217  51.1471204  26.3760434  64.1008219  50.9156436  26.8773821
  64.7855593  50.5392387  25.7502539  64.6781722  51.0230129  26.3576587
  66.7779952  54.0036337  18.6070612  66.8599789  54.8103323  18.2832063
  67.2629694  54.0232296  19.3311386  66.8617110  54.1256999  18.6657511
  60.0888148  60.1971685  29.7362147  60.5784079  59.4982475  29.5537812
  59.5172381  59.8995555  30.3238205  60.0772678  60.0497909  29.7963188
  55.8758900  49.1773224  22.7068663  56.0323519  49.1120027  23.5624655
  56.2159493  49.9521776  22.4947342  55.9492135  49.2822422  22.8023257
  62.4138045  48.5531108  21.5762026  62.9553590  48.0501489  22.0400647
  62.7284604  48.4996302  20.7651511  62.5402442  48.4710528  21.5245838
  66.2855152  52.7633755  38.6888938  67.0990017  52.4918904  38.8494071
  66.1250118  52.4641295  37.8849134  66.3825100  52.6788681  38.5934344
  60.5824494  53.9448459  18.8602054  60.6517315  53.0862998  18.9995054
  61.3612949  54.1620340  18.5321079  60.7077344  53.8501323  18.8319211
  64.9731982  56.3686160  23.0738547  64.5811774  56.0652875  22.3561413
  65.1285054  57.2055250  22.8843501  64.9385572  56.4469997  22.9395044
  52.4493161  46.3608174  23.0229430  52.8292126  46.7792719  22.3589697
  51.8748526  46.9421630  23.3298273  52.4204486  46.5086033  22.9706171
  65.1371657  52.9336149  23.0144578  64.7786311  53.1050792  23.7908610
  64.6510367  53.3949355  22.4572576  65.0130354  53.0275120  23.0469847
  62.9542043  36.5567348  26.6171669  62.0835601  36.5306069  26.5704979
  63.2082384  36.3844540  25.7997515  62.8635603  36.5277491  26.4891806
  59.9260022  48.6135315  15.5544812  60.2152547  49.3900197  15.8288386
  60.0131821  48.1024046  16.2559312  59.9814278  48.6527233  15.6987310
  59.9791183  38.5673576  28.0745140  59.4629672  37.8753768  28.1996719
  59.4185112  39.2344353  28.0207738  59.8197696  38.5636834  28.0851206
  62.0483417  39.1066536  29.9037992  61.6615170  39.1315568  30.6851522
  61.5616354  38.5408215  29.4512509  61.9195925  39.0262287  29.9525896
  66.2976396  53.8240045  33.9611779  66.9356116  53.3300241  33.6274235
  65.6550488  53.7517446  33.3764006  66.2970622  53.7399054  33.8254134
  68.0233396  45.6729191  28.5277694  67.5961004  45.5855540  27.7725794
  67.3859449  45.7806967  29.1132538  67.8663003  45.6761851  28.5023136
  61.7140558  35.9933522  32.1948252  62.3433676  36.5293822  31.9169322
  61.8826421  35.9010881  33.0461818  61.8318353  36.0594884  32.2796780
  66.3530653  54.5159853  30.6017135  67.1423031  54.1648918  30.7219217
  66.5274250  55.3296242  30.3393769  66.4950934  54.5845711  30.5805003
  53.5699530  45.5488116  25.4829675  53.1756228  45.6231128  24.7079785
  53.0139647  45.9346062  26.0338037  53.4302342  45.6169891  25.4497335
  65.2064477  38.5269410  25.1633554  65.4114070  38.4591718  26.0090551
  64.8790901  39.3328231  25.0954731  65.1879725  38.6355351  25.2793209
  58.9606725  43.1650498  21.4687224  59.2366459  42.4469411  21.0564791
  59.5605394  43.7635418  21.2608330  59.0899990  43.1470869  21.3767985
  68.4598164  39.0801174  24.6436319  67.8472478  39.5671577  25.0290051
  68.5562339  38.4044665  25.1873971  68.3836062  39.0519483  24.7815178
  62.4617245  40.8364016  19.7433819  62.9160992  41.0074576  20.4681663
  62.9357291  40.2232126  19.3431594  62.5985566  40.7714901  19.7907580
  72.1023192  50.1518111  30.0713835  72.1606316  50.6004760  30.8173812
  71.4689660  50.5616924  29.6343915  72.0174488  50.2791846  30.1166384
  65.7422287  55.7721653  26.5068582  65.5441976  56.2612468  25.8124793
  65.1209998  55.9762895  27.0852715  65.6209852  55.8738191  26.4891805
  59.8030265  47.5406550  20.8478826  60.5472310  47.9280826  21.0861776
  59.9490962  46.6963975  21.0119314  59.9340851  47.4737023  20.9072796
  61.7209841  39.3356809  25.8810687  60.8745886  39.5079617  25.7552037
  61.7180973  38.5306153  26.2176516  61.5956991  39.2417838  25.9121814
  62.7908141  43.1132023  26.7472745  62.3168096  42.5873785  27.2578056
  63.1626277  42.5661496  26.1787607  62.7758030  42.9548020  26.7387892
  69.0544872  48.1734399  28.1579526  68.8143095  47.3340814  28.1621952
  69.5336879  48.2534566  28.8820299  69.0897056  48.0615799  28.2654328
  64.7191641  44.0068578  19.8098499  64.1914660  44.0897322  19.1204208
  65.1787349  44.7486449  19.8063144  64.7093491  44.1289240  19.7073194
  71.0550059  44.9535856  26.1108785  70.8159829  44.9131690  25.2729569
  71.2183960  45.8007008  26.2374506  71.0440362  45.0727941  26.0062267
  67.6596089  49.3385805  32.0413830  68.3830288  48.8858332  31.8624850
  67.3946051  49.6190471  31.2586158  67.7277362  49.3136774  31.8992545
  56.7124706  42.2771097  14.8339394  56.3637510  42.9290823  15.2970944
  56.2321152  42.2628210  14.1063265  56.5894950  42.3714151  14.7950485
  64.2728723  52.5772141  18.9408156  64.9962922  53.0430254  18.7972729
  63.8329314  52.6445751  18.1905753  64.3144416  52.6555978  18.8092937
  63.4414879  49.4369684  30.1908845  62.8271872  48.8927734  30.4857480
  63.9582163  48.9233920  29.7114661  63.4270541  49.2806093  30.1633073
  62.6811176  50.5073954  27.9253144  62.2538784  49.8823672  27.4918579
  62.6736120  50.2248875  28.7512151  62.6170317  50.3726734  27.9832971
  63.7394006  37.7100362  31.5492367  63.2434567  37.9064036  30.8583934
  64.4963068  38.1093031  31.3781169  63.7780830  37.7978096  31.4212504
  61.0096885  41.3842708  28.1395678  61.0339373  40.8502820  27.4508458
  61.2608359  40.8760017  28.8021268  61.0506804  41.2303612  28.1360322
  57.2898208  40.1113526  27.5201422  57.3296579  40.6122733  28.2336129
  56.4647872  40.2023920  27.2507345  57.1737734  40.1995343  27.5851960
  57.0848615  44.9029628  20.3465439  57.2251576  45.4002092  21.0494080
  57.5831148  44.2015922  20.4879652  57.1789696  44.8731607  20.4717018
  57.1148837  45.7696739  17.6758016  57.7493917  46.3657164  17.6107477
  57.1974448  45.4700196  18.4903886  57.2205388  45.8137647  17.7861102
  70.0931403  48.3012216  30.5444380  70.6849243  48.9409467  30.5762578
  70.5290398  47.6035253  30.8336447  70.2449834  48.2930567  30.5925212
  58.6927820  41.7010714  17.6503458  59.0143661  41.2213797  16.9962720
  58.9554764  42.5110360  17.4594269  58.7793845  41.7500612  17.5258950
  61.9224793  52.7229589  31.1702274  61.4149884  53.2765435  31.6142904
  61.6251439  52.7837878  30.3521048  61.8029678  52.8135900  31.1150730
  53.6201825  47.9664580  20.9447562  54.1294054  48.5629087  21.3258867
  54.0936097  47.6990553  20.2623981  53.7645201  48.0150395  20.9002084
  64.5332573  56.6392846  19.1006217  63.8161883  56.4653708  18.6353455
  65.1839311  56.4045419  18.5681703  64.5234424  56.5788639  18.9535435
  62.5281198  37.5598008  23.4217514  61.8849516  37.4095654  23.9902652
  62.1880605  37.3140353  22.6566618  62.3826275  37.5010130  23.3920529
  67.1180544  45.5157435  22.8447522  66.4471734  46.0587137  22.7160588
  67.8120295  45.9852290  22.6029217  67.1209412  45.6655706  22.7903050
  61.1667278  57.6554147  28.0759281  60.9432933  56.8972976  28.4443307
  60.6777121  57.6852168  27.3539720  61.0610727  57.5476371  28.0236022
  67.2808672  41.9713318  25.7537895  67.6336282  41.5443041  26.4283694
  66.4223473  41.8864162  25.8838972  67.2058116  41.8958059  25.8732906
  55.9792357  44.6020838  23.8120742  55.2604346  45.0184971  24.0793606
  56.3504719  45.1675077  23.2612380  55.9284289  44.7470120  23.7703549
  65.2791938  45.2348687  29.7022738  65.2589865  45.0531982  30.5557517
  65.3271138  46.1060706  29.6782321  65.2826579  45.3365225  29.8246032
  59.8145735  57.8754605  25.5296365  59.4006134  57.2128735  25.1400207
  60.4993109  58.0232464  25.0092059  59.8544107  57.7995263  25.3952862
  63.1811029  57.0344690  26.2819982  62.7827312  57.1446961  25.5140802
  62.5662249  57.2426756  26.8646542  63.0309918  57.0818258  26.2551281
  61.7538931  43.6418838  19.1494121  61.1603770  43.9635834  18.5978689
  61.7914209  42.7959933  18.9415228  61.6713320  43.5643166  19.0376893
  68.7132732  37.0931730  26.6822208  68.2063597  36.3860870  26.6143385
  69.5100166  36.7624919  26.8123285  68.7559971  36.9404882  26.6921203
  64.6296748  43.5998342  22.5795872  64.4010441  43.6231044  21.7374230
  64.8894824  42.7755810  22.6990882  64.6342936  43.4814422  22.4721069
  57.6841510  42.1374889  23.8750067  58.1598877  42.4991969  23.2400248
  57.1830110  42.7931356  24.1550210  57.6806869  42.2869078  23.8226808
  70.9152872  51.6096657  19.6663072  71.2986478  52.3588013  19.8961169
  70.1196985  51.8562477  19.4075061  70.8546654  51.7566351  19.6620646
  59.7268163  44.2816089  17.2423451  60.1067128  44.2995718  16.4574566
  58.9860759  44.7270077  17.1214299  59.6737001  44.3497863  17.1087020
  67.3553454  42.5898280  22.8299030  67.3547680  42.4346936  23.6883306
  67.1509634  43.4361267  22.7740416  67.3253232  42.6918901  22.9486969
  65.0794306  47.2695782  26.4835237  65.5747971  46.5518777  26.4439257
  64.2694082  46.9666579  26.3689724  65.0338199  47.1193428  26.4608963
  60.5252918  51.1193595  18.6332241  59.7164240  50.7960268  18.5865551
  61.0327826  50.4126817  18.5660490  60.4802584  50.9674911  18.6162536
  67.1446125  50.0199469  29.1712366  67.5701196  49.4973891  28.6182791
  66.7803045  50.6180307  28.6500989  67.1532727  50.0309696  29.0121375
  56.7800205  58.3163687  27.9309711  57.0946764  59.1300075  27.9387493
  57.1893618  57.9313905  28.5991870  56.8868303  58.3792389  28.0313803
  63.7324724  53.7333733  25.5013523  64.2035903  54.4473996  25.6703508
  64.0684903  53.1332484  26.0373393  63.8519839  53.7505198  25.6045899
  65.8201709  55.3435047  37.6805595  65.9298674  54.5543607  38.0362342
  66.1492606  55.2540983  36.8779933  65.8854115  55.2140900  37.6147986
  64.3698671  53.5251668  32.2641216  63.8219617  52.9009551  31.9961281
  64.8311699  53.7145940  31.5485295  64.3565880  53.4610718  32.1191647
  63.7226574  35.4291530  29.0552711  62.9172538  35.3189260  29.3720549
  63.5933310  35.5303986  28.1982577  63.5846707  35.4275200  28.9760752
  67.1792535  41.5937022  29.6492408  66.5955524  42.0946228  29.2369975
  67.4996829  41.0866578  29.0156731  67.1405710  41.5928857  29.4950915
  59.7187334  40.5077617  19.9251083  60.5403028  40.6775930  19.6832778
  59.2556985  40.6624878  19.2017380  59.7718496  40.5559350  19.7822727
  63.9356997  54.5302740  28.7950557  64.7555371  54.3865706  29.0566852
  63.6551075  55.1548939  29.3366995  64.0153740  54.6013092  28.9138496
  73.6070332  61.2743243  26.5146364  72.7508228  61.4351741  26.5655481
  73.6537986  60.4035307  26.5351425  73.4869444  61.1694045  26.5252430
  67.9911472  70.8105961  22.2783595  67.2394371  70.4321499  22.0499640
  68.4397484  70.8424394  21.5302406  67.9461139  70.7591568  22.1341097
  76.9164049  67.5429769  36.1206820  77.6230816  67.0481799  36.2493754
  77.1051984  67.9838850  35.3909478  77.0491954  67.5348119  36.0315865
  76.4522153  63.3335287  29.1578015  76.9978113  64.0120373  29.2171985
  76.3939030  63.1922748  28.2979597  76.5238068  63.4127289  29.0390076
  69.5696228  70.8224353  24.5446368  69.6706591  70.0124707  24.8543496
  68.9737973  70.7281299  23.9146046  69.4968767  70.6889381  24.4972606
  62.7661272  66.8444639  24.1698701  62.5311457  66.0112292  24.0630970
  62.9046913  67.1249305  23.3559902  62.7516935  66.7628143  24.0341056
  65.0651360  59.0130370  27.0683009  64.4456391  58.4223017  26.8993024
  64.9635223  59.6041805  26.4347332  64.9589035  59.0134453  26.9487999
  72.1619255  60.7529912  21.4015472  72.8599420  60.9318039  21.8936936
  72.4771588  60.2300251  20.7785862  72.3114593  60.7023684  21.3817482
  64.7920493  62.5582652  29.3126578  64.6679190  63.1445097  29.9476397
  65.4438777  62.0642848  29.6138853  64.8694142  62.5721456  29.4512507
  72.3507191  67.1400357  21.3895264  72.7900826  66.5317457  21.8350037
  72.2011854  66.7607730  20.6180729  72.3928657  66.9938828  21.3414431
  69.8178834  65.7344369  28.5914089  70.4627836  65.2416812  28.2725038
  70.0580611  65.8769155  29.4180168  69.9489419  65.6821811  28.6663622
  72.3564925  68.5799275  28.2420982  72.6388168  67.7850680  28.0207738
  73.0851086  69.0579862  28.2626043  72.5054489  68.5333872  28.2123997
  70.3346119  56.1222309  25.4836747  70.0049449  56.5733452  24.8140446
  69.6591121  56.0438472  26.0309753  70.1856555  56.1773444  25.4659970
  77.5422527  52.1107831  23.7286358  77.2275968  52.8011310  24.1606780
  77.0249468  52.0552614  23.0271858  77.4186997  52.2042720  23.6883307
  64.3278597  71.7230310  25.4454908  63.8446175  72.4480800  25.4214491
  65.1401915  72.0206440  25.5565065  64.3769345  71.8732664  25.4582187
  70.3992751  70.5162491  28.0504722  69.8819693  70.1569906  27.4466030
  71.0967142  69.9924665  28.0610788  70.4258332  70.3860179  27.9634981
  71.6226803  70.2488465  32.9938557  71.0597638  69.8361075  33.5178219
  72.3847826  70.1741371  33.4131701  71.6521251  70.1765866  33.1331558
  68.5402073  54.1834597  20.9659695  69.2948041  54.5512914  20.7276745
  68.3629608  54.5574151  21.7338874  68.6256551  54.2932785  21.0444583
  67.1822794  72.2386486  25.5975187  67.8843374  71.7238475  25.6547944
  67.1020277  72.5660638  26.4022063  67.2746555  72.2100712  25.7247980
  68.2301701  62.4762073  34.7255603  68.4022205  62.3667968  35.5740884
  68.7671058  63.1216479  34.4886795  68.3346705  62.5554075  34.8160699
  66.8959138  56.5904916  17.6637808  66.7134711  56.8076797  16.8378800
  67.7584751  56.7043929  17.7196422  66.9963727  56.6394814  17.5492295
  66.5073570  68.4292838  25.1060796  67.3462469  68.6615771  25.1534557
  66.5385339  67.5597150  25.0367831  66.6355287  68.3349785  25.1025440
  67.1326273  68.8493713  29.4074101  67.6724498  68.7064844  30.0777473
  66.4496219  69.2490464  29.7758127  67.1118427  68.8873384  29.5608523
  72.5758857  53.5931327  20.6986831  73.3045017  53.4147282  20.2524988
  72.6653750  54.4349406  20.9094010  72.6965519  53.6915205  20.6640349
  76.5567158  64.5284714  24.6019125  77.3124673  64.9616228  24.6408034
  76.6629482  63.8789484  25.1753761  76.6837328  64.4962198  24.6917151
  62.5363418  65.0694004  29.5608523  62.2701833  64.2533121  29.7199513
  62.5501982  65.1147160  28.6904038  62.4988140  64.9550909  29.4562005
  66.4421165  59.8679089  16.1760281  65.7279342  59.5817268  16.5882713
  66.9265133  60.2075714  16.8166668  66.4080528  59.8760738  16.3315916
  67.2862024  58.6072382  32.2075530  66.5933821  58.1369362  32.4536262
  67.9022351  58.3810687  32.7817237  67.2746554  58.5039514  32.3284683
  62.9456831  65.8552784  26.8420267  62.7632405  65.8299670  25.9892559
  63.6806500  66.3251721  26.8809176  63.0270895  65.9214146  26.7218185
  66.0102583  62.5737786  33.3502375  66.7342555  62.5590817  33.8367270
  66.1118720  63.2833142  32.8524344  66.1320792  62.6762490  33.3481162
  73.3847533  66.0536871  38.2151322  72.5920513  66.3680383  38.4003942
  73.4996460  66.2688339  37.3772107  73.2842943  66.1320708  38.1189657
  76.0578851  62.7770862  22.5046338  76.1525706  63.5160156  22.9585964
  75.4337695  62.3488338  22.9380903  75.9787882  62.8232183  22.6354486
  74.3131325  65.9557075  33.1536619  74.8870187  65.3184319  33.3085183
  74.2346129  65.9561157  32.2846277  74.3864560  65.8622186  33.0483030
  62.9127742  62.7346284  26.9919333  63.4901244  62.5982735  27.6311579
  62.2141803  62.2782068  27.2464918  62.8948763  62.6468550  27.1241623
  69.6695044  64.3880340  25.2057817  69.4114288  63.5552075  25.1789116
  69.7243527  64.6137953  24.3650317  69.6394822  64.2978111  25.0777953
  74.7496094  56.4908791  25.3061909  74.0452421  56.0017976  25.4645828
  74.7981068  56.5031265  24.4350354  74.6526146  56.4198439  25.2001249
  68.6429756  61.9418102  25.6922711  68.0679347  62.1010271  26.3286672
  68.2665432  61.3053512  25.2291162  68.5032568  61.8715915  25.7177270
  72.3103045  60.4141452  30.5515090  71.9217478  59.9895669  29.8967281
  71.6457743  60.6623601  31.0592116  72.1549973  60.3880173  30.5302958
  58.3886575  61.5858177  23.7067152  58.4746827  61.2090046  24.4880682
  59.0162372  61.2118623  23.2287110  58.4943126  61.4743659  23.7512629
  76.1329406  54.1116080  28.0639074  76.5139918  53.4294252  28.4506948
  75.3292691  53.8225683  27.8814738  76.0705868  53.9683129  28.0943130
  69.2849891  68.1161574  23.8764209  69.9223838  67.8773321  24.4216002
  69.7104963  68.3198733  23.1417369  69.4426058  68.1112584  23.8481366
  63.9762534  70.3549910  27.7598513  64.0166679  70.6264761  26.9318292
  64.5357058  70.8791818  28.1756301  64.0645880  70.4725665  27.6990401
  69.9252706  63.3363864  18.2139098  70.3097859  63.1171570  18.9655643
  69.6764327  64.1626809  18.3440175  69.9454779  63.4262010  18.3440175
  70.0921247  56.6170279  37.9301682  69.7774688  57.3869841  37.6671245
  69.7711179  56.0540535  37.3453909  69.9980166  56.6480547  37.8043032
  71.6671363  68.5933996  25.5557995  71.7410371  68.4309168  26.4099845
  72.4840870  68.7824186  25.3118477  71.7987722  68.5970739  25.6456021
  65.4277120  68.9391859  22.5852439  64.6015238  69.1853596  22.4586717
  65.4889111  68.8603940  23.4514497  65.3151287  68.9636808  22.6941383
  67.6453144  55.0060800  23.5447879  66.7775569  55.0783400  23.6105488
  67.9328348  55.8082879  23.7335854  67.5592892  55.1354947  23.5822645
  76.7686032  55.1538660  31.8759201  77.5139624  54.9648470  31.4622626
  76.3523337  55.6796898  31.3173057  76.8171007  55.2040805  31.7323774
  70.7970694  66.3586485  31.3724599  70.2982388  67.0702253  31.4509487
  71.6070918  66.6787152  31.3342761  70.8426801  66.5113334  31.3781168
  68.1481865  73.5336122  23.3531618  67.9282160  73.2433477  24.1458285
  67.9276387  72.8751077  22.8249531  68.0829459  73.3935830  23.3920527
  67.0598812  65.6209438  25.6187320  66.7712060  64.9946910  26.1533047
  67.9282160  65.5629726  25.6852000  67.1459064  65.5196983  25.7078274
  77.8476710  60.7644222  25.9369302  77.5041475  60.0434557  26.2876551
  77.9469752  60.5558073  25.0947660  77.8118752  60.6268425  25.8640982
  67.2631085  67.2604689  21.5429685  68.0177053  67.6417728  21.7565147
  66.6701698  67.7115833  21.9976381  67.2867799  67.3833517  21.6412563
  69.7237752  59.2167530  36.6686897  68.9137528  59.5225309  36.5576740
  70.2012439  59.9373112  36.7839481  69.6741231  59.3682131  36.6693968
  68.5829312  68.4313251  26.9169800  68.0610065  68.5713542  27.6021665
  68.9703332  67.6723915  27.1071918  68.5633013  68.3398775  27.0470877
  65.5720496  58.4819059  20.9864755  65.2845291  58.1120330  20.2496702
  66.2590964  58.9513915  20.7248460  65.6309393  58.4966029  20.8379831
  70.0095637  65.4617270  22.3151291  69.8138420  66.0692004  21.7211594
  70.2329983  64.7685214  21.8342965  70.0130278  65.4494795  22.1567372
  68.4074167  62.3472008  22.4332160  69.1296819  62.5113166  21.9735966
  67.9282160  63.0681673  22.3271500  68.4437898  62.4770237  22.3497774
  76.3667675  58.6835806  27.8128845  75.5278776  58.7097085  27.5767108
  76.4372042  59.3306542  28.3934191  76.2536068  58.7831932  27.8637962
  66.0581784  64.7530080  31.5386300  66.5702881  65.0314333  30.8895059
  65.7718127  65.4919374  31.9049113  66.0916647  64.9032434  31.4976178
  74.8136953  55.5821184  22.5456461  75.5163306  55.3828932  22.0676419
  74.5481142  54.8097126  22.8525304  74.8783585  55.4384150  22.5201902
  63.1448690  59.2600272  21.8350036  63.2464827  60.0626433  22.1631012
  63.9404577  59.0587608  21.5373117  63.2776596  59.3486171  21.8385391
  69.5765509  56.8456469  31.5987341  69.3848706  56.8611603  32.4486765
  70.4264105  57.0420143  31.5753996  69.6741231  56.8770820  31.7210636
  63.9612422  59.3747450  29.5771158  63.8197914  58.5231391  29.7015666
  64.2452986  59.4176111  28.7533364  63.9820269  59.2547200  29.4738782
  74.1151015  61.2114540  23.7215646  73.8685729  61.1310291  24.5552435
  74.4436138  60.4268008  23.5278173  74.1272258  61.0840806  23.8163169
  76.3477149  64.2194275  33.7624809  76.3425187  63.3474092  33.7667235
  77.0538143  64.4182444  33.2894265  76.4522153  64.1198149  33.6931844
  70.0748042  63.9471259  33.1338629  70.2191418  64.5272467  32.4981739
  70.4223691  64.3247556  33.8388484  70.1475503  64.0891963  33.1437624
  72.2467959  63.1461427  30.9163761  71.4991273  63.3392442  30.5112039
  72.4009485  62.3206647  30.6787882  72.1590387  63.0526539  30.8209166
  69.1475797  72.1374031  29.9999656  69.2965361  71.5776947  29.3473060
  69.9275799  72.2166032  30.3832175  69.2849891  72.0659596  29.9596605
  72.4869736  57.0411978  31.8059164  72.9442351  57.7735952  31.9331957
  72.5626065  56.6178443  32.5646420  72.5660706  57.0869216  31.9360241
  64.7302728  57.2877798  32.8948608  64.1944917  56.6758156  33.2109375
  64.7920492  57.8625934  33.5482275  64.6598360  57.2824726  33.0384035
  76.9597062  50.2201853  25.6753007  77.0780631  50.6778317  24.9420310
  76.7859238  49.4147114  25.3889225  76.9516233  50.1695625  25.5253941
  70.3652114  59.0314082  28.6500988  69.5748189  58.8505542  28.9718324
  70.7612737  58.2541035  28.6331283  70.3068991  58.8901543  28.6953537
  75.7495801  66.6656512  26.3760434  75.0740802  66.4341744  26.8773821
  75.7588177  66.0577695  25.7502539  75.6514305  66.5415437  26.3576587
  72.8789945  61.5074341  33.1324487  72.8149086  62.3684298  33.0044624
  73.0187132  61.1906334  32.3320039  72.8905415  61.5874508  32.9952700
  71.5609039  64.2006480  27.2740690  71.1371288  64.4010979  26.5379709
  71.3853894  63.3535328  27.3864990  71.4719919  64.1055262  27.1814380
  66.8491484  64.6958532  22.7068663  67.0056103  64.6305335  23.5624655
  67.1892077  65.4707084  22.4947342  66.9224718  64.8007730  22.8023257
  73.3870628  64.0716415  21.5762026  73.9286174  63.5686797  22.0400647
  73.7017187  64.0181610  20.7651511  73.5135025  63.9895836  21.5245838
  74.5359898  58.9652720  31.6284326  74.7501867  58.3263634  31.0747680
  73.9193797  59.4098544  31.1992188  74.4765227  58.9362864  31.4834757
  63.4225745  61.8793482  23.0229430  63.8024710  62.2978027  22.3589697
  62.8481110  62.4606938  23.3298273  63.3937070  62.0271341  22.9706171
  76.6998986  60.5741785  32.5667633  75.8875667  60.2667676  32.6480806
  77.1588920  60.0940785  33.1310346  76.6479370  60.4578278  32.6622228
  73.9274626  52.0752656  26.6171669  73.0568184  52.0491377  26.5704979
  74.1814967  51.9029848  25.7997515  73.8368186  52.0462799  26.4891806
  73.7952493  61.9801857  37.3496336  74.2652124  62.6043973  37.7364210
  73.8414373  61.3118832  37.9089550  73.8720369  61.9736537  37.4896407
  70.9523767  54.0858884  28.0745140  70.4362255  53.3939076  28.1996719
  70.3917696  54.7529661  28.0207738  70.7930280  54.0822142  28.0851206
  73.0216000  54.6251844  29.9037992  72.6347753  54.6500876  30.6851522
  72.5348937  54.0593523  29.4512509  72.8928509  54.5447595  29.9525896
  72.6873142  51.5118830  32.1948252  73.3166260  52.0479130  31.9169322
  72.8559005  51.4196189  33.0461818  72.8050936  51.5780192  32.2796780
  72.4887057  56.2990024  34.4674664  73.3160486  56.0275173  34.5233278
  72.5094903  57.0950866  34.8238482  72.6139907  56.3769779  34.5289847
  67.0656547  63.4453887  27.6544924  66.2244553  63.3457761  27.8623818
  67.2746555  64.2149367  28.0059245  66.9721239  63.5445930  27.7372239
  64.5432114  61.0673424  25.4829675  64.1488811  61.1416436  24.7079785
  63.9872230  61.4531370  26.0338037  64.4034926  61.1355199  25.4497335
  76.1797060  54.0454718  25.1633554  76.3846654  53.9777026  26.0090551
  75.8523484  54.8513539  25.0954731  76.1612308  54.1540658  25.2793209
  70.8773211  61.3735286  26.9042522  70.5736349  60.8191275  27.5052929
  70.1752632  61.5527496  26.4170556  70.7289421  61.3180069  26.9212227
  69.9339309  58.6835806  21.4687224  70.2099043  57.9654719  21.0564791
  70.5337978  59.2820726  21.2608330  70.0632573  58.6656177  21.3767985
  68.9391562  68.5885007  31.6114620  68.8311917  68.5987069  32.4776678
  69.1487344  69.4139787  31.4219573  68.9541673  68.7126082  31.7118711
  73.4349829  56.3549323  19.7433819  73.8893576  56.5259884  20.4681663
  73.9089875  55.7417434  19.3431594  73.5718149  56.2900209  19.7907580
  66.9565354  65.8397649  29.0736557  66.3653288  66.4807148  29.0439572
  67.7186378  66.2635267  29.0467857  66.9813615  65.9973488  29.0651704
  67.3525977  56.9999647  29.7404575  67.8127459  57.0738577  30.4779699
  67.3982084  57.7980901  29.3904396  67.4276533  57.1293794  29.7977331
  69.0009327  57.6666342  34.3076602  68.6094892  57.0199689  34.7432380
  69.1695190  58.2577777  34.9270857  68.9680237  57.6580610  34.4639308
  70.7762849  63.0591858  20.8478826  71.5204894  63.4466134  21.0861776
  70.9223545  62.2149283  21.0119314  70.9073434  62.9922331  20.9072796
  72.6942424  54.8542117  25.8810687  71.8478470  55.0264924  25.7552037
  72.6913557  54.0491460  26.2176516  72.5689574  54.7603146  25.9121814
  73.7640725  58.6317331  26.7472745  73.2900679  58.1059093  27.2578056
  74.1358861  58.0846804  26.1787607  73.7490614  58.4733328  26.7387892
  64.1413755  60.6288838  32.1156291  65.0039368  60.5284547  32.0293621
  63.8105538  60.0483547  31.5541863  64.2198951  60.5280465  32.0201697
  75.6924225  59.5253886  19.8098499  75.1647243  59.6082630  19.1204208
  76.1519933  60.2671757  19.8063144  75.6826075  59.6474548  19.7073194
  67.5015541  59.4531287  28.7766709  66.8768611  59.4649679  28.1692662
  67.1661136  59.9291462  29.4257949  67.3601033  59.5249804  28.7823278
  67.6857290  57.7956405  14.8339394  67.3370094  58.4476131  15.2970944
  67.2053736  57.7813518  14.1063265  67.5627534  57.8899459  14.7950485
  64.2141217  67.5131747  30.2170473  63.6841141  66.8224186  30.2665448
  64.4866310  67.5041932  29.3883182  64.1765939  67.4098879  30.1017889
  74.4147462  64.9554992  30.1908845  73.8004455  64.4113042  30.4857480
  74.9314747  64.4419228  29.7114661  74.4003125  64.7991401  30.1633073
  73.6543759  66.0259262  27.9253144  73.2271367  65.4008980  27.4918579
  73.6468704  65.7434183  28.7512151  73.5902900  65.8912042  27.9832971
  66.7706286  61.0624435  30.9941578  66.9299773  60.3067759  31.3993300
  66.5899180  61.6115374  31.6482315  66.7671645  61.0318248  31.1504284
  74.7126589  53.2285670  31.5492367  74.2167151  53.4249344  30.8583934
  75.4695651  53.6278338  31.3781169  74.7513414  53.3163404  31.4212504
  71.9829469  56.9028016  28.1395678  72.0071956  56.3688128  27.4508458
  72.2340943  56.3945325  28.8021268  72.0239388  56.7488920  28.1360322
  59.4937059  64.1859511  27.5738822  59.3880508  64.1406355  26.7090906
  58.7437279  64.5313292  27.8553107  59.3672662  64.2300419  27.4876152
  68.2630791  55.6298834  27.5201422  68.3029163  56.1308041  28.2336129
  67.4380456  55.7209228  27.2507345  68.1470317  55.7180651  27.5851960
  70.4460404  65.1959574  35.6221717  69.5956035  65.3331289  35.7579362
  70.6088532  64.4623353  36.0669418  70.3444268  65.1073676  35.7077316
  69.6845155  62.1459344  29.8175321  68.8537084  62.3133162  29.6110569
  69.6296672  61.7695295  30.6024206  69.5534569  62.1149075  29.9023849
  67.4928938  55.6368237  35.4531732  68.1181641  55.0930370  35.7261164
  67.0379418  55.1563155  34.8839522  67.5177198  55.4857718  35.4093326
  68.0581198  60.4214936  20.3465439  68.1984159  60.9187400  21.0494080
  68.5563731  59.7201230  20.4879652  68.1522279  60.3916914  20.4717018
  68.0881421  61.2882047  17.6758016  68.7226500  61.8842472  17.6107477
  68.1707032  60.9885504  18.4903886  68.1937972  61.3322955  17.7861102
  69.6660404  57.2196022  17.6503458  69.9876245  56.7399105  16.9962720
  69.9287347  58.0295668  17.4594269  69.7526429  57.2685920  17.5258950
  72.8957376  68.2414896  31.1702274  72.3882468  68.7950743  31.6142904
  72.5984023  68.3023186  30.3521048  72.7762261  68.3321208  31.1150730
  75.0619559  56.6068216  30.0126937  75.4874630  56.1540743  29.4010463
  74.4476552  56.0528287  30.2891724  75.0348204  56.4582192  29.9631962
  64.5934409  63.4849887  20.9447562  65.1026638  64.0814395  21.3258867
  65.0668681  63.2175861  20.2623981  64.7377784  63.5335703  20.9002084
  73.5013781  53.0783316  23.4217514  72.8582099  52.9280962  23.9902652
  73.1613188  52.8325661  22.6566618  73.3558859  53.0195438  23.3920529
  78.2541255  57.4898626  25.7537895  78.6068866  57.0628349  26.4283694
  77.3956057  57.4049470  25.8838972  78.1790700  57.4143367  25.8732906
  66.9524940  60.1206146  23.8120742  66.2336930  60.5370279  24.0793606
  67.3237303  60.6860385  23.2612380  66.9016872  60.2655427  23.7703549
  76.2524521  60.7533995  29.7022738  76.2322449  60.5717290  30.5557517
  76.3003722  61.6246013  29.6782321  76.2559162  60.8550533  29.8246032
  74.1970851  67.3421187  35.6271214  74.1566706  66.6970864  35.0416370
  75.0094169  67.2857804  35.9396626  74.3114005  67.2380154  35.5868163
  72.7271515  59.1604146  19.1494121  72.1336354  59.4821142  18.5978689
  72.7646792  58.3145241  18.9415228  72.6445904  59.0828474  19.0376893
  75.6029331  59.1183650  22.5795872  75.3743024  59.1416352  21.7374230
  75.8627408  58.2941117  22.6990882  75.6075519  58.9999730  22.4721069
  69.8848560  60.9718123  32.1820972  69.3727463  60.3639306  32.5406003
  69.7128056  61.6874716  32.6494948  69.7838197  60.9881423  32.3037196
  64.7314275  59.4155699  34.8323334  64.5616865  60.0757074  34.2871540
  64.2880224  59.6262260  35.5535823  64.6413608  59.5441681  34.8584963
  68.6574094  57.6560197  23.8750067  69.1331460  58.0177277  23.2400248
  68.1562693  58.3116664  24.1550210  68.6539453  57.8054385  23.8226808
  73.7617630  58.8942368  34.6223227  74.3189060  58.6656178  33.9901693
  73.4378695  59.6548034  34.3458440  73.7964040  58.9726205  34.4879725
  61.6316339  62.3202564  30.0911824  61.0843058  61.6503210  30.2092692
  62.4208717  61.9532412  30.1555291  61.6668523  62.1667551  30.1180524
  71.4800747  61.9810021  35.5875235  72.2312074  62.2961698  35.9014789
  71.6723324  61.7789192  34.7609156  71.6192162  61.9977403  35.5118630
  70.7000747  59.8001397  17.2423451  71.0799712  59.8181026  16.4574566
  69.9593343  60.2455385  17.1214299  70.6469585  59.8683171  17.1087020
  78.3286038  58.1083588  22.8299030  78.3280264  57.9532244  23.6883306
  78.1242218  58.9546575  22.7740416  78.2985815  58.2104208  22.9486969
  60.3903308  61.5323372  27.2457847  60.2125070  61.0799981  27.9712762
  60.1022331  62.3349534  27.4296324  60.3216262  61.5845930  27.3801349
  76.0526890  62.7881090  26.4835237  76.5480555  62.0704085  26.4439257
  75.2426665  62.4851887  26.3689724  76.0070783  62.6378736  26.4608963
  62.1275778  64.0651096  24.3579606  61.2621298  64.0536786  24.2462377
  62.2274594  63.8781319  25.2050745  62.0149945  64.0357157  24.4668550
  78.1178708  65.5384777  29.1712366  78.5433780  65.0159199  28.6182791
  77.7535628  66.1365614  28.6500989  78.1265311  65.5495004  29.0121375
  67.7532788  73.8348995  27.9309711  68.0679347  74.6485383  27.9387493
  68.1626202  73.4499213  28.5991870  67.8600886  73.8977697  28.0313803
  74.7057308  69.2519041  25.5013523  75.1768486  69.9659304  25.6703508
  75.0417486  68.6517791  26.0373393  74.8252423  69.2690506  25.6045899
  71.6226803  54.0246512  32.4571618  71.7554708  53.2277505  32.7852593
  72.0071956  54.5512915  33.0369894  71.6983132  53.9846429  32.5915121
  75.3431254  69.0436975  32.2641216  74.7952200  68.4194859  31.9961281
  75.8044283  69.2331247  31.5485295  75.3298464  68.9796026  32.1191647
  74.6959158  50.9476838  29.0552711  73.8905122  50.8374568  29.3720549
  74.5665894  51.0489294  28.1982577  74.5579291  50.9460508  28.9760752
  78.1525119  57.1122330  29.6492408  77.5688107  57.6131536  29.2369975
  78.4729413  56.6051886  29.0156731  78.1138294  57.1114165  29.4950915
  70.6919918  56.0262925  19.9251083  71.5135612  56.1961238  19.6832778
  70.2289569  56.1810186  19.2017380  70.7451080  56.0744658  19.7822727
  69.2815250  54.0205687  30.7049512  69.8259663  53.6796814  31.2953853
  69.3352185  54.8791148  30.8470796  69.3704369  54.0960946  30.8131385
  65.0945808  67.7822103  27.5788320  65.6990666  67.7417937  26.9502140
  64.8873121  68.6293255  27.6092375  65.1534706  67.9010105  27.4904436
  60.3297091  66.7656721  27.4487243  60.2321369  65.9552992  27.7577299
  61.1125960  66.7448514  27.0633511  60.4313227  66.6423811  27.4374106
  36.1850041   6.1224150  12.8801271  36.8287496   6.5637314  13.2697429
  36.5106296   5.3177576  12.7931529  36.3281870   6.0689344  12.9246748
  40.8309416   1.3479512  20.9460942  40.9192762   1.1605653  21.7939152
  41.2599129   0.7016942  20.5465789  40.9071519   1.2242520  21.0132693
  38.3979876   0.6310672  19.9278604  37.8350711   0.2183282  20.4518265
  39.1600900   0.5563578  20.3471747  38.4274325   0.5588073  20.0671604
  40.9429476   0.7788531  23.6104726  41.7269892   0.8919379  23.9760468
  40.7426070  -0.0470331  23.8063411  41.0295501   0.6735251  23.6939112
  41.0999869   2.6898634  17.2571181  40.3015115   2.4498134  17.5145050
  41.5485880   2.7413026  18.0038229  41.0474480   2.6621025  17.4056105
  35.9228870   2.5196238  16.9339703  36.0718434   1.9599154  16.2813107
  36.7028872   2.5988240  17.3172221  36.0602964   2.4481804  16.8936652
  38.4482171   2.6910881  18.2124193  38.3725842   2.0219692  18.7674982
  38.3772030   3.3928669  18.7264860  38.4262778   2.6955788  18.3701042
  37.8373805   6.0979201  16.6702194  38.3269736   5.3989990  16.4877859
  37.2658038   5.8003071  17.2578252  37.8258335   5.9505424  16.7303235
  35.7144636  -1.0292786  18.5454666  35.6064991  -1.0190724  19.4116724
  35.9240417  -0.2038005  18.3559620  35.7294747  -0.9051711  18.6458758
  43.4907944   1.6729168  13.4408628  43.2927633   2.1619983  12.7464840
  42.8695655   1.8770410  14.0192762  43.3695508   1.7745707  13.4231852
  39.6710450  -1.3762896  18.1042320  39.1635541  -0.8227049  18.5482951
  39.3737096  -1.3154606  17.2861095  39.5515335  -1.2856585  18.0490777
  38.9152935   3.5561662  15.0099327  38.6918589   2.7980491  15.3783354
  38.4262778   3.5859683  14.2879767  38.8096384   3.4483887  14.9576068
  40.9296686   2.9352205  13.2160029  40.5312969   3.0454476  12.4480849
  40.3147906   3.1434272  13.7986588  40.7795575   2.9825774  13.1891328
  34.5285861   4.2171202  14.8649758  34.8432420   5.0307590  14.8727540
  34.9379275   3.8321421  15.5331917  34.6353959   4.2799904  14.9653850
  43.5687366   1.2442562  24.6145642  43.6784331   0.4551123  24.9702389
  43.8978262   1.1548498  23.8119980  43.6339772   1.1148415  24.5488033
  41.6842654   0.4310256  15.7290604  42.5041028   0.2873222  15.9906899
  41.4036731   1.0556454  16.2707042  41.7639397   0.5020608  15.8478543
  51.3555989   7.1750758  13.4486411  50.4993884   7.3359256  13.4995527
  51.4023643   6.3042822  13.4691472  51.2355100   7.0701560  13.4592477
  45.7397129  16.7113476   9.2123642  44.9880028  16.3329014   8.9839687
  46.1883140  16.7431910   8.4642452  45.6946795  16.6599083   9.0681144
  54.6649705  13.4437284  23.0546867  55.3716473  12.9489315  23.1833801
  54.8537641  13.8846365  22.3249525  54.7977611  13.4355634  22.9655912
  51.1922089  17.1338846   4.6409189  50.8573457  17.8115767   4.2053411
  51.7048959  16.7444157   4.0526061  51.2187670  17.1763424   4.4895981
  50.7326380  19.0853114  10.5820301  51.1165759  19.6540013  10.0425076
  50.6685521  18.3602625  10.1026117  50.7799807  19.0628578  10.4314163
  54.2007810   9.2342802  16.0918062  54.7463770   9.9127889  16.1512032
  54.1424686   9.0930263  15.2319644  54.2723724   9.3134804  15.9730123
  47.3181885  16.7231868  11.4786415  47.4192248  15.9132222  11.7883542
  46.7223630  16.6288815  10.8486093  47.2454424  16.5896896  11.4312653
  55.9772879  10.6627409   6.9651790  55.8612405  11.4135095   7.3943928
  56.7728765  10.4051363   7.2147877  56.0777468  10.7362256   7.0655882
  47.1582624  21.6409457  12.8801271  47.8020080  22.0822621  13.2697429
  47.4838880  20.8362884  12.7931529  47.3014453  21.5874652  12.9246748
  40.5146929  12.7452155  11.1038748  40.2797114  11.9119807  10.9971017
  40.6532570  13.0256821  10.2899949  40.5002592  12.6635658  10.9681103
  42.8137017   4.9137885  14.0023056  42.1942048   4.3230533  13.8333071
  42.7120880   5.5049321  13.3687379  42.7074692   4.9141968  13.8828046
  47.8603204  14.6521432   8.2521132  48.1819045  15.1926640   7.6482440
  48.5075301  14.0818204   8.3843422  48.0029259  14.6480607   8.1828168
  49.9104912   6.6537427   8.3355519  50.6085077   6.8325555   8.8276982
  50.2257245   6.1307767   7.7125908  50.0600249   6.6031199   8.3157529
  42.5406150   8.4590167  16.2466625  42.4164846   9.0452613  16.8816444
  43.1924434   7.9650363  16.5478900  42.6179799   8.4728972  16.3852554
  50.0992848  13.0407872   8.3235311  50.5386483  12.4324973   8.7690083
  49.9497510  12.6615246   7.5520776  50.1414313  12.8946343   8.2754478
  47.5664491  11.6351884  15.5254136  48.2113493  11.1424327  15.2065085
  47.8066268  11.7776671  16.3520214  47.6975076  11.5829326  15.6003669
  50.1050582  14.4806790  15.1761029  50.3873825  13.6858196  14.9547784
  50.8336742  14.9587377  15.1966090  50.2540146  14.4341387  15.1464044
  48.0831776   2.0229824  12.4176794  47.7535106   2.4740967  11.7480492
  47.4076778   1.9445987  12.9649800  47.9342212   2.0780959  12.4000017
  53.7002184  11.3935054   5.2766080  53.6153479  12.2496020   5.4215649
  54.1886567  11.1179378   5.9448239  53.7591081  11.4792375   5.3968161
  54.6320617   8.0119848   6.7763815  54.1032089   8.2279481   7.4361121
  55.1545637   8.7055986   6.6964784  54.6309070   8.1462985   6.8619414
  60.0868670  13.5866152  12.1496859  59.2566373  13.7976796  12.3130276
  60.0377923  12.7603207  11.8739143  59.9575406  13.4955758  12.1334225
  42.0764254  17.6237826  12.3794954  41.5931832  18.3488315  12.3554538
  42.8887572  17.9213956  12.4905112  42.1255002  17.7740179  12.3922234
  48.1478408  16.4170006  14.9844769  47.6305350  16.0577421  14.3806077
  48.8452799  15.8932181  14.9950835  48.1743989  16.2867694  14.8975028
  51.8042000  16.8664820  20.9460942  51.8925346  16.6790961  21.7939152
  52.2331712  16.2202250  20.5465789  51.8804102  16.7427828  21.0132693
  49.3712460  16.1495980  19.9278604  48.8083294  15.7368590  20.4518265
  50.1333483  16.0748886  20.3471747  49.4006908  16.0773381  20.0671604
  44.9308451  18.1394002  12.5315234  45.6329030  17.6245991  12.5887991
  44.8505934  18.4668153  13.3362109  45.0232212  18.1108228  12.6588026
  59.5822629   6.2336553  15.9447281  58.7451050   6.3038740  16.1794875
  59.5510860   6.2361048  15.0721583  59.4540911   6.2446780  15.8506829
  45.9787358   8.3769588  21.6595649  46.1507861   8.2675483  22.5080931
  46.5156715   9.0223994  21.4226842  46.0832362   8.4561590  21.7500746
  44.2559227  14.3300354  12.0400842  45.0948126  14.5623286  12.0874604
  44.2870996  13.4604665  11.9707878  44.3840944  14.2357300  12.0365487
  44.8811930  14.7501229  16.3414148  45.4210154  14.6072360  17.0117520
  44.1981876  15.1497980  16.7098174  44.8604083  14.7880900  16.4948570
  54.3052814  10.4292229  11.5359172  55.0610329  10.8623744  11.5748081
  54.4115139   9.7796999  12.1093808  54.4322985  10.3969713  11.6257198
  57.3432986  14.2565507  12.2861575  56.9068217  14.2602249  13.0420547
  57.0095901  14.9371006  11.8541153  57.2295605  14.3577962  12.3342408
  51.9162059  16.2973839  23.6104726  52.7002476  16.4104687  23.9760468
  51.7158654  15.4714977  23.8063411  52.0028085  16.1920559  23.6939112
  40.2849075  10.9701520  16.4948569  40.0187490  10.1540636  16.6539560
  40.2987639  11.0154675  15.6244085  40.2473797  10.8558424  16.3902051
  45.0347681   4.5079898  19.1415577  44.3419478   4.0376878  19.3876309
  45.6508008   4.2818202  19.7157284  45.0232211   4.4047030  19.2624730
  52.0732452  18.2083941  17.2571181  51.2747698  17.9683442  17.5145050
  52.5218464  18.2598334  18.0038229  52.0207064  18.1806333  17.4056105
  60.4777332  10.9746426  11.1781212  61.1393766  10.4137095  11.0777121
  59.8368744  10.4798457  11.5033904  60.4806199  10.8182836  11.2113553
  51.3654139  14.2716558   3.4862136  51.7805288  13.9401582   2.7946631
  50.5346069  14.0385460   3.3582272  51.3042148  14.1887814   3.3652983
  40.6942488  11.7560299  13.7760314  40.5118061  11.7307185  12.9232606
  41.4292157  12.2259237  13.8149222  40.7756552  11.8221661  13.6558232
  56.7642162  11.9911809  10.9193201  56.9997752  12.1357008  10.0920052
  56.9131726  12.7554217  11.3124715  56.8207966  12.1250863  10.8556805
  43.7588240   8.4745302  20.2842422  44.4828212   8.4598332  20.7707317
  43.8604376   9.1840657  19.7864391  43.8806449   8.5770005  20.2821209
  58.5932619  10.8313475   8.7562805  58.9240836  11.3641115   8.1502900
  59.1665707  10.8852363   9.4124756  58.7266298  10.9183044   8.7640587
  51.1333189  11.9544386  25.1491369  50.3406170  12.2687898  25.3343989
  51.2482116  12.1695855  24.3112154  51.0328600  12.0328223  25.0529704
  53.8064508   8.6778378   9.4386385  53.9011363   9.4167672   9.8926011
  53.1823352   8.2495853   9.8720950  53.7273538   8.7239698   9.5694533
  52.0616982  11.8564590  20.0876666  52.6355844  11.2191834  20.2425230
  51.9831786  11.8568673  19.2186324  52.1350217  11.7629702  19.9823077
  40.6613399   8.6353800  13.9259380  41.2386901   8.4990250  14.5651626
  39.9627460   8.1789584  14.1804965  40.6434420   8.5476066  14.0581670
  47.4180701  10.2887855  12.1397863  47.1599945   9.4559590  12.1129163
  47.4729184  10.5145468  11.2990364  47.3880479  10.1985627  12.0118000
  46.3915413   7.8425618  12.6262758  45.8165004   8.0017786  13.2626719
  46.0151089   7.2061027  12.1631209  46.2518225   7.7723431  12.6517317
  50.0588702   6.3148967  17.4855137  49.6703134   5.8903185  16.8307328
  49.3943400   6.5631117  17.9932163  49.9035629   6.2887688  17.4643005
  51.1627640  10.5447572   5.6831944  51.9768279  10.8362464   5.5714715
  51.0986781   9.8907434   5.1090237  51.2730379  10.4912766   5.5820781
  57.3837130  13.2273568  20.0961519  57.1475767  12.3961633  19.9773580
  58.0280359  13.1759175  20.6816363  57.4431801  13.0971256  20.1647413
  47.0335548  14.0169089  10.8104256  47.6709495  13.7780837  11.3556049
  47.4590620  14.2206248  10.0757416  47.1911714  14.0120099  10.7821413
  41.7248190  16.2557426  14.6938559  41.7652336  16.5272277  13.8658339
  42.2842715  16.7799334  15.1096347  41.8131536  16.3733181  14.6330448
  47.8406904   2.5177794  24.8641729  47.5260345   3.2877357  24.6011292
  47.5196836   1.9548050  24.2793956  47.7465823   2.5488063  24.7383079
  58.4073551  13.0118016  16.1589814  58.1019368  13.7446073  16.5203129
  57.6879766  12.6055946  15.8782600  58.2560893  13.0599749  16.1702951
  49.4157020  14.4941512  12.4898042  49.4896028  14.3316684  13.3439892
  50.2326526  14.6831701  12.2458524  49.5473379  14.4978254  12.5796068
  64.1075343   9.6511017  15.4858158  64.0399843   9.6706976  14.6160745
  64.0931005  10.4941344  15.7113829  64.0954099   9.7784752  15.3910635
  43.1762777  14.8399374   9.5192485  42.3500894  15.0861112   9.3926764
  43.2374768  14.7611455  10.3854544  43.0636944  14.8644323   9.6281430
  47.9561606  17.4576255   7.2211515  48.2459904  17.0665236   6.4970742
  48.6865087  17.6392960   7.6616791  48.1068490  17.4270069   7.1794322
  61.8933960   8.4255403  13.7604752  62.4441882   7.7923472  14.0001844
  61.8778075   8.9570796  14.4520257  61.9719156   8.4104352  13.8983611
  48.5456351  12.2594001  18.3064646  48.0468045  12.9709768  18.3849534
  49.3556575  12.5794667  18.2682808  48.5912458  12.4120849  18.3121214
  45.8967521  19.4343637  10.2871665  45.6767817  19.1440992  11.0798332
  45.6762043  18.7758592   9.7589577  45.8315116  19.2943346  10.3260574
  44.8084469  11.5216954  12.5527367  44.5197717  10.8954425  13.0873094
  45.6767817  11.4637241  12.6192047  44.8944720  11.4204498  12.6418321
  55.5962366   6.6651737  12.8709349  55.2527132   5.9442072  13.2216598
  55.6955409   6.4565588  12.0287707  55.5604409   6.5275940  12.7981029
  48.0635477  20.8073027   9.0702357  48.7159535  20.2749469   9.2993384
  47.3661086  20.4541679   9.4570231  48.0566195  20.6762550   9.1614525
  45.0116742  13.1612205   8.4769732  45.7662710  13.5425244   8.6905194
  44.4187355  13.6123348   8.9316428  45.0353455  13.2841032   8.5752610
  56.0575395  13.1277441   8.4133337  56.6233428  13.7870651   8.3291880
  55.4103299  13.4727139   8.8849739  56.0454152  13.2759382   8.4706093
  47.4723409   5.1175045  23.6026944  46.6623185   5.4232825  23.4916786
  47.9498096   5.8380627  23.7179528  47.4226888   5.2689646  23.6034015
  46.3314969  14.3320766  13.8509847  45.8095722  14.4721058  14.5361712
  46.7188989  13.5731430  14.0411965  46.3118669  14.2406290  13.9810924
  52.5281973  16.0716225   7.8370416  52.2868649  15.3384086   7.4297481
  52.7083306  16.6203082   7.1836749  52.5189597  16.0438616   7.6800639
  47.7581294  11.3624785   9.2491338  47.5624077  11.9699520   8.6551641
  47.9815640  10.6692729   8.7683012  47.7615935  11.3502311   9.0907419
  46.1559824   8.2479523   9.3672207  46.8782476   8.4120681   8.9076013
  45.6767817   8.9689188   9.2611546  46.1923555   8.3777753   9.2837821
  54.1153332   4.5843322  14.7468891  53.2764432   4.6104601  14.5107155
  54.1857699   5.2314057  15.3274238  54.0021725   4.6839448  14.7978008
  43.8067441  10.6537595  18.4726346  44.3188538  10.9321849  17.8235106
  43.5203783  11.3926889  18.8389159  43.8402304  10.8039949  18.4316224
  57.9910856   9.7911309  12.0330133  57.9044830   9.9466735  12.8864912
  57.5361335  10.4349384  11.6589538  57.9114112   9.9087064  12.1037240
  47.3251166   2.7463984  18.5327388  47.1334363   2.7619118  19.3826812
  48.1749762   2.9427658  18.5094043  47.4226888   2.7778335  18.6550683
  41.7098079   5.2754965  16.5111204  41.5683571   4.4238906  16.6355712
  41.9938643   5.3183626  15.6873410  41.7305925   5.1554715  16.4078829
  51.8636672   7.1122056  10.6555693  51.6171386   7.0317807  11.4892482
  52.1921795   6.3275524  10.4618220  51.8757915   6.9848321  10.7503216
  55.7584720  13.8205415  14.4442474  55.6199080  14.5186461  14.9491216
  54.9784718  13.6654071  14.0878656  55.6227947  13.9005582  14.4668748
  54.0962806  10.1201790  20.6964856  54.0910844   9.2481607  20.7007282
  54.8023799  10.3189960  20.2234311  54.2007810  10.0205665  20.6271891
  47.8233699   9.8478774  20.0678676  47.9677075  10.4279982  19.4321786
  48.1709347  10.2255071  20.7728530  47.8961160   9.9899478  20.0777671
  49.9953616   9.0468943  17.8503807  49.2476930   9.2399957  17.4452085
  50.1495141   8.2214162  17.6127929  49.9076044   8.9534054  17.7549213
  46.8961454  18.0381546  16.9339703  47.0451018  17.4784462  16.2813107
  47.6761456  18.1173548  17.3172221  47.0335547  17.9667112  16.8936652
  49.4214755  18.2096189  18.2124193  49.3458426  17.5405000  18.7674982
  49.3504614  18.9113977  18.7264860  49.3995361  18.2141096  18.3701042
  50.2355393   2.9419493  18.7399211  50.6928007   3.6743468  18.8672003
  50.3111722   2.5185959  19.4986467  50.3146363   2.9876731  18.8700288
  42.4788384   3.1885313  19.8288655  41.9430574   2.5765671  20.1449422
  42.5406149   3.7633449  20.4822321  42.4084017   3.1832241  19.9724082
  50.0785001  16.7297188   9.0447799  50.8434893  16.4606832   8.7230464
  49.9763091  16.2447198   9.7617862  50.1766497  16.6186752   9.1027627
  48.1137771   4.9321597  15.5841035  47.3233846   4.7513057  15.9058371
  48.5098394   4.1548550  15.5671330  48.0554647   4.7909058  15.6293584
  53.4981457  12.5664027  13.3100481  52.8226459  12.3349260  13.8113868
  53.5073834  11.9585210  12.6842586  53.3999962  12.4422953  13.2916633
  50.6275601   7.4081856  20.0664534  50.5634743   8.2691813  19.9384671
  50.7672789   7.0913850  19.2660085  50.6391072   7.4882023  19.9292747
  55.4998192  15.4229160   5.5410659  55.5818029  16.2296146   5.2172110
  55.9847934  15.4425119   6.2651433  55.5835350  15.5449822   5.5997558
  49.3094695  10.1013996  14.2080737  48.8856944  10.3018495  13.4719755
  49.1339551   9.2542844  14.3205037  49.2205576  10.0062777  14.1154427
  48.8106389  21.6164509  16.6702194  49.3002319  20.9175298  16.4877859
  48.2390621  21.3188379  17.2578252  48.7990919  21.4690732  16.7303235
  44.5977140  10.5966047   9.6408710  44.7541759  10.5312850  10.4964702
  44.9377733  11.3714600   9.4287389  44.6710375  10.7015245   9.7363304
  51.1356285   9.9723931   8.5102073  51.6771830   9.4694312   8.9740693
  51.4502844   9.9189125   7.6991558  51.2620682   9.8903352   8.4585885
  55.0073392  14.1826578  25.6228985  55.8208258  13.9111727  25.7834117
  54.8468359  13.8834118  24.8189181  55.1043341  14.0981504  25.5274391
  49.3042735  15.3641282   5.7942101  49.3735555  14.5055821   5.9335101
  50.0831190  15.5813163   5.4661125  49.4295585  15.2694146   5.7659258
  52.2845554   4.8660235  18.5624373  52.4987524   4.2271149  18.0087727
  51.6679453   5.3106059  18.1332235  52.2250884   4.8370379  18.4174804
  53.6950222  17.7878984  10.0078594  53.3030014  17.4845699   9.2901460
  53.8503294  18.6248074   9.8183548  53.6603812  17.8662820   9.8735091
  41.1711402   7.7800998   9.9569477  41.5510367   8.1985543   9.2929744
  40.5966767   8.3614453  10.2638320  41.1422727   7.9278856   9.9046218
  54.4484642   6.4749300  19.5007680  53.6361324   6.1675191  19.5820853
  54.9074577   5.9948301  20.0650392  54.3965027   6.3585793  19.5962274
  53.8589897  14.3528972   9.9484625  53.5004552  14.5243615  10.7248657
  53.3728608  14.8142178   9.3912623  53.7348594  14.4467943   9.9809894
  51.5438150   7.8809372  24.2836383  52.0137781   8.5051488  24.6704257
  51.5900030   7.2126347  24.8429597  51.6206026   7.8744052  24.4236454
  55.0194636  15.2432868  20.8951825  55.6574357  14.7493064  20.5614282
  54.3768728  15.1710269  20.3104052  55.0188863  15.1591877  20.7594180
  56.7451636   7.0922014  15.4617741  56.3179244   7.0048363  14.7065841
  56.1077689   7.1999790  16.0472585  56.5881244   7.0954674  15.4363183
  55.0748893  15.9352677  17.5357182  55.8641271  15.5841741  17.6559264
  55.2492491  16.7489065  17.2733816  55.2169175  16.0038534  17.5145050
  44.8142203   9.3461402  14.5884971  43.9730210   9.2465277  14.7963865
  45.0232211  10.1156883  14.9399292  44.7206896   9.4453446  14.6712286
  42.2917770   6.9680939  12.4169722  41.8974468   7.0423951  11.6419831
  41.7357887   7.3538886  12.9678084  42.1520583   7.0362714  12.3837382
  48.6258868   7.2742802  13.8382569  48.3222006   6.7198790  14.4392976
  47.9238289   7.4535012  13.3510603  48.4775078   7.2187584  13.8552274
  46.6877219  14.4892522  18.5454666  46.5797574  14.4994584  19.4116724
  46.8973001  15.3147303  18.3559620  46.7027330  14.6133597  18.6458758
  45.1011634   2.9007162  16.6744622  45.5613116   2.9746092  17.4119745
  45.1467741   3.6988416  16.3244443  45.1762189   3.0301310  16.7317378
  46.7494984   3.5673857  21.2416649  46.3580549   2.9207204  21.6772426
  46.9180846   4.1585293  21.8610904  46.7165894   3.5588125  21.3979355
  60.8241433  11.5710934  17.0053882  60.8824556  12.0197583  17.7513859
  60.1907900  11.9809747  16.5683962  60.7392728  11.6984669  17.0506431
  54.4640527  17.1914476  13.4408628  54.2660216  17.6805291  12.7464840
  53.8428239  17.3955718  14.0192762  54.3428092  17.2931015  13.4231852
  48.5248506   8.9599373   7.7818873  49.2690551   9.3473649   8.0201823
  48.6709202   8.1156798   7.9459361  48.6559091   8.8929846   7.8412842
  51.5126382   4.5324846  13.6812792  51.0386336   4.0066608  14.1918103
  51.8844517   3.9854319  13.1127654  51.4976271   4.3740843  13.6727939
  41.8899412   6.5296353  19.0496338  42.7525025   6.4292062  18.9633668
  41.5591195   5.9491062  18.4881910  41.9684608   6.4287980  18.9541744
  57.7763112   9.5927222  15.0919573  57.5361335   8.7533637  15.0961999
  58.2555119   9.6727389  15.8160346  57.8115296   9.4808622  15.1994375
  59.7768299   6.3728679  13.0448832  59.5378069   6.3324513  12.2069616
  59.9402201   7.2199831  13.1714553  59.7658603   6.4920764  12.9402314
  56.3814329  10.7578629  18.9753877  57.1048528  10.3051155  18.7964897
  56.1164292  11.0383294  18.1926205  56.4495603  10.7329597  18.8332592
  45.2501198   5.3538802  15.7106756  44.6254268   5.3657194  15.1032709
  44.9146793   5.8298977  16.3597996  45.1086690   5.4257319  15.7163325
  41.9626873  13.4139262  17.1510520  41.4326798  12.7231701  17.2005495
  42.2351967  13.4049448  16.3223229  41.9251596  13.3106394  17.0357936
  52.9946964  13.9964965   5.8748203  53.7181163  14.4623078   5.7312776
  52.5547555  14.0638574   5.1245800  53.0362656  14.0748801   5.7432984
  52.1633119  10.8562507  17.1248892  51.5490112  10.3120557  17.4197527
  52.6800404  10.3426743  16.6454708  52.1488781  10.6998916  17.0973120
  51.4029416  11.9266777  14.8593191  50.9757024  11.3016495  14.4258626
  51.3954360  11.6441699  15.6852198  51.3388557  11.7919557  14.9173018
  44.5191943   6.9631950  17.9281625  44.6785430   6.2075274  18.3333346
  44.3384837   7.5122889  18.5822362  44.5157302   6.9325764  18.0844330
  49.7315126   2.8035531  15.0735725  49.7557613   2.2695644  14.3848505
  49.9826599   2.2952840  15.7361315  49.7725044   2.6496435  15.0700369
  37.2422716  10.0867026  14.5078869  37.1366165  10.0413871  13.6430953
  36.4922936  10.4320807  14.7893153  37.1158318  10.1307935  14.4216198
  46.0116448   1.5306350  14.4541469  46.0514820   2.0315556  15.1676176
  45.1866113   1.6216743  14.1847392  45.8955974   1.6188166  14.5192007
  48.1946061  11.0967090  22.5561763  47.3441691  11.2338804  22.6919408
  48.3574189  10.3630868  23.0009465  48.0929924  11.0081191  22.6417363
  47.4330811   8.0466859  16.7515368  46.6022741   8.2140677  16.5450616
  47.3782329   7.6702810  17.5364253  47.3020226   8.0156591  16.8363896
  45.2414595   1.5375752  22.3871779  45.8667298   0.9937885  22.6601211
  44.7865075   1.0570670  21.8179569  45.2662855   1.3865234  22.3433372
  58.8149643   9.7205039  17.4784427  59.4067484  10.3602290  17.5102625
  59.2508638   9.0228076  17.7676493  58.9668075   9.7123390  17.5265259
  50.6443033  14.1422412  18.1042320  50.1368124  14.6958259  18.5482951
  50.3469679  14.2030702  17.2861095  50.5247918  14.2328723  18.0490777
  53.2550814  18.0585669   6.0346264  52.5380123  17.8846532   5.5693501
  53.9057551  17.8238242   5.5021750  53.2452664  17.9981462   5.8875482
  55.8398785   6.9350258   9.7787569  55.1689975   7.4779960   9.6500635
  56.5338535   7.4045113   9.5369264  55.8427652   7.0848529   9.7243097
  49.8885518  19.0746970  15.0099327  49.6651173  18.3165799  15.3783354
  49.3995362  19.1044991  14.2879767  49.7828967  18.9669195  14.9576068
  44.7010597   6.0213661  10.7460789  43.9822586   6.4377794  11.0133652
  45.0722959   6.5867900  10.1952427  44.6502529   6.1662943  10.7043596
  54.0010178   6.6541510  16.6362785  53.9808105   6.4724805  17.4897563
  54.0489379   7.5253529  16.6122368  54.0044819   6.7558049  16.7586079
  51.9456508  13.2428702  22.5611261  51.9052363  12.5978379  21.9756417
  52.7579826  13.1865320  22.8736673  52.0599661  13.1387669  22.5208210
  48.5363975  19.2947428  12.4636412  48.1224374  18.6321558  12.0740254
  49.2211350  19.4425287  11.9432106  48.5762347  19.2188086  12.3292909
  51.9029270  18.4537513  13.2160029  51.5045553  18.5639784  12.4480849
  51.2880489  18.6619580  13.7986588  51.7528159  18.5011081  13.1891328
  53.3514988   5.0191166   9.5135919  53.1228681   5.0423867   8.6714277
  53.6113064   4.1948633   9.6330929  53.3561176   4.9007246   9.4061116
  47.6334217   6.8725639  19.1161019  47.1213120   6.2646822  19.4746050
  47.4613713   7.5882231  19.5834994  47.5323854   6.8888938  19.2377242
  42.4799931   5.3163214  21.7663381  42.3102522   5.9764589  21.2211587
  42.0365881   5.5269775  22.4875870  42.3899265   5.4449196  21.7925010
  46.4059751   3.5567712  10.8090114  46.8817117   3.9184792  10.1740295
  45.9048350   4.2124180  11.0890257  46.4025110   3.7061901  10.7566855
  51.5103287   4.7949883  21.5563274  52.0674717   4.5663693  20.9241740
  51.1864352   5.5555549  21.2798487  51.5449697   4.8733720  21.4219771
  39.3801996   8.2210080  17.0251870  38.8328715   7.5510725  17.1432739
  40.1694374   7.8539928  17.0895338  39.4154179   8.0675066  17.0520571
  49.2286404   7.8817537  22.5215281  49.9797731   8.1969214  22.8354836
  49.4208981   7.6796708  21.6949203  49.3677818   7.8984919  22.4458677
  38.1388965   7.4330887  14.1797893  37.9610726   6.9807496  14.9052809
  37.8507987   8.2357049  14.3636371  38.0701918   7.4853445  14.3141396
  53.8012546   8.6888605  13.4175284  54.2966212   7.9711600  13.3779304
  52.9912322   8.3859403  13.3029771  53.7556440   8.5386251  13.3949010
  49.2471158  12.5386418   5.5672288  48.4382481  12.2153092   5.5205598
  49.7546067  11.8319640   5.5000537  49.2020825  12.3867734   5.5502583
  39.8761435   9.9658611  11.2919652  39.0106955   9.9544302  11.1802424
  39.9760251   9.7788834  12.1390792  39.7635602   9.9364672  11.4008597
  55.8664365  11.4392292  16.1052412  56.2919437  10.9166714  15.5522838
  55.5021285  12.0373130  15.5841035  55.8750968  11.4502519  15.9461422
  45.5018445  19.7356510  14.8649758  45.8165004  20.5492898  14.8727540
  45.9111858  19.3506729  15.5331917  45.6086543  19.7985212  14.9653850
  52.4542965  15.1526557  12.4353570  52.9254143  15.8666819  12.6043555
  52.7903143  14.5525307  12.9713439  52.5738080  15.1698021  12.5385946
  54.5419949  16.7627870  24.6145642  54.6516915  15.9736431  24.9702389
  54.8710846  16.6733806  23.8119980  54.6072355  16.6333723  24.5488033
  53.0916911  14.9444491  19.1981263  52.5437857  14.3202374  18.9301328
  53.5529940  15.1338763  18.4825342  53.0784120  14.8803541  19.0531694
  42.8431465  13.6829618  14.5128366  43.4476323  13.6425452  13.8842187
  42.6358778  14.5300770  14.5432422  42.9020362  13.8017621  14.4244483
  52.6575237  15.9495563  15.7290604  53.4773611  15.8058529  15.9906899
  52.3769315  16.5741762  16.2707042  52.7371981  16.0205915  15.8478543
  38.0782747  12.6664236  14.3827290  37.9807025  11.8560507  14.6917346
  38.8611617  12.6456029  13.9973558  38.1798884  12.5431326  14.3714152
  62.3288573  22.6936066  13.4486411  61.4726468  22.8544564  13.4995527
  62.3756226  21.8228130  13.4691472  62.2087684  22.5886868  13.4592477
  56.7129712  32.2298784   9.2123642  55.9612612  31.8514322   8.9839687
  57.1615724  32.2617218   8.4642452  56.6679379  32.1784391   9.0681144
  65.6382289  28.9622592  23.0546867  66.3449056  28.4674623  23.1833801
  65.8270225  29.4031673  22.3249525  65.7710195  28.9540942  22.9655912
  62.1654672  32.6524154   4.6409189  61.8306041  33.3301075   4.2053411
  62.6781543  32.2629465   4.0526061  62.1920253  32.6948732   4.4895981
  61.7058963  34.6038422  10.5820301  62.0898343  35.1725321  10.0425076
  61.6418105  33.8787933  10.1026117  61.7532391  34.5813886  10.4314163
  65.1740394  24.7528110  16.0918062  65.7196354  25.4313197  16.1512032
  65.1157270  24.6115571  15.2319644  65.2456308  24.8320112  15.9730123
  58.2914468  32.2417176  11.4786415  58.3924831  31.4317530  11.7883542
  57.6956214  32.1474123  10.8486093  58.2187007  32.1082204  11.4312653
  66.9505462  26.1812717   6.9651790  66.8344988  26.9320403   7.3943928
  67.7461349  25.9236670   7.2147877  67.0510052  26.2547564   7.0655882
  58.1315208  37.1594765  12.8801271  58.7752663  37.6007929  13.2697429
  58.4571464  36.3548192  12.7931529  58.2747037  37.1059960  12.9246748
  51.4879513  28.2637463  11.1038748  51.2529697  27.4305115  10.9971017
  51.6265153  28.5442128  10.2899949  51.4735175  28.1820966  10.9681103
  53.7869600  20.4323193  14.0023056  53.1674632  19.8415841  13.8333071
  53.6853464  21.0234629  13.3687379  53.6807276  20.4327276  13.8828046
  58.8335788  30.1706740   8.2521132  59.1551629  30.7111948   7.6482440
  59.4807884  29.6003512   8.3843422  58.9761843  30.1665915   8.1828168
  60.8837496  22.1722735   8.3355519  61.5817661  22.3510863   8.8276982
  61.1989828  21.6493075   7.7125908  61.0332833  22.1216507   8.3157529
  53.5138733  23.9775475  16.2466625  53.3897430  24.5637921  16.8816444
  54.1657018  23.4835671  16.5478900  53.5912383  23.9914280  16.3852554
  61.0725431  28.5593180   8.3235311  61.5119067  27.9510281   8.7690083
  60.9230094  28.1800554   7.5520776  61.1146897  28.4131651   8.2754478
  58.5397074  27.1537192  15.5254136  59.1846077  26.6609635  15.2065085
  58.7798851  27.2961979  16.3520214  58.6707659  27.1014634  15.6003669
  61.0783166  29.9992098  15.1761029  61.3606408  29.2043504  14.9547784
  61.8069326  30.4772685  15.1966090  61.2272729  29.9526695  15.1464044
  59.0564359  17.5415132  12.4176794  58.7267689  17.9926275  11.7480492
  58.3809361  17.4631295  12.9649800  58.9074796  17.5966267  12.4000017
  64.6734768  26.9120361   5.2766080  64.5886063  27.7681328   5.4215649
  65.1619151  26.6364686   5.9448239  64.7323665  26.9977683   5.3968161
  65.6053201  23.5305156   6.7763815  65.0764672  23.7464789   7.4361121
  66.1278221  24.2241294   6.6964784  65.6041654  23.6648293   6.8619414
  71.0601254  29.1051460  12.1496859  70.2298957  29.3162104  12.3130276
  71.0110506  28.2788515  11.8739143  70.9307989  29.0141066  12.1334225
  57.4952809  27.4268372   5.5771283  56.9110024  27.9318404   5.9837147
  57.0922904  27.2010759   4.8367875  57.3492113  27.4676621   5.5276308
  53.0496837  33.1423134  12.3794954  52.5664416  33.8673623  12.3554538
  53.8620156  33.4399264  12.4905112  53.0987585  33.2925487  12.3922234
  59.1210991  31.9355314  14.9844769  58.6037933  31.5762729  14.3806077
  59.8185383  31.4117489  14.9950835  59.1476573  31.8053002  14.8975028
  62.7774583  32.3850128  20.9460942  62.8657929  32.1976269  21.7939152
  63.2064296  31.7387558  20.5465789  62.8536686  32.2613136  21.0132693
  60.3445043  31.6681288  19.9278604  59.7815878  31.2553898  20.4518265
  61.1066067  31.5934194  20.3471747  60.3739492  31.5958689  20.0671604
  57.2620313  15.6027420   7.8999741  58.0166281  15.9705737   7.6616792
  57.0847848  15.9766975   8.6678921  57.3474792  15.7125608   7.9784630
  55.9041035  33.6579309  12.5315234  56.6061614  33.1431299  12.5887991
  55.8238518  33.9853461  13.3362109  55.9964795  33.6293536  12.6588026
  70.5555212  21.7521861  15.9447281  69.7183633  21.8224048  16.1794875
  70.5243443  21.7546356  15.0721583  70.4273495  21.7632088  15.8506829
  56.9519941  23.8954896  21.6595649  57.1240445  23.7860791  22.5080931
  57.4889299  24.5409302  21.4226842  57.0564945  23.9746898  21.7500746
  55.6177378  18.0097739   4.5977854  55.4352951  18.2269620   3.7718847
  56.4802991  18.1236752   4.6536469  55.7181968  18.0587637   4.4832341
  55.2291810  29.8485661  12.0400842  56.0680709  30.0808594  12.0874604
  55.2603579  28.9789973  11.9707878  55.3573528  29.7542608  12.0365487
  55.8544513  30.2686537  16.3414148  56.3942738  30.1257668  17.0117520
  55.1714459  30.6683287  16.7098174  55.8336667  30.3066208  16.4948570
  65.2785398  25.9477537  11.5359172  66.0342913  26.3809052  11.5748081
  65.3847722  25.2982307  12.1093808  65.4055569  25.9155021  11.6257198
  68.3165569  29.7750815  12.2861575  67.8800801  29.7787557  13.0420547
  67.9828485  30.4556314  11.8541153  68.2028189  29.8763270  12.3342408
  62.8894643  31.8159147  23.6104726  63.6735059  31.9289995  23.9760468
  62.6891237  30.9900284  23.8063411  62.9760668  31.7105867  23.6939112
  51.2581658  26.4886827  16.4948569  50.9920073  25.6725944  16.6539560
  51.2720222  26.5339983  15.6244085  51.2206380  26.3743732  16.3902051
  68.2363052  16.8164642  14.5291003  68.8788960  16.8862747  15.1152918
  68.4886073  16.1493865  14.0270545  68.3685184  16.7290991  14.5418282
  55.1639405  21.2871912   3.1100327  54.4497582  21.0010091   3.5222760
  55.6483374  21.6268538   3.7506715  55.1298768  21.2953562   3.2655962
  56.0080265  20.0265206  19.1415577  55.3152061  19.5562185  19.3876309
  56.6240592  19.8003510  19.7157284  55.9964794  19.9232338  19.2624730
  63.0465036  33.7269249  17.2571181  62.2480282  33.4868749  17.5145050
  63.4951048  33.7783642  18.0038229  62.9939647  33.6991641  17.4056105
  71.4509915  26.4931734  11.1781212  72.1126349  25.9322403  11.0777121
  70.8101327  25.9983765  11.5033904  71.4538783  26.3368143  11.2113553
  62.3386723  29.7901866   3.4862136  62.7537872  29.4586890   2.7946631
  61.5078653  29.5570768   3.3582272  62.2774732  29.7073122   3.3652983
  51.6675072  27.2745607  13.7760314  51.4850645  27.2492493  12.9232606
  52.4024741  27.7444545  13.8149222  51.7489136  27.3406969  13.6558232
  67.7374746  27.5097117  10.9193201  67.9730335  27.6542316  10.0920052
  67.8864310  28.2739525  11.3124715  67.7940549  27.6436171  10.8556805
  54.7320823  23.9930610  20.2842422  55.4560796  23.9783640  20.7707317
  54.8336960  24.7025965  19.7864391  54.8539033  24.0955313  20.2821209
  69.5665203  26.3498783   8.7562805  69.8973420  26.8826423   8.1502900
  70.1398291  26.4037671   9.4124756  69.6998882  26.4368352   8.7640587
  62.1065773  27.4729694  25.1491369  61.3138754  27.7873206  25.3343989
  62.2214700  27.6881163  24.3112154  62.0061183  27.5513531  25.0529704
  64.7797092  24.1963685   9.4386385  64.8743946  24.9352980   9.8926011
  64.1555935  23.7681161   9.8720950  64.7006122  24.2425006   9.5694533
  63.0349566  27.3749898  20.0876666  63.6088427  26.7377142  20.2425230
  62.9564369  27.3753980  19.2186324  63.1082801  27.2815009  19.9823077
  51.6345982  24.1539108  13.9259380  52.2119485  24.0175558  14.5651626
  50.9360044  23.6974892  14.1804965  51.6167004  24.0661374  14.0581670
  58.3913284  25.8073163  12.1397863  58.1332529  24.9744898  12.1129163
  58.4461767  26.0330776  11.2990364  58.3613062  25.7170934  12.0118000
  63.4714334  17.9101614  12.2401956  62.7670661  17.4210799  12.3985875
  63.5199309  17.9224088  11.3690401  63.3744386  17.8391262  12.1341296
  57.3647996  23.3610926  12.6262758  56.7897588  23.5203094  13.2626719
  56.9883673  22.7246335  12.1631209  57.2250809  23.2908739  12.6517317
  61.0321285  21.8334275  17.4855137  60.6435718  21.4088493  16.8307328
  60.3675983  22.0816425  17.9932163  60.8768213  21.8072996  17.4643005
  47.1104815  23.0051000  10.6407199  47.1965067  22.6282869  11.4220729
  47.7380613  22.6311446  10.1627157  47.2161366  22.8936483  10.6852676
  64.8547647  15.5308904  14.9979121  65.2358158  14.8487075  15.3846995
  64.0510931  15.2418506  14.8154785  64.7924108  15.3875952  15.0283177
  62.1360223  26.0632880   5.6831944  62.9500862  26.3547772   5.5714715
  62.0719365  25.4092742   5.1090237  62.2462962  26.0098074   5.5820781
  68.3569714  28.7458876  20.0961519  68.1208351  27.9146940  19.9773580
  69.0012942  28.6944483  20.6816363  68.4164384  28.6156564  20.1647413
  58.0068132  29.5354397  10.8104256  58.6442079  29.2966145  11.3556049
  58.4323203  29.7391556  10.0757416  58.1644298  29.5305407  10.7821413
  52.6980774  31.7742733  14.6938559  52.7384919  32.0457585  13.8658339
  53.2575298  32.2984642  15.1096347  52.7864120  31.8918489  14.6330448
  58.6470947  24.7556687   5.1479145  59.0316099  24.5364393   5.8995690
  58.3982567  25.5819632   5.2780221  58.6673019  24.8454833   5.2780221
  58.8139487  18.0363102  24.8641729  58.4992928  18.8062665  24.6011292
  58.4929420  17.4733358  24.2793956  58.7198406  18.0673371  24.7383079
  69.3806134  28.5303324  16.1589814  69.0751951  29.2631381  16.5203129
  68.6612350  28.1241254  15.8782600  69.2293476  28.5785057  16.1702951
  60.3889604  30.0126820  12.4898042  60.4628612  29.8501991  13.3439892
  61.2059110  30.2017009  12.2458524  60.5205962  30.0163562  12.5796068
  75.0807926  25.1696325  15.4858158  75.0132427  25.1892284  14.6160745
  75.0663589  26.0126652  15.7113829  75.0686683  25.2970060  15.3910635
  54.1495360  30.3584682   9.5192485  53.3233478  30.6046420   9.3926764
  54.2107351  30.2796763  10.3854544  54.0369527  30.3829631   9.6281430
  56.3671384  16.4253623  10.4787926  55.4993809  16.4976223  10.5445535
  56.6546588  17.2275702  10.6675901  56.2811132  16.5547771  10.5162692
  65.4904273  16.5731483  18.8099247  66.2357865  16.3841293  18.3962673
  65.0741577  17.0989721  18.2513104  65.5389247  16.6233628  18.6663821
  58.9294189  32.9761563   7.2211515  59.2192488  32.5850544   6.4970742
  59.6597670  33.1578268   7.6616791  59.0801073  32.9455376   7.1794322
  72.8666544  23.9440711  13.7604752  73.4174465  23.3108780  14.0001844
  72.8510659  24.4756104  14.4520257  72.9451740  23.9289659  13.8983611
  59.5188934  27.7779309  18.3064646  59.0200628  28.4895076  18.3849534
  60.3289159  28.0979975  18.2682808  59.5645041  27.9306157  18.3121214
  56.8700105  34.9528945  10.2871665  56.6500400  34.6626300  11.0798332
  56.6494627  34.2943900   9.7589577  56.8047699  34.8128653  10.3260574
  55.7817052  27.0402262  12.5527367  55.4930301  26.4139733  13.0873094
  56.6500400  26.9822549  12.6192047  55.8677304  26.9389806  12.6418321
  66.5694950  22.1837045  12.8709349  66.2259716  21.4627380  13.2216598
  66.6687992  21.9750896  12.0287707  66.5336993  22.0461248  12.7981029
  59.0368061  36.3258335   9.0702357  59.6892119  35.7934777   9.2993384
  58.3393669  35.9726987   9.4570231  59.0298779  36.1947858   9.1614525
  55.9849325  28.6797513   8.4769732  56.7395293  29.0610552   8.6905194
  55.3919938  29.1308656   8.9316428  56.0086039  28.8026340   8.5752610
  67.0307979  28.6462749   8.4133337  67.5966012  29.3055959   8.3291880
  66.3835882  28.9912447   8.8849739  67.0186735  28.7944690   8.4706093
  58.4455992  20.6360353  23.6026944  57.6355768  20.9418133  23.4916786
  58.9230679  21.3565935  23.7179528  58.3959471  20.7874954  23.6034015
  57.3047552  29.8506074  13.8509847  56.7828306  29.9906366  14.5361712
  57.6921572  29.0916738  14.0411965  57.2851253  29.7591598  13.9810924
  54.2938736  19.9011883   7.9204802  54.0063532  19.5313153   7.1836749
  54.9809204  20.3706738   7.6588507  54.3527633  19.9158852   7.7719878
  63.5014557  31.5901533   7.8370416  63.2601233  30.8569394   7.4297481
  63.6815890  32.1388390   7.1836749  63.4922181  31.5623924   7.6800639
  58.7313878  26.8810093   9.2491338  58.5356660  27.4884828   8.6551641
  58.9548223  26.1878037   8.7683012  58.7348519  26.8687619   9.0907419
  57.1292408  23.7664831   9.3672207  57.8515060  23.9305989   8.9076013
  56.6500400  24.4874496   9.2611546  57.1656138  23.8963061   9.2837821
  65.0885915  20.1028630  14.7468891  64.2497016  20.1289909  14.5107155
  65.1590283  20.7499365  15.3274238  64.9754309  20.2024756  14.7978008
  54.7800024  26.1722903  18.4726346  55.2921121  26.4507157  17.8235106
  54.4936367  26.9112197  18.8389159  54.8134888  26.3225257  18.4316224
  68.9643439  25.3096617  12.0330133  68.8777414  25.4652043  12.8864912
  68.5093919  25.9534692  11.6589538  68.8846696  25.4272372  12.1037240
  51.8666931  20.6793095   8.7690083  51.9683067  21.4819257   9.0971058
  52.6622817  20.4780431   8.4713163  51.9994836  20.7678994   8.7725438
  58.2983750  18.2649292  18.5327388  58.1066947  18.2804426  19.3826812
  59.1482346  18.4612966  18.5094043  58.3959472  18.2963643  18.6550683
  52.6830663  20.7940273  16.5111204  52.5416155  19.9424214  16.6355712
  52.9671226  20.8368934  15.6873410  52.7038509  20.6740023  16.4078829
  62.8369255  22.6307364  10.6555693  62.5903969  22.5503115  11.4892482
  63.1654378  21.8460831  10.4618220  62.8490499  22.5033629  10.7503216
  66.7317304  29.3390723  14.4442474  66.5931663  30.0371769  14.9491216
  65.9517302  29.1839379  14.0878656  66.5960531  29.4190890  14.4668748
  65.0695389  25.6387098  20.6964856  65.0643428  24.7666915  20.7007282
  65.7756383  25.8375267  20.2234311  65.1740393  25.5390972  20.6271891
  58.7966282  25.3664082  20.0678676  58.9409658  25.9465290  19.4321786
  59.1441931  25.7440379  20.7728530  58.8693744  25.5084786  20.0777671
  60.9686200  24.5654251  17.8503807  60.2209514  24.7585265  17.4452085
  61.1227725  23.7399470  17.6127929  60.8808627  24.4719362  17.7549213
  57.8694037  33.5566854  16.9339703  58.0183601  32.9969770  16.2813107
  58.6494040  33.6358856  17.3172221  58.0068131  33.4852419  16.8936652
  60.3947338  33.7281497  18.2124193  60.3191009  33.0590307  18.7674982
  60.3237197  34.4299285  18.7264860  60.3727945  33.7326404  18.3701042
  61.2087977  18.4604801  18.7399211  61.6660591  19.1928776  18.8672003
  61.2844306  18.0371267  19.4986467  61.2878947  18.5062039  18.8700288
  53.4520968  18.7070621  19.8288655  52.9163158  18.0950979  20.1449422
  53.5138733  19.2818757  20.4822321  53.3816601  18.7017549  19.9724082
  61.0517585  32.2482496   9.0447799  61.8167476  31.9792140   8.7230464
  60.9495675  31.7632506   9.7617862  61.1499080  32.1372060   9.1027627
  59.0870355  20.4506905  15.5841035  58.2966430  20.2698365  15.9058371
  59.4830978  19.6733858  15.5671330  59.0287231  20.3094366  15.6293584
  64.4714041  28.0849335  13.3100481  63.7959043  27.8534568  13.8113868
  64.4806417  27.4770518  12.6842586  64.3732546  27.9608261  13.2916633
  61.6008185  22.9267164  20.0664534  61.5367326  23.7877121  19.9384671
  61.7405373  22.6099158  19.2660085  61.6123655  23.0067331  19.9292747
  66.4730776  30.9414468   5.5410659  66.5550613  31.7481454   5.2172110
  66.9580518  30.9610427   6.2651433  66.5567934  31.0635130   5.5997558
  60.2827279  25.6199304  14.2080737  59.8589528  25.8203803  13.4719755
  60.1072134  24.7728152  14.3205037  60.1938160  25.5248085  14.1154427
  59.7838972  37.1349817  16.6702194  60.2734903  36.4360606  16.4877859
  59.2123205  36.8373687  17.2578252  59.7723502  36.9876040  16.7303235
  55.5709724  26.1151355   9.6408710  55.7274343  26.0498158  10.4964702
  55.9110317  26.8899908   9.4287389  55.6442959  26.2200553   9.7363304
  62.1088868  25.4909239   8.5102073  62.6504414  24.9879620   8.9740693
  62.4235428  25.4374433   7.6991558  62.2353266  25.4088660   8.4585885
  65.9805976  29.7011886  25.6228985  66.7940841  29.4297035  25.7834117
  65.8200942  29.4019426  24.8189181  66.0775924  29.6166812  25.5274391
  60.2775318  30.8826590   5.7942101  60.3468139  30.0241129   5.9335101
  61.0563773  31.0998471   5.4661125  60.4028168  30.7879454   5.7659258
  63.2578138  20.3845543  18.5624373  63.4720107  19.7456457  18.0087727
  62.6412037  20.8291367  18.1332235  63.1983467  20.3555687  18.4174804
  64.6682806  33.3064292  10.0078594  64.2762598  33.0031007   9.2901460
  64.8235878  34.1433381   9.8183548  64.6336396  33.3848128   9.8735091
  52.1443985  23.2986306   9.9569477  52.5242950  23.7170851   9.2929744
  51.5699350  23.8799761  10.2638320  52.1155310  23.4464164   9.9046218
  65.4217226  21.9934608  19.5007680  64.6093908  21.6860499  19.5820853
  65.8807160  21.5133609  20.0650392  65.3697611  21.8771101  19.5962274
  64.8322481  29.8714280   9.9484625  64.4737135  30.0428923  10.7248657
  64.3461191  30.3327486   9.3912623  64.7081177  29.9653251   9.9809894
  62.6492867  13.4945479  13.5511716  61.7786424  13.4684200  13.5045025
  62.9033208  13.3222671  12.7337562  62.5586427  13.4655623  13.4231853
  59.6210846  25.5513446   2.4884859  59.9103371  26.3278328   2.7628433
  59.7082645  25.0402177   3.1899358  59.6765102  25.5905364   2.6327357
  62.5170733  23.3994680  24.2836383  62.9870365  24.0236796  24.6704257
  62.5632614  22.7311655  24.8429597  62.5938609  23.3929360  24.4236454
  59.6742007  15.5051707  15.0085186  59.1580496  14.8131899  15.1336765
  59.1135936  16.1722484  14.9547785  59.5148520  15.5014965  15.0191252
  61.7434240  16.0444667  16.8378039  61.3565994  16.0693699  17.6191569
  61.2567178  15.4786346  16.3852556  61.6146749  15.9640418  16.8865943
  65.9927220  30.7618176  20.8951825  66.6306940  30.2678372  20.5614282
  65.3501311  30.6895577  20.3104052  65.9921446  30.6777185  20.7594180
  67.7184220  22.6107322  15.4617741  67.2911828  22.5233671  14.7065841
  67.0810273  22.7185098  16.0472585  67.5613827  22.6139982  15.4363183
  61.4091382  12.9311653  19.1288299  62.0384500  13.4671953  18.8509369
  61.5777245  12.8389012  19.9801865  61.5269177  12.9973015  19.2136827
  61.2105297  17.7182848  21.4014710  62.0378726  17.4467996  21.4573325
  61.2313143  18.5143689  21.7578529  61.3358147  17.7962602  21.4629893
  66.0481477  31.4537985  17.5357182  66.8373855  31.1027049  17.6559264
  66.2225074  32.2674373  17.2733816  66.1901758  31.5223842  17.5145050
  55.7874787  24.8646710  14.5884971  54.9462794  24.7650585  14.7963865
  55.9964795  25.6342191  14.9399292  55.6939479  24.9638754  14.6712286
  53.2650354  22.4866247  12.4169722  52.8707052  22.5609259  11.6419831
  52.7090471  22.8724194  12.9678084  53.1253166  22.5548022  12.3837382
  64.9015301  15.4647541  12.0973601  65.1064894  15.3969849  12.9430598
  64.5741725  16.2706363  12.0294778  64.8830549  15.5733482  12.2133256
  59.5991452  22.7928110  13.8382569  59.2954589  22.2384098  14.4392976
  58.8970873  22.9720319  13.3510603  59.4507662  22.7372892  13.8552274
  58.6557549  20.1028629   8.4027270  58.9317283  19.3847542   7.9904838
  59.2556218  20.7013549   8.1948377  58.7850814  20.0849000   8.3108032
  57.6609803  30.0077830  18.5454666  57.5530158  30.0179892  19.4116724
  57.8705584  30.8332611  18.3559620  57.6759914  30.1318905  18.6458758
  55.6783595  27.2590473  16.0076604  55.0871528  27.8999971  15.9779619
  56.4404618  27.6828090  15.9807903  55.7031855  27.4166311  15.9991751
  56.0744218  18.4192470  16.6744622  56.5345699  18.4931400  17.4119745
  56.1200324  19.2173724  16.3244443  56.1494773  18.5486617  16.7317378
  57.7227567  19.0859165  21.2416649  57.3313132  18.4392512  21.6772426
  57.8913430  19.6770601  21.8610904  57.6898478  19.0773433  21.3979355
  71.7974016  27.0896242  17.0053882  71.8557140  27.5382891  17.7513859
  71.1640484  27.4995055  16.5683962  71.7125311  27.2169977  17.0506431
  65.4373111  32.7099784  13.4408628  65.2392800  33.1990599  12.7464840
  64.8160822  32.9141026  14.0192762  65.3160675  32.8116322  13.4231852
  59.4981089  24.4784681   7.7818873  60.2423134  24.8658957   8.0201823
  59.6441786  23.6342106   7.9459361  59.6291674  24.4115154   7.8412842
  61.4160665  16.2734940  12.8150734  60.5696710  16.4457748  12.6892084
  61.4131797  15.4684284  13.1516562  61.2907815  16.1795969  12.8461861
  62.4858965  20.0510154  13.6812792  62.0118920  19.5251916  14.1918103
  62.8577101  19.5039627  13.1127654  62.4708854  19.8926151  13.6727939
  52.8631995  22.0481661  19.0496338  53.7257608  21.9477370  18.9633668
  52.5323778  21.4676370  18.4881910  52.9417192  21.9473288  18.9541744
  68.7495696  25.1112530  15.0919573  68.5093919  24.2718945  15.0961999
  69.2287703  25.1912697  15.8160346  68.7847879  24.9993930  15.1994375
  70.7500883  21.8913987  13.0448832  70.5110653  21.8509821  12.2069616
  70.9134784  22.7385139  13.1714553  70.7391186  22.0106072  12.9402314
  67.3546913  26.2763936  18.9753877  68.0781112  25.8236463  18.7964897
  67.0896875  26.5568602  18.1926205  67.4228186  26.2514905  18.8332592
  56.2233781  20.8724110  15.7106756  55.5986852  20.8842502  15.1032709
  55.8879376  21.3484285  16.3597996  56.0819273  20.9442627  15.7163325
  56.4075530  19.2149229   1.7679441  56.0588334  19.8668954   2.2310990
  55.9271976  19.2006342   1.0403312  56.2845774  19.3092282   1.7290532
  52.9359457  28.9324570  17.1510520  52.4059381  28.2417009  17.2005495
  53.2084550  28.9234755  16.3223229  52.8984179  28.8291702  17.0357936
  63.9679547  29.5150273   5.8748203  64.6913746  29.9808385   5.7312776
  63.5280138  29.5823882   5.1245800  64.0095240  29.5934109   5.7432984
  63.1365702  26.3747815  17.1248892  62.5222696  25.8305865  17.4197527
  63.6532987  25.8612051  16.6454708  63.1221365  26.2184224  17.0973120
  62.3762000  27.4452085  14.8593191  61.9489608  26.8201803  14.4258626
  62.3686944  27.1627007  15.6852198  62.3121141  27.3104865  14.9173018
  55.4924527  22.4817258  17.9281625  55.6518013  21.7260582  18.3333346
  55.3117420  23.0308197  18.5822362  55.4889886  22.4511072  18.0844330
  63.4344830  14.6478493  18.4832414  62.9385391  14.8442168  17.7923981
  64.1913892  15.0471162  18.3121216  63.4731654  14.7356227  18.3552551
  60.7047709  18.3220839  15.0735725  60.7290197  17.7880952  14.3848505
  60.9559183  17.8138148  15.7361315  60.7457628  18.1681743  15.0700369
  48.2155299  25.6052334  14.5078869  48.1098748  25.5599179  13.6430953
  47.4655519  25.9506115  14.7893153  48.0890902  25.6493242  14.4216198
  56.9849032  17.0491658  14.4541469  57.0247403  17.5500864  15.1676176
  56.1598696  17.1402051  14.1847392  56.8688557  17.1373474  14.5192007
  59.1678644  26.6152398  22.5561763  58.3174275  26.7524112  22.6919408
  59.3306772  25.8816176  23.0009465  59.0662508  26.5266499  22.6417363
  58.4063395  23.5652167  16.7515368  57.5755325  23.7325985  16.5450616
  58.3514912  23.1888118  17.5364253  58.2752810  23.5341899  16.8363896
  56.2147178  17.0561060  22.3871779  56.8399882  16.5123193  22.6601211
  55.7597658  16.5755978  21.8179569  56.2395439  16.9050542  22.3433372
  56.7799439  21.8407759   7.2805486  56.9202400  22.3380223   7.9834127
  57.2781972  21.1394053   7.4219699  56.8740520  21.8109738   7.4057065
  56.8099661  22.7074870   4.6098062  57.4444741  23.3035295   4.5447524
  56.8925272  22.4078328   5.4243933  56.9156212  22.7515778   4.7201149
  69.7882227  25.2390347  17.4784427  70.3800067  25.8787598  17.5102625
  70.2241221  24.5413384  17.7676493  69.9400658  25.2308698  17.5265259
  58.3878644  18.6388845   4.5843504  58.7094485  18.1591928   3.9302767
  58.6505588  19.4488491   4.3934316  58.4744669  18.6878743   4.4598996
  61.6175617  29.6607720  18.1042320  61.1100708  30.2143567  18.5482951
  61.3202263  29.7216010  17.2861095  61.4980502  29.7514031  18.0490777
  63.7837799  18.0261039  16.9466983  64.2092871  17.5733566  16.3350510
  63.1694792  17.4721110  17.2231771  63.7566444  17.8775016  16.8972009
  53.3152649  24.9042711   7.8787608  53.8244878  25.5007218   8.2598914
  53.7886921  24.6368684   7.1964028  53.4596025  24.9528526   7.8342131
  64.2283397  33.5770977   6.0346264  63.5112707  33.4031840   5.5693501
  64.8790135  33.3423550   5.5021750  64.2185248  33.5166770   5.8875482
  62.2232022  14.4976139  10.3557560  61.5800340  14.3473785  10.9242699
  61.8831429  14.2518484   9.5906665  62.0777099  14.4388262  10.3260576
  66.8131368  22.4535566   9.7787569  66.1422558  22.9965268   9.6500635
  67.5071119  22.9230421   9.5369264  66.8160236  22.6033837   9.7243097
  60.8618102  34.5932278  15.0099327  60.6383756  33.8351107  15.3783354
  60.3727945  34.6230299  14.2879767  60.7561551  34.4854502  14.9576068
  66.9759496  18.9091450  12.6877942  67.3287106  18.4821173  13.3623741
  66.1174297  18.8242293  12.8179019  66.9008940  18.8336190  12.8072953
  55.6743181  21.5398969  10.7460789  54.9555170  21.9563102  11.0133652
  56.0455543  22.1053208  10.1952427  55.6235113  21.6848251  10.7043596
  64.9742762  22.1726818  16.6362785  64.9540689  21.9910113  17.4897563
  65.0221962  23.0438837  16.6122368  64.9777403  22.2743356  16.7586079
  62.9189091  28.7614010  22.5611261  62.8784946  28.1163687  21.9756417
  63.7312410  28.7050628  22.8736673  63.0332245  28.6572977  22.5208210
  59.5096559  34.8132736  12.4636412  59.0956958  34.1506866  12.0740254
  60.1943933  34.9610595  11.9432106  59.5494931  34.7373394  12.3292909
  62.8761853  33.9722821  13.2160029  62.4778136  34.0825092  12.4480849
  62.2613073  34.1804888  13.7986588  62.7260742  34.0196389  13.1891328
  61.4489755  20.5796969   6.0834168  60.8554594  20.9013966   5.5318735
  61.4865033  19.7338065   5.8755274  61.3664144  20.5021297   5.9716940
  64.3247572  20.5376474   9.5135919  64.0961265  20.5609175   8.6714277
  64.5845648  19.7133941   9.6330929  64.3293760  20.4192554   9.4061116
  58.6066800  22.3910947  19.1161019  58.0945703  21.7832130  19.4746050
  58.4346296  23.1067539  19.5834994  58.5056437  22.4074246  19.2377242
  53.4532515  20.8348522  21.7663381  53.2835105  21.4949897  21.2211587
  53.0098465  21.0455083  22.4875870  53.3631848  20.9634504  21.7925010
  57.3792334  19.0753020  10.8090114  57.8549701  19.4370100  10.1740295
  56.8780934  19.7309488  11.0890257  57.3757693  19.2247209  10.7566855
  62.4835871  20.3135191  21.5563274  63.0407301  20.0849001  20.9241740
  62.1596936  21.0740857  21.2798487  62.5182281  20.3919028  21.4219771
  50.3534579  23.7395388  17.0251870  49.8061299  23.0696033  17.1432739
  51.1426958  23.3725235  17.0895338  50.3886763  23.5860374  17.0520571
  60.2018988  23.4002845  22.5215281  60.9530315  23.7154521  22.8354836
  60.3941564  23.1982016  21.6949203  60.3410402  23.4170226  22.4458677
  59.4218987  21.2194220   4.1763498  59.8017952  21.2373849   3.3914613
  58.6811583  21.6648209   4.0554345  59.3687825  21.2875994   4.0427066
  67.0504278  19.5276411   9.7639077  67.0498504  19.3725068  10.6223353
  66.8460458  20.3739398   9.7080462  67.0204056  19.6297032   9.8827016
  49.1121549  22.9516195  14.1797893  48.9343310  22.4992804  14.9052809
  48.8240571  23.7542357  14.3636371  49.0434502  23.0038753  14.3141396
  64.7745130  24.2073913  13.4175284  65.2698795  23.4896908  13.3779304
  63.9644906  23.9044710  13.3029771  64.7289023  24.0571559  13.3949010
  60.2203741  28.0571726   5.5672288  59.4115064  27.7338400   5.5205598
  60.7278650  27.3504948   5.5000537  60.1753408  27.9053042   5.5502583
  50.8494019  25.4843919  11.2919652  49.9839538  25.4729610  11.1802424
  50.9492835  25.2974142  12.1390792  50.7368186  25.4549980  11.4008597
  56.4751029  35.2541818  14.8649758  56.7897588  36.0678206  14.8727540
  56.8844442  34.8692036  15.5331917  56.5819127  35.3170520  14.9653850
  63.4275548  30.6711865  12.4353570  63.8986726  31.3852127  12.6043555
  63.7635727  30.0710615  12.9713439  63.5470663  30.6883329  12.5385946
  65.5152533  32.2813178  24.6145642  65.6249498  31.4921738  24.9702389
  65.8443429  32.1919114  23.8119980  65.5804939  32.1519031  24.5488033
  60.3445043  15.4439335  19.3911665  60.4772949  14.6470329  19.7192640
  60.7290196  15.9705738  19.9709940  60.4201372  15.4039252  19.5255168
  64.0649495  30.4629799  19.1981263  63.5170441  29.8387682  18.9301328
  64.5262523  30.6524071  18.4825342  64.0516704  30.3988849  19.0531694
  63.4177398  12.3669661  15.9892758  62.6123362  12.2567391  16.3060596
  63.2884134  12.4682117  15.1322624  63.2797531  12.3653331  15.9100798
  66.8743359  18.5315153  16.5832455  66.2906348  19.0324360  16.1710022
  67.1947653  18.0244709  15.9496778  66.8356534  18.5306988  16.4290962
  59.4138158  17.4455748   6.8591130  60.2353852  17.6154061   6.6172825
  58.9507809  17.6003009   6.1357427  59.4669320  17.4937481   6.7162774
  58.0033490  15.4398510  17.6389558  58.5477903  15.0989637  18.2293900
  58.0570426  16.2983972  17.7810843  58.0922609  15.5153770  17.7471432
  53.8164049  29.2014926  14.5128366  54.4208906  29.1610760  13.8842187
  53.6091361  30.0486078  14.5432422  53.8752946  29.3202929  14.4244483
  63.6307821  31.4680871  15.7290604  64.4506195  31.3243837  15.9906899
  63.3501899  32.0927070  16.2707042  63.7104564  31.5391223  15.8478543
  49.0515331  28.1849544  14.3827290  48.9539609  27.3745815  14.6917346
  49.8344201  28.1641337  13.9973558  49.1531468  28.0616634  14.3714152
  73.3021156  38.2121374  13.4486411  72.4459052  38.3729872  13.4995527
  73.3488810  37.3413438  13.4691472  73.1820268  38.1072176  13.4592477
  67.6862296  47.7484092   9.2123642  66.9345195  47.3699630   8.9839687
  68.1348308  47.7802526   8.4642452  67.6411963  47.6969699   9.0681144
  76.6114873  44.4807900  23.0546867  77.3181640  43.9859930  23.1833801
  76.8002808  44.9216981  22.3249525  76.7442778  44.4726250  22.9655912
  76.1472977  40.2713418  16.0918062  76.6928937  40.9498505  16.1512032
  76.0889853  40.1300879  15.2319644  76.2188891  40.3505420  15.9730123
  69.2647052  47.7602484  11.4786415  69.3657415  46.9502838  11.7883542
  68.6688797  47.6659431  10.8486093  69.1919591  47.6267512  11.4312653
  69.1047792  52.6780073  12.8801271  69.7485247  53.1193237  13.2697429
  69.4304047  51.8733499  12.7931529  69.2479620  52.6245268  12.9246748
  64.7602184  35.9508501  14.0023056  64.1407215  35.3601149  13.8333071
  64.6586047  36.5419937  13.3687379  64.6539859  35.9512584  13.8828046
  71.8570079  37.6908043   8.3355519  72.5550244  37.8696171   8.8276982
  72.1722412  37.1678382   7.7125908  72.0065417  37.6401815   8.3157529
  64.4871317  39.4960783  16.2466625  64.3630014  40.0823228  16.8816444
  65.1389601  39.0020979  16.5478900  64.5644966  39.5099587  16.3852554
  72.0458015  44.0778488   8.3235311  72.4851650  43.4695589   8.7690083
  71.8962678  43.6985861   7.5520776  72.0879480  43.9316959   8.2754478
  69.5129658  42.6722500  15.5254136  70.1578660  42.1794943  15.2065085
  69.7531435  42.8147287  16.3520214  69.6440243  42.6199942  15.6003669
  70.0296943  33.0600440  12.4176794  69.7000273  33.5111583  11.7480492
  69.3541945  32.9816603  12.9649800  69.8807379  33.1151575  12.4000017
  64.0229421  48.6608441  12.3794954  63.5396999  49.3858931  12.3554538
  64.8352739  48.9584572  12.4905112  64.0720169  48.8110795  12.3922234
  70.0943575  47.4540622  14.9844769  69.5770517  47.0948037  14.3806077
  70.7917966  46.9302797  14.9950835  70.1209156  47.3238310  14.8975028
  73.7507167  47.9035436  20.9460942  73.8390513  47.7161577  21.7939152
  74.1796880  47.2572866  20.5465789  73.8269269  47.7798444  21.0132693
  71.3177627  47.1866596  19.9278604  70.7548462  46.7739206  20.4518265
  72.0798650  47.1119502  20.3471747  71.3472075  47.1143997  20.0671604
  68.2352897  31.1212728   7.8999741  68.9898865  31.4891045   7.6616792
  68.0580432  31.4952283   8.6678921  68.3207375  31.2310916   7.9784630
  66.8773618  49.1764617  12.5315234  67.5794198  48.6616606  12.5887991
  66.7971101  49.5038769  13.3362109  66.9697379  49.1478844  12.6588026
  67.9252525  39.4140204  21.6595649  68.0973029  39.3046099  22.5080931
  68.4621882  40.0594610  21.4226842  68.0297529  39.4932206  21.7500746
  66.5909962  33.5283047   4.5977854  66.4085535  33.7454928   3.7718847
  67.4535575  33.6422060   4.6536469  66.6914551  33.5772945   4.4832341
  66.2024394  45.3670969  12.0400842  67.0413293  45.5993902  12.0874604
  66.2336163  44.4975281  11.9707878  66.3306111  45.2727916  12.0365487
  66.8277097  45.7871845  16.3414148  67.3675322  45.6442976  17.0117520
  66.1447043  46.1868595  16.7098174  66.8069251  45.8251515  16.4948570
  76.2517982  41.4662845  11.5359172  77.0075497  41.8994360  11.5748081
  76.3580306  40.8167615  12.1093808  76.3788152  41.4340329  11.6257198
  73.8627226  47.3344455  23.6104726  74.6467643  47.4475303  23.9760468
  73.6623821  46.5085592  23.8063411  73.9493252  47.2291175  23.6939112
  62.2314242  42.0072135  16.4948569  61.9652657  41.1911252  16.6539560
  62.2452806  42.0525291  15.6244085  62.1938964  41.8929040  16.3902051
  66.1371989  36.8057220   3.1100327  65.4230166  36.5195399   3.5222760
  66.6215957  37.1453846   3.7506715  66.1031352  36.8138869   3.2655962
  66.9812848  35.5450514  19.1415577  66.2884645  35.0747493  19.3876309
  67.5973175  35.3188818  19.7157284  66.9697378  35.4417645  19.2624730
  74.0197620  49.2454557  17.2571181  73.2212865  49.0054057  17.5145050
  74.4683631  49.2968950  18.0038229  73.9672231  49.2176948  17.4056105
  62.6407655  42.7930915  13.7760314  62.4583229  42.7677801  12.9232606
  63.3757324  43.2629853  13.8149222  62.7221719  42.8592277  13.6558232
  65.7053407  39.5115918  20.2842422  66.4293379  39.4968948  20.7707317
  65.8069544  40.2211273  19.7864391  65.8271616  39.6140621  20.2821209
  73.0798356  42.9915002  25.1491369  72.2871337  43.3058514  25.3343989
  73.1947284  43.2066471  24.3112154  72.9793767  43.0698839  25.0529704
  75.7529675  39.7148993   9.4386385  75.8476530  40.4538287   9.8926011
  75.1288519  39.2866469   9.8720950  75.6738706  39.7610314   9.5694533
  74.0082149  42.8935206  20.0876666  74.5821011  42.2562450  20.2425230
  73.9296953  42.8939288  19.2186324  74.0815384  42.8000317  19.9823077
  62.6078566  39.6724415  13.9259380  63.1852068  39.5360866  14.5651626
  61.9092627  39.2160200  14.1804965  62.5899587  39.5846682  14.0581670
  69.3645868  41.3258471  12.1397863  69.1065112  40.4930206  12.1129163
  69.4194351  41.5516084  11.2990364  69.3345646  41.2356242  12.0118000
  74.4446918  33.4286922  12.2401956  73.7403245  32.9396107  12.3985875
  74.4931892  33.4409396  11.3690401  74.3476970  33.3576570  12.1341296
  68.3380580  38.8796234  12.6262758  67.7630171  39.0388402  13.2626719
  67.9616256  38.2431643  12.1631209  68.1983392  38.8094047  12.6517317
  72.0053869  37.3519583  17.4855137  71.6168301  36.9273801  16.8307328
  71.3408567  37.6001733  17.9932163  71.8500796  37.3258304  17.4643005
  58.0837399  38.5236308  10.6407199  58.1697651  38.1468177  11.4220729
  58.7113196  38.1496754  10.1627157  58.1893950  38.4121791  10.6852676
  75.8280230  31.0494212  14.9979121  76.2090742  30.3672383  15.3846995
  75.0243515  30.7603814  14.8154785  75.7656692  30.9061260  15.0283177
  68.9800715  45.0539705  10.8104256  69.6174662  44.8151452  11.3556049
  69.4055787  45.2576864  10.0757416  69.1376881  45.0490715  10.7821413
  63.6713358  47.2928041  14.6938559  63.7117503  47.5642892  13.8658339
  64.2307882  47.8169949  15.1096347  63.7596704  47.4103796  14.6330448
  69.6203530  40.2741995   5.1479145  70.0048683  40.0549701   5.8995690
  69.3715151  41.1004940   5.2780221  69.6405603  40.3640141   5.2780221
  69.7872071  33.5548410  24.8641729  69.4725512  34.3247973  24.6011292
  69.4662003  32.9918666  24.2793956  69.6930990  33.5858679  24.7383079
  71.3622187  45.5312128  12.4898042  71.4361195  45.3687299  13.3439892
  72.1791694  45.7202317  12.2458524  71.4938546  45.5348870  12.5796068
  65.1227944  45.8769990   9.5192485  64.2966062  46.1231728   9.3926764
  65.1839935  45.7982071  10.3854544  65.0102111  45.9014939   9.6281430
  67.3403968  31.9438931  10.4787926  66.4726393  32.0161531  10.5445535
  67.6279172  32.7461010  10.6675901  67.2543716  32.0733078  10.5162692
  76.4636856  32.0916791  18.8099247  77.2090448  31.9026601  18.3962673
  76.0474161  32.6175029  18.2513104  76.5121831  32.1418936  18.6663821
  70.4921518  43.2964617  18.3064646  69.9933212  44.0080384  18.3849534
  71.3021742  43.6165283  18.2682808  70.5377625  43.4491465  18.3121214
  67.8432688  50.4714253  10.2871665  67.6232984  50.1811608  11.0798332
  67.6227210  49.8129208   9.7589577  67.7780283  50.3313961  10.3260574
  66.7549636  42.5587570  12.5527367  66.4662884  41.9325041  13.0873094
  67.6232984  42.5007857  12.6192047  66.8409888  42.4575114  12.6418321
  77.5427533  37.7022353  12.8709349  77.1992299  36.9812688  13.2216598
  77.6420576  37.4936204  12.0287707  77.5069576  37.5646556  12.7981029
  66.9581909  44.1982821   8.4769732  67.7127877  44.5795860   8.6905194
  66.3652522  44.6493964   8.9316428  66.9818623  44.3211648   8.5752610
  69.4188576  36.1545661  23.6026944  68.6088352  36.4603441  23.4916786
  69.8963263  36.8751243  23.7179528  69.3692055  36.3060262  23.6034015
  68.2780136  45.3691382  13.8509847  67.7560889  45.5091674  14.5361712
  68.6654156  44.6102046  14.0411965  68.2583837  45.2776906  13.9810924
  65.2671320  35.4197191   7.9204802  64.9796115  35.0498461   7.1836749
  65.9541788  35.8892046   7.6588507  65.3260217  35.4344160   7.7719878
  69.7046461  42.3995401   9.2491338  69.5089244  43.0070135   8.6551641
  69.9280807  41.7063345   8.7683012  69.7081102  42.3872926   9.0907419
  68.1024991  39.2850139   9.3672207  68.8247643  39.4491297   8.9076013
  67.6232984  40.0059804   9.2611546  68.1388722  39.4148368   9.2837821
  76.0618499  35.6213938  14.7468891  75.2229599  35.6475217  14.5107155
  76.1322866  36.2684673  15.3274238  75.9486892  35.7210063  14.7978008
  65.7532608  41.6908211  18.4726346  66.2653705  41.9692465  17.8235106
  65.4668951  42.4297505  18.8389159  65.7867471  41.8410565  18.4316224
  62.8399514  36.1978403   8.7690083  62.9415651  37.0004565   9.0971058
  63.6355401  35.9965739   8.4713163  62.9727420  36.2864302   8.7725438
  69.2716333  33.7834600  18.5327388  69.0799530  33.7989734  19.3826812
  70.1214929  33.9798274  18.5094043  69.3692055  33.8148951  18.6550683
  63.6563246  36.3125581  16.5111204  63.5148738  35.4609522  16.6355712
  63.9403810  36.3554242  15.6873410  63.6771092  36.1925331  16.4078829
  73.8101839  38.1492672  10.6555693  73.5636553  38.0688422  11.4892482
  74.1386962  37.3646139  10.4618220  73.8223082  38.0218937  10.7503216
  77.7049888  44.8576031  14.4442474  77.5664247  45.5557077  14.9491216
  76.9249885  44.7024687  14.0878656  77.5693114  44.9376198  14.4668748
  76.0427973  41.1572406  20.6964856  76.0376011  40.2852223  20.7007282
  76.7488967  41.3560575  20.2234311  76.1472977  41.0576280  20.6271891
  69.7698866  40.8849390  20.0678676  69.9142242  41.4650598  19.4321786
  70.1174515  41.2625687  20.7728530  69.8426327  41.0270094  20.0777671
  71.9418783  40.0839558  17.8503807  71.1942097  40.2770573  17.4452085
  72.0960309  39.2584778  17.6127929  71.8541211  39.9904670  17.7549213
  68.8426621  49.0752162  16.9339703  68.9916185  48.5155078  16.2813107
  69.6226623  49.1544164  17.3172221  68.9800715  49.0037727  16.8936652
  71.3679922  49.2466805  18.2124193  71.2923593  48.5775615  18.7674982
  71.2969781  49.9484593  18.7264860  71.3460529  49.2511712  18.3701042
  72.1820560  33.9790109  18.7399211  72.6393175  34.7114084  18.8672003
  72.2576889  33.5556574  19.4986467  72.2611530  34.0247347  18.8700288
  64.4253552  34.2255929  19.8288655  63.8895741  33.6136287  20.1449422
  64.4871316  34.8004065  20.4822321  64.3549184  34.2202857  19.9724082
  70.0602938  35.9692213  15.5841035  69.2699013  35.7883673  15.9058371
  70.4563561  35.1919166  15.5671330  70.0019815  35.8279674  15.6293584
  75.4446625  43.6034643  13.3100481  74.7691626  43.3719876  13.8113868
  75.4539001  42.9955826  12.6842586  75.3465129  43.4793569  13.2916633
  72.5740769  38.4452472  20.0664534  72.5099910  39.3062429  19.9384671
  72.7137956  38.1284465  19.2660085  72.5856239  38.5252639  19.9292747
  71.2559863  41.1384612  14.2080737  70.8322112  41.3389111  13.4719755
  71.0804718  40.2913460  14.3205037  71.1670743  41.0433393  14.1154427
  70.7571556  52.6535125  16.6702194  71.2467486  51.9545914  16.4877859
  70.1855788  52.3558995  17.2578252  70.7456086  52.5061348  16.7303235
  66.5442307  41.6336663   9.6408710  66.7006927  41.5683466  10.4964702
  66.8842901  42.4085216   9.4287389  66.6175542  41.7385861   9.7363304
  73.0821452  41.0094547   8.5102073  73.6236998  40.5064928   8.9740693
  73.3968011  40.9559741   7.6991558  73.2085849  40.9273968   8.4585885
  76.9538559  45.2197194  25.6228985  77.7673425  44.9482343  25.7834117
  76.7933526  44.9204734  24.8189181  77.0508508  45.1352120  25.5274391
  74.2310721  35.9030851  18.5624373  74.4452691  35.2641765  18.0087727
  73.6144621  36.3476675  18.1332235  74.1716051  35.8740995  18.4174804
  63.1176569  38.8171614   9.9569477  63.4975534  39.2356158   9.2929744
  62.5431934  39.3985069  10.2638320  63.0887894  38.9649472   9.9046218
  76.3949809  37.5119916  19.5007680  75.5826491  37.2045807  19.5820853
  76.8539744  37.0318916  20.0650392  76.3430194  37.3956409  19.5962274
  73.6225450  29.0130787  13.5511716  72.7519008  28.9869508  13.5045025
  73.8765791  28.8407979  12.7337562  73.5319010  28.9840931  13.4231853
  73.4903317  38.9179988  24.2836383  73.9602948  39.5422104  24.6704257
  73.5365197  38.2496963  24.8429597  73.5671193  38.9114668  24.4236454
  70.6474591  31.0237015  15.0085186  70.1313079  30.3317207  15.1336765
  70.0868519  31.6907792  14.9547785  70.4881104  31.0200273  15.0191252
  72.7166824  31.5629975  16.8378039  72.3298577  31.5879007  17.6191569
  72.2299761  30.9971654  16.3852556  72.5879333  31.4825726  16.8865943
  76.9659804  46.2803484  20.8951825  77.6039524  45.7863680  20.5614282
  76.3233895  46.2080885  20.3104052  76.9654030  46.1962493  20.7594180
  78.6916804  38.1292630  15.4617741  78.2644412  38.0418979  14.7065841
  78.0542857  38.2370406  16.0472585  78.5346411  38.1325290  15.4363183
  72.3823966  28.4496961  19.1288299  73.0117084  28.9857261  18.8509369
  72.5509829  28.3574320  19.9801865  72.5001760  28.5158323  19.2136827
  72.1837881  33.2368155  21.4014710  73.0111310  32.9653304  21.4573325
  72.2045727  34.0328997  21.7578529  72.3090731  33.3147910  21.4629893
  77.0214060  46.9723293  17.5357182  77.8106438  46.6212357  17.6559264
  77.1957658  47.7859681  17.2733816  77.1634342  47.0409150  17.5145050
  66.7607371  40.3832018  14.5884971  65.9195377  40.2835892  14.7963865
  66.9697378  41.1527499  14.9399292  66.6672063  40.4824062  14.6712286
  64.2382937  38.0051555  12.4169722  63.8439635  38.0794567  11.6419831
  63.6823054  38.3909502  12.9678084  64.0985750  38.0733330  12.3837382
  75.8747884  30.9832849  12.0973601  76.0797478  30.9155157  12.9430598
  75.5474308  31.7891670  12.0294778  75.8563132  31.0918790  12.2133256
  70.5724035  38.3113417  13.8382569  70.2687173  37.7569406  14.4392976
  69.8703456  38.4905627  13.3510603  70.4240245  38.2558200  13.8552274
  69.6290132  35.6213937   8.4027270  69.9049867  34.9032850   7.9904838
  70.2288802  36.2198857   8.1948377  69.7583397  35.6034308   8.3108032
  68.6342386  45.5263138  18.5454666  68.5262741  45.5365200  19.4116724
  68.8438168  46.3517919  18.3559620  68.6492497  45.6504213  18.6458758
  66.6516178  42.7775781  16.0076604  66.0604112  43.4185279  15.9779619
  67.4137202  43.2013398  15.9807903  66.6764439  42.9351619  15.9991751
  67.0476801  33.9377778  16.6744622  67.5078283  34.0116708  17.4119745
  67.0932908  34.7359032  16.3244443  67.1227357  34.0671925  16.7317378
  68.6960151  34.6044473  21.2416649  68.3045716  33.9577820  21.6772426
  68.8646014  35.1955908  21.8610904  68.6631061  34.5958741  21.3979355
  76.4105695  48.2285092  13.4408628  76.2125383  48.7175907  12.7464840
  75.7893406  48.4326334  14.0192762  76.2893259  48.3301630  13.4231852
  70.4713673  39.9969989   7.7818873  71.2155718  40.3844265   8.0201823
  70.6174369  39.1527414   7.9459361  70.6024258  39.9300462   7.8412842
  72.3893248  31.7920248  12.8150734  71.5429293  31.9643056  12.6892084
  72.3864381  30.9869592  13.1516562  72.2640398  31.6981277  12.8461861
  73.4591549  35.5695462  13.6812792  72.9851503  35.0437224  14.1918103
  73.8309685  35.0224935  13.1127654  73.4441438  35.4111459  13.6727939
  63.8364579  37.5666969  19.0496338  64.6990192  37.4662678  18.9633668
  63.5056362  36.9861678  18.4881910  63.9149775  37.4658596  18.9541744
  67.1966365  36.3909418  15.7106756  66.5719435  36.4027810  15.1032709
  66.8611960  36.8669593  16.3597996  67.0551857  36.4627935  15.7163325
  67.3808114  34.7334536   1.7679441  67.0320918  35.3854262   2.2310990
  66.9004559  34.7191650   1.0403312  67.2578358  34.8277590   1.7290532
  63.9092040  44.4509878  17.1510520  63.3791965  43.7602317  17.2005495
  64.1817134  44.4420063  16.3223229  63.8716763  44.3477010  17.0357936
  74.1098286  41.8933123  17.1248892  73.4955279  41.3491173  17.4197527
  74.6265571  41.3797359  16.6454708  74.0953948  41.7369532  17.0973120
  73.3494583  42.9637393  14.8593191  72.9222191  42.3387111  14.4258626
  73.3419528  42.6812315  15.6852198  73.2853724  42.8290173  14.9173018
  66.4657110  38.0002566  17.9281625  66.6250597  37.2445890  18.3333346
  66.2850004  38.5493505  18.5822362  66.4622469  37.9696380  18.0844330
  74.4077413  30.1663801  18.4832414  73.9117975  30.3627476  17.7923981
  75.1646475  30.5656470  18.3121216  74.4464238  30.2541535  18.3552551
  71.6780293  33.8406147  15.0735725  71.7022780  33.3066260  14.3848505
  71.9291767  33.3323456  15.7361315  71.7190212  33.6867051  15.0700369
  59.1887883  41.1237642  14.5078869  59.0831332  41.0784487  13.6430953
  58.4388103  41.4691423  14.7893153  59.0623486  41.1678550  14.4216198
  67.9581615  32.5676966  14.4541469  67.9979987  33.0686172  15.1676176
  67.1331280  32.6587359  14.1847392  67.8421141  32.6558782  14.5192007
  70.1411228  42.1337705  22.5561763  69.2906859  42.2709420  22.6919408
  70.3039356  41.4001484  23.0009465  70.0395092  42.0451807  22.6417363
  69.3795979  39.0837475  16.7515368  68.5487908  39.2511293  16.5450616
  69.3247496  38.7073426  17.5364253  69.2485393  39.0527207  16.8363896
  67.1879762  32.5746368  22.3871779  67.8132465  32.0308501  22.6601211
  66.7330242  32.0941286  21.8179569  67.2128022  32.4235850  22.3433372
  67.7532022  37.3593067   7.2805486  67.8934983  37.8565531   7.9834127
  68.2514555  36.6579361   7.4219699  67.8473103  37.3295046   7.4057065
  67.7832245  38.2260178   4.6098062  68.4177324  38.8220603   4.5447524
  67.8657856  37.9263636   5.4243933  67.8888796  38.2701086   4.7201149
  69.3611228  34.1574153   4.5843504  69.6827069  33.6777236   3.9302767
  69.6238171  34.9673799   4.3934316  69.4477253  34.2064051   4.4598996
  72.5908200  45.1793028  18.1042320  72.0833291  45.7328874  18.5482951
  72.2934847  45.2401318  17.2861095  72.4713085  45.2699339  18.0490777
  74.7570383  33.5446347  16.9466983  75.1825454  33.0918874  16.3350510
  74.1427376  32.9906418  17.2231771  74.7299028  33.3960323  16.8972009
  64.2885233  40.4228019   7.8787608  64.7977462  41.0192526   8.2598914
  64.7619505  40.1553992   7.1964028  64.4328608  40.4713834   7.8342131
  73.1964605  30.0161447  10.3557560  72.5532923  29.8659093  10.9242699
  72.8564012  29.7703792   9.5906665  73.0509683  29.9573570  10.3260576
  77.7863952  37.9720874   9.7787569  77.1155142  38.5150576   9.6500635
  78.4803702  38.4415729   9.5369264  77.7892819  38.1219145   9.7243097
  71.8350686  50.1117586  15.0099327  71.6116340  49.3536415  15.3783354
  71.3460529  50.1415607  14.2879767  71.7294135  50.0039810  14.9576068
  77.9492079  34.4276758  12.6877942  78.3019689  34.0006480  13.3623741
  77.0906881  34.3427601  12.8179019  77.8741524  34.3521498  12.8072953
  66.6475764  37.0584277  10.7460789  65.9287753  37.4748410  11.0133652
  67.0188127  37.6238516  10.1952427  66.5967696  37.2033559  10.7043596
  75.9475345  37.6912126  16.6362785  75.9273272  37.5095421  17.4897563
  75.9954546  38.5624145  16.6122368  75.9509986  37.7928664  16.7586079
  73.8921675  44.2799318  22.5611261  73.8517530  43.6348995  21.9756417
  74.7044993  44.2235935  22.8736673  74.0064829  44.1758285  22.5208210
  70.4829143  50.3318044  12.4636412  70.0689541  49.6692174  12.0740254
  71.1676517  50.4795903  11.9432106  70.5227514  50.2558702  12.3292909
  73.8494437  49.4908129  13.2160029  73.4510720  49.6010400  12.4480849
  73.2345656  49.6990196  13.7986588  73.6993326  49.5381697  13.1891328
  72.4222339  36.0982277   6.0834168  71.8287178  36.4199274   5.5318735
  72.4597616  35.2523373   5.8755274  72.3396728  36.0206605   5.9716940
  75.2980155  36.0561782   9.5135919  75.0693848  36.0794483   8.6714277
  75.5578232  35.2319249   9.6330929  75.3026343  35.9377862   9.4061116
  69.5799384  37.9096255  19.1161019  69.0678287  37.3017438  19.4746050
  69.4078880  38.6252847  19.5834994  69.4789021  37.9259554  19.2377242
  64.4265098  36.3533830  21.7663381  64.2567689  37.0135205  21.2211587
  63.9831048  36.5640391  22.4875870  64.3364432  36.4819812  21.7925010
  68.3524918  34.5938328  10.8090114  68.8282284  34.9555408  10.1740295
  67.8513517  35.2494795  11.0890257  68.3490277  34.7432517  10.7566855
  73.4568454  35.8320499  21.5563274  74.0139884  35.6034309  20.9241740
  73.1329519  36.5926165  21.2798487  73.4914864  35.9104336  21.4219771
  61.3267163  39.2580696  17.0251870  60.7793882  38.5881341  17.1432739
  62.1159541  38.8910543  17.0895338  61.3619347  39.1045682  17.0520571
  71.1751571  38.9188153  22.5215281  71.9262898  39.2339829  22.8354836
  71.3674148  38.7167324  21.6949203  71.3142986  38.9355534  22.4458677
  70.3951571  36.7379528   4.1763498  70.7750536  36.7559157   3.3914613
  69.6544167  37.1833517   4.0554345  70.3420409  36.8061302   4.0427066
  78.0236861  35.0461719   9.7639077  78.0231088  34.8910375  10.6223353
  77.8193042  35.8924706   9.7080462  77.9936639  35.1482340   9.8827016
  60.0854132  38.4701503  14.1797893  59.9075894  38.0178112  14.9052809
  59.7973155  39.2727665  14.3636371  60.0167086  38.5224061  14.3141396
  75.7477714  39.7259221  13.4175284  76.2431379  39.0082216  13.3779304
  74.9377489  39.4230018  13.3029771  75.7021607  39.5756867  13.3949010
  61.8226602  41.0029227  11.2919652  60.9572122  40.9914918  11.1802424
  61.9225418  40.8159450  12.1390792  61.7100769  40.9735288  11.4008597
  77.8129532  42.4762908  16.1052412  78.2384604  41.9537330  15.5522838
  77.4486452  43.0743746  15.5841035  77.8216135  42.4873135  15.9461422
  67.4483612  50.7727126  14.8649758  67.7630171  51.5863514  14.8727540
  67.8577026  50.3877344  15.5331917  67.5551710  50.8355828  14.9653850
  74.4008132  46.1897172  12.4353570  74.8719310  46.9037435  12.6043555
  74.7368310  45.5895923  12.9713439  74.5203247  46.2068637  12.5385946
  76.4885116  47.7998486  24.6145642  76.5982082  47.0107046  24.9702389
  76.8176013  47.7104422  23.8119980  76.5537522  47.6704339  24.5488033
  71.3177627  30.9624643  19.3911665  71.4505532  30.1655636  19.7192640
  71.7022780  31.4891046  19.9709940  71.3933956  30.9224560  19.5255168
  75.0382078  45.9815107  19.1981263  74.4903024  45.3572990  18.9301328
  75.4995107  46.1709379  18.4825342  75.0249288  45.9174157  19.0531694
  74.3909982  27.8854969  15.9892758  73.5855946  27.7752699  16.3060596
  74.2616717  27.9867425  15.1322624  74.2530115  27.8838639  15.9100798
  77.8475943  34.0500461  16.5832455  77.2638931  34.5509668  16.1710022
  78.1680237  33.5430017  15.9496778  77.8089118  34.0492296  16.4290962
  70.3870742  32.9641056   6.8591130  71.2086436  33.1339369   6.6172825
  69.9240393  33.1188317   6.1357427  70.4401904  33.0122789   6.7162774
  68.9766074  30.9583818  17.6389558  69.5210487  30.6174945  18.2293900
  69.0303009  31.8169280  17.7810843  69.0655193  31.0339077  17.7471432
  64.7896632  44.7200234  14.5128366  65.3941490  44.6796068  13.8842187
  64.5823945  45.5671386  14.5432422  64.8485530  44.8388237  14.4244483
  74.6040404  46.9866179  15.7290604  75.4238778  46.8429145  15.9906899
  74.3234482  47.6112378  16.2707042  74.6837148  47.0576531  15.8478543
  60.0247915  43.7034852  14.3827290  59.9272193  42.8931123  14.6917346
  60.8076784  43.6826645  13.9973558  60.1264051  43.5801942  14.3714152
  75.4603900  55.0146091  16.2466625  75.3362597  55.6008536  16.8816444
  76.1122185  54.5206287  16.5478900  75.5377550  55.0284895  16.3852554
  73.2046825  57.5257443  16.4948569  72.9385241  56.7096560  16.6539560
  73.2185389  57.5710599  15.6244085  73.1671548  57.4114348  16.3902051
  77.9545432  51.0635822  19.1415577  77.2617228  50.5932801  19.3876309
  78.5705759  50.8374126  19.7157284  77.9429962  50.9602953  19.2624730
  76.6785991  55.0301226  20.2842422  77.4025963  55.0154256  20.7707317
  76.7802127  55.7396581  19.7864391  76.8004200  55.1325929  20.2821209
  76.7265192  57.2093519  18.4726346  77.2386288  57.4877772  17.8235106
  76.4401534  57.9482813  18.8389159  76.7600055  57.3595873  18.4316224
  74.6295830  51.8310889  16.5111204  74.4881322  50.9794830  16.6355712
  74.9136393  51.8739550  15.6873410  74.6503676  51.7110639  16.4078829
  75.3986135  49.7441237  19.8288655  74.8628325  49.1321595  20.1449422
  75.4603900  50.3189373  20.4822321  75.3281768  49.7388165  19.9724082
  78.0209385  49.4563086  16.6744622  78.4810866  49.5302016  17.4119745
  78.0665491  50.2544340  16.3244443  78.0959940  49.5857233  16.7317378
  74.8097163  53.0852277  19.0496338  75.6722776  52.9847986  18.9633668
  74.4788946  52.5046986  18.4881910  74.8882359  52.9843904  18.9541744
  78.1698949  51.9094726  15.7106756  77.5452019  51.9213118  15.1032709
  77.8344543  52.3854901  16.3597996  78.0284440  51.9813243  15.7163325
  77.4389694  53.5187874  17.9281625  77.5983181  52.7631198  18.3333346
  77.2582587  54.0678813  18.5822362  77.4355053  53.4881687  18.0844330
  75.3997682  51.8719138  21.7663381  75.2300272  52.5320513  21.2211587
  74.9563632  52.0825699  22.4875870  75.3097016  52.0005120  21.7925010
  72.2999747  54.7766003  17.0251870  71.7526466  54.1066649  17.1432739
  73.0892125  54.4095851  17.0895338  72.3351930  54.6230990  17.0520571
  71.0586716  53.9886811  14.1797893  70.8808477  53.5363420  14.9052809
  70.7705738  54.7912973  14.3636371  70.9899669  54.0409369  14.3141396
   4.5906448  45.9636753  47.6178700   4.5600452  46.8181390  47.7896970
   5.1887796  45.6632046  48.1764844   4.6743606  46.0453250  47.7253502
   1.0999849  51.3198930  61.9792087   1.8066616  50.8250960  62.1079021
   1.2887785  51.7608011  61.2494745   1.2327755  51.3117280  61.8901132
   0.6357954  47.1104448  55.0163282   1.1813914  47.7889535  55.0757252
   0.5774830  46.9691909  54.1564864   0.7073868  47.1896450  54.8975343
   2.4123022  48.5389055  45.8897010   2.2962548  49.2896741  46.3189148
   3.2078909  48.2813008  46.1393097   2.5127612  48.6123902  45.9901102
   1.7258327  35.8876993  49.5871624   1.4111768  36.5780471  50.0192047
   1.2085269  35.8321775  48.8857125   1.6022798  35.9811881  49.5468573
   1.0670761  45.8881494  45.7009035   0.5382232  46.1041127  46.3606341
   1.5895781  46.5817632  45.6210004   1.0659214  46.0224630  45.7864634
   6.5218814  51.4627798  51.0742079   5.6916517  51.6738442  51.2375496
   6.4728066  50.6364853  50.7984363   6.3925549  51.3717404  51.0579445
   6.0172772  44.1098199  54.8692501   5.1801193  44.1800386  55.1040095
   5.9861003  44.1122693  53.9966803   5.8891055  44.1208426  54.7752049
   0.7402958  48.3053875  50.4604392   1.4960473  48.7385390  50.4993301
   0.8465282  47.6558645  51.0339028   0.8673129  48.2731359  50.5502418
   3.7783129  52.1327152  51.2106795   3.3418361  52.1363895  51.9665767
   3.4446045  52.8132651  50.7786373   3.6645749  52.2339608  51.2587628
   3.6980612  39.1740980  53.4536223   4.3406520  39.2439085  54.0398138
   3.9503633  38.5070203  52.9515765   3.8302744  39.0867329  53.4663502
   6.9127475  48.8508072  50.1026432   7.5743909  48.2898741  50.0022341
   6.2718887  48.3560103  50.4279124   6.9156343  48.6944481  50.1358773
   3.1992306  49.8673455  49.8438421   3.4347895  50.0118654  49.0165272
   3.3481870  50.6315863  50.2369935   3.2558109  50.0012509  49.7802025
   5.0282763  48.7075121  47.6808025   5.3590980  49.2402761  47.0748120
   5.6015851  48.7614008  48.3369976   5.1616442  48.7944689  47.6885807
   0.4937673  48.3988763  41.5968557   0.4117836  48.4690950  42.4623544
   1.1317394  48.9618507  41.4052298   0.5757511  48.4927734  41.6958507
   6.1362114  43.9485618  49.1848187   5.8798679  43.1365559  48.9946069
   6.9791428  43.9563185  48.9578374   6.2228140  43.8297615  49.1233004
   3.8187274  51.1035214  59.0206739   3.5825911  50.2723278  58.9018800
   4.4630502  51.0520821  59.6061583   3.8781944  50.9732902  59.0892633
   4.8423694  50.8879662  55.0835034   4.5369511  51.6207719  55.4448349
   4.1229910  50.4817592  54.8027820   4.6911036  50.9361395  55.0948171
  10.5425486  47.5272663  54.4103378  10.4749987  47.5468622  53.5405965
  10.5281149  48.3702990  54.6359049  10.5304243  47.6546398  54.3155855
   0.9521833  38.9307821  57.7344467   1.6975425  38.7417631  57.3207893
   0.5359137  39.4566059  57.1758324   1.0006807  38.9809966  57.5909041
   8.3284104  46.3017049  52.6849972   8.8792025  45.6685118  52.9247064
   8.3128219  46.8332442  53.3765477   8.4069300  46.2865997  52.8228831
   2.0312510  44.5413383  51.7954569   1.6877276  43.8203718  52.1461818
   2.1305552  44.3327234  50.9532927   1.9954553  44.4037586  51.7226249
   2.4925539  51.0039087  47.3378557   3.0583572  51.6632297  47.2537100
   1.8453442  51.3488785  47.8094959   2.4804295  51.1521028  47.3951313
   4.4260999  47.6672954  50.9575353   4.3394974  47.8228380  51.8110132
   3.9711479  48.3111030  50.5834758   4.3464256  47.7848709  51.0282460
   2.1934864  51.6967061  53.3687694   2.0549223  52.3948107  53.8736436
   1.4134862  51.5415717  53.0123876   2.0578091  51.7767227  53.3913968
   0.5312949  47.9963436  59.6210076   0.5260988  47.1243253  59.6252502
   1.2373943  48.1951605  59.1479531   0.6357953  47.8967310  59.5517111
   3.6888237  51.0545315  44.1304193   3.3095046  50.2682453  44.1233483
   3.0254482  51.6032172  43.9875837   3.5346712  51.0190139  44.1084990
   1.1432863  33.9971014  51.5338274   1.2616431  34.4547478  50.8005577
   0.9695038  33.1916276  51.2474492   1.1352034  33.9464786  51.3839208
   1.9348336  53.2990806  44.4655879   2.0168173  54.1057792  44.1417330
   2.4198078  53.3186765  45.1896653   2.0185494  53.4211468  44.5242778
   1.4423536  52.0588224  64.5474205   2.2558401  51.7873373  64.7079337
   1.2818502  51.7595764  63.7434401   1.5393484  51.9743150  64.4519611
   1.4544780  53.1194514  59.8197046   2.0924500  52.6254710  59.4859502
   0.8118871  53.0471915  59.2349272   1.4539006  53.0353523  59.6839400
   3.1801780  44.9683660  54.3862961   2.7529388  44.8810009  53.6311061
   2.5427833  45.0761436  54.9717805   3.0231387  44.9716320  54.3608403
   1.5099037  53.8114322  56.4602402   2.2991415  53.4603387  56.5804484
   1.6842634  54.6250711  56.1979036   1.6519318  53.8800180  56.4390270
   3.6166548  38.3755643  50.5021586   3.0040862  38.8626046  50.8875318
   3.7130723  37.6999134  51.0459237   3.5404446  38.3473952  50.6400444
   7.2591576  49.4472580  55.9299102   7.3174700  49.8959229  56.6759079
   6.6258044  49.8571393  55.4929182   7.1742871  49.5746315  55.9751651
   4.2113256  47.4688868  54.0164793   3.9711479  46.6295283  54.0207219
   4.6905263  47.5489035  54.7405566   4.2465439  47.3570268  54.1239595
   6.2118443  44.2490325  51.9694052   5.9728213  44.2086159  51.1314836
   6.3752344  45.0961477  52.0959773   6.2008746  44.3682410  51.8647534
   2.8164473  48.6340274  57.8999097   3.5398672  48.1812801  57.7210117
   2.5514435  48.9144940  57.1171425   2.8845746  48.6091243  57.7577812
   5.2499787  47.5966685  56.4029647   5.8417627  48.2363936  56.4347845
   5.6858781  46.8989722  56.6921713   5.4018218  47.5885036  56.4510479
   2.2748928  44.8111904  48.7032789   1.6040118  45.3541606  48.5745855
   2.9688679  45.2806759  48.4614484   2.2777796  44.9610175  48.6488317
   2.4377056  41.2667787  51.6123162   2.7904666  40.8397510  52.2868961
   1.5791857  41.1818631  51.7424239   2.3626500  41.1912528  51.7318173
   0.4360322  44.5303156  55.5608005   0.4158249  44.3486451  56.4142783
   0.4839522  45.4015175  55.5367588   0.4394963  44.6319694  55.6831299
   3.8701116  36.3886199  52.5407475   3.3631981  35.6815339  52.4728652
   4.6668550  36.0579388  52.6708551   3.9128355  36.2359351  52.5506470
   6.0721256  50.9051126  45.5248339   6.4554862  51.6542482  45.7546436
   5.2765369  51.1516946  45.2660328   6.0115038  51.0520820  45.5205913
   2.5121838  41.8852749  48.6884297   2.5116064  41.7301405  49.5468573
   2.3078018  42.7315736  48.6325682   2.4821616  41.9873370  48.8072236
   2.3014509  49.3153938  55.0297632   2.7269580  48.7928360  54.4768058
   1.9371429  49.9134776  54.5086255   2.3101111  49.3264165  54.8706642
   2.3360919  40.8891491  55.5077675   1.7523908  41.3900698  55.0955242
   2.6565213  40.3821047  54.8741998   2.2974094  40.8883326  55.3536182
  15.5639031  61.4822061  47.6178700  15.5333036  62.3366698  47.7896970
  16.1620380  61.1817354  48.1764844  15.6476189  61.5638558  47.7253502
   8.7638716  60.5697712  52.3731631   7.9076612  60.7306210  52.4240747
   8.8106370  59.6989776  52.3936692   8.6437828  60.4648514  52.3837697
  12.0732433  66.8384238  61.9792087  12.7799200  66.3436268  62.1079021
  12.2620368  67.2793319  61.2494745  12.2060338  66.8302588  61.8901132
  11.6090537  62.6289756  55.0163282  12.1546497  63.3074843  55.0757252
  11.5507413  62.4877217  54.1564864  11.6806451  62.7081758  54.8975343
  13.3855606  64.0574363  45.8897010  13.2695132  64.8082049  46.3189148
  14.1811492  63.7998316  46.1393097  13.4860195  64.1309210  45.9901102
   5.2685931  68.0468386  47.1766352   5.5901772  68.5873593  46.5727660
   5.9158028  67.4765157  47.3088642   5.4111986  68.0427561  47.1073388
   7.3187639  60.0484381  47.2600739   8.0167804  60.2272509  47.7522202
   7.6339972  59.5254720  46.6371128   7.4682977  59.9978153  47.2402749
   7.5075575  66.4354826  47.2480531   7.9469210  65.8271927  47.6935303
   7.3580238  66.0562199  46.4765996   7.5497040  66.2893297  47.1999698
   4.9747218  65.0298838  54.4499356   5.6196220  64.5371281  54.1310305
   5.2148995  65.1723624  55.2765434   5.1057803  64.9776280  54.5248889
   7.5133309  67.8753744  54.1006249   7.7956552  67.0805149  53.8793004
   8.2419470  68.3534331  54.1211310   7.6622873  67.8288341  54.0709264
   5.4914503  55.4176778  51.3422014   5.1617833  55.8687921  50.6725712
   4.8159505  55.3392941  51.8895020   5.3424939  55.4727913  51.3245237
  11.1084911  64.7882007  44.2011300  11.0236206  65.6442974  44.3460869
  11.5969295  64.5126331  44.8693459  11.1673809  64.8739329  44.3213381
  12.6990911  51.4062301  49.5871624  12.3844352  52.0965779  50.0192047
  12.1817852  51.3507083  48.8857125  12.5755381  51.4997189  49.5468573
  12.0403345  61.4066801  45.7009035  11.5114816  61.6226435  46.3606341
  12.5628364  62.1002940  45.6210004  12.0391798  61.5409938  45.7864634
  17.4951397  66.9813106  51.0742079  16.6649101  67.1923750  51.2375496
  17.4460650  66.1550160  50.7984363  17.3658133  66.8902712  51.0579445
   3.9302952  65.3030018  44.5016503   3.3460168  65.8080050  44.9082367
   3.5273048  65.0772405  43.7613095   3.7842256  65.3438267  44.4521528
   9.2124727  70.2611774  59.8706162   9.3008073  70.0737915  60.7184372
   9.6414440  69.6149204  59.4711009   9.2886829  70.1374782  59.9377913
   8.3880167  61.5495670  42.9785424   8.6276170  61.7573654  42.1660767
   8.7096008  60.7453179  43.0874368   8.4717325  61.4609772  42.8745977
   3.6970457  53.4789066  46.8244961   4.4516425  53.8467383  46.5862012
   3.5197992  53.8528620  47.5924141   3.7824935  53.5887254  46.9029850
  16.9905356  59.6283507  54.8692501  16.1533777  59.6985694  55.1040095
  16.9593587  59.6308001  53.9966803  16.8623638  59.6393734  54.7752049
   3.3870085  61.7716542  60.5840869   3.5590589  61.6622437  61.4326151
   3.9239442  62.4170948  60.3472062   3.4915089  61.8508544  60.6745966
   2.0527522  55.8859385  43.5223074   1.8703095  56.1031266  42.6964067
   2.9153135  55.9998398  43.5781689   2.1532111  55.9349283  43.4077561
   1.6641954  67.7247307  50.9646062   2.5030853  67.9570240  51.0119824
   1.6953723  66.8551619  50.8953098   1.7923671  67.6304254  50.9610707
   7.7327241  52.8885796  46.5572098   8.4613401  52.7101751  46.1110255
   7.8222134  53.7303875  46.7679276   7.8533903  52.9869674  46.5225616
  11.7135542  63.8239183  50.4604392  12.4693057  64.2570697  50.4993301
  11.8197866  63.1743953  51.0339028  11.8405712  63.7916667  50.5502418
  14.7515713  67.6512460  51.2106795  14.3150945  67.6549203  51.9665767
  14.4178628  68.3317959  50.7786373  14.6378333  67.7524916  51.2587628
  14.6713196  54.6926288  53.4536223  15.3139104  54.7624393  54.0398138
  14.9236216  54.0255511  52.9515765  14.8035328  54.6052637  53.4663502
   1.5989549  59.1633558  42.0345548   0.8847726  58.8771737  42.4467980
   2.0833517  59.5030183  42.6751935   1.5648912  59.1715207  42.1901182
   2.4430408  57.9026852  58.0660797   1.7502205  57.4323831  58.3121529
   3.0590735  57.6765156  58.6402504   2.4314938  57.7993983  58.1869950
  17.8860059  64.3693380  50.1026432  18.5476493  63.8084049  50.0022341
  17.2451471  63.8745411  50.4279124  17.8888926  64.2129789  50.1358773
   8.7736867  67.6663512  42.4107356   9.1888015  67.3348535  41.7191851
   7.9428796  67.4332414  42.2827492   8.7124875  67.5834768  42.2898203
  14.1724890  65.3858763  49.8438421  14.4080479  65.5303962  49.0165272
  14.3214453  66.1501171  50.2369935  14.2290693  65.5197817  49.7802025
   1.1670967  61.8692256  59.2087642   1.8910939  61.8545286  59.6952537
   1.2687104  62.5787611  58.7109611   1.2889176  61.9716959  59.2066429
  16.0015346  64.2260429  47.6808025  16.3323563  64.7588069  47.0748120
  16.5748434  64.2799316  48.3369976  16.1349025  64.3129997  47.6885807
  11.2147235  62.0725331  48.3631605  11.3094090  62.8114625  48.8171231
  10.5906079  61.6442807  48.7966170  11.1356266  62.1186652  48.4939753
   9.4699709  65.2511544  59.0121886  10.0438571  64.6138788  59.1670450
   9.3914513  65.2515626  58.1431544   9.5432944  65.1576655  58.9068297
  11.4670257  63.9174071  41.5968557  11.3850419  63.9876258  42.4623544
  12.1049977  64.4803815  41.4052298  11.5490094  64.0113042  41.6958507
   4.8263428  63.6834809  51.0643083   4.5682672  62.8506544  51.0374383
   4.8811911  63.9092422  50.2235584   4.7963206  63.5932580  50.9363220
   9.9064478  55.7863260  51.1647176   9.2020805  55.2972445  51.3231095
   9.9549452  55.7985734  50.2935621   9.8094530  55.7152908  51.0586516
   3.7998140  61.2372571  51.5507978   3.2247731  61.3964740  52.1871939
   3.4233816  60.6007981  51.0876429   3.6600952  61.1670384  51.5762537
   7.4671429  59.7095921  56.4100357   7.0785861  59.2850138  55.7552548
   6.8026127  59.9578070  56.9177383   7.3118356  59.6834642  56.3888225
  17.1094698  59.4670925  49.1848187  16.8531263  58.6550867  48.9946069
  17.9524012  59.4748493  48.9578374  17.1960723  59.3482923  49.1233004
  11.2897790  53.4070550  53.9224341  11.6708302  52.7248721  54.3092215
  10.4861075  53.1180152  53.7400005  11.2274252  53.2637598  53.9528397
   8.5710367  63.9394525  44.6077164   9.3851006  64.2309418  44.4959935
   8.5069508  63.2854388  44.0335457   8.6813106  63.8859720  44.5066001
  14.7919857  66.6220521  59.0206739  14.5558495  65.7908586  58.9018800
  15.4363086  66.5706129  59.6061583  14.8514528  66.4918209  59.0892633
   4.4418275  67.4116043  49.7349476   5.0792222  67.1727790  50.2801269
   4.8673347  67.6153202  49.0002636   4.5994441  67.4067053  49.7066633
   5.0821090  62.6318333  44.0724365   5.4666243  62.4126039  44.8240910
   4.8332711  63.4581278  44.2025441   5.1023163  62.7216479  44.2025442
   5.2489631  55.9124748  63.7886949   4.9343072  56.6824311  63.5256512
   4.9279563  55.3495004  63.2039176   5.1548550  55.9435016  63.6628299
  15.8156278  66.4064970  55.0835034  15.5102095  67.1393027  55.4448349
  15.0962493  66.0002900  54.8027820  15.6643620  66.4546703  55.0948171
   6.8239747  67.8888465  51.4143262   6.8978755  67.7263637  52.2685112
   7.6409254  68.0778655  51.1703744   6.9556106  67.8925208  51.5041288
  21.5158070  63.0457971  54.4103378  21.4482570  63.0653930  53.5405965
  21.5013732  63.8888298  54.6359049  21.5036826  63.1731706  54.3155855
   2.8021528  54.3015269  49.4033146   1.9343953  54.3737869  49.4690755
   3.0896732  55.1037348  49.5921121   2.7161276  54.4309416  49.4407912
  11.9254416  54.4493129  57.7344467  12.6708008  54.2602939  57.3207893
  11.5091721  54.9751367  57.1758324  11.9739391  54.4995274  57.5909041
  19.3016687  61.8202357  52.6849972  19.8524609  61.1870426  52.9247064
  19.2860803  62.3517750  53.3765477  19.3801884  61.8051305  52.8228831
   5.9539078  65.6540954  57.2309866   5.4550772  66.3656722  57.3094754
   6.7639302  65.9741621  57.1928028   5.9995185  65.8067803  57.2366434
   2.2167196  64.9163907  51.4772587   1.9280444  64.2901379  52.0118314
   3.0850544  64.8584195  51.5437267   2.3027448  64.8151452  51.5663541
  13.0045093  60.0598691  51.7954569  12.6609859  59.3389026  52.1461818
  13.1038136  59.8512542  50.9532927  12.9687136  59.9222894  51.7226249
   2.4199469  66.5559158  47.4014952   3.1745437  66.9372198  47.6150414
   1.8270082  67.0070302  47.8561648   2.4436183  66.6787986  47.4997830
  13.4658123  66.5224395  47.3378557  14.0316155  67.1817605  47.2537100
  12.8186026  66.8674093  47.8094959  13.4536879  66.6706336  47.3951313
   4.8806136  58.5121999  62.5272164   4.0705912  58.8179779  62.4162006
   5.3580823  59.2327581  62.6424748   4.8309615  58.6636600  62.5279235
   3.7397696  67.7267720  52.7755067   3.2178449  67.8668011  53.4606932
   4.1271716  66.9678384  52.9657185   3.7201397  67.6353244  52.9056144
   0.7288880  57.7773529  46.8450022   0.4413675  57.4074799  46.1081969
   1.4159348  58.2468384  46.5833727   0.7877777  57.7920498  46.6965098
   9.9364701  69.4663179  46.7615636   9.6951377  68.7331040  46.3542701
  10.1166034  70.0150036  46.1081969   9.9272325  69.4385570  46.6045859
   5.1664021  64.7571739  48.1736558   4.9706804  65.3646473  47.5796861
   5.3898367  64.0639683  47.6928232   5.1698662  64.7449264  48.0152639
   3.5642551  61.6426477  48.2917427   4.2865203  61.8067635  47.8321233
   3.0850544  62.3636142  48.1856766   3.6006282  61.7724706  48.2083041
  11.5236059  57.9790276  53.6714112  10.6847159  58.0051554  53.4352375
  11.5940426  58.6261011  54.2519458  11.4104452  58.0786401  53.7223228
   9.9705337  54.8775653  48.4041727  10.6731690  54.6783401  47.9261686
   9.7049526  54.1051595  48.7110571  10.0351969  54.7338619  48.3787169
  15.3993583  63.1858262  50.9575353  15.3127557  63.3413688  51.8110132
  14.9444063  63.8296338  50.5834758  15.3196839  63.3034017  51.0282460
   4.7333893  56.1410938  57.4572608   4.5417090  56.1566072  58.3072032
   5.5832489  56.3374612  57.4339263   4.8309615  56.1725289  57.5795903
   9.2719399  60.5069009  49.5800913   9.0254113  60.4264760  50.4137702
   9.6004522  59.7222477  49.3863440   9.2840642  60.3795275  49.6748436
  13.1667448  67.2152369  53.3687694  13.0281807  67.9133415  53.8736436
  12.3867445  67.0601025  53.0123876  13.0310674  67.2952535  53.3913968
  11.5045533  63.5148744  59.6210076  11.4993571  62.6428561  59.6252502
  12.2106527  63.7136913  59.1479531  11.6090537  63.4152618  59.5517111
   5.2316426  63.2425728  58.9923896   5.3759802  63.8226936  58.3567006
   5.5792075  63.6202025  59.6973750   5.3043887  63.3846432  59.0022891
   7.4036343  62.4415896  56.7749027   6.6559657  62.6346911  56.3697306
   7.5577869  61.6161116  56.5373149   7.3158771  62.3481008  56.6794433
  14.6620820  66.5730623  44.1304193  14.2827629  65.7867760  44.1233483
  13.9987066  67.1217480  43.9875837  14.5079295  66.5375447  44.1084990
   7.6438120  56.3366447  57.6644431   8.1010735  57.0690421  57.7917223
   7.7194449  55.9132912  58.4231687   7.7229090  56.3823685  57.7945508
  12.1165446  49.5156322  51.5338274  12.2349014  49.9732786  50.8005577
  11.9427622  48.7101584  51.2474492  12.1084617  49.4650094  51.3839208
   5.5220498  58.3268551  54.5086255   4.7316573  58.1460011  54.8303591
   5.9181121  57.5495504  54.4916550   5.4637375  58.1856012  54.5538804
  10.0086389  67.1556325  39.9492969  10.7759374  67.2156450  39.5398821
   9.5617698  66.5836767  39.4649287  10.0559816  67.0792901  39.8170679
  10.9064185  65.9610981  52.2345701  10.2309186  65.7296213  52.7359088
  10.9156561  65.3532164  51.6087806  10.8082689  65.8369906  52.2161853
   8.0358329  60.8028810  58.9909754   7.9717470  61.6638767  58.8629891
   8.1755516  60.4860803  58.1905305   8.0473799  60.8828977  58.8537967
  12.9080919  68.8176114  44.4655879  12.9900757  69.6243100  44.1417330
  13.3930661  68.8372073  45.1896653  12.9918077  68.9396776  44.5242778
   6.7177423  63.4960949  53.1325957   6.2939672  63.6965449  52.3964975
   6.5422278  62.6489797  53.2450257   6.6288303  63.4009731  53.0399647
   2.0059867  63.9913001  48.5653930   2.1624487  63.9259804  49.4209922
   2.3460461  64.7661553  48.3532609   2.0793102  64.0962199  48.6608524
   8.5439012  63.3670885  47.4347293   9.0854558  62.8641266  47.8985913
   8.8585571  63.3136079  46.6236778   8.6703409  63.2850305  47.3831105
  12.4156120  67.5773532  64.5474205  13.2290985  67.3058681  64.7079337
  12.2551086  67.2781072  63.7434401  12.5126068  67.4928458  64.4519611
   6.7125462  68.7588236  44.7187321   6.7818282  67.9002775  44.8580321
   7.4913917  68.9760117  44.3906345   6.8378312  68.6641100  44.6904478
   9.6928281  58.2607189  57.4869593   9.9070251  57.6218103  56.9332947
   9.0762181  58.7053013  57.0577455   9.6333611  58.2317333  57.3420024
  11.8567369  59.8696254  58.4252900  11.0444051  59.5622145  58.5066073
  12.3157304  59.3895254  58.9895613  11.8047754  59.7532747  58.5207494
  11.2672624  67.7475926  48.8729845  10.9087279  67.9190569  49.6493877
  10.7811335  68.2089132  48.3157843  11.1431321  67.8414897  48.9055114
   9.0843010  51.3707125  52.4756936   8.2136568  51.3445846  52.4290245
   9.3383351  51.1984317  51.6582782   8.9936570  51.3417268  52.3477073
   6.0560990  63.4275092  41.4130079   6.3453514  64.2039974  41.6873653
   6.1432788  62.9163823  42.1144578   6.1115246  63.4667010  41.5572577
   8.9520877  61.2756326  63.2081603   9.4220508  61.8998442  63.5949477
   8.9982757  60.6073301  63.7674817   9.0288753  61.2691006  63.3481674
   6.1092151  53.3813353  53.9330406   5.5930639  52.6893545  54.0581985
   5.5486079  54.0484130  53.8793005   5.9498664  53.3776611  53.9436472
   8.1784384  53.9206313  55.7623259   7.7916137  53.9455345  56.5436789
   7.6917321  53.3547992  55.3097776   8.0496893  53.8402064  55.8111163
  12.4277364  68.6379822  59.8197046  13.0657084  68.1440018  59.4859502
  11.7851455  68.5657223  59.2349272  12.4271590  68.5538831  59.6839400
  14.1534364  60.4868968  54.3862961  13.7261972  60.3995317  53.6311061
  13.5160417  60.5946744  54.9717805  13.9963971  60.4901628  54.3608403
   7.8441526  50.8073299  58.0533519   8.4734644  51.3433599  57.7754589
   8.0127389  50.7150658  58.9047085   7.9619320  50.8734661  58.1382047
   7.6455441  55.5944493  60.3259930   8.4728870  55.3229642  60.3818545
   7.6663287  56.3905335  60.6823749   7.7708291  55.6724248  60.3875113
  12.4831620  69.3299630  56.4602402  13.2723998  68.9788695  56.5804484
  12.6575218  70.1436019  56.1979036  12.6251902  69.3985488  56.4390270
   2.2224931  62.7408356  53.5130191   1.3812937  62.6412230  53.7209085
   2.4314938  63.5103836  53.8644512   2.1289623  62.8400399  53.5957506
  11.3365444  53.3409187  51.0218821  11.5415038  53.2731495  51.8675818
  11.0091868  54.1468008  50.9539998  11.3180692  53.4495128  51.1378476
   6.0341595  60.6689755  52.7627789   5.7304733  60.1145744  53.3638196
   5.3321016  60.8481965  52.2755823   5.8857805  60.6134538  52.7797494
   5.0907692  57.9790275  47.3272490   5.3667427  57.2609188  46.9150058
   5.6906362  58.5775195  47.1193597   5.2200957  57.9610646  47.2353252
  14.5899132  53.8940951  50.5021586  13.9773446  54.3811354  50.8875318
  14.6863307  53.2184442  51.0459237  14.5137030  53.8659260  50.6400444
   8.5918213  55.6503793  45.6019086   9.0461960  55.8214353  46.3266930
   9.0658259  55.0371903  45.2016861   8.7286533  55.5854678  45.6492847
   2.1133738  65.1352118  54.9321824   1.5221672  65.7761617  54.9024839
   2.8754762  65.5589736  54.9053124   2.1381999  65.2927957  54.9236971
   2.5094361  56.2954116  55.5989842   2.9695843  56.3693046  56.3364965
   2.5550468  57.0935370  55.2489663   2.5844917  56.4248263  55.6562598
   4.1577711  56.9620811  60.1661869   3.7663276  56.3154158  60.6017647
   4.3263574  57.5532246  60.7856124   4.1248621  56.9535079  60.3224575
  18.2324160  64.9657888  55.9299102  18.2907284  65.4144537  56.6759079
  17.5990628  65.3756701  55.4929182  18.1475455  65.0931623  55.9751651
  11.8723255  70.5861430  52.3653848  11.6742943  71.0752245  51.6710060
  11.2510966  70.7902672  52.9437982  11.7510819  70.6877968  52.3477072
   5.9331233  62.3546327  46.7064093   6.6773278  62.7420603  46.9447043
   6.0791929  61.5103752  46.8704581   6.0641818  62.2876800  46.7658062
   7.8510808  54.1496586  51.7395954   7.0046853  54.3219394  51.6137304
   7.8481941  53.3445930  52.0761782   7.7257958  54.0557615  51.7707081
   8.9209109  57.9271800  52.6058012   8.4469063  57.4013562  53.1163323
   9.2927245  57.3801273  52.0372874   8.9058998  57.7687797  52.5973159
  15.1845839  62.9874176  54.0164793  14.9444062  62.1480591  54.0207219
  15.6637847  63.0674343  54.7405566  15.2198023  62.8755576  54.1239595
  10.8492608  58.8208355  45.6683766  10.3215627  58.9037099  44.9789475
  11.3088317  59.5626226  45.6648411  10.8394459  58.9429017  45.5658461
  17.1851026  59.7675633  51.9694052  16.9460796  59.7271467  51.1314836
  17.3484928  60.6146785  52.0959773  17.1741330  59.8867718  51.8647534
  13.7897057  64.1525582  57.8999097  14.5131255  63.6998109  57.7210117
  13.5247019  64.4330248  57.1171425  13.8578330  64.1276551  57.7577812
   2.6583925  58.7485756  54.6351976   2.0336995  58.7604148  54.0277929
   2.3229520  59.2245931  55.2843216   2.5169417  58.8204273  54.6408545
   2.8425674  57.0910874  40.6924661   2.4938478  57.7430600  41.1556210
   2.3622119  57.0767987  39.9648532   2.7195918  57.1853928  40.6535752
  10.4029691  67.3911918  44.7993423  11.1263890  67.8570031  44.6557996
   9.9630282  67.4585528  44.0491020  10.4445383  67.4695755  44.6678204
   9.5715846  64.2509461  56.0494112   8.9572839  63.7067511  56.3442747
  10.0883131  63.7373697  55.5699928   9.5571508  64.0945870  56.0218340
   8.8112143  65.3213731  53.7838411   8.3839751  64.6963449  53.3503846
   8.8037088  65.0388652  54.6097418   8.7471284  65.1866511  53.8418238
   1.9274670  60.3578904  56.8526845   2.0868157  59.6022228  57.2578566
   1.7467564  60.9069843  57.5067582   1.9240029  60.3272717  57.0089551
   9.8694973  52.5240139  57.4077634   9.3735535  52.7203813  56.7169201
  10.6264035  52.9232807  57.2366436   9.9081798  52.6117873  57.2797771
   7.1397853  56.1982485  53.9980945   7.1640340  55.6642597  53.3093725
   7.3909327  55.6899794  54.6606535   7.1807772  56.0443389  53.9945589
   3.4199175  54.9253303  53.3786689   3.4597547  55.4262510  54.0921396
   2.5948840  55.0163697  53.1092612   3.3038701  55.0135120  53.4437227
   4.8413539  61.4413813  55.6760588   4.0105468  61.6087631  55.4695836
   4.7865056  61.0649764  56.4609473   4.7102953  61.4103544  55.7609116
   2.6497322  54.9322706  61.3116999   3.2750025  54.3884839  61.5846431
   2.1947802  54.4517624  60.7424789   2.6745582  54.7812187  61.2678592
   3.2149582  59.7169405  46.2050706   3.3552543  60.2141869  46.9079347
   3.7132115  59.0155699  46.3464919   3.3090663  59.6871384  46.3302285
   3.2449805  60.5836516  43.5343282   3.8794884  61.1796941  43.4692744
   3.3275416  60.2839973  44.3489153   3.3506356  60.6277424  43.6446369
  16.2232371  63.1151993  56.4029647  16.8150211  63.7549244  56.4347845
  16.6591365  62.4175030  56.6921713  16.3750802  63.1070343  56.4510479
   4.8228788  56.5150491  43.5088724   5.1444629  56.0353574  42.8547987
   5.0855731  57.3250137  43.3179536   4.9094813  56.5640389  43.3844216
   8.0525760  67.5369366  57.0287541   7.5450851  68.0905212  57.4728171
   7.7552407  67.5977655  56.2106315   7.9330645  67.6275677  56.9735997
  10.2187943  55.9022685  55.8712203  10.6443014  55.4495212  55.2595730
   9.6044936  55.3482756  56.1476991  10.1916588  55.7536661  55.8217229
   8.6582165  52.3737785  49.2802781   8.0150483  52.2235431  49.8487919
   8.3181572  52.1280130  48.5151885   8.5127243  52.3149907  49.2505796
  13.2481512  60.3297212  48.7032789  12.5772702  60.8726914  48.5745855
  13.9421262  60.7992067  48.4614484  13.2510379  60.4795483  48.6488317
  13.4109639  56.7853095  51.6123162  13.7637249  56.3582818  52.2868961
  12.5524441  56.7003939  51.7424239  13.3359084  56.7097836  51.7318173
   2.1093324  59.4160615  49.6706009   1.3905313  59.8324748  49.9378872
   2.4805687  59.9814854  49.1197647   2.0585256  59.5609897  49.6288816
  11.4092905  60.0488464  55.5608005  11.3890832  59.8671759  56.4142783
  11.4572106  60.9200483  55.5367588  11.4127546  60.1505002  55.6831299
   9.3539235  66.6375656  61.4856481   9.3135090  65.9925333  60.9001637
  10.1662553  66.5812273  61.7981893   9.4682389  66.5334623  61.4453430
   7.8839899  58.4558615  45.0079388   7.2904738  58.7775611  44.4563955
   7.9215176  57.6099710  44.8000494   7.8014288  58.3782943  44.8962160
  14.8433699  51.9071507  52.5407475  14.3364564  51.2000647  52.4728652
  15.6401133  51.5764696  52.6708551  14.8860939  51.7544659  52.5506470
  10.7597715  58.4138119  48.4381139  10.5311408  58.4370821  47.5959497
  11.0195792  57.5895587  48.5576149  10.7643903  58.2954199  48.3306336
   5.0416944  60.2672593  58.0406239   4.5295847  59.6593775  58.3991270
   4.8696440  60.9829185  58.5080215   4.9406581  60.2835892  58.1622462
   3.8142478  56.9514666  49.7335334   4.2899844  57.3131746  49.0985515
   3.3131077  57.6071133  50.0135477   3.8107837  57.1008855  49.6812075
  17.0453839  66.4236434  45.5248339  17.4287445  67.1727790  45.7546436
  16.2497953  66.6702254  45.2660328  16.9847622  66.5706128  45.5205913
   8.9186014  58.1896837  60.4808494   9.4757444  57.9610647  59.8486960
   8.5947079  58.9502503  60.2043707   8.9532424  58.2680674  60.3464991
   6.6369131  61.2764490  61.4460501   7.3880458  61.5916167  61.7600056
   6.8291708  61.0743661  60.6194423   6.7760546  61.2931872  61.3703897
   5.8569131  59.0955866  43.1008718   6.2368096  59.1135495  42.3159833
   5.1161727  59.5409854  42.9799565   5.8037969  59.1637640  42.9672286
  13.4854421  57.4038057  48.6884297  13.4848648  57.2486713  49.5468573
  13.2810602  58.2501044  48.6325682  13.4554199  57.5058678  48.8072236
  11.2095274  62.0835559  52.3420504  11.7048939  61.3658554  52.3024524
  10.3995049  61.7806356  52.2274991  11.1639167  61.9333205  52.3194230
   6.6553885  65.9333372  44.4917508   5.8465208  65.6100045  44.4450818
   7.1628794  65.2266594  44.4245757   6.6103552  65.7814688  44.4747803
  13.2747092  64.8339246  55.0297632  13.7002164  64.3113668  54.4768058
  12.9104012  65.4320084  54.5086255  13.2833695  64.8449473  54.8706642
   9.8625692  68.5473510  51.3598790  10.3336870  69.2613773  51.5288775
  10.1985870  67.9472261  51.8958659   9.9820807  68.5644975  51.4631166
   6.7795187  53.3200981  58.3156885   6.9123092  52.5231974  58.6437860
   7.1640340  53.8467384  58.8955160   6.8551516  53.2800898  58.4500388
  10.4999638  68.3391445  58.1226483   9.9520584  67.7149328  57.8546548
  10.9612667  68.5285717  57.4070562  10.4866848  68.2750495  57.9776914
   9.8527542  50.2431307  54.9137978   9.0473506  50.1329037  55.2305816
   9.7234277  50.3443763  54.0567844   9.7147675  50.2414977  54.8346018
  13.3093503  56.4076799  55.5077675  12.7256491  56.9086005  55.0955242
  13.6297797  55.9006355  54.8741998  13.2706678  56.4068634  55.3536182
   5.8488302  55.3217394  45.7836350   6.6703996  55.4915707  45.5418045
   5.3857953  55.4764655  45.0602647   5.9019464  55.3699127  45.6407994
   4.4383634  53.3160156  56.5634778   4.9828047  52.9751283  57.1539120
   4.4920569  54.1745618  56.7056063   4.5272753  53.3915415  56.6716652
  10.0657964  69.3442517  54.6535824  10.8856338  69.2005483  54.9152119
   9.7852042  69.9688716  55.1952262  10.1454708  69.4152869  54.7723763
  16.4647087  70.9362086  51.3422014  16.1350417  71.3873229  50.6725712
  15.7892088  70.8578249  51.8895020  16.3157523  70.9913221  51.3245237
  23.6723494  66.9247608  49.5871624  23.3576935  67.6151087  50.0192047
  23.1550436  66.8692391  48.8857125  23.5487965  67.0182497  49.5468573
  14.6703041  68.9974374  46.8244961  15.4249009  69.3652691  46.5862012
  14.4930575  69.3713928  47.5924141  14.7557519  69.1072562  46.9029850
  27.9637939  75.1468814  54.8692501  27.1266360  75.2171002  55.1040095
  27.9326170  75.1493309  53.9966803  27.8356222  75.1579042  54.7752049
  13.0260105  71.4044693  43.5223074  12.8435678  71.6216574  42.6964067
  13.8885718  71.5183706  43.5781689  13.1264695  71.4534591  43.4077561
  18.7059824  68.4071104  46.5572098  19.4345985  68.2287059  46.1110255
  18.7954717  69.2489183  46.7679276  18.8266487  68.5054982  46.5225616
  25.6445779  70.2111596  53.4536223  26.2871688  70.2809701  54.0398138
  25.8968800  69.5440819  52.9515765  25.7767911  70.1237945  53.4663502
  20.8797062  71.3048568  51.1647176  20.1753388  70.8157753  51.3231095
  20.9282036  71.3171042  50.2935621  20.7827113  71.2338216  51.0586516
  28.0827281  74.9856233  49.1848187  27.8263846  74.1736175  48.9946069
  28.9256595  74.9933801  48.9578374  28.1693307  74.8668231  49.1233004
  22.2630374  68.9255857  53.9224341  22.6440886  68.2434029  54.3092215
  21.4593658  68.6365460  53.7400005  22.2006836  68.7822906  53.9528397
  13.7754111  69.8200577  49.4033146  12.9076537  69.8923177  49.4690755
  14.0629316  70.6222656  49.5921121  13.6893859  69.9494724  49.4407912
  22.8987000  69.9678437  57.7344467  23.6440592  69.7788247  57.3207893
  22.4824305  70.4936674  57.1758324  22.9471974  70.0180582  57.5909041
  30.2749271  77.3387665  52.6849972  30.8257192  76.7055734  52.9247064
  30.2593386  77.8703058  53.3765477  30.3534467  77.3236613  52.8228831
  23.9777677  75.5783999  51.7954569  23.6342443  74.8574334  52.1461818
  24.0770720  75.3697850  50.9532927  23.9419720  75.4408202  51.7226249
  22.4968642  73.4975583  53.6714112  21.6579743  73.5236862  53.4352375
  22.5673010  74.1446319  54.2519458  22.3837036  73.5971709  53.7223228
  20.9437921  70.3960960  48.4041727  21.6464274  70.1968709  47.9261686
  20.6782109  69.6236903  48.7110571  21.0084553  70.2523927  48.3787169
  15.7066477  71.6596246  57.4572608  15.5149674  71.6751380  58.3072032
  16.5565073  71.8559920  57.4339263  15.8042199  71.6910597  57.5795903
  18.6170704  71.8551755  57.6644431  19.0743318  72.5875729  57.7917223
  18.6927033  71.4318220  58.4231687  18.6961674  71.9008993  57.7945508
  23.0898030  65.0341630  51.5338274  23.2081598  65.4918094  50.8005577
  22.9160206  64.2286891  51.2474492  23.0817201  64.9835402  51.3839208
  20.6660865  73.7792497  57.4869593  20.8802835  73.1403411  56.9332947
  20.0494764  74.2238321  57.0577455  20.6066194  73.7502641  57.3420024
  22.8299953  75.3881562  58.4252900  22.0176635  75.0807453  58.5066073
  23.2889888  74.9080562  58.9895613  22.7780338  75.2718055  58.5207494
  20.0575594  66.8892433  52.4756936  19.1869152  66.8631154  52.4290245
  20.3115935  66.7169625  51.6582782  19.9669154  66.8602576  52.3477073
  17.0824734  68.8998661  53.9330406  16.5663223  68.2078853  54.0581985
  16.5218663  69.5669438  53.8793005  16.9231247  68.8961919  53.9436472
  19.1516968  69.4391621  55.7623259  18.7648721  69.4640653  56.5436789
  18.6649905  68.8733300  55.3097776  19.0229477  69.3587372  55.8111163
  18.8174109  66.3258607  58.0533519  19.4467227  66.8618907  57.7754589
  18.9859972  66.2335966  58.9047085  18.9351904  66.3919969  58.1382047
  18.6188024  71.1129801  60.3259930  19.4461454  70.8414950  60.3818545
  18.6395870  71.9090643  60.6823749  18.7440874  71.1909556  60.3875113
  22.3098028  68.8594495  51.0218821  22.5147621  68.7916803  51.8675818
  21.9824452  69.6653316  50.9539998  22.2913276  68.9680435  51.1378476
  25.5631716  69.4126259  50.5021586  24.9506029  69.8996661  50.8875318
  25.6595890  68.7369750  51.0459237  25.4869613  69.3844568  50.6400444
  19.5650797  71.1689100  45.6019086  20.0194543  71.3399661  46.3266930
  20.0390842  70.5557211  45.2016861  19.7019117  71.1039986  45.6492847
  18.8243392  69.6681894  51.7395954  17.9779437  69.8404701  51.6137304
  18.8214524  68.8631237  52.0761782  18.6990542  69.5742923  51.7707081
  19.8941692  73.4457108  52.6058012  19.4201647  72.9198870  53.1163323
  20.2659828  72.8986581  52.0372874  19.8791581  73.2873105  52.5973159
  21.8225192  74.3393663  45.6683766  21.2948211  74.4222407  44.9789475
  22.2820900  75.0811534  45.6648411  21.8127043  74.4614325  45.5658461
  28.1583610  75.2860941  51.9694052  27.9193380  75.2456775  51.1314836
  28.3217511  76.1332093  52.0959773  28.1473913  75.4053026  51.8647534
  20.8427557  68.0425447  57.4077634  20.3468118  68.2389121  56.7169201
  21.5996619  68.4418115  57.2366436  20.8814382  68.1303181  57.2797771
  18.1130436  71.7167793  53.9980945  18.1372924  71.1827905  53.3093725
  18.3641910  71.2085102  54.6606535  18.1540355  71.5628697  53.9945589
  14.3931759  70.4438611  53.3786689  14.4330130  70.9447818  54.0921396
  13.5681423  70.5349005  53.1092612  14.2771285  70.5320428  53.4437227
  13.6229905  70.4508014  61.3116999  14.2482609  69.9070147  61.5846431
  13.1680385  69.9702932  60.7424789  13.6478166  70.2997495  61.2678592
  15.7961371  72.0335799  43.5088724  16.1177212  71.5538882  42.8547987
  16.0588315  72.8435445  43.3179536  15.8827397  72.0825697  43.3844216
  21.1920526  71.4207993  55.8712203  21.6175598  70.9680520  55.2595730
  20.5777519  70.8668064  56.1476991  21.1649172  71.2721969  55.8217229
  19.6314749  67.8923093  49.2802781  18.9883067  67.7420739  49.8487919
  19.2914156  67.6465438  48.5151885  19.4859826  67.8335215  49.2505796
  24.3842223  72.3038403  51.6123162  24.7369833  71.8768126  52.2868961
  23.5257024  72.2189247  51.7424239  24.3091668  72.2283144  51.7318173
  25.8166283  67.4256815  52.5407475  25.3097148  66.7185955  52.4728652
  26.6133717  67.0950004  52.6708551  25.8593522  67.2729967  52.5506470
  21.7330299  73.9323427  48.4381139  21.5043992  73.9556129  47.5959497
  21.9928375  73.1080894  48.5576149  21.7376487  73.8139507  48.3306336
  24.4587005  72.9223365  48.6884297  24.4581231  72.7672021  49.5468573
  24.2543185  73.7686352  48.6325682  24.4286783  73.0243985  48.8072236
  17.7527770  68.8386289  58.3156885  17.8855676  68.0417282  58.6437860
  18.1372923  69.3652692  58.8955160  17.8284099  68.7986206  58.4500388
  20.8260126  65.7616615  54.9137978  20.0206089  65.6514345  55.2305816
  20.6966861  65.8629071  54.0567844  20.6880258  65.7600285  54.8346018
  24.2826086  71.9262107  55.5077675  23.6989075  72.4271313  55.0955242
  24.6030380  71.4191663  54.8741998  24.2439261  71.9253942  55.3536182
  16.8220885  70.8402702  45.7836350  17.6436580  71.0101015  45.5418045
  16.3590536  70.9949963  45.0602647  16.8752048  70.8884435  45.6407994
  15.4116217  68.8345464  56.5634778  15.9560630  68.4936591  57.1539120
  15.4653153  69.6930925  56.7056063  15.5005337  68.9100723  56.6716652
   4.2857272  22.9014884  34.5518747   4.2551276  23.7559521  34.7237016
   4.8838620  22.6010177  35.1104891   4.3694430  22.9831381  34.6593549
   0.7950673  28.2577061  48.9132134   1.5017440  27.7629092  49.0419068
   0.9838608  28.6986142  48.1834792   0.9278579  28.2495411  48.8241179
   2.1073846  25.4767186  32.8237057   1.9913372  26.2274872  33.2529195
   2.9029733  25.2191140  33.0733144   2.2078436  25.5502033  32.9241148
   1.4209151  12.8255124  36.5211671   1.1062592  13.5158602  36.9532094
   0.9036093  12.7699906  35.8197172   1.2973622  12.9190012  36.4808620
   6.2169638  28.4005929  38.0082126   5.3867341  28.6116573  38.1715543
   6.1678890  27.5742984  37.7324410   6.0876373  28.3095535  37.9919492
   5.7123596  21.0476330  41.8032548   4.8752017  21.1178517  42.0380142
   5.6811827  21.0500825  40.9306850   5.5841879  21.0586557  41.7092096
   0.4353782  25.2432006  37.3944439   1.1911297  25.6763521  37.4333348
   0.5416106  24.5936776  37.9679075   0.5623953  25.2109490  37.4842465
   3.4733953  29.0705284  38.1446842   3.0369185  29.0742026  38.9005813
   3.1396869  29.7510783  37.7126419   3.3596573  29.1717739  38.1927675
   3.3931436  16.1119111  40.3876270   4.0357344  16.1817216  40.9738185
   3.6454457  15.4448334  39.8855812   3.5253568  16.0245460  40.4003549
   6.6078299  25.7886203  37.0366479   7.2694733  25.2276872  36.9362388
   5.9669711  25.2938234  37.3619170   6.6107167  25.6322613  37.0698819
   2.8943130  26.8051586  36.7778468   3.1298719  26.9496785  35.9505319
   3.0432694  27.5693994  37.1709982   2.9508933  26.9390640  36.7142072
   4.7233587  25.6453252  34.6148072   5.0541804  26.1780892  34.0088167
   5.2966675  25.6992140  35.2710023   4.8567266  25.7322821  34.6225854
   5.8312938  20.8863749  36.1188233   5.5749503  20.0743690  35.9286116
   6.6742252  20.8941316  35.8918421   5.9178964  20.7675746  36.0573051
   3.5138097  28.0413345  45.9546786   3.2776735  27.2101410  45.8358847
   4.1581326  27.9898952  46.5401630   3.5732768  27.9111033  46.0232680
   4.5374518  27.8257793  42.0175081   4.2320335  28.5585850  42.3788396
   3.8180734  27.4195723  41.7367867   4.3861860  27.8739526  42.0288218
  10.2376310  24.4650794  41.3443425  10.1700811  24.4846753  40.4746011
  10.2231973  25.3081121  41.5699095  10.2255067  24.5924529  41.2495902
   8.0234928  23.2395180  39.6190019   8.5742849  22.6063249  39.8587111
   8.0079043  23.7710573  40.3105523   8.1020124  23.2244129  39.7568877
   1.7263334  21.4791514  38.7294615   1.3828100  20.7581849  39.0801865
   1.8256376  21.2705365  37.8872974   1.6905377  21.3415717  38.6566295
   2.1876363  27.9417218  34.2718604   2.7534396  28.6010428  34.1877146
   1.5404266  28.2866916  34.7435006   2.1755119  28.0899159  34.3291360
   4.1211823  24.6051086  37.8915400   4.0345798  24.7606512  38.7450179
   3.6662303  25.2489161  37.5174805   4.0415080  24.7226841  37.9622507
   1.8885688  28.6345192  40.3027741   1.7500047  29.3326238  40.8076483
   1.1085686  28.4793848  39.9463923   1.7528915  28.7145359  40.3254015
   3.3839061  27.9923446  31.0644240   3.0045870  27.2060584  31.0573529
   2.7205306  28.5410303  30.9215884   3.2297536  27.9568270  31.0425037
   1.6299160  30.2368937  31.3995926   1.7118997  31.0435923  31.0757377
   2.1148902  30.2564896  32.1236699   1.7136317  30.3589599  31.4582825
   1.1374360  28.9966355  51.4814252   1.9509225  28.7251504  51.6419384
   0.9769326  28.6973895  50.6774448   1.2344308  28.9121281  51.3859658
   1.1495604  30.0572645  46.7537092   1.7875324  29.5632841  46.4199548
   0.5069695  29.9850046  46.1689319   1.1489830  29.9731654  46.6179447
   2.8752604  21.9061791  41.3203008   2.4480212  21.8188140  40.5651108
   2.2378657  22.0139567  41.9057852   2.7182211  21.9094451  41.2948450
   1.2049860  30.7492454  43.3942449   1.9942239  30.3981518  43.5144531
   1.3793458  31.5628842  43.1319083   1.3470142  30.8178311  43.3730317
   3.3117372  15.3133775  37.4361633   2.6991686  15.8004177  37.8215365
   3.4081547  14.6377265  37.9799284   3.2355270  15.2852083  37.5740491
   6.9542400  26.3850711  42.8639149   7.0125524  26.8337360  43.6099126
   6.3208868  26.7949524  42.4269229   6.8693695  26.5124446  42.9091697
   3.9064080  24.4066999  40.9504839   3.6662303  23.5673414  40.9547266
   4.3856087  24.4867166  41.6745613   3.9416263  24.2948399  41.0579642
   5.9069267  21.1868456  38.9034099   5.6679037  21.1464290  38.0654883
   6.0703168  22.0339608  39.0299820   5.8959570  21.3060541  38.7987580
   2.5115297  25.5718406  44.8339144   3.2349496  25.1190932  44.6550164
   2.2465259  25.8523071  44.0511472   2.5796570  25.5469374  44.6917859
   4.9450611  24.5344816  43.3369693   5.5368451  25.1742067  43.3687891
   5.3809605  23.8367853  43.6261760   5.0969042  24.5263167  43.3850526
   1.9699752  21.7490035  35.6372836   1.2990942  22.2919737  35.5085901
   2.6639503  22.2184890  35.3954531   1.9728620  21.8988306  35.5828364
   2.1327880  18.2045919  38.5463209   2.4855490  17.7775642  39.2209008
   1.2742681  18.1196762  38.6764286   2.0577324  18.1290659  38.6658220
   3.5651940  13.3264330  39.4747522   3.0582804  12.6193470  39.4068699
   4.3619374  12.9957519  39.6048598   3.6079179  13.1737482  39.4846517
   5.7672080  27.8429257  32.4588386   6.1505686  28.5920613  32.6886483
   4.9716193  28.0895077  32.2000375   5.7065862  27.9898951  32.4545960
   2.2072662  18.8230880  35.6224344   2.2066888  18.6679537  36.4808620
   2.0028842  19.6693867  35.5665729   2.1772440  18.9251501  35.7412283
   1.9965333  26.2532069  41.9637679   2.4220404  25.7306491  41.4108104
   1.6322253  26.8512907  41.4426302   2.0051935  26.2642296  41.8046689
   0.6720917  31.5767647  50.4730909   0.7817882  30.7876208  50.8287656
   1.0011813  31.4873583  49.6705247   0.7373323  31.4473500  50.4073300
   2.0311743  17.8269622  42.4417722   1.4474732  18.3278829  42.0295289
   2.3516037  17.3199178  41.8082045   1.9924918  17.8261457  42.2876229
  15.2589855  38.4200192  34.5518747  15.2283860  39.2744829  34.7237016
  15.8571204  38.1195485  35.1104891  15.3427013  38.5016689  34.6593549
   8.4589540  37.5075843  39.3071677   7.6027436  37.6684341  39.3580794
   8.5057194  36.6367907  39.3276738   8.3388652  37.4026645  39.3177743
   2.8430680  47.0438561  35.0708909   2.0913579  46.6654099  34.8424954
   3.2916691  47.0756995  34.3227719   2.7980347  46.9924168  34.9266411
  11.7683257  43.7762369  48.9132134  12.4750024  43.2814400  49.0419068
  11.9571192  44.2171450  48.1834792  11.9011162  43.7680719  48.8241179
   8.2955640  47.4663931  30.4994456   7.9607008  48.1440852  30.0638678
   8.8082510  47.0769242  29.9111328   8.3221221  47.5088509  30.3481248
   7.8359931  49.4178199  36.4405568   8.2199310  49.9865098  35.9010343
   7.7719072  48.6927710  35.9611384   7.8833358  49.3953663  36.2899430
  11.3041361  39.5667887  41.9503329  11.8497321  40.2452974  42.0097299
  11.2458237  39.4255348  41.0904911  11.3757275  39.6459889  41.8315390
   4.4215436  47.0556953  37.3371681   4.5225799  46.2457307  37.6468809
   3.8257181  46.9613900  36.7071360   4.3487975  46.9221981  37.2897920
  13.0806430  40.9952494  32.8237057  12.9645956  41.7460180  33.2529195
  13.8762316  40.7376447  33.0733144  13.1811019  41.0687341  32.9241148
   4.2616176  51.9734542  38.7386537   4.9053631  52.4147706  39.1282696
   4.5872431  51.1687969  38.6516796   4.4048004  51.9199737  38.7832015
   4.9636755  44.9846517  34.1106399   5.2852596  45.5251725  33.5067707
   5.6108852  44.4143289  34.2428689   5.1062810  44.9805692  34.0413435
   7.0138463  36.9862512  34.1940786   7.7118628  37.1650640  34.6862249
   7.3290796  36.4632851  33.5711175   7.1633801  36.9356284  34.1742796
   7.2026399  43.3732957  34.1820577   7.6420034  42.7650058  34.6275350
   7.0531062  42.9940331  33.4106042   7.2447864  43.2271428  34.1339745
   4.6698042  41.9676969  41.3839403   5.3147044  41.4749412  41.0650351
   4.9099819  42.1101756  42.2105481   4.8008627  41.9154411  41.4588936
   7.2084133  44.8131875  41.0346295   7.4907376  44.0183281  40.8133051
   7.9370293  45.2912462  41.0551356   7.3573697  44.7666472  41.0049311
   5.1865327  32.3554909  38.2762061   4.8568657  32.8066052  37.6065759
   4.5110329  32.2771072  38.8235067   5.0375763  32.4106044  38.2585284
  10.8035735  41.7260138  31.1351347  10.7187030  42.5821105  31.2800915
  11.2920118  41.4504463  31.8033506  10.8624633  41.8117460  31.2553428
  12.3941735  28.3440432  36.5211671  12.0795176  29.0343910  36.9532094
  11.8768676  28.2885214  35.8197172  12.2706205  28.4375320  36.4808620
  11.7354168  38.3444933  32.6349082  11.2065640  38.5604566  33.2946388
  12.2579188  39.0381071  32.5550051  11.7342621  38.4788070  32.7204681
  17.1902221  43.9191237  38.0082126  16.3599925  44.1301881  38.1715543
  17.1411474  43.0928292  37.7324410  17.0608957  43.8280843  37.9919492
   3.6253776  42.2408149  31.4356550   3.0410992  42.7458181  31.8422414
   3.2223871  42.0150536  30.6953142   3.4793080  42.2816398  31.3861575
   5.2511959  46.7495091  40.8430036   4.7338901  46.3902506  40.2391344
   5.9486350  46.2257266  40.8536102   5.2777540  46.6192779  40.7560294
   8.9075551  47.1989905  46.8046209   8.9958897  47.0116046  47.6524419
   9.3365263  46.5527335  46.4051056   8.9837653  47.0752913  46.8717960
   6.4746011  46.4821065  45.7863871   5.9116846  46.0693675  46.3103532
   7.2367034  46.4073971  46.2057014   6.5040459  46.4098466  45.9256871
   8.0830991  38.4873801  29.9125470   8.3226994  38.6951785  29.1000813
   8.4046832  37.6831310  30.0214415   8.1668149  38.3987903  29.8086023
   3.3921281  30.4167197  33.7585008   4.1467249  30.7845514  33.5202058
   3.2148816  30.7906752  34.5264188   3.4775759  30.5265385  33.8369897
   2.0342002  48.4719086  38.3900501   2.7362581  47.9571076  38.4473258
   1.9539485  48.7993238  39.1947376   2.1265763  48.4433313  38.5173293
  16.6856180  36.5661638  41.8032548  15.8484601  36.6363825  42.0380142
  16.6544411  36.5686133  40.9306850  16.5574462  36.5771865  41.7092096
   3.0820909  38.7094673  47.5180916   3.2541412  38.6000568  48.3666198
   3.6190266  39.3549079  47.2812109   3.1865913  38.7886675  47.6086013
   1.7478346  32.8237516  30.4563121   1.5653919  33.0409397  29.6304114
   2.6103959  32.9376529  30.5121736   1.8482935  32.8727414  30.3417608
   1.3592778  44.6625438  37.8986109   2.1981677  44.8948371  37.9459871
   1.3904547  43.7929750  37.8293145   1.4874495  44.5682385  37.8950754
   1.9845481  45.0826314  42.1999415   2.5243706  44.9397445  42.8702787
   1.3015427  45.4823064  42.5683441   1.9637634  45.1205985  42.3533836
   7.4278065  29.8263927  33.4912145   8.1564225  29.6479882  33.0450301
   7.5172958  30.6682007  33.7019323   7.5484727  29.9247805  33.4565663
  11.4086366  40.7617314  37.3944439  12.1643881  41.1948829  37.4333348
  11.5148690  40.1122084  37.9679075  11.5356536  40.7294798  37.4842465
  14.4466537  44.5890592  38.1446842  14.0101768  44.5927334  38.9005813
  14.1129452  45.2696091  37.7126419  14.3329157  44.6903047  38.1927675
   9.0195610  46.6298924  49.4689992   9.8036027  46.7429772  49.8345734
   8.8192205  45.8040061  49.6648678   9.1061636  46.5245644  49.5524378
  14.3664020  31.6304419  40.3876270  15.0089928  31.7002524  40.9738185
  14.6187040  30.9633642  39.8855812  14.4986152  31.5430768  40.4003549
   1.2940373  36.1011689  28.9685594   0.5798550  35.8149868  29.3808027
   1.7784341  36.4408315  29.6091982   1.2599736  36.1093339  29.1241229
   2.1381232  34.8404983  45.0000844   1.4453029  34.3701962  45.2461575
   2.7541559  34.6143287  45.5742551   2.1265762  34.7372115  45.1209997
   9.1766004  48.5409026  43.1156448   8.3781249  48.3008526  43.3730317
   9.6252015  48.5923419  43.8623496   9.1240615  48.5131418  43.2641372
   8.4687691  44.6041643  29.3447403   8.8838839  44.2726667  28.6531898
   7.6379620  44.3710545  29.2167539   8.4075699  44.5212899  29.2238250
  13.8675714  42.3236894  36.7778468  14.1031303  42.4682093  35.9505319
  14.0165277  43.0879302  37.1709982  13.9241517  42.4575948  36.7142072
   0.8621791  38.8070387  46.1427689   1.5861763  38.7923417  46.6292584
   0.9637928  39.5165742  45.6449657   0.9840000  38.9095090  46.1406476
  15.6966170  41.1638560  34.6148072  16.0274387  41.6966200  34.0088167
  16.2699258  41.2177448  35.2710023  15.8299849  41.2508129  34.6225854
   8.2366740  42.2869471  51.0076636   7.4439721  42.6012983  51.1929256
   8.3515668  42.5020940  50.1697421   8.1362151  42.3653308  50.9114971
  10.9098059  39.0103462  35.2971652  11.0044914  39.7492757  35.7511277
  10.2856903  38.5820938  35.7306216  10.8307089  39.0564783  35.4279799
   9.1650533  42.1889675  45.9461933   9.7389395  41.5516919  46.1010497
   9.0865337  42.1893757  45.0771590   9.2383768  42.0954786  45.8408344
  11.1621081  40.8552202  28.5308604  11.0801243  40.9254389  29.3963591
  11.8000801  41.4181946  28.3392345  11.2440918  40.9491173  28.6298553
   4.5214252  40.6212940  37.9983130   4.2633496  39.7884675  37.9714430
   4.5762735  40.8470553  37.1575631   4.4914030  40.5310711  37.8703267
   9.6015302  32.7241391  38.0987223   8.8971629  32.2350576  38.2571142
   9.6500276  32.7363865  37.2275667   9.5045354  32.6531039  37.9926563
   3.4948964  38.1750703  38.4848025   2.9198555  38.3342871  39.1211986
   3.1184640  37.5386112  38.0216476   3.3551776  38.1048516  38.5102583
   7.1622253  36.6474052  43.3440403   6.7736685  36.2228270  42.6892595
   6.4976951  36.8956202  43.8517430   7.0069180  36.6212773  43.3228271
  16.8045522  36.4049057  36.1188233  16.5482087  35.5928998  35.9286116
  17.6474836  36.4126624  35.8918421  16.8911547  36.2861054  36.0573051
  10.9848614  30.3448681  40.8564388  11.3659126  29.6626852  41.2432262
  10.1811898  30.0558283  40.6740052  10.9225076  30.2015729  40.8868444
   8.2661191  40.8772657  31.5417210   9.0801830  41.1687549  31.4299982
   8.2020332  40.2232519  30.9675503   8.3763930  40.8237851  31.4406048
  14.4870681  43.5598653  45.9546786  14.2509318  42.7286717  45.8358847
  15.1313910  43.5084260  46.5401630  14.5465352  43.4296341  46.0232680
   4.1369099  44.3494174  36.6689523   4.7743046  44.1105922  37.2141316
   4.5624171  44.5531333  35.9342683   4.2945265  44.3445184  36.6406680
   4.7771914  39.5696464  31.0064412   5.1617067  39.3504170  31.7580957
   4.5283535  40.3959409  31.1365488   4.7973987  39.6594610  31.1365488
   4.9440455  32.8502879  50.7226996   4.6293896  33.6202442  50.4596559
   4.6230387  32.2873135  50.1379223   4.8499374  32.8813148  50.5968346
  15.5107102  43.3443101  42.0175081  15.2052919  44.0771158  42.3788396
  14.7913317  42.9381031  41.7367867  15.3594444  43.3924834  42.0288218
   6.5190571  44.8266597  38.3483309   6.5929579  44.6641768  39.2025159
   7.3360077  45.0156786  38.1043790   6.6506930  44.8303339  38.4381334
   2.4972352  31.2393400  36.3373192   1.6294777  31.3116000  36.4030802
   2.7847556  32.0415479  36.5261168   2.4112100  31.3687548  36.3747959
  11.6205240  31.3871260  44.6684514  12.3658832  31.1981070  44.2547940
  11.2042545  31.9129498  44.1098371  11.6690215  31.4373405  44.5249087
   5.0595157  47.7901340  33.0796782   5.3493455  47.3990321  32.3556009
   5.7898638  47.9718045  33.5202057   5.2102041  47.7595153  33.0379589
   5.6489902  42.5919086  44.1649913   5.1501596  43.3034853  44.2434801
   6.4590126  42.9119752  44.1268075   5.6946009  42.7445934  44.1706481
   3.0001072  49.7668722  36.1456932   2.7801368  49.4766077  36.9383599
   2.7795594  49.1083677  35.6174844   2.9348667  49.6268430  36.1845841
   1.9118020  41.8542039  38.4112634   1.6231268  41.2279510  38.9458361
   2.7801368  41.7962326  38.4777314   1.9978272  41.7529583  38.5003588
  12.6995917  36.9976822  38.7294615  12.3560683  36.2767157  39.0801865
  12.7988960  36.7890673  37.8872974  12.6637960  36.8601025  38.6566295
   5.1669028  51.1398112  34.9287624   5.8193086  50.6074554  35.1578650
   4.4694637  50.7866764  35.3155498   5.1599746  51.0087635  35.0199792
   2.1150293  43.4937290  34.3354999   2.8696261  43.8750329  34.5490461
   1.5220906  43.9448433  34.7901695   2.1387007  43.6166117  34.4337877
  13.1608946  43.4602526  34.2718604  13.7266979  44.1195736  34.1877146
  12.5136850  43.8052224  34.7435006  13.1487703  43.6084467  34.3291360
   4.5756960  35.4500130  49.4612211   3.7656736  35.7557910  49.3502053
   5.0531647  36.1705712  49.5764795   4.5260439  35.6014731  49.4619282
   3.4348520  44.6645851  39.7095114   2.9129273  44.8046143  40.3946979
   3.8222540  43.9056515  39.8997231   3.4152221  44.5731375  39.8396190
   9.6315525  46.4041310  33.6955683   9.3902200  45.6709171  33.2882748
   9.8116857  46.9528167  33.0422016   9.6223149  46.3763701  33.5385906
   4.8614845  41.6949870  35.1076605   4.6657628  42.3024605  34.5136908
   5.0849191  41.0017814  34.6268279   4.8649486  41.6827396  34.9492686
   3.2593375  38.5804608  35.2257473   3.9816027  38.7445766  34.7661279
   2.7801368  39.3014273  35.1196813   3.2957106  38.7102838  35.1423087
  11.2186883  34.9168407  40.6054158  10.3797983  34.9429686  40.3692422
  11.2891250  35.5639142  41.1859505  11.1055276  35.0164533  40.6563275
   0.9100992  40.9862680  44.3311613   1.4222089  41.2646934  43.6820373
   0.6237335  41.7251974  44.6974426   0.9435855  41.1365034  44.2901491
   9.6656161  31.8153784  35.3381774  10.3682514  31.6161532  34.8601732
   9.4000350  31.0429726  35.6450618   9.7302793  31.6716750  35.3127216
  15.0944407  40.1236394  37.8915400  15.0078381  40.2791820  38.7450179
  14.6394887  40.7674469  37.5174805  15.0147663  40.2412149  37.9622507
   4.4284717  33.0789069  44.3912655   4.2367914  33.0944203  45.2412078
   5.2783313  33.2752743  44.3679310   4.5260439  33.1103420  44.5135950
   8.9670223  37.4447141  36.5140960   8.7204937  37.3642892  37.3477749
   9.2955346  36.6600608  36.3203487   8.9791466  37.3173406  36.6088483
  12.8618272  44.1530500  40.3027741  12.7232631  44.8511546  40.8076483
  12.0818269  43.9979156  39.9463923  12.7261498  44.2330667  40.3254015
  11.1996357  40.4526875  46.5550123  11.1944395  39.5806692  46.5592549
  11.9057350  40.6515044  46.0819578  11.3041361  40.3530749  46.4857158
   4.9267250  40.1803859  45.9263943   5.0710626  40.7605067  45.2907053
   5.2742899  40.5580156  46.6313797   4.9994711  40.3224563  45.9362938
   7.0987167  39.3794028  43.7089074   6.3510481  39.5725042  43.3037352
   7.2528693  38.5539247  43.4713196   7.0109595  39.2859139  43.6134480
   3.9995005  48.3706631  42.7924969   4.1484569  47.8109547  42.1398374
   4.7795007  48.4498633  43.1757488   4.1369099  48.2992196  42.7521919
  14.3571644  43.5108754  31.0644240  13.9778453  42.7245892  31.0573529
  13.6937890  44.0595611  30.9215884  14.2030119  43.4753578  31.0425037
   6.5248306  48.5421274  44.0709460   6.4491977  47.8730084  44.6260249
   6.4538165  49.2439062  44.5850127   6.5028912  48.5466181  44.2286308
   7.3388944  33.2744578  44.5984478   7.7961558  34.0068553  44.7257270
   7.4145273  32.8511044  45.3571734   7.4179914  33.3201816  44.7285554
  11.8116270  26.4534453  38.4678321  11.9299838  26.9110917  37.7345624
  11.6378446  25.6479715  38.1814539  11.8035441  26.4028226  38.3179255
   7.1818553  47.0622273  34.9033066   7.9468444  46.7931916  34.5815731
   7.0796642  46.5772283  35.6203129   7.2800048  46.9511837  34.9612894
   5.2171322  35.2646682  41.4426302   4.4267397  35.0838142  41.7643638
   5.6131945  34.4873635  41.4256596   5.1588198  35.1234143  41.4878850
   9.7037213  44.0934457  26.8833016  10.4710198  44.1534581  26.4738867
   9.2568522  43.5214898  26.3989334   9.7510640  44.0171032  26.7510726
  10.6015009  42.8989112  39.1685748   9.9260010  42.6674345  39.6699135
  10.6107385  42.2910295  38.5427853  10.5033513  42.7748038  39.1501900
   7.7309153  37.7406941  45.9249801   7.6668294  38.6016898  45.7969938
   7.8706340  37.4238935  45.1245352   7.7424623  37.8207108  45.7878014
  12.6031743  45.7554245  31.3995926  12.6851581  46.5621231  31.0757377
  13.0881485  45.7750204  32.1236699  12.6868901  45.8774907  31.4582825
   6.4128246  40.4339081  40.0666004   5.9890496  40.6343580  39.3305022
   6.2373102  39.5867929  40.1790304   6.3239127  40.3387862  39.9739694
   5.9139940  51.9489594  42.5287461   6.4035870  51.2500383  42.3463126
   5.3424172  51.6513464  43.1163518   5.9024470  51.8015817  42.5888502
   1.7010691  40.9291132  35.4993976   1.8575311  40.8637935  36.3549968
   2.0411285  41.7039685  35.2872656   1.7743926  41.0340330  35.5948571
   8.2389836  40.3049016  34.3687340   8.7805381  39.8019397  34.8325960
   8.5536395  40.2514210  33.5576825   8.3654233  40.2228437  34.3171152
  12.1106943  44.5151663  51.4814252  12.9241809  44.2436812  51.6419384
  11.9501910  44.2159203  50.6774448  12.2076892  44.4306589  51.3859658
   6.4076286  45.6966367  31.6527368   6.4769106  44.8380906  31.7920368
   7.1864741  45.9138248  31.3246392   6.5329136  45.6019231  31.6244525
   9.3879105  35.1985320  44.4209640   9.6021075  34.5596234  43.8672994
   8.7713005  35.6431144  43.9917502   9.3284435  35.1695464  44.2760071
  10.7983773  48.1204069  35.8663861  10.4063565  47.8170784  35.1486727
  10.9536846  48.9573158  35.6768815  10.7637363  48.1987905  35.7320358
  11.5518193  36.8074385  45.3592947  10.7394875  36.5000276  45.4406120
  12.0108128  36.3273386  45.9235659  11.4998578  36.6910878  45.4547541
  10.9623448  44.6854057  35.8069891  10.6038103  44.8568700  36.5833924
  10.4762159  45.1467263  35.2497890  10.8382145  44.7793028  35.8395161
   8.7793834  28.3085256  39.4096983   7.9087392  28.2823977  39.3630292
   9.0334175  28.1362448  38.5922829   8.6887394  28.2795400  39.2817120
   5.7511813  40.3653223  28.3470126   6.0404338  41.1418105  28.6213700
   5.8383612  39.8541954  29.0484625   5.8066070  40.4045141  28.4912624
   8.6471701  38.2134457  50.1421649   9.1171332  38.8376573  50.5289524
   8.6933581  37.5451432  50.7014864   8.7239577  38.2069137  50.2821721
   5.8042975  30.3191484  40.8670453   5.2881463  29.6271676  40.9922032
   5.2436903  30.9862261  40.8133052   5.6449488  30.3154742  40.8776519
   7.8735208  30.8584444  42.6963306   7.4866961  30.8833476  43.4776836
   7.3868145  30.2926123  42.2437822   7.7447717  30.7780195  42.7451209
  12.1228187  45.5757953  46.7537092  12.7607908  45.0818149  46.4199548
  11.4802279  45.5035354  46.1689319  12.1222414  45.4916962  46.6179447
  13.8485188  37.4247099  41.3203008  13.4212796  37.3373448  40.5651108
  13.2111240  37.5324875  41.9057852  13.6914795  37.4279759  41.2948450
   7.5392350  27.7451430  44.9873566   8.1685468  28.2811730  44.7094636
   7.7078212  27.6528789  45.8387131   7.6570144  27.8112792  45.0722094
   7.3406265  32.5322625  47.2599977   8.1679694  32.2607773  47.3158592
   7.3614111  33.3283466  47.6163795   7.4659115  32.6102379  47.3215160
  12.1782444  46.2677762  43.3942449  12.9674822  45.9166826  43.5144531
  12.3526042  47.0814150  43.1319083  12.3202726  46.3363619  43.3730317
   1.9175754  39.6786487  40.4470238   1.0763761  39.5790361  40.6549132
   2.1265762  40.4481968  40.7984559   1.8240447  39.7778531  40.5297553
  11.0316268  30.2787318  37.9558868  11.2365862  30.2109626  38.8015865
  10.7042692  31.0846140  37.8880045  11.0131516  30.3873259  38.0718523
   5.7292419  37.6067887  39.6967835   5.4255557  37.0523875  40.2978243
   5.0271840  37.7860096  39.2095870   5.5808629  37.5512669  39.7137541
   4.7858516  34.9168406  34.2612537   5.0618251  34.1987319  33.8490105
   5.3857186  35.5153326  34.0533643   4.9151781  34.8988777  34.1693299
   3.7910770  44.8217607  44.4039933   3.6831125  44.8319669  45.2701991
   4.0006552  45.6472388  44.2144887   3.8060881  44.9458682  44.5044025
  14.2849956  30.8319083  37.4361633  13.6724270  31.3189485  37.8215365
  14.3814131  30.1562573  37.9799284  14.2087854  30.8037391  37.5740491
   8.2869037  32.5881924  32.5359132   8.7412783  32.7592484  33.2606977
   8.7609083  31.9750034  32.1356908   8.4237357  32.5232809  32.5832894
   1.8084562  42.0730250  41.8661871   1.2172496  42.7139748  41.8364886
   2.5705586  42.4967867  41.8393170   1.8332823  42.2306088  41.8577018
   2.2045185  33.2332247  42.5329888   2.6646667  33.3071177  43.2705012
   2.2501292  34.0313501  42.1829710   2.2795740  33.3626394  42.5902645
   3.8528535  33.8998942  47.1001916   3.4614100  33.2532289  47.5357693
   4.0214398  34.4910378  47.7196171   3.8199445  33.8913210  47.2564622
  17.9274984  41.9036019  42.8639149  17.9858108  42.3522668  43.6099126
  17.2941451  42.3134832  42.4269229  17.8426279  42.0309754  42.9091697
  11.5674079  47.5239561  39.2993895  11.3693767  48.0130376  38.6050107
  10.9461790  47.7280803  39.8778029  11.4461643  47.6256099  39.2817119
   5.6282057  39.2924458  33.6404140   6.3724102  39.6798734  33.8787089
   5.7742753  38.4481883  33.8044627   5.7592642  39.2254931  33.6998109
   7.5461632  31.0874717  38.6736001   6.6997677  31.2597525  38.5477351
   7.5432765  30.2824061  39.0101829   7.4208782  30.9935746  38.7047128
   8.6159933  34.8649931  39.5398059   8.1419887  34.3391693  40.0503370
   8.9878069  34.3179404  38.9712920   8.6009822  34.7065928  39.5313206
  14.8796663  39.9252307  40.9504839  14.6394886  39.0858722  40.9547266
  15.3588671  40.0052474  41.6745613  14.9148847  39.8133707  41.0579642
  10.5443432  35.7586486  32.6023813  10.0166451  35.8415230  31.9129522
  11.0039141  36.5004357  32.5988457  10.5345283  35.8807148  32.4998508
  16.8801850  36.7053764  38.9034099  16.6411620  36.6649598  38.0654883
  17.0435752  37.5524916  39.0299820  16.8692154  36.8245849  38.7987580
  13.4847880  41.0903713  44.8339144  14.2082079  40.6376240  44.6550164
  13.2197843  41.3708379  44.0511472  13.5529154  41.0654682  44.6917859
   2.3534749  35.6863887  41.5692023   1.7287819  35.6982279  40.9617976
   2.0180344  36.1624062  42.2183263   2.2120241  35.7582404  41.5748591
   2.5376498  34.0289006  27.6264708   2.1889302  34.6808731  28.0896257
   2.0572943  34.0146119  26.8988579   2.4146741  34.1232059  27.5875799
  10.0980515  44.3290049  31.7333470  10.8214714  44.7948162  31.5898043
   9.6581106  44.3963659  30.9831067  10.1396207  44.4073886  31.6018251
   9.2666670  41.1887592  42.9834159   8.6523663  40.6445642  43.2782794
   9.7833955  40.6751828  42.5039975   9.2522332  41.0324001  42.9558387
   8.5062967  42.2591862  40.7178457   8.0790575  41.6341580  40.2843893
   8.4987912  41.9766784  41.5437465   8.4422108  42.1244642  40.7758285
   1.6225494  37.2957035  43.7866891   1.7818981  36.5400359  44.1918613
   1.4418388  37.8447974  44.4407629   1.6190853  37.2650849  43.9429597
   9.5645797  29.4618270  44.3417681   9.0686359  29.6581945  43.6509248
  10.3214859  29.8610939  44.1706482   9.6032622  29.5496004  44.2137818
   6.8348677  33.1360616  40.9320991   6.8591164  32.6020729  40.2433771
   7.0860150  32.6277925  41.5946582   6.8758596  32.9821520  40.9285636
   3.1149999  31.8631435  40.3126736   3.1548371  32.3640641  41.0261443
   2.2899664  31.9541828  40.0432659   2.9989525  31.9513251  40.3777274
   5.2979612  41.4292175  48.4147030   4.4475242  41.5663889  48.5504675
   5.4607740  40.6955953  48.8594732   5.1963475  41.3406276  48.5002629
   4.5364362  38.3791944  42.6100635   3.7056292  38.5465762  42.4035883
   4.4815880  38.0027895  43.3949520   4.4053777  38.3481676  42.6949163
   2.3448146  31.8700837  48.2457045   2.9700849  31.3262970  48.5186478
   1.8898626  31.3895755  47.6764836   2.3696406  31.7190319  48.2018639
   2.9100406  36.6547536  33.1390752   3.0503367  37.1520000  33.8419394
   3.4082939  35.9533830  33.2804966   3.0041487  36.6249515  33.2642331
   2.9400629  37.5214647  30.4683329   3.5745708  38.1175072  30.4032791
   3.0226239  37.2218105  31.2829199   3.0457180  37.5655555  30.5786416
  15.9183194  40.0530124  43.3369693  16.5101035  40.6927375  43.3687891
  16.3542189  39.3553161  43.6261760  16.0701626  40.0448475  43.3850526
   4.5179612  33.4528622  30.4428771   4.8395453  32.9731705  29.7888034
   4.7806555  34.2628268  30.2519583   4.6045637  33.5018520  30.3184263
   7.7476584  44.4747497  43.9627587   7.2401675  45.0283344  44.4068218
   7.4503231  44.5355787  43.1446362   7.6281469  44.5653808  43.9076044
   9.9138767  32.8400816  42.8052250  10.3393838  32.3873343  42.1935777
   9.2995760  32.2860887  43.0817038   9.8867412  32.6914793  42.7557276
  10.3584365  48.3910754  31.8931531   9.6413674  48.2171617  31.4278768
  11.0091102  48.1563327  31.3607017  10.3486215  48.3306547  31.7460749
   8.3532989  29.3115916  36.2142827   7.7101307  29.1613562  36.7827966
   8.0132396  29.0658261  35.4491932   8.2078067  29.2528039  36.1845842
  12.9432336  37.2675343  35.6372836  12.2723526  37.8105045  35.5085901
  13.6372086  37.7370198  35.3954531  12.9461203  37.4173614  35.5828364
   6.9919070  49.4072055  40.8684594   6.7684724  48.6490884  41.2368621
   6.5028913  49.4370076  40.1465034   6.8862519  49.2994279  40.8161335
  13.1060463  33.7231227  38.5463209  13.4588073  33.2960949  39.2209008
  12.2475265  33.6382070  38.6764286  13.0309908  33.6475967  38.6658220
   1.8044148  36.3538746  36.6046056   1.0856137  36.7702879  36.8718919
   2.1756511  36.9192985  36.0537694   1.7536080  36.4988028  36.5628863
  11.1043729  36.9866595  42.4948051  11.0841656  36.8049890  43.3482830
  11.1522930  37.8578614  42.4707635  11.1078370  37.0883133  42.6171346
   9.0490059  43.5753787  48.4196528   9.0085914  42.9303464  47.8341684
   9.8613377  43.5190405  48.7321940   9.1633212  43.4712754  48.3793477
   5.6397527  49.6272513  38.3221679   5.2257925  48.9646643  37.9325520
   6.3244901  49.7750372  37.8017373   5.6795898  49.5513171  38.1878176
   9.0062821  48.7862598  39.0745295   8.6079104  48.8964869  38.3066116
   8.3914040  48.9944665  39.6571855   8.8561710  48.8336166  39.0476595
   7.5790723  35.3936746  31.9419435   6.9855562  35.7153743  31.3904002
   7.6166000  34.5477842  31.7340541   7.4965112  35.3161074  31.8302206
  14.5384523  28.8449638  39.4747522  14.0315388  28.1378778  39.4068699
  15.3351957  28.5142827  39.6048598  14.5811763  28.6922790  39.4846517
  10.4548539  35.3516251  35.3721185  10.2262232  35.3748952  34.5299544
  10.7146615  34.5273718  35.4916196  10.4594727  35.2332331  35.2646383
   4.7367768  37.2050724  44.9746286   4.2246671  36.5971907  45.3331317
   4.5647264  37.9207316  45.4420261   4.6357405  37.2214023  45.0962509
   3.5093302  33.8892797  36.6675381   3.9850668  34.2509877  36.0325562
   3.0081901  34.5449265  36.9475524   3.5058661  34.0386986  36.6152122
  16.7404663  43.3614565  32.4588386  17.1238269  44.1105921  32.6886483
  15.9448777  43.6080385  32.2000375  16.6798446  43.5084259  32.4545960
   8.6136838  35.1274968  47.4148541   9.1708268  34.8988778  46.7827007
   8.2897903  35.8880634  47.1383753   8.6483248  35.2058805  47.2805038
   6.3319955  38.2142622  48.3800548   7.0831282  38.5294298  48.6940102
   6.5242532  38.0121793  47.5534470   6.4711369  38.2310003  48.3043944
   5.5519955  36.0333997  30.0348765   5.9318920  36.0513626  29.2499880
   4.8112551  36.4787986  29.9139612   5.4988793  36.1015771  29.9012333
  13.1805245  34.3416188  35.6224344  13.1799472  34.1864845  36.4808620
  12.9761425  35.1879175  35.5665729  13.1505023  34.4436809  35.7412283
  10.9046097  39.0213690  39.2760551  11.3999763  38.3036685  39.2364571
  10.0945873  38.7184487  39.1615037  10.8589991  38.8711336  39.2534276
   6.3504709  42.8711503  31.4257555   5.5416032  42.5478177  31.3790864
   6.8579618  42.1644725  31.3585804   6.3054376  42.7192819  31.4087849
  12.9697916  41.7717377  41.9637679  13.3952988  41.2491799  41.4108104
  12.6054836  42.3698215  41.4426302  12.9784519  41.7827604  41.8046689
   2.6051996  50.0681595  40.7235025   2.9198555  50.8817983  40.7312807
   3.0145409  49.6831813  41.3917184   2.7120094  50.1310297  40.8239116
   9.5576516  45.4851642  38.2938837  10.0287694  46.1991904  38.4628822
   9.8936694  44.8850392  38.8298706   9.6771631  45.5023106  38.3971213
  11.6453500  47.0952955  50.4730909  11.7550466  46.3061515  50.8287656
  11.9744397  47.0058891  49.6705247  11.7105906  46.9658808  50.4073300
   6.4746011  30.2579112  45.2496932   6.6073916  29.4610106  45.5777907
   6.8591163  30.7845515  45.8295207   6.5502340  30.2179029  45.3840434
  10.1950462  45.2769576  45.0566529   9.6471408  44.6527459  44.7886595
  10.6563491  45.4663848  44.3410609  10.1817672  45.2128626  44.9116961
   9.5478366  27.1809438  41.8478025   8.7424330  27.0707168  42.1645863
   9.4185101  27.2821894  40.9907891   9.4098499  27.1793108  41.7686065
  13.0044326  33.3454930  42.4417722  12.4207315  33.8464137  42.0295289
  13.3248621  32.8384486  41.8082045  12.9657502  33.3446765  42.2876229
   5.5439126  32.2595525  32.7176397   6.3654820  32.4293838  32.4758091
   5.0808777  32.4142786  31.9942694   5.5970288  32.3077258  32.5748041
   4.1334458  30.2538287  43.4974825   4.6778870  29.9129414  44.0879167
   4.1871393  31.1123749  43.6396110   4.2223577  30.3293547  43.6056699
   9.7608788  46.2820648  41.5875871  10.5807162  46.1383614  41.8492166
   9.4802866  46.9066847  42.1292308   9.8405532  46.3531000  41.7063810
  19.4322124  53.0261151  39.3071677  18.5760019  53.1869649  39.3580794
  19.4789777  52.1553215  39.3276738  19.3121235  52.9211953  39.3177743
  13.8163263  62.5623869  35.0708909  13.0646163  62.1839407  34.8424954
  14.2649275  62.5942303  34.3227719  13.7712930  62.5109476  34.9266411
  22.7415840  59.2947677  48.9132134  23.4482607  58.7999707  49.0419068
  22.9303776  59.7356758  48.1834792  22.8743746  59.2866027  48.8241179
  19.2688223  62.9849238  30.4994456  18.9339592  63.6626160  30.0638678
  19.7815094  62.5954550  29.9111328  19.2953804  63.0273817  30.3481248
  18.8092515  64.9363507  36.4405568  19.1931894  65.5050406  35.9010343
  18.7451656  64.2113017  35.9611384  18.8565942  64.9138971  36.2899430
  22.2773945  55.0853195  41.9503329  22.8229905  55.7638282  42.0097299
  22.2190821  54.9440656  41.0904911  22.3489859  55.1645197  41.8315390
  15.3948020  62.5742261  37.3371681  15.4958382  61.7642615  37.6468809
  14.7989765  62.4799208  36.7071360  15.3220558  62.4407289  37.2897920
  24.0539013  56.5137802  32.8237057  23.9378539  57.2645488  33.2529195
  24.8494900  56.2561755  33.0733144  24.1543603  56.5872649  32.9241148
  15.2348759  67.4919850  38.7386537  15.8786215  67.9333014  39.1282696
  15.5605015  66.6873276  38.6516796  15.3780588  67.4385045  38.7832015
   8.5913064  58.5962548  36.9624015   8.3563248  57.7630200  36.8556284
   8.7298705  58.8767213  36.1485216   8.5768726  58.5146051  36.8266370
  10.8903151  50.7648278  39.8608323  10.2708183  50.1740926  39.6918338
  10.7887015  51.3559714  39.2272646  10.7840827  50.7652361  39.7413312
  15.9369339  60.5031825  34.1106399  16.2585180  61.0437032  33.5067707
  16.5841435  59.9328597  34.2428689  16.0795394  60.4991000  34.0413435
  17.9871047  52.5047820  34.1940786  18.6851212  52.6835948  34.6862249
  18.3023379  51.9818159  33.5711175  18.1366384  52.4541592  34.1742796
  10.6172284  54.3100560  42.1051892  10.4930981  54.8963005  42.7401711
  11.2690569  53.8160756  42.4064167  10.6945934  54.3239364  42.2437821
  18.1758982  58.8918265  34.1820577  18.6152618  58.2835366  34.6275350
  18.0263645  58.5125638  33.4106042  18.2180448  58.7456736  34.1339745
  15.6430625  57.4862277  41.3839403  16.2879628  56.9934720  41.0650351
  15.8832402  57.6287064  42.2105481  15.7741210  57.4339719  41.4588936
  18.1816717  60.3317183  41.0346295  18.4639959  59.5368589  40.8133051
  18.9102877  60.8097770  41.0551356  18.3306280  60.2851780  41.0049311
  16.1597910  47.8740217  38.2762061  15.8301241  48.3251360  37.6065759
  15.4842912  47.7956380  38.8235067  16.0108347  47.9291352  38.2585284
  21.7768319  57.2445446  31.1351347  21.6919614  58.1006413  31.2800915
  22.2652702  56.9689770  31.8033506  21.8357216  57.3302768  31.2553428
  22.7086752  53.8630241  32.6349082  22.1798224  54.0789874  33.2946388
  23.2311772  54.5566379  32.5550051  22.7075205  53.9973377  32.7204681
  14.5986360  57.7593457  31.4356550  14.0143575  58.2643489  31.8422414
  14.1956455  57.5335844  30.6953142  14.4525664  57.8001706  31.3861575
  10.1530388  63.4748218  38.2380221   9.6697967  64.1998708  38.2139805
  10.9653707  63.7724349  38.3490379  10.2021136  63.6250572  38.2507500
  16.2244543  62.2680399  40.8430036  15.7071484  61.9087814  40.2391344
  16.9218934  61.7442574  40.8536102  16.2510124  62.1378087  40.7560294
  19.8808135  62.7175213  46.8046209  19.9691480  62.5301354  47.6524419
  20.3097847  62.0712643  46.4051056  19.9570237  62.5938221  46.8717960
  17.4478594  62.0006373  45.7863871  16.8849429  61.5878983  46.3103532
  18.2099618  61.9259279  46.2057014  17.4773043  61.9283774  45.9256871
  19.0563574  54.0059109  29.9125470  19.2959578  54.2137093  29.1000813
  19.3779415  53.2016618  30.0214415  19.1400732  53.9173211  29.8086023
  14.3653865  45.9352505  33.7585008  15.1199833  46.3030822  33.5202058
  14.1881399  46.3092060  34.5264188  14.4508343  46.0450693  33.8369897
  13.0074586  63.9904394  38.3900501  13.7095165  63.4756383  38.4473258
  12.9272069  64.3178546  39.1947376  13.0998346  63.9618621  38.5173293
  27.6588763  52.0846946  41.8032548  26.8217184  52.1549133  42.0380142
  27.6276994  52.0871441  40.9306850  27.5307046  52.0957173  41.7092096
  14.0553492  54.2279981  47.5180916  14.2273996  54.1185876  48.3666198
  14.5922850  54.8734387  47.2812109  14.1598496  54.3071983  47.6086013
  12.7210929  48.3422824  30.4563121  12.5386502  48.5594705  29.6304114
  13.5836542  48.4561837  30.5121736  12.8215519  48.3912722  30.3417608
  12.3325361  60.1810746  37.8986109  13.1714261  60.4133679  37.9459871
  12.3637130  59.3115058  37.8293145  12.4607079  60.0867693  37.8950754
  12.9578064  60.6011622  42.1999415  13.4976289  60.4582753  42.8702787
  12.2748010  61.0008372  42.5683441  12.9370218  60.6391292  42.3533836
  18.4010648  45.3449235  33.4912145  19.1296809  45.1665190  33.0450301
  18.4905541  46.1867315  33.7019323  18.5217310  45.4433113  33.4565663
  22.3818949  56.2802622  37.3944439  23.1376464  56.7134137  37.4333348
  22.4881274  55.6307392  37.9679075  22.5089120  56.2480106  37.4842465
  25.4199120  60.1075899  38.1446842  24.9834352  60.1112642  38.9005813
  25.0862036  60.7881398  37.7126419  25.3061740  60.2088355  38.1927675
  19.9928194  62.1484232  49.4689992  20.7768610  62.2615080  49.8345734
  19.7924788  61.3225369  49.6648678  20.0794219  62.0430952  49.5524378
   8.3615209  56.8211912  42.3533836   8.0953624  56.0051029  42.5124827
   8.3753773  56.8665068  41.4829352   8.3239932  56.7068817  42.2487318
  12.2672956  51.6196997  28.9685594  11.5531133  51.3335176  29.3808027
  12.7516925  51.9593623  29.6091982  12.2332320  51.6278646  29.1241229
  13.1113816  50.3590291  45.0000844  12.4185612  49.8887270  45.2461575
  13.7274143  50.1328595  45.5742551  13.0998346  50.2557422  45.1209997
  20.1498587  64.0594334  43.1156448  19.3513833  63.8193834  43.3730317
  20.5984599  64.1108727  43.8623496  20.0973198  64.0316725  43.2641372
  19.4420274  60.1226951  29.3447403  19.8571423  59.7911975  28.6531898
  18.6112204  59.8895853  29.2167539  19.3808283  60.0398207  29.2238250
   8.7708623  57.6070692  39.6345580   8.5884196  57.5817578  38.7817873
   9.5058292  58.0769630  39.6734489   8.8522687  57.6732054  39.5143499
  11.8354375  54.3255695  46.1427689  12.5594347  54.3108725  46.6292584
  11.9370511  55.0351050  45.6449657  11.9572584  54.4280398  46.1406476
  19.2099324  57.8054779  51.0076636  18.4172305  58.1198291  51.1929256
  19.3248251  58.0206248  50.1697421  19.1094735  57.8838616  50.9114971
  21.8830643  54.5288770  35.2971652  21.9777497  55.2678064  35.7511277
  21.2589487  54.1006246  35.7306216  21.8039673  54.5750091  35.4279799
  20.1383117  57.7074983  45.9461933  20.7121978  57.0702227  46.1010497
  20.0597921  57.7079065  45.0771590  20.2116352  57.6140094  45.8408344
   8.7379533  54.4864192  39.7844647   9.3153036  54.3500643  40.4236892
   8.0393595  54.0299977  40.0390231   8.7200555  54.3986459  39.9166937
  22.1353664  56.3737510  28.5308604  22.0533827  56.4439697  29.3963591
  22.7733385  56.9367254  28.3392345  22.2173502  56.4676481  28.6298553
  15.4946835  56.1398248  37.9983130  15.2366080  55.3069983  37.9714430
  15.5495318  56.3655861  37.1575631  15.4646613  56.0496019  37.8703267
  20.5747886  48.2426699  38.0987223  19.8704212  47.7535884  38.2571142
  20.6232860  48.2549173  37.2275667  20.4777937  48.1716347  37.9926563
  14.4681548  53.6936011  38.4848025  13.8931139  53.8528179  39.1211986
  14.0917224  53.0571420  38.0216476  14.3284360  53.6233824  38.5102583
  18.1354836  52.1659360  43.3440403  17.7469269  51.7413578  42.6892595
  17.4709535  52.4141510  43.8517430  17.9801764  52.1398081  43.3228271
   4.2138366  53.3376085  36.4992466   4.2998618  52.9607954  37.2805996
   4.8414164  52.9636531  36.0212424   4.3194917  53.2261568  36.5437943
  21.9581198  45.8633989  40.8564388  22.3391710  45.1812160  41.2432262
  21.1544482  45.5743591  40.6740052  21.8957659  45.7201037  40.8868444
  19.2393774  56.3957964  31.5417210  20.0534413  56.6872857  31.4299982
  19.1752916  55.7417827  30.9675503  19.3496514  56.3423159  31.4406048
  25.4603265  59.0783961  45.9546786  25.2241902  58.2472025  45.8358847
  26.1046494  59.0269568  46.5401630  25.5197935  58.9481649  46.0232680
  15.1101683  59.8679482  36.6689523  15.7475630  59.6291229  37.2141316
  15.5356754  60.0716641  35.9342683  15.2677849  59.8630492  36.6406680
   9.8014325  62.1067818  40.5523826   9.8418470  62.3782669  39.7243606
  10.3608849  62.6309726  40.9681614   9.8897671  62.2243573  40.4915714
  15.7504498  55.0881772  31.0064412  16.1349650  54.8689478  31.7580957
  15.5016118  55.9144717  31.1365488  15.7706570  55.1779918  31.1365488
  15.9173038  48.3688187  50.7226996  15.6026479  49.1387750  50.4596559
  15.5962971  47.8058443  50.1379223  15.8231957  48.3998456  50.5968346
  26.4839685  58.8628409  42.0175081  26.1785502  59.5956466  42.3788396
  25.7645901  58.4566339  41.7367867  26.3327028  58.9110142  42.0288218
  17.4923155  60.3451905  38.3483309  17.5662163  60.1827076  39.2025159
  18.3092661  60.5342094  38.1043790  17.6239513  60.3488647  38.4381334
  32.1841477  55.5021410  41.3443425  32.1165978  55.5217369  40.4746011
  32.1697140  56.3451737  41.5699095  32.1720234  55.6295145  41.2495902
  11.2528911  60.6909767  35.3777752  10.4267029  60.9371505  35.2512031
  11.3140903  60.6121848  36.2439810  11.1403078  60.7154716  35.4866697
  13.4704935  46.7578708  36.3373192  12.6027361  46.8301308  36.4030802
  13.7580139  47.5600787  36.5261168  13.3844683  46.8872855  36.3747959
  22.5937824  46.9056568  44.6684514  23.3391416  46.7166378  44.2547940
  22.1775128  47.4314806  44.1098371  22.6422798  46.9558713  44.5249087
  16.0327740  63.3086648  33.0796782  16.3226039  62.9175629  32.3556009
  16.7631221  63.4903353  33.5202057  16.1834625  63.2780461  33.0379589
  16.6222486  58.1104393  44.1649913  16.1234179  58.8220161  44.2434801
  17.4322710  58.4305060  44.1268075  16.6678592  58.2631242  44.1706481
  13.9733656  65.2854030  36.1456932  13.7533951  64.9951385  36.9383599
  13.7528178  64.6268985  35.6174844  13.9081250  65.1453738  36.1845841
  12.8850603  57.3727347  38.4112634  12.5963852  56.7464818  38.9458361
  13.7533951  57.3147634  38.4777314  12.9710855  57.2714891  38.5003588
  23.6728501  52.5162130  38.7294615  23.3293267  51.7952465  39.0801865
  23.7721544  52.3075981  37.8872974  23.6370544  52.3786333  38.6566295
  16.1401612  66.6583420  34.9287624  16.7925670  66.1259862  35.1578650
  15.4427220  66.3052072  35.3155498  16.1332330  66.5272943  35.0199792
  13.0882877  59.0122598  34.3354999  13.8428845  59.3935637  34.5490461
  12.4953489  59.4633741  34.7901695  13.1119590  59.1351425  34.4337877
  24.1341530  58.9787834  34.2718604  24.6999563  59.6381044  34.1877146
  23.4869433  59.3237532  34.7435006  24.1220286  59.1269775  34.3291360
  15.5489544  50.9685438  49.4612211  14.7389319  51.2743218  49.3502053
  16.0264230  51.6891020  49.5764795  15.4993022  51.1200039  49.4619282
  14.4081103  60.1831159  39.7095114  13.8861857  60.3231451  40.3946979
  14.7955123  59.4241823  39.8997231  14.3884804  60.0916683  39.8396190
  11.3972287  50.2336968  33.7790069  11.1097083  49.8638238  33.0422016
  12.0842755  50.7031823  33.5173774  11.4561184  50.2483937  33.6305144
  20.6048108  61.9226618  33.6955683  20.3634784  61.1894479  33.2882748
  20.7849441  62.4713475  33.0422016  20.5955732  61.8949009  33.5385906
  15.8347429  57.2135178  35.1076605  15.6390211  57.8209912  34.5136908
  16.0581774  56.5203122  34.6268279  15.8382070  57.2012703  34.9492686
  14.2325959  54.0989916  35.2257473  14.9548611  54.2631074  34.7661279
  13.7533952  54.8199581  35.1196813  14.2689689  54.2288145  35.1423087
  22.1919466  50.4353715  40.6054158  21.3530567  50.4614994  40.3692422
  22.2623834  51.0824450  41.1859505  22.0787860  50.5349840  40.6563275
  11.8833575  56.5047988  44.3311613  12.3954672  56.7832242  43.6820373
  11.5969918  57.2437282  44.6974426  11.9168439  56.6550342  44.2901491
  20.6388745  47.3339092  35.3381774  21.3415097  47.1346840  34.8601732
  20.3732933  46.5615034  35.6450618  20.7035377  47.1902058  35.3127216
   8.9700482  51.0118180  34.6275350   9.0716618  51.8144342  34.9556325
   9.7656369  50.8105516  34.3298430   9.1028387  51.1004079  34.6310705
  15.4017301  48.5974377  44.3912655  15.2100498  48.6129511  45.2412078
  16.2515897  48.7938051  44.3679310  15.4993023  48.6288728  44.5135950
   9.7864214  51.1265358  42.3696471   9.6449706  50.2749299  42.4940979
  10.0704777  51.1694019  41.5458677   9.8072060  51.0065108  42.2664095
  19.9402806  52.9632449  36.5140960  19.6937521  52.8828199  37.3477749
  20.2687929  52.1785916  36.3203487  19.9524050  52.8358714  36.6088483
  23.8350855  59.6715808  40.3027741  23.6965214  60.3696854  40.8076483
  23.0550853  59.5164464  39.9463923  23.6994082  59.7515975  40.3254015
  22.1728940  55.9712183  46.5550123  22.1676979  55.0992000  46.5592549
  22.8789934  56.1700352  46.0819578  22.2773944  55.8716057  46.4857158
  15.8999834  55.6989167  45.9263943  16.0443209  56.2790375  45.2907053
  16.2475482  56.0765464  46.6313797  15.9727295  55.8409871  45.9362938
  18.0719751  54.8979335  43.7089074  17.3243065  55.0910350  43.3037352
  18.2261276  54.0724555  43.4713196  17.9842178  54.8044447  43.6134480
  14.9727589  63.8891939  42.7924969  15.1217152  63.3294855  42.1398374
  15.7527591  63.9683941  43.1757488  15.1101682  63.8177504  42.7521919
  25.3304228  59.0294062  31.0644240  24.9511037  58.2431200  31.0573529
  24.6670473  59.5780919  30.9215884  25.1762703  58.9938886  31.0425037
  17.4980889  64.0606582  44.0709460  17.4224560  63.3915392  44.6260249
  17.4270748  64.7624370  44.5850127  17.4761496  64.0651489  44.2286308
  18.3121528  48.7929886  44.5984478  18.7694142  49.5253861  44.7257270
  18.3877857  48.3696351  45.3571734  18.3912498  48.8387124  44.7285554
  10.5554519  49.0395706  45.6873922  10.0196709  48.4276064  46.0034689
  10.6172284  49.6143842  46.3407588  10.4850152  49.0342634  45.8309348
  18.1551136  62.5807581  34.9033066  18.9201027  62.3117224  34.5815731
  18.0529226  62.0957591  35.6203129  18.2532632  62.4697145  34.9612894
  16.1903906  50.7831990  41.4426302  15.3999981  50.6023450  41.7643638
  16.5864529  50.0058943  41.4256596  16.1320782  50.6419451  41.4878850
  20.6769797  59.6119764  26.8833016  21.4442782  59.6719889  26.4738867
  20.2301106  59.0400206  26.3989334  20.7243224  59.5356340  26.7510726
  21.5747592  58.4174420  39.1685748  20.8992594  58.1859653  39.6699135
  21.5839968  57.8095603  38.5427853  21.4766097  58.2933346  39.1501900
  18.7041736  53.2592249  45.9249801  18.6400877  54.1202206  45.7969938
  18.8438924  52.9424242  45.1245352  18.7157206  53.3392416  45.7878014
  23.5764327  61.2739553  31.3995926  23.6584164  62.0806539  31.0757377
  24.0614069  61.2935512  32.1236699  23.6601485  61.3960215  31.4582825
  17.3860830  55.9524389  40.0666004  16.9623079  56.1528888  39.3305022
  17.2105685  55.1053237  40.1790304  17.2971711  55.8573170  39.9739694
  16.8872523  67.4674902  42.5287461  17.3768454  66.7685691  42.3463126
  16.3156756  67.1698772  43.1163518  16.8757053  67.3201125  42.5888502
  12.6743275  56.4476440  35.4993976  12.8307894  56.3823243  36.3549968
  13.0143868  57.2224993  35.2872656  12.7476510  56.5525638  35.5948571
  19.2122420  55.8234324  34.3687340  19.7537965  55.3204705  34.8325960
  19.5268979  55.7699518  33.5576825  19.3386817  55.7413745  34.3171152
  23.0839527  60.0336971  51.4814252  23.8974392  59.7622120  51.6419384
  22.9234493  59.7344511  50.6774448  23.1809475  59.9491897  51.3859658
  17.3808869  61.2151675  31.6527368  17.4501690  60.3566214  31.7920368
  18.1597324  61.4323556  31.3246392  17.5061719  61.1204539  31.6244525
  20.3611689  50.7170628  44.4209640  20.5753659  50.0781542  43.8672994
  19.7445588  51.1616452  43.9917502  20.3017018  50.6880772  44.2760071
  21.7716357  63.6389376  35.8663861  21.3796149  63.3356092  35.1486727
  21.9269429  64.4758466  35.6768815  21.7369947  63.7173213  35.7320358
   9.2477536  53.6311391  35.8154744   9.6276501  54.0495935  35.1515011
   8.6732901  54.2124846  36.1223587   9.2188861  53.7789249  35.7631484
  22.5250777  52.3259693  45.3592947  21.7127459  52.0185584  45.4406120
  22.9840712  51.8458693  45.9235659  22.4731162  52.2096186  45.4547541
  21.9356032  60.2039365  35.8069891  21.5770686  60.3754008  36.5833924
  21.4494742  60.6652571  35.2497890  21.8114729  60.2978336  35.8395161
  19.7526418  43.8270564  39.4096983  18.8819976  43.8009285  39.3630292
  20.0066759  43.6547756  38.5922829  19.6619978  43.7980707  39.2817120
  16.7244397  55.8838531  28.3470126  17.0136922  56.6603413  28.6213700
  16.8116196  55.3727262  29.0484625  16.7798653  55.9230449  28.4912624
  19.6204284  53.7319765  50.1421649  20.0903916  54.3561881  50.5289524
  19.6666165  53.0636740  50.7014864  19.6972160  53.7254445  50.2821721
  16.7775558  45.8376792  40.8670453  16.2614047  45.1456984  40.9922032
  16.2169487  46.5047569  40.8133052  16.6182071  45.8340050  40.8776519
  18.8467792  46.3769752  42.6963306  18.4599545  46.4018784  43.4776836
  18.3600729  45.8111431  42.2437822  18.7180300  46.2965503  42.7451209
  23.0960771  61.0943261  46.7537092  23.7340492  60.6003457  46.4199548
  22.4534863  61.0220662  46.1689319  23.0954998  61.0102270  46.6179447
  24.8217771  52.9432407  41.3203008  24.3945379  52.8558756  40.5651108
  24.1843824  53.0510183  41.9057852  24.6647378  52.9465067  41.2948450
  18.5124933  43.2636738  44.9873566  19.1418051  43.7997038  44.7094636
  18.6810796  43.1714097  45.8387131  18.6302728  43.3298100  45.0722094
  18.3138848  48.0507932  47.2599977  19.1412278  47.7793081  47.3158592
  18.3346694  48.8468774  47.6163795  18.4391698  48.1287687  47.3215160
  23.1515028  61.7863070  43.3942449  23.9407406  61.4352134  43.5144531
  23.3258625  62.5999458  43.1319083  23.2935309  61.8548927  43.3730317
  12.8908338  55.1971795  40.4470238  12.0496345  55.0975669  40.6549132
  13.0998346  55.9667276  40.7984559  12.7973031  55.2963839  40.5297553
  10.3683905  52.8191332  38.2754989   9.9740603  52.8934344  37.5005098
   9.8124022  53.2049279  38.8263350  10.2286717  52.8873107  38.2422648
  16.7025003  53.1253194  39.6967835  16.3988140  52.5709183  40.2978243
  16.0004424  53.3045404  39.2095870  16.5541213  53.0697977  39.7137541
  15.7591100  50.4353714  34.2612537  16.0350834  49.7172627  33.8490105
  16.3589769  51.0338634  34.0533643  15.8884365  50.4174085  34.1693299
  14.7643354  60.3402915  44.4039933  14.6563709  60.3504977  45.2701991
  14.9739135  61.1657696  44.2144887  14.7793465  60.4643990  44.5044025
  19.2601620  48.1067232  32.5359132  19.7145367  48.2777792  33.2606977
  19.7341666  47.4935342  32.1356908  19.3969941  48.0418117  32.5832894
  12.7817146  57.5915558  41.8661871  12.1905079  58.2325056  41.8364886
  13.5438169  58.0153175  41.8393170  12.8065407  57.7491396  41.8577018
  13.1777769  48.7517555  42.5329888  13.6379250  48.8256485  43.2705012
  13.2233875  49.5498809  42.1829710  13.2528324  48.8811702  42.5902645
  14.8261118  49.4184250  47.1001916  14.4346684  48.7717597  47.5357693
  14.9946981  50.0095685  47.7196171  14.7932029  49.4098518  47.2564622
  28.9007567  57.4221327  42.8639149  28.9590691  57.8707976  43.6099126
  28.2674035  57.8320140  42.4269229  28.8158863  57.5495062  42.9091697
  22.5406662  63.0424869  39.2993895  22.3426351  63.5315684  38.6050107
  21.9194373  63.2466111  39.8778029  22.4194227  63.1441407  39.2817119
  16.6014640  54.8109766  33.6404140  17.3456685  55.1984042  33.8787089
  16.7475337  53.9667191  33.8044627  16.7325226  54.7440239  33.6998109
  18.5194216  46.6060025  38.6736001  17.6730261  46.7782833  38.5477351
  18.5165348  45.8009369  39.0101829  18.3941366  46.5121054  38.7047128
  19.5892516  50.3835239  39.5398059  19.1152471  49.8577001  40.0503370
  19.9610652  49.8364712  38.9712920  19.5742405  50.2251236  39.5313206
   9.9665546  52.3806746  44.9081605  10.8291160  52.2802455  44.8218934
   9.6357329  51.8001455  44.3467177  10.0450743  52.2798373  44.8127011
  25.8529247  55.4437615  40.9504839  25.6127470  54.6044030  40.9547266
  26.3321254  55.5237782  41.6745613  25.8881431  55.3319015  41.0579642
  21.5176016  51.2771794  32.6023813  20.9899035  51.3600538  31.9129522
  21.9771724  52.0189665  32.5988457  21.5077866  51.3992456  32.4998508
  27.8534434  52.2239072  38.9034099  27.6144204  52.1834906  38.0654883
  28.0168335  53.0710224  39.0299820  27.8424737  52.3431157  38.7987580
  24.4580464  56.6089021  44.8339144  25.1814663  56.1561548  44.6550164
  24.1930426  56.8893687  44.0511472  24.5261737  56.5839990  44.6917859
  13.3267332  51.2049195  41.5692023  12.7020403  51.2167587  40.9617976
  12.9912927  51.6809370  42.2183263  13.1852824  51.2767712  41.5748591
  13.5109081  49.5474313  27.6264708  13.1621885  50.1994039  28.0896257
  13.0305527  49.5331427  26.8988579  13.3879325  49.6417367  27.5875799
  10.0393008  59.2649655  43.0095787   9.5092933  58.5742094  43.0590762
  10.3118101  59.2559840  42.1808496  10.0017730  59.1616787  42.8943203
  21.0713099  59.8475357  31.7333470  21.7947297  60.3133470  31.5898043
  20.6313690  59.9148967  30.9831067  21.1128791  59.9259194  31.6018251
  20.2399254  56.7072900  42.9834159  19.6256247  56.1630950  43.2782794
  20.7566539  56.1937136  42.5039975  20.2254916  56.5509309  42.9558387
  19.4795551  57.7777170  40.7178457  19.0523159  57.1526888  40.2843893
  19.4720495  57.4952092  41.5437465  19.4154692  57.6429950  40.7758285
  12.5958078  52.8142343  43.7866891  12.7551565  52.0585667  44.1918613
  12.4150971  53.3633282  44.4407629  12.5923437  52.7836157  43.9429597
  20.5378381  44.9803578  44.3417681  20.0418942  45.1767253  43.6509248
  21.2947443  45.3796247  44.1706482  20.5765206  45.0681312  44.2137818
  17.8081260  48.6545924  40.9320991  17.8323748  48.1206037  40.2433771
  18.0592734  48.1463233  41.5946582  17.8491179  48.5006828  40.9285636
   5.3188850  55.9377419  40.3664135   5.2132299  55.8924264  39.5016219
   4.5689070  56.2831200  40.6478420   5.1924453  55.9818327  40.2801465
  14.0882583  47.3816743  40.3126736  14.1280954  47.8825949  41.0261443
  13.2632247  47.4727136  40.0432659  13.9722109  47.4698559  40.3777274
  16.2712196  56.9477482  48.4147030  15.4207826  57.0849197  48.5504675
  16.4340323  56.2141261  48.8594732  16.1696059  56.8591584  48.5002629
  15.5096946  53.8977252  42.6100635  14.6788876  54.0651070  42.4035883
  15.4548463  53.5213203  43.3949520  15.3786361  53.8666984  42.6949163
  13.3180729  47.3886145  48.2457045  13.9433433  46.8448278  48.5186478
  12.8631209  46.9081063  47.6764836  13.3428990  47.2375627  48.2018639
  13.8832990  52.1732844  33.1390752  14.0235951  52.6705308  33.8419394
  14.3815523  51.4719138  33.2804966  13.9774071  52.1434823  33.2642331
  13.9133212  53.0399955  30.4683329  14.5478292  53.6360380  30.4032791
  13.9958823  52.7403413  31.2829199  14.0189763  53.0840863  30.5786416
  26.8915778  55.5715432  43.3369693  27.4833618  56.2112683  43.3687891
  27.3274773  54.8738469  43.6261760  27.0434209  55.5633783  43.3850526
  15.4912195  48.9713930  30.4428771  15.8128036  48.4917013  29.7888034
  15.7539139  49.7813576  30.2519583  15.5778221  49.0203828  30.3184263
  18.7209168  59.9932805  43.9627587  18.2134259  60.5468651  44.4068218
  18.4235814  60.0541095  43.1446362  18.6014053  60.0839116  43.9076044
  20.8871350  48.3586124  42.8052250  21.3126422  47.9058651  42.1935777
  20.2728343  47.8046195  43.0817038  20.8599995  48.2100100  42.7557276
  10.4186200  55.2367796  33.7372875  10.9278429  55.8332303  34.1184181
  10.8920472  54.9693769  33.0549295  10.5629576  55.2853611  33.6927398
  21.3316948  63.9096062  31.8931531  20.6146258  63.7356925  31.4278768
  21.9823686  63.6748635  31.3607017  21.3218799  63.8491855  31.7460749
  19.3265573  44.8301224  36.2142827  18.6833891  44.6798870  36.7827966
  18.9864980  44.5843569  35.4491932  19.1810650  44.7713347  36.1845842
  23.9164919  52.7860651  35.6372836  23.2456109  53.3290353  35.5085901
  24.6104670  53.2555506  35.3954531  23.9193787  52.9358922  35.5828364
  17.9651653  64.9257363  40.8684594  17.7417308  64.1676192  41.2368621
  17.4761496  64.9555384  40.1465034  17.8595102  64.8179587  40.8161335
  24.0793047  49.2416534  38.5463209  24.4320657  48.8146257  39.2209008
  23.2207848  49.1567378  38.6764286  24.0042492  49.1661275  38.6658220
  12.7776732  51.8724054  36.6046056  12.0588721  52.2888187  36.8718919
  13.1489094  52.4378293  36.0537694  12.7268664  52.0173336  36.5628863
  22.0776313  52.5051903  42.4948051  22.0574240  52.3235198  43.3482830
  22.1255513  53.3763922  42.4707635  22.0810954  52.6068441  42.6171346
  20.0222643  59.0939095  48.4196528  19.9818497  58.4488772  47.8341684
  20.8345961  59.0375712  48.7321940  20.1365796  58.9898062  48.3793477
  16.6130110  65.1457821  38.3221679  16.1990509  64.4831951  37.9325520
  17.2977484  65.2935680  37.8017373  16.6528482  65.0698479  38.1878176
  19.9795404  64.3047906  39.0745295  19.5811687  64.4150177  38.3066116
  19.3646624  64.5129973  39.6571855  19.8294294  64.3521474  39.0476595
  18.5523306  50.9122054  31.9419435  17.9588146  51.2339051  31.3904002
  18.5898584  50.0663150  31.7340541  18.4697695  50.8346382  31.8302206
  21.4281123  50.8701559  35.3721185  21.1994816  50.8934260  34.5299544
  21.6879199  50.0459026  35.4916196  21.4327311  50.7517639  35.2646383
  15.7100351  52.7236032  44.9746286  15.1979254  52.1157215  45.3331317
  15.5379847  53.4392624  45.4420261  15.6089988  52.7399331  45.0962509
  10.5566066  51.1673607  47.6248647  10.3868656  51.8274982  47.0796854
  10.1132016  51.3780168  48.3461136  10.4665400  51.2959589  47.6510277
  14.4825885  49.4078105  36.6675381  14.9583252  49.7695185  36.0325562
  13.9814485  50.0634572  36.9475524  14.4791244  49.5572294  36.6152122
  19.5869422  50.6460276  47.4148541  20.1440852  50.4174086  46.7827007
  19.2630487  51.4065942  47.1383753  19.6215832  50.7244113  47.2805038
   7.4568130  54.0720473  42.8837137   6.9094850  53.4021118  43.0018005
   8.2460509  53.7050320  42.9480604   7.4920314  53.9185459  42.9105838
  17.3052539  53.7327930  48.3800548  18.0563866  54.0479606  48.6940102
  17.4975115  53.5307100  47.5534470  17.4443953  53.7495311  48.3043944
  16.5252538  51.5519305  30.0348765  16.9051503  51.5698934  29.2499880
  15.7845135  51.9973294  29.9139612  16.4721376  51.6201079  29.9012333
   6.2155100  53.2841280  40.0383160   6.0376861  52.8317889  40.7638076
   5.9274122  54.0867442  40.2221638   6.1468053  53.3363838  40.1726663
  21.8778681  54.5398998  39.2760551  22.3732346  53.8221993  39.2364571
  21.0678457  54.2369795  39.1615037  21.8322574  54.3896644  39.2534276
  17.3237293  58.3896811  31.4257555  16.5148615  58.0663484  31.3790864
  17.8312201  57.6830033  31.3585804  17.2786959  58.2378127  31.4087849
   7.9527570  55.8169004  37.1504919   7.0873089  55.8054695  37.0387690
   8.0526386  55.6299227  37.9976059   7.8401737  55.7875065  37.2593864
  23.9430500  57.2902685  41.9637679  24.3685571  56.7677107  41.4108104
  23.5787420  57.8883523  41.4426302  23.9517102  57.3012912  41.8046689
  13.5784580  65.5866903  40.7235025  13.8931139  66.4003291  40.7312807
  13.9877993  65.2017121  41.3917184  13.6852678  65.6495605  40.8239116
  20.5309099  61.0036949  38.2938837  21.0020278  61.7177212  38.4628822
  20.8669278  60.4035700  38.8298706  20.6504214  61.0208414  38.3971213
  22.6186084  62.6138263  50.4730909  22.7283049  61.8246823  50.8287656
  22.9476981  62.5244199  49.6705247  22.6838490  62.4844116  50.4073300
  17.4478594  45.7764420  45.2496932  17.5806500  44.9795413  45.5777907
  17.8323747  46.3030823  45.8295207  17.5234923  45.7364337  45.3840434
  21.1683046  60.7954884  45.0566529  20.6203992  60.1712767  44.7886595
  21.6296074  60.9849156  44.3410609  21.1550255  60.7313934  44.9116961
  20.5210949  42.6994746  41.8478025  19.7156913  42.5892476  42.1645863
  20.3917685  42.8007202  40.9907891  20.3831082  42.6978416  41.7686065
  23.9776910  48.8640238  42.4417722  23.3939899  49.3649445  42.0295289
  24.2981204  48.3569794  41.8082045  23.9390085  48.8632073  42.2876229
  16.5171709  47.7780833  32.7176397  17.3387404  47.9479146  32.4758091
  16.0541360  47.9328094  31.9942694  16.5702871  47.8262566  32.5748041
  15.1067041  45.7723595  43.4974825  15.6511454  45.4314722  44.0879167
  15.1603977  46.6309057  43.6396110  15.1956160  45.8478854  43.6056699
  10.9197600  59.5340011  40.3713633  11.5242457  59.4935845  39.7427454
  10.7124912  60.3811163  40.4017689  10.9786497  59.6528014  40.2829750
  20.7341372  61.8005956  41.5875871  21.5539746  61.6568922  41.8492166
  20.4535450  62.4252155  42.1292308  20.8138115  61.8716308  41.7063810
   6.1548882  58.5174629  40.2412556   6.0573160  57.7070900  40.5502613
   6.9377752  58.4966422  39.8558824   6.2565019  58.3941719  40.2299419
  37.2055022  69.4570808  34.5518747  37.1749027  70.3115445  34.7237016
  37.8036371  69.1566101  35.1104891  37.2892180  69.5387305  34.6593549
  30.4054707  68.5446459  39.3071677  29.5492603  68.7054957  39.3580794
  30.4522361  67.6738523  39.3276738  30.2853819  68.4397261  39.3177743
  33.7148424  74.8132985  48.9132134  34.4215191  74.3185015  49.0419068
  33.9036359  75.2542066  48.1834792  33.8476329  74.8051335  48.8241179
  33.2506528  70.6038503  41.9503329  33.7962488  71.2823590  42.0097299
  33.1923405  70.4625964  41.0904911  33.3222443  70.6830505  41.8315390
  35.0271597  72.0323110  32.8237057  34.9111123  72.7830796  33.2529195
  35.8227484  71.7747063  33.0733144  35.1276186  72.1057957  32.9241148
  21.8635735  66.2833586  39.8608323  21.2440766  65.6926233  39.6918338
  21.7619598  66.8745021  39.2272646  21.7573410  66.2837669  39.7413312
  26.9101922  76.0217133  34.1106399  27.2317763  76.5622340  33.5067707
  27.5574019  75.4513904  34.2428689  27.0527978  76.0176308  34.0413435
  28.9603630  68.0233128  34.1940786  29.6583795  68.2021256  34.6862249
  29.2755963  67.5003467  33.5711175  29.1098968  67.9726900  34.1742796
  21.5904868  69.8285868  42.1051892  21.4663565  70.4148313  42.7401711
  22.2423152  69.3346064  42.4064167  21.6678517  69.8424672  42.2437821
  29.1491566  74.4103573  34.1820577  29.5885201  73.8020674  34.6275350
  28.9996229  74.0310946  33.4106042  29.1913032  74.2642044  34.1339745
  26.6163209  73.0047585  41.3839403  27.2612211  72.5120028  41.0650351
  26.8564986  73.1472371  42.2105481  26.7473794  72.9525027  41.4588936
  29.1549300  75.8502491  41.0346295  29.4372543  75.0553896  40.8133051
  29.8835461  76.3283078  41.0551356  29.3038864  75.8037088  41.0049311
  27.1330494  63.3925525  38.2762061  26.8033824  63.8436668  37.6065759
  26.4575496  63.3141688  38.8235067  26.9840930  63.4476660  38.2585284
  32.7500902  72.7630754  31.1351347  32.6652198  73.6191721  31.2800915
  33.2385286  72.4875078  31.8033506  32.8089800  72.8488076  31.2553428
  33.6819336  69.3815549  32.6349082  33.1530807  69.5975182  33.2946388
  34.2044356  70.0751687  32.5550051  33.6807789  69.5158685  32.7204681
  39.1367389  74.9561853  38.0082126  38.3065092  75.1672497  38.1715543
  39.0876641  74.1298908  37.7324410  39.0074124  74.8651459  37.9919492
  25.5718943  73.2778765  31.4356550  24.9876159  73.7828797  31.8422414
  25.1689039  73.0521152  30.6953142  25.4258247  73.3187014  31.3861575
  30.8540718  78.2360521  46.8046209  30.9424064  78.0486662  47.6524419
  31.2830431  77.5897951  46.4051056  30.9302820  78.1123529  46.8717960
  30.0296158  69.5244417  29.9125470  30.2692162  69.7322401  29.1000813
  30.3511999  68.7201926  30.0214415  30.1133316  69.4358519  29.8086023
  25.3386448  61.4537813  33.7585008  26.0932416  61.8216130  33.5202058
  25.1613983  61.8277367  34.5264188  25.4240927  61.5636001  33.8369897
  38.6321347  67.6032254  41.8032548  37.7949768  67.6734441  42.0380142
  38.6009578  67.6056748  40.9306850  38.5039629  67.6142481  41.7092096
  25.0286076  69.7465289  47.5180916  25.2006580  69.6371184  48.3666198
  25.5655433  70.3919695  47.2812109  25.1331080  69.8257291  47.6086013
  23.6943513  63.8608132  30.4563121  23.5119086  64.0780013  29.6304114
  24.5569126  63.9747145  30.5121736  23.7948102  63.9098030  30.3417608
  33.3551533  71.7987930  37.3944439  34.1109048  72.2319444  37.4333348
  33.4613857  71.1492700  37.9679075  33.4821703  71.7665414  37.4842465
  36.3931704  75.6261207  38.1446842  35.9566936  75.6297950  38.9005813
  36.0594619  76.3066706  37.7126419  36.2794324  75.7273663  38.1927675
  30.9660777  77.6669540  49.4689992  31.7501194  77.7800388  49.8345734
  30.7657372  76.8410677  49.6648678  31.0526803  77.5616260  49.5524378
  19.3347793  72.3397220  42.3533836  19.0686208  71.5236337  42.5124827
  19.3486357  72.3850376  41.4829352  19.2972515  72.2254125  42.2487318
  36.3129187  62.6675035  40.3876270  36.9555095  62.7373140  40.9738185
  36.5652207  62.0004258  39.8855812  36.4451319  62.5801384  40.4003549
  23.2405540  67.1382305  28.9685594  22.5263717  66.8520484  29.3808027
  23.7249508  67.4778931  29.6091982  23.2064903  67.1463954  29.1241229
  24.0846399  65.8775599  45.0000844  23.3918196  65.4072578  45.2461575
  24.7006727  65.6513903  45.5742551  24.0730929  65.7742730  45.1209997
  39.5276050  72.3442127  37.0366479  40.1892484  71.7832796  36.9362388
  38.8867462  71.8494158  37.3619170  39.5304917  72.1878536  37.0698819
  30.4152858  75.6412259  29.3447403  30.8304006  75.3097283  28.6531898
  29.5844787  75.4081161  29.2167539  30.3540866  75.5583515  29.2238250
  19.7441206  73.1256000  39.6345580  19.5616780  73.1002886  38.7817873
  20.4790875  73.5954938  39.6734489  19.8255270  73.1917362  39.5143499
  35.8140881  73.3607510  36.7778468  36.0496470  73.5052709  35.9505319
  35.9630444  74.1249918  37.1709982  35.8706684  73.4946564  36.7142072
  22.8086958  69.8441003  46.1427689  23.5326930  69.8294033  46.6292584
  22.9103095  70.5536358  45.6449657  22.9305167  69.9465706  46.1406476
  37.6431337  72.2009176  34.6148072  37.9739555  72.7336816  34.0088167
  38.2164426  72.2548063  35.2710023  37.7765017  72.2878744  34.6225854
  30.1831908  73.3240087  51.0076636  29.3904888  73.6383599  51.1929256
  30.2980835  73.5391556  50.1697421  30.0827318  73.4023924  50.9114971
  32.8563227  70.0474078  35.2971652  32.9510081  70.7863372  35.7511277
  32.2322070  69.6191554  35.7306216  32.7772257  70.0935399  35.4279799
  31.1115700  73.2260291  45.9461933  31.6854562  72.5887535  46.1010497
  31.0330504  73.2264373  45.0771590  31.1848935  73.1325402  45.8408344
  19.7112117  70.0049500  39.7844647  20.2885619  69.8685951  40.4236892
  19.0126179  69.5485285  40.0390231  19.6933138  69.9171767  39.9166937
  33.1086248  71.8922818  28.5308604  33.0266410  71.9625005  29.3963591
  33.7465968  72.4552562  28.3392345  33.1906085  71.9861789  28.6298553
  26.4679419  71.6583556  37.9983130  26.2098663  70.8255291  37.9714430
  26.5227902  71.8841169  37.1575631  26.4379197  71.5681327  37.8703267
  31.5480469  63.7612007  38.0987223  30.8436796  63.2721192  38.2571142
  31.5965443  63.7734481  37.2275667  31.4510521  63.6901655  37.9926563
  25.4414131  69.2121318  38.4848025  24.8663722  69.3713487  39.1211986
  25.0649807  68.5756728  38.0216476  25.3016944  69.1419131  38.5102583
  29.1087420  67.6844668  43.3440403  28.7201853  67.2598886  42.6892595
  28.4442118  67.9326817  43.8517430  28.9534348  67.6583389  43.3228271
  38.7510689  67.4419672  36.1188233  38.4947254  66.6299614  35.9286116
  39.5940003  67.4497240  35.8918421  38.8376714  67.3231670  36.0573051
  15.1870950  68.8561393  36.4992466  15.2731202  68.4793262  37.2805996
  15.8146748  68.4821839  36.0212424  15.2927501  68.7446875  36.5437943
  32.9313781  61.3819297  40.8564388  33.3124293  60.6997468  41.2432262
  32.1277066  61.0928899  40.6740052  32.8690243  61.2386345  40.8868444
  30.2126358  71.9143272  31.5417210  31.0266997  72.2058165  31.4299982
  30.1485499  71.2603135  30.9675503  30.3229097  71.8608467  31.4406048
  36.4335848  74.5969269  45.9546786  36.1974486  73.7657333  45.8358847
  37.0779077  74.5454876  46.5401630  36.4930519  74.4666956  46.0232680
  26.0834266  75.3864790  36.6689523  26.7208213  75.1476537  37.2141316
  26.5089338  75.5901949  35.9342683  26.2410433  75.3815800  36.6406680
  26.7237081  70.6067080  31.0064412  27.1082234  70.3874786  31.7580957
  26.4748702  71.4330025  31.1365488  26.7439154  70.6965226  31.1365488
  26.8905622  63.8873495  50.7226996  26.5759063  64.6573058  50.4596559
  26.5695554  63.3243751  50.1379223  26.7964541  63.9183763  50.5968346
  37.4572269  74.3813717  42.0175081  37.1518086  75.1141774  42.3788396
  36.7378485  73.9751647  41.7367867  37.3059611  74.4295450  42.0288218
  28.4655738  75.8637212  38.3483309  28.5394747  75.7012384  39.2025159
  29.2825245  76.0527402  38.1043790  28.5972097  75.8673955  38.4381334
  43.1574061  71.0206718  41.3443425  43.0898561  71.0402677  40.4746011
  43.1429723  71.8637045  41.5699095  43.1452817  71.1480453  41.2495902
  24.4437519  62.2764016  36.3373192  23.5759944  62.3486616  36.4030802
  24.7312723  63.0786095  36.5261168  24.3577267  62.4058163  36.3747959
  33.5670407  62.4241876  44.6684514  34.3123999  62.2351686  44.2547940
  33.1507712  62.9500114  44.1098371  33.6155382  62.4744021  44.5249087
  40.9432678  69.7951104  39.6190019  41.4940600  69.1619173  39.8587111
  40.9276794  70.3266497  40.3105523  41.0217875  69.7800052  39.7568877
  27.5955069  73.6289701  44.1649913  27.0966763  74.3405469  44.2434801
  28.4055293  73.9490368  44.1268075  27.6411176  73.7816550  44.1706481
  23.8583187  72.8912654  38.4112634  23.5696435  72.2650126  38.9458361
  24.7266535  72.8332942  38.4777314  23.9443439  72.7900199  38.5003588
  34.6461085  68.0347438  38.7294615  34.3025850  67.3137773  39.0801865
  34.7454127  67.8261289  37.8872974  34.6103127  67.8971641  38.6566295
  24.0615460  74.5307906  34.3354999  24.8161428  74.9120945  34.5490461
  23.4686073  74.9819049  34.7901695  24.0852174  74.6536733  34.4337877
  35.1074114  74.4973142  34.2718604  35.6732146  75.1566352  34.1877146
  34.4602017  74.8422840  34.7435006  35.0952870  74.6455083  34.3291360
  26.5222127  66.4870746  49.4612211  25.7121903  66.7928526  49.3502053
  26.9996814  67.2076328  49.5764795  26.4725606  66.6385347  49.4619282
  25.3813687  75.7016467  39.7095114  24.8594440  75.8416759  40.3946979
  25.7687707  74.9427131  39.8997231  25.3617388  75.6101991  39.8396190
  22.3704871  65.7522276  33.7790069  22.0829667  65.3823546  33.0422016
  23.0575339  66.2217131  33.5173774  22.4293768  65.7669245  33.6305144
  31.5780692  77.4411926  33.6955683  31.3367368  76.7079787  33.2882748
  31.7582025  77.9898783  33.0422016  31.5688316  77.4134317  33.5385906
  26.8080012  72.7320486  35.1076605  26.6122795  73.3395220  34.5136908
  27.0314358  72.0388430  34.6268279  26.8114653  72.7198011  34.9492686
  25.2058542  69.6175224  35.2257473  25.9281194  69.7816382  34.7661279
  24.7266535  70.3384889  35.1196813  25.2422273  69.7473453  35.1423087
  33.1652050  65.9539023  40.6054158  32.3263151  65.9800301  40.3692422
  33.2356417  66.6009758  41.1859505  33.0520443  66.0535148  40.6563275
  22.8566159  72.0233296  44.3311613  23.3687256  72.3017549  43.6820373
  22.5702502  72.7622590  44.6974426  22.8901022  72.1735650  44.2901491
  37.0409574  71.1607009  37.8915400  36.9543548  71.3162435  38.7450179
  36.5860054  71.8045085  37.5174805  36.9612830  71.2782764  37.9622507
  19.9433065  66.5303488  34.6275350  20.0449202  67.3329649  34.9556325
  20.7388952  66.3290824  34.3298430  20.0760971  66.6189387  34.6310705
  26.3749884  64.1159685  44.3912655  26.1833081  64.1314819  45.2412078
  27.2248480  64.3123359  44.3679310  26.4725606  64.1474036  44.5135950
  20.7596797  66.6450666  42.3696471  20.6182289  65.7934607  42.4940979
  21.0437361  66.6879327  41.5458677  20.7804644  66.5250416  42.2664095
  30.9135390  68.4817756  36.5140960  30.6670104  68.4013507  37.3477749
  31.2420513  67.6971224  36.3203487  30.9256633  68.3544022  36.6088483
  34.8083439  75.1901116  40.3027741  34.6697798  75.8882162  40.8076483
  34.0283437  75.0349772  39.9463923  34.6726666  75.2701282  40.3254015
  33.1461524  71.4897491  46.5550123  33.1409562  70.6177308  46.5592549
  33.8522518  71.6885660  46.0819578  33.2506528  71.3901365  46.4857158
  26.8732417  71.2174475  45.9263943  27.0175793  71.7975683  45.2907053
  27.2208066  71.5950772  46.6313797  26.9459878  71.3595179  45.9362938
  29.0452334  70.4164643  43.7089074  28.2975649  70.6095658  43.3037352
  29.1993860  69.5909863  43.4713196  28.9574762  70.3229755  43.6134480
  36.3036812  74.5479370  31.0644240  35.9243620  73.7616507  31.0573529
  35.6403057  75.0966227  30.9215884  36.1495286  74.5124194  31.0425037
  29.2854111  64.3115194  44.5984478  29.7426726  65.0439168  44.7257270
  29.3610440  63.8881659  45.3571734  29.3645081  64.3572432  44.7285554
  21.5287103  64.5581014  45.6873922  20.9929292  63.9461372  46.0034689
  21.5904867  65.1329150  46.3407588  21.4582735  64.5527942  45.8309348
  33.7581437  57.4905069  38.4678321  33.8765006  57.9481533  37.7345624
  33.5843613  56.6850331  38.1814539  33.7500608  57.4398841  38.3179255
  27.1636489  66.3017298  41.4426302  26.3732564  66.1208758  41.7643638
  27.5597112  65.5244251  41.4256596  27.1053366  66.1604759  41.4878850
  31.6502380  75.1305072  26.8833016  32.4175365  75.1905197  26.4738867
  31.2033689  74.5585514  26.3989334  31.6975807  75.0541648  26.7510726
  29.6774320  68.7777557  45.9249801  29.6133461  69.6387514  45.7969938
  29.8171507  68.4609550  45.1245352  29.6889790  68.8577724  45.7878014
  34.5496910  76.7924861  31.3995926  34.6316748  77.5991847  31.0757377
  35.0346652  76.8120820  32.1236699  34.6334068  76.9145523  31.4582825
  28.3593414  71.4709697  40.0666004  27.9355663  71.6714196  39.3305022
  28.1838269  70.6238544  40.1790304  28.2704294  71.3758478  39.9739694
  23.6475859  71.9661748  35.4993976  23.8040478  71.9008551  36.3549968
  23.9876452  72.7410301  35.2872656  23.7209093  72.0710946  35.5948571
  34.0572111  75.5522279  51.4814252  34.8706976  75.2807428  51.6419384
  33.8967077  75.2529819  50.6774448  34.1542059  75.4677205  51.3859658
  28.3541453  76.7336983  31.6527368  28.4234273  75.8751522  31.7920368
  29.1329908  76.9508864  31.3246392  28.4794303  76.6389847  31.6244525
  31.3344273  66.2355936  44.4209640  31.5486242  65.5966850  43.8672994
  30.7178172  66.6801760  43.9917502  31.2749602  66.2066080  44.2760071
  20.2210120  69.1496698  35.8154744  20.6009085  69.5681243  35.1515011
  19.6465485  69.7310154  36.1223587  20.1921445  69.2974557  35.7631484
  33.4983361  67.8445001  45.3592947  32.6860042  67.5370892  45.4406120
  33.9573295  67.3644001  45.9235659  33.4463745  67.7281494  45.4547541
  32.9088615  75.7224673  35.8069891  32.5503270  75.8939316  36.5833924
  32.4227326  76.1837879  35.2497890  32.7847312  75.8163644  35.8395161
  27.6976981  71.4023839  28.3470126  27.9869505  72.1788721  28.6213700
  27.7848779  70.8912570  29.0484625  27.7531237  71.4415757  28.4912624
  30.5936868  69.2505073  50.1421649  31.0636499  69.8747189  50.5289524
  30.6398748  68.5822048  50.7014864  30.6704744  69.2439753  50.2821721
  27.7508142  61.3562100  40.8670453  27.2346630  60.6642292  40.9922032
  27.1902071  62.0232877  40.8133052  27.5914655  61.3525358  40.8776519
  29.8200375  61.8955060  42.6963306  29.4332128  61.9204092  43.4776836
  29.3333312  61.3296739  42.2437822  29.6912884  61.8150811  42.7451209
  34.0693355  76.6128569  46.7537092  34.7073075  76.1188765  46.4199548
  33.4267446  76.5405970  46.1689319  34.0687581  76.5287578  46.6179447
  35.7950355  68.4617715  41.3203008  35.3677963  68.3744064  40.5651108
  35.1576408  68.5695491  41.9057852  35.6379962  68.4650375  41.2948450
  29.4857517  58.7822046  44.9873566  30.1150635  59.3182346  44.7094636
  29.6543380  58.6899405  45.8387131  29.6035311  58.8483408  45.0722094
  29.2871432  63.5693240  47.2599977  30.1144861  63.2978389  47.3158592
  29.3079278  64.3654082  47.6163795  29.4124282  63.6472995  47.3215160
  34.1247611  77.3048377  43.3942449  34.9139989  76.9537442  43.5144531
  34.2991209  78.1184766  43.1319083  34.2667893  77.3734235  43.3730317
  23.8640922  70.7157103  40.4470238  23.0228928  70.6160977  40.6549132
  24.0730930  71.4852583  40.7984559  23.7705614  70.8149147  40.5297553
  21.3416489  68.3376640  38.2754989  20.9473186  68.4119652  37.5005098
  20.7856605  68.7234586  38.8263350  21.2019301  68.4058415  38.2422648
  27.6757586  68.6438502  39.6967835  27.3720724  68.0894491  40.2978243
  26.9737007  68.8230712  39.2095870  27.5273796  68.5883285  39.7137541
  26.7323684  65.9539022  34.2612537  27.0083418  65.2357935  33.8490105
  27.3322353  66.5523942  34.0533643  26.8616948  65.9359393  34.1693299
  23.7549729  73.1100865  41.8661871  23.1637663  73.7510364  41.8364886
  24.5170753  73.5338483  41.8393170  23.7797990  73.2676704  41.8577018
  24.1510352  64.2702863  42.5329888  24.6111834  64.3441793  43.2705012
  24.1966459  65.0684117  42.1829710  24.2260908  64.3997010  42.5902645
  25.7993702  64.9369558  47.1001916  25.4079267  64.2902905  47.5357693
  25.9679565  65.5280993  47.7196171  25.7664612  64.9283826  47.2564622
  39.8740151  72.9406635  42.8639149  39.9323275  73.3893284  43.6099126
  39.2406619  73.3505448  42.4269229  39.7891446  73.0680370  42.9091697
  33.5139246  78.5610177  39.2993895  33.3158934  79.0500992  38.6050107
  32.8926957  78.7651419  39.8778029  33.3926810  78.6626715  39.2817119
  27.5747224  70.3295074  33.6404140  28.3189269  70.7169350  33.8787089
  27.7207920  69.4852499  33.8044627  27.7057809  70.2625547  33.6998109
  29.4926800  62.1245333  38.6736001  28.6462845  62.2968141  38.5477351
  29.4897932  61.3194677  39.0101829  29.3673949  62.0306362  38.7047128
  30.5625100  65.9020547  39.5398059  30.0885054  65.3762309  40.0503370
  30.9343236  65.3550020  38.9712920  30.5474989  65.7436544  39.5313206
  20.9398130  67.8992054  44.9081605  21.8023743  67.7987763  44.8218934
  20.6089913  67.3186763  44.3467177  21.0183326  67.7983681  44.8127011
  36.8261831  70.9622923  40.9504839  36.5860053  70.1229338  40.9547266
  37.3053838  71.0423090  41.6745613  36.8614014  70.8504323  41.0579642
  32.4908600  66.7957102  32.6023813  31.9631618  66.8785846  31.9129522
  32.9504308  67.5374973  32.5988457  32.4810450  66.9177764  32.4998508
  38.8267018  67.7424380  38.9034099  38.5876787  67.7020214  38.0654883
  38.9900919  68.5895532  39.0299820  38.8157321  67.8616465  38.7987580
  35.4313048  72.1274329  44.8339144  36.1547247  71.6746856  44.6550164
  35.1663010  72.4078995  44.0511472  35.4994321  72.1025298  44.6917859
  24.2999916  66.7234503  41.5692023  23.6752986  66.7352895  40.9617976
  23.9645511  67.1994678  42.2183263  24.1585408  66.7953020  41.5748591
  24.4841665  65.0659621  27.6264708  24.1354469  65.7179347  28.0896257
  24.0038111  65.0516734  26.8988579  24.3611909  65.1602675  27.5875799
  21.0125592  74.7834963  43.0095787  20.4825516  74.0927402  43.0590762
  21.2850685  74.7745148  42.1808496  20.9750314  74.6802095  42.8943203
  32.0445682  75.3660665  31.7333470  32.7679881  75.8318778  31.5898043
  31.6046273  75.4334275  30.9831067  32.0861374  75.4444502  31.6018251
  31.2131837  72.2258208  42.9834159  30.5988830  71.6816258  43.2782794
  31.7299122  71.7122444  42.5039975  31.1987500  72.0694617  42.9558387
  30.4528134  73.2962478  40.7178457  30.0255742  72.6712196  40.2843893
  30.4453079  73.0137400  41.5437465  30.3887276  73.1615258  40.7758285
  23.5690661  68.3327651  43.7866891  23.7284148  67.5770975  44.1918613
  23.3883555  68.8818590  44.4407629  23.5656020  68.3021464  43.9429597
  31.5110964  60.4988886  44.3417681  31.0151526  60.6952560  43.6509248
  32.2680026  60.8981555  44.1706482  31.5497789  60.5866620  44.2137818
  28.7813844  64.1731232  40.9320991  28.8056331  63.6391344  40.2433771
  29.0325318  63.6648541  41.5946582  28.8223763  64.0192136  40.9285636
  16.2921434  71.4562727  40.3664135  16.1864883  71.4109571  39.5016219
  15.5421654  71.8016508  40.6478420  16.1657037  71.5003635  40.2801465
  25.0615166  62.9002050  40.3126736  25.1013538  63.4011257  41.0261443
  24.2364831  62.9912444  40.0432659  24.9454692  62.9883867  40.3777274
  27.2444779  72.4662790  48.4147030  26.3940410  72.6034505  48.5504675
  27.4072907  71.7326569  48.8594732  27.1428643  72.3776892  48.5002629
  26.4829530  69.4162560  42.6100635  25.6521459  69.5836378  42.4035883
  26.4281047  69.0398511  43.3949520  26.3518945  69.3852292  42.6949163
  24.2913313  62.9071453  48.2457045  24.9166016  62.3633586  48.5186478
  23.8363793  62.4266371  47.6764836  24.3161573  62.7560934  48.2018639
  24.8565573  67.6918152  33.1390752  24.9968535  68.1890616  33.8419394
  25.3548106  66.9904446  33.2804966  24.9506654  67.6620131  33.2642331
  24.8865796  68.5585263  30.4683329  25.5210875  69.1545688  30.4032791
  24.9691407  68.2588720  31.2829199  24.9922347  68.6026171  30.5786416
  37.8648362  71.0900740  43.3369693  38.4566202  71.7297991  43.3687891
  38.3007356  70.3923777  43.6261760  38.0166793  71.0819091  43.3850526
  26.4644779  64.4899238  30.4428771  26.7860620  64.0102321  29.7888034
  26.7271722  65.2998884  30.2519583  26.5510804  64.5389136  30.3184263
  29.6941751  75.5118113  43.9627587  29.1866843  76.0653959  44.4068218
  29.3968398  75.5726402  43.1446362  29.5746636  75.6024424  43.9076044
  31.8603934  63.8771432  42.8052250  32.2859005  63.4243959  42.1935777
  31.2460927  63.3231503  43.0817038  31.8332579  63.7285408  42.7557276
  21.3918784  70.7553104  33.7372875  21.9011013  71.3517611  34.1184181
  21.8653056  70.4879077  33.0549295  21.5362159  70.8038919  33.6927398
  34.8897503  68.3045959  35.6372836  34.2188693  68.8475661  35.5085901
  35.5837253  68.7740814  35.3954531  34.8926370  68.4544230  35.5828364
  35.0525630  64.7601842  38.5463209  35.4053241  64.3331565  39.2209008
  34.1940432  64.6752686  38.6764286  34.9775075  64.6846583  38.6658220
  23.7509315  67.3909362  36.6046056  23.0321305  67.8073495  36.8718919
  24.1221678  67.9563601  36.0537694  23.7001247  67.5358644  36.5628863
  33.0508896  68.0237211  42.4948051  33.0306824  67.8420506  43.3482830
  33.0988097  68.8949230  42.4707635  33.0543537  68.1253749  42.6171346
  30.9955226  74.6124403  48.4196528  30.9551081  73.9674080  47.8341684
  31.8078544  74.5561020  48.7321940  31.1098380  74.5083370  48.3793477
  29.5255890  66.4307362  31.9419435  28.9320729  66.7524359  31.3904002
  29.5631168  65.5848457  31.7340541  29.4430279  66.3531690  31.8302206
  36.4849691  59.8820254  39.4747522  35.9780555  59.1749394  39.4068699
  37.2817124  59.5513443  39.6048598  36.5276930  59.7293406  39.4846517
  32.4013706  66.3886867  35.3721185  32.1727399  66.4119568  34.5299544
  32.6611783  65.5644334  35.4916196  32.4059894  66.2702946  35.2646383
  26.6832935  68.2421340  44.9746286  26.1711838  67.6342523  45.3331317
  26.5112431  68.9577932  45.4420261  26.5822572  68.2584639  45.0962509
  21.5298650  66.6858915  47.6248647  21.3601240  67.3460290  47.0796854
  21.0864599  66.8965476  48.3461136  21.4397983  66.8144897  47.6510277
  25.4558469  64.9263413  36.6675381  25.9315835  65.2880493  36.0325562
  24.9547069  65.5819880  36.9475524  25.4523828  65.0757602  36.6152122
  38.6869830  74.3985181  32.4588386  39.0703436  75.1476537  32.6886483
  37.8913944  74.6451001  32.2000375  38.6263613  74.5454875  32.4545960
  30.5602005  66.1645584  47.4148541  31.1173435  65.9359394  46.7827007
  30.2363070  66.9251250  47.1383753  30.5948415  66.2429421  47.2805038
  18.4300714  69.5905780  42.8837137  17.8827433  68.9206426  43.0018005
  19.2193092  69.2235628  42.9480604  18.4652898  69.4370767  42.9105838
  28.2785122  69.2513238  48.3800548  29.0296449  69.5664914  48.6940102
  28.4707699  69.0492408  47.5534470  28.4176537  69.2680619  48.3043944
  27.4985122  67.0704613  30.0348765  27.8784087  67.0884242  29.2499880
  26.7577718  67.5158601  29.9139612  27.4453960  67.1386387  29.9012333
  35.1270413  65.3786804  35.6224344  35.1264639  65.2235460  36.4808620
  34.9226593  66.2249791  35.5665729  35.0970190  65.4807425  35.7412283
  17.1887684  68.8026588  40.0383160  17.0109445  68.3503197  40.7638076
  16.9006706  69.6052750  40.2221638  17.1200637  68.8549146  40.1726663
  32.8511265  70.0584306  39.2760551  33.3464930  69.3407301  39.2364571
  32.0411040  69.7555103  39.1615037  32.8055158  69.9081952  39.2534276
  28.2969876  73.9082119  31.4257555  27.4881199  73.5848792  31.3790864
  28.8044785  73.2015341  31.3585804  28.2519543  73.7563435  31.4087849
  18.9260153  71.3354312  37.1504919  18.0605673  71.3240002  37.0387690
  19.0258969  71.1484535  37.9976059  18.8134320  71.3060373  37.2593864
  34.9163084  72.8087993  41.9637679  35.3418155  72.2862415  41.4108104
  34.5520003  73.4068831  41.4426302  34.9249686  72.8198220  41.8046689
  31.5041683  76.5222257  38.2938837  31.9752861  77.2362520  38.4628822
  31.8401861  75.9221008  38.8298706  31.6236798  76.5393722  38.3971213
  33.5918668  78.1323571  50.4730909  33.7015633  77.3432131  50.8287656
  33.9209564  78.0429507  49.6705247  33.6571073  78.0029424  50.4073300
  28.4211178  61.2949728  45.2496932  28.5539083  60.4980721  45.5777907
  28.8056331  61.8216131  45.8295207  28.4967507  61.2549645  45.3840434
  32.1415629  76.3140192  45.0566529  31.5936575  75.6898075  44.7886595
  32.6028658  76.5034464  44.3410609  32.1282839  76.2499242  44.9116961
  31.4943533  58.2180054  41.8478025  30.6889497  58.1077784  42.1645863
  31.3650269  58.3192510  40.9907891  31.3563666  58.2163724  41.7686065
  34.9509494  64.3825546  42.4417722  34.3672482  64.8834752  42.0295289
  35.2713788  63.8755102  41.8082045  34.9122669  64.3817381  42.2876229
  27.4904293  63.2966141  32.7176397  28.3119987  63.4664454  32.4758091
  27.0273944  63.4513402  31.9942694  27.5435455  63.3447874  32.5748041
  26.0799625  61.2908903  43.4974825  26.6244038  60.9500030  44.0879167
  26.1336560  62.1494365  43.6396110  26.1688744  61.3664162  43.6056699
  31.7073956  77.3191264  41.5875871  32.5272329  77.1754230  41.8492166
  31.4268033  77.9437463  42.1292308  31.7870699  77.3901616  41.7063810
  38.1063078  78.9110833  38.2762061  37.7766408  79.3621976  37.6065759
  37.4308079  78.8326996  38.8235067  37.9573514  78.9661968  38.2585284
  45.3139485  74.8996355  36.5211671  44.9992926  75.5899834  36.9532094
  44.7966427  74.8441138  35.8197172  45.1903956  74.9931244  36.4808620
  36.3119032  76.9723121  33.7585008  37.0665000  77.3401438  33.5202058
  36.1346566  77.3462675  34.5264188  36.3973510  77.0821309  33.8369897
  49.6053930  83.1217562  41.8032548  48.7682351  83.1919749  42.0380142
  49.5742161  83.1242056  40.9306850  49.4772213  83.1327789  41.7092096
  40.3475816  76.3819851  33.4912145  41.0761976  76.2035806  33.0450301
  40.4370708  77.2237930  33.7019323  40.4682478  76.4803729  33.4565663
  47.2861770  78.1860343  40.3876270  47.9287679  78.2558448  40.9738185
  47.5384791  77.5189566  39.8855812  47.4183902  78.0986692  40.4003549
  42.5213053  79.2797315  38.0987223  41.8169379  78.7906500  38.2571142
  42.5698027  79.2919789  37.2275667  42.4243104  79.2086963  37.9926563
  49.7243273  82.9604980  36.1188233  49.4679837  82.1484922  35.9286116
  50.5672586  82.9682548  35.8918421  49.8109298  82.8416978  36.0573051
  43.9046365  76.9004604  40.8564388  44.2856877  76.2182776  41.2432262
  43.1009649  76.6114207  40.6740052  43.8422827  76.7571653  40.8868444
  37.8638205  79.4058803  50.7226996  37.5491646  80.1758365  50.4596559
  37.5428138  78.8429059  50.1379223  37.7697124  79.4369071  50.5968346
  35.4170102  77.7949324  36.3373192  34.5492528  77.8671924  36.4030802
  35.7045307  78.5971403  36.5261168  35.3309850  77.9243471  36.3747959
  44.5402991  77.9427184  44.6684514  45.2856583  77.7536994  44.2547940
  44.1240296  78.4685422  44.1098371  44.5887965  77.9929329  44.5249087
  44.1384634  81.4724331  40.6054158  43.2995734  81.4985609  40.3692422
  44.2089001  82.1195066  41.1859505  44.0253027  81.5720456  40.6563275
  42.5853912  78.3709708  35.3381774  43.2880265  78.1717456  34.8601732
  42.3198101  77.5985650  35.6450618  42.6500544  78.2272674  35.3127216
  37.3482468  79.6344993  44.3912655  37.1565665  79.6500127  45.2412078
  38.1981064  79.8308667  44.3679310  37.4458190  79.6659344  44.5135950
  40.2586695  79.8300502  44.5984478  40.7159309  80.5624476  44.7257270
  40.3343024  79.4066967  45.3571734  40.3377665  79.8757740  44.7285554
  44.7314021  73.0090377  38.4678321  44.8497589  73.4666841  37.7345624
  44.5576197  72.2035638  38.1814539  44.7233192  72.9584149  38.3179255
  41.6991585  74.8641180  39.4096983  40.8285143  74.8379901  39.3630292
  41.9531926  74.6918372  38.5922829  41.6085145  74.8351323  39.2817120
  38.7240725  76.8747408  40.8670453  38.2079214  76.1827600  40.9922032
  38.1634654  77.5418185  40.8133052  38.5647239  76.8710666  40.8776519
  40.7932959  77.4140368  42.6963306  40.4064712  77.4389400  43.4776836
  40.3065896  76.8482047  42.2437822  40.6645468  77.3336119  42.7451209
  40.4590100  74.3007354  44.9873566  41.0883218  74.8367654  44.7094636
  40.6275963  74.2084713  45.8387131  40.5767895  74.3668716  45.0722094
  40.2604015  79.0878548  47.2599977  41.0877445  78.8163697  47.3158592
  40.2811861  79.8839390  47.6163795  40.3856865  79.1658303  47.3215160
  43.9514019  76.8343242  37.9558868  44.1563612  76.7665550  38.8015865
  43.6240443  77.6402063  37.8880045  43.9329267  76.9429183  38.0718523
  47.2047707  77.3875006  37.4361633  46.5922020  77.8745408  37.8215365
  47.3011882  76.7118497  37.9799284  47.1285604  77.3593315  37.5740491
  41.2066788  79.1437847  32.5359132  41.6610534  79.3148408  33.2606977
  41.6806833  78.5305958  32.1356908  41.3435108  79.0788733  32.5832894
  40.4659383  77.6430641  38.6736001  39.6195428  77.8153449  38.5477351
  40.4630516  76.8379984  39.0101829  40.3406533  77.5491670  38.7047128
  41.5357684  81.4205855  39.5398059  41.0617638  80.8947617  40.0503370
  41.9075819  80.8735328  38.9712920  41.5207572  81.2621852  39.5313206
  49.7999601  83.2609688  38.9034099  49.5609371  83.2205522  38.0654883
  49.9633502  84.1080840  39.0299820  49.7889905  83.3801773  38.7987580
  42.4843548  76.0174194  44.3417681  41.9884109  76.2137868  43.6509248
  43.2412610  76.4166862  44.1706482  42.5230373  76.1051928  44.2137818
  39.7546428  79.6916540  40.9320991  39.7788915  79.1576652  40.2433771
  40.0057901  79.1833849  41.5946582  39.7956346  79.5377444  40.9285636
  36.0347750  78.4187358  40.3126736  36.0746121  78.9196565  41.0261443
  35.2097414  78.5097752  40.0432659  35.9187276  78.5069175  40.3777274
  35.2645896  78.4256761  48.2457045  35.8898600  77.8818894  48.5186478
  34.8096376  77.9451679  47.6764836  35.2894157  78.2746242  48.2018639
  42.8336517  79.3956740  42.8052250  43.2591589  78.9429267  42.1935777
  42.2193510  78.8416811  43.0817038  42.8065163  79.2470716  42.7557276
  41.2730740  75.8671840  36.2142827  40.6299058  75.7169486  36.7827966
  40.9330147  75.6214185  35.4491932  41.1275817  75.8083962  36.1845842
  46.0258214  80.2787150  38.5463209  46.3785824  79.8516873  39.2209008
  45.1673016  80.1937994  38.6764286  45.9507659  80.2031891  38.6658220
  47.4582274  75.4005562  39.4747522  46.9513139  74.6934702  39.4068699
  48.2549708  75.0698751  39.6048598  47.5009513  75.2478714  39.4846517
  43.3746290  81.9072174  35.3721185  43.1459983  81.9304876  34.5299544
  43.6344366  81.0829641  35.4916196  43.3792478  81.7888254  35.2646383
  46.1002996  80.8972112  35.6224344  46.0997223  80.7420768  36.4808620
  45.8959176  81.7435099  35.5665729  46.0702774  80.9992732  35.7412283
  39.3943761  76.8135036  45.2496932  39.5271667  76.0166029  45.5777907
  39.7788914  77.3401439  45.8295207  39.4700090  76.7734953  45.3840434
  42.4676117  73.7365362  41.8478025  41.6622080  73.6263092  42.1645863
  42.3382852  73.8377818  40.9907891  42.3296250  73.7349032  41.7686065
  45.9242077  79.9010854  42.4417722  45.3405066  80.4020060  42.0295289
  46.2446371  79.3940410  41.8082045  45.8855253  79.9002689  42.2876229
  38.4636876  78.8151449  32.7176397  39.2852571  78.9849762  32.4758091
  38.0006527  78.9698710  31.9942694  38.5168039  78.8633182  32.5748041
  37.0532208  76.8094211  43.4974825  37.5976621  76.4685338  44.0879167
  37.1069144  77.6679673  43.6396110  37.1421328  76.8849470  43.6056699
  14.9540679  15.3578323  21.4858794  14.9234684  16.2122960  21.6577063
  15.5522028  15.0573616  22.0444937  15.0377837  15.4394820  21.5933596
   8.1540364  14.4453974  26.2411724   7.2978260  14.6062473  26.2920841
   8.2008018  13.5746038  26.2616785   8.0339475  14.3404776  26.2517790
   2.5381504  23.9816692  22.0048956   1.7864403  23.6032231  21.7765001
   2.9867515  24.0135126  21.2567766   2.4931171  23.9302299  21.8606458
  11.4634081  20.7140500  35.8472180  12.1700848  20.2192531  35.9759115
  11.6522016  21.1549581  35.1174838  11.5961986  20.7058850  35.7581226
   7.9906464  24.4042062  17.4334503   7.6557832  25.0818983  16.9978725
   8.5033334  24.0147373  16.8451375   8.0172045  24.4466640  17.2821294
   7.5310755  26.3556330  23.3745614   7.9150134  26.9243229  22.8350390
   7.4669896  25.6305841  22.8951430   7.5784182  26.3331794  23.2239477
  10.9992185  16.5046018  28.8843376  11.5448145  17.1831105  28.9437346
  10.9409061  16.3633479  28.0244957  11.0708099  16.5838020  28.7655436
   4.1166260  23.9935084  24.2711728   4.2176623  23.1835438  24.5808856
   3.5208005  23.8992031  23.6411407   4.0438799  23.8600112  24.2237967
  12.7757254  17.9330625  19.7577104  12.6596780  18.6838311  20.1869242
  13.5713140  17.6754579  20.0073191  12.8761843  18.0065472  19.8581195
   3.9566999  28.9112674  25.6726584   4.6004455  29.3525838  26.0622743
   4.2823255  28.1066100  25.5856843   4.0998828  28.8577868  25.7172062
   4.6587579  21.9224648  21.0446446   4.9803420  22.4629856  20.4407754
   5.3059676  21.3521420  21.1768736   4.8013634  21.9183824  20.9753481
   6.7089287  13.9240643  21.1280833   7.4069452  14.1028771  21.6202296
   7.0241620  13.4010983  20.5051222   6.8584624  13.8734415  21.1082843
   6.8977223  20.3111088  21.1160624   7.3370858  19.7028189  21.5615397
   6.7481886  19.9318462  20.3446089   6.9398688  20.1649559  21.0679792
   4.3648866  18.9055100  28.3179450   5.0097868  18.4127543  27.9990398
   4.6050643  19.0479887  29.1445528   4.4959451  18.8532542  28.3928983
   6.9034957  21.7510006  27.9686342   7.1858200  20.9561412  27.7473098
   7.6321117  22.2290594  27.9891403   7.0524521  21.7044603  27.9389357
  10.4986559  18.6638270  18.0691393  10.4137854  19.5199236  18.2140962
  10.9870942  18.3882594  18.7373553  10.5575456  18.7495591  18.1893475
  11.4304992  15.2823064  19.5689129  10.9016464  15.4982697  20.2286435
  11.9530012  15.9759202  19.4890098  11.4293445  15.4166201  19.6544728
  16.8853045  20.8569368  24.9422173  16.0550748  21.0680012  25.1055590
  16.8362298  20.0306423  24.6664457  16.7559781  20.7658975  24.9259538
   4.9462783  23.6873222  27.7770083   4.4289725  23.3280637  27.1731391
   5.6437174  23.1635397  27.7876149   4.9728364  23.5570910  27.6900341
   8.6026375  24.1368037  33.7386256   8.6909721  23.9494177  34.5864466
   9.0316087  23.4905466  33.3391102   8.6788477  24.0131044  33.8058007
   6.1696835  23.4199196  32.7203918   5.6067669  23.0071806  33.2443579
   6.9317858  23.3452102  33.1397061   6.1991283  23.3476597  32.8596918
   1.7292826  25.4097218  25.3240548   2.4313405  24.8949207  25.3813304
   1.6490309  25.7371369  26.1287423   1.8216587  25.3811444  25.4513340
  16.3807004  13.5039769  28.7372594  15.5435425  13.5741956  28.9720189
  16.3495235  13.5064264  27.8646897  16.2525286  13.5149996  28.6432142
   2.7771733  15.6472805  34.4520963   2.9492236  15.5378699  35.3006244
   3.3141090  16.2927210  34.2152155   2.8816737  15.7264806  34.5426060
   1.0543602  21.6003570  24.8326156   1.8932501  21.8326502  24.8799918
   1.0855371  20.7307881  24.7633191   1.1825319  21.5060516  24.8290801
   1.6796305  22.0204445  29.1339461   2.2194530  21.8775576  29.8042834
   0.9966251  22.4201196  29.5023488   1.6588458  22.0584116  29.2873883
  11.1037189  17.6995445  24.3284486  11.8594704  18.1326960  24.3673395
  11.2099514  17.0500215  24.9019122  11.2307360  17.6672929  24.4182511
  14.1417361  21.5268723  25.0786889  13.7052592  21.5305465  25.8345860
  13.8080276  22.2074222  24.6466466  14.0279981  21.6281178  25.1267721
   8.7146434  23.5677056  36.4030039   9.4986851  23.6807903  36.7685781
   8.5143029  22.7418193  36.5988725   8.8012460  23.4623775  36.4864425
  14.0614843   8.5682551  27.3216317  14.7040752   8.6380655  27.9078232
  14.3137864   7.9011773  26.8195859  14.1936976   8.4808899  27.3343596
   8.8716827  25.4787158  30.0496495   8.0732073  25.2386658  30.3070363
   9.3202839  25.5301550  30.7963542   8.8191439  25.4509549  30.1981419
  17.2761707  18.2449643  23.9706526  17.9378141  17.6840311  23.8702435
  16.6353119  17.7501673  24.2959217  17.2790574  18.0886052  24.0038866
   8.1638515  21.5419774  16.2787449   8.5789663  21.2104798  15.5871945
   7.3330444  21.3088676  16.1507586   8.1026523  21.4591030  16.1578297
  13.5626537  19.2615025  23.7118515  13.7982127  19.4060224  22.8845365
  13.7116101  20.0257433  24.1050028  13.6192341  19.3954079  23.6482119
   0.5572615  15.7448518  33.0767736   1.2812587  15.7301549  33.5632631
   0.6588751  16.4543873  32.5789704   0.6790824  15.8473221  33.0746523
  15.3916994  18.1016691  21.5488119  15.7225211  18.6344331  20.9428214
  15.9650082  18.1555579  22.2050070  15.5250673  18.1886260  21.5565900
   7.9317564  19.2247602  37.9416683   7.1390545  19.5391114  38.1269303
   8.0466491  19.4399071  37.1037468   7.8312975  19.3031439  37.8455018
  10.6048883  15.9481594  22.2311699  10.6995738  16.6870888  22.6851324
   9.9807727  15.5199069  22.6646263  10.5257913  15.9942914  22.3619846
   8.8601357  19.1267806  32.8801980   9.4340219  18.4895050  33.0350544
   8.7816161  19.1271889  32.0111637   8.9334592  19.0332918  32.7748391
   4.2165076  17.5591071  24.9323177   3.9584320  16.7262806  24.9054477
   4.2713559  17.7848684  24.0915677   4.1864854  17.4688843  24.8043314
   9.2966126   9.6619522  25.0327270   8.5922453   9.1728708  25.1911189
   9.3451100   9.6741996  24.1615714   9.1996178   9.5909170  24.9266610
   3.1899788  15.1128834  25.4188072   2.6149379  15.2721002  26.0552033
   2.8135464  14.4764243  24.9556522   3.0502600  15.0426647  25.4442630
   6.8573077  13.5852183  30.2780450   6.4687509  13.1606401  29.6232641
   6.1927775  13.8334333  30.7857477   6.7020004  13.5590904  30.2568318
  16.4996346  13.3427188  23.0528280  16.2432911  12.5307129  22.8626163
  17.3425660  13.3504755  22.8258468  16.5862371  13.2239185  22.9913097
  10.6799438   7.2826812  27.7904434  11.0609950   6.6004983  28.1772309
   9.8762722   6.9936414  27.6080099  10.6175900   7.1393860  27.8208490
   7.9612015  17.8150788  18.4757257   8.7752654  18.1065680  18.3640029
   7.8971156  17.1610650  17.9015550   8.0714754  17.7615982  18.3746095
  14.1821505  20.4976784  32.8886833  13.9460142  19.6664849  32.7698894
  14.8264734  20.4462391  33.4741677  14.2416176  20.3674472  32.9572726
   3.8319923  21.2872305  23.6029569   4.4693870  21.0484053  24.1481363
   4.2574995  21.4909464  22.8682730   3.9896089  21.2823315  23.5746727
  15.2057926  20.2821233  28.9515127  14.9003743  21.0149289  29.3128443
  14.4864141  19.8759162  28.6707913  15.0545268  20.3302966  28.9628264
   6.2141395  21.7644728  25.2823356   6.2880403  21.6019900  26.1365206
   7.0310901  21.9534917  25.0383837   6.3457754  21.7681470  25.3721381
  20.9059718  16.9214233  28.2783472  20.8384218  16.9410192  27.4086058
  20.8915380  17.7644560  28.5039142  20.8938474  17.0487968  28.1835949
  11.3156064   8.3249391  31.6024561  12.0609656   8.1359201  31.1887986
  10.8993369   8.8507629  31.0438417  11.3641038   8.3751536  31.4589134
   4.7545981  24.7279471  20.0136829   5.0444279  24.3368452  19.2896056
   5.4849462  24.9096176  20.4542104   4.9052865  24.6973285  19.9719636
  18.6918335  15.6958619  26.5530066  19.2426257  15.0626689  26.7927158
  18.6762450  16.2274012  27.2445570  18.7703531  15.6807568  26.6908924
   5.3440726  19.5297217  31.0989959   4.8452420  20.2412984  31.1774848
   6.1540950  19.8497883  31.0608122   5.3896833  19.6824065  31.1046528
   2.6951896  26.7046853  23.0796979   2.4752192  26.4144208  23.8723646
   2.4746418  26.0461808  22.5514891   2.6299491  26.5646562  23.1185887
   1.6068844  18.7920170  25.3452680   1.3182092  18.1657641  25.8798408
   2.4752192  18.7340457  25.4117361   1.6929095  18.6907714  25.4343635
  12.3946741  13.9354953  25.6634662  12.0511507  13.2145288  26.0141912
  12.4939784  13.7268804  24.8213020  12.3588784  13.7979156  25.5906342
   4.8619852  28.0776243  21.8627671   5.5143910  27.5452685  22.0918697
   4.1645461  27.7244895  22.2495545   4.8550570  27.9465766  21.9539839
   1.8101117  20.4315421  21.2695045   2.5647085  20.8128460  21.4830508
   1.2171730  20.8826564  21.7241742   1.8337831  20.5544248  21.3677924
  12.8559770  20.3980657  21.2058650  13.4217803  21.0573867  21.1217193
  12.2087674  20.7430355  21.6775053  12.8438527  20.5462599  21.2631407
   4.2707784  12.3878261  36.3952258   3.4607560  12.6936041  36.2842100
   4.7482471  13.1083844  36.5104842   4.2211263  12.5392862  36.3959329
   3.1299344  21.6023982  26.6435161   2.6080097  21.7424274  27.3287025
   3.5173364  20.8434646  26.8337278   3.1103044  21.5109506  26.7736237
   9.3266349  23.3419441  20.6295730   9.0853024  22.6087302  20.2222795
   9.5067681  23.8906298  19.9762063   9.3173972  23.3141833  20.4725953
   4.5565669  18.6328001  22.0416652   4.3608452  19.2402736  21.4476955
   4.7800015  17.9395945  21.5608326   4.5600310  18.6205527  21.8832733
   2.9544199  15.5182739  22.1597520   3.6766851  15.6823897  21.7001326
   2.4752192  16.2392404  22.0536860   2.9907930  15.6480969  22.0763134
  10.9137707  11.8546538  27.5394205  10.0748807  11.8807817  27.3032468
  10.9842074  12.5017273  28.1199552  10.8006100  11.9542664  27.5903322
   9.3606985   8.7531915  22.2721821  10.0633338   8.5539663  21.7941779
   9.0951174   7.9807857  22.5790665   9.4253617   8.6094881  22.2467263
  14.7895231  17.0614525  24.8255447  14.7029205  17.2169951  25.6790226
  14.3345710  17.7052600  24.4514852  14.7098487  17.1790280  24.8962554
   4.1235541  10.0167200  31.3252702   3.9318738  10.0322335  32.1752125
   4.9734137  10.2130874  31.3019357   4.2211263  10.0481551  31.4475996
   8.6621047  14.3825272  23.4481006   8.4155761  14.3021023  24.2817795
   8.9906170  13.5978740  23.2543534   8.6742290  14.2551537  23.5428529
  12.5569095  21.0908631  27.2367788  12.4183455  21.7889677  27.7416530
  11.7769093  20.9357288  26.8803969  12.4212322  21.1708798  27.2594062
  10.8947181  17.3905006  33.4890169  10.8895219  16.5184823  33.4932596
  11.6008174  17.5893176  33.0159625  10.9992185  17.2908881  33.4197205
   4.6218074  17.1181990  32.8603989   4.7661450  17.6983199  32.2247099
   4.9693722  17.4958287  33.5653844   4.6945535  17.2602694  32.8702984
   6.7937991  16.3172159  30.6429121   6.0461305  16.5103173  30.2377399
   6.9479516  15.4917378  30.4053242   6.7060419  16.2237270  30.5474527
   3.6945829  25.3084762  29.7265016   3.8435393  24.7487678  29.0738421
   4.4745831  25.3876764  30.1097535   3.8319923  25.2370328  29.6861965
  14.0522468  20.4486885  17.9984287  13.6729277  19.6624023  17.9913576
  13.3888714  20.9973742  17.8555931  13.8980943  20.4131709  17.9765084
   6.2199130  25.4799405  31.0049507   6.1442801  24.8108216  31.5600295
   6.1488989  26.1817193  31.5190173   6.1979736  25.4844312  31.1626355
   7.0339768  10.2122709  31.5324525   7.4912382  10.9446684  31.6597317
   7.1096097   9.7889175  32.2911781   7.1130738  10.2579948  31.6625601
   6.8769376  24.0000404  21.8373113   7.6419268  23.7310048  21.5155777
   6.7747466  23.5150414  22.5543176   6.9750872  23.8889969  21.8952941
   4.9122146  12.2024813  28.3766349   4.1218221  12.0216273  28.6983685
   5.3082769  11.4251766  28.3596643   4.8539022  12.0612274  28.4218897
  10.2965833  19.8367244  26.1025795   9.6210834  19.6052476  26.6039182
  10.3058209  19.2288426  25.4767900  10.1984337  19.7126169  26.0841947
   7.4259976  14.6785073  32.8589848   7.3619118  15.5395029  32.7309984
   7.5657164  14.3617066  32.0585399   7.4375447  14.7585239  32.7218061
  12.2982567  22.6932376  18.3335973  12.3802404  23.4999362  18.0097424
  12.7832309  22.7128335  19.0576746  12.3819725  22.8153038  18.3922871
   6.1079070  17.3717212  27.0006051   5.6841319  17.5721711  26.2645069
   5.9323926  16.5246060  27.1130350   6.0189951  17.2765993  26.9079741
   5.6090764  28.8867725  29.4627508   6.0986694  28.1878514  29.2803173
   5.0374996  28.5891595  30.0503565   5.5975294  28.7393948  29.5228549
   1.3961515  17.8669263  22.4334023   1.5526135  17.8016066  23.2890015
   1.7362108  18.6417816  22.2212703   1.4694750  17.9718461  22.5288617
   7.9340660  17.2427147  21.3027386   8.4756205  16.7397528  21.7666007
   8.2487219  17.1892342  20.4916872   8.0605057  17.1606568  21.2511198
  11.8057767  21.4529794  38.4154299  12.6192633  21.1814943  38.5759431
  11.6452734  21.1537334  37.6114494  11.9027716  21.3684720  38.3199704
   6.1027110  22.6344498  18.5867414   6.1719930  21.7759037  18.7260415
   6.8815565  22.8516379  18.2586439   6.2279960  22.5397362  18.5584572
   9.0829929  12.1363451  31.3549687   9.2971899  11.4974366  30.8013041
   8.4663829  12.5809275  30.9257549   9.0235259  12.1073595  31.2100118
  10.4934597  25.0582200  22.8003908  10.1014389  24.7548915  22.0826774
  10.6487669  25.8951290  22.6108862  10.4588187  25.1366036  22.6660405
  11.2469017  13.7452517  32.2932994  10.4345699  13.4378407  32.3746167
  11.7058952  13.2651517  32.8575706  11.1949402  13.6289009  32.3887588
  10.6574272  21.6232189  22.7409938  10.2988927  21.7946831  23.5173971
  10.1712983  22.0845394  22.1837937  10.5332969  21.7171160  22.7735207
   8.3422525  15.1512588  37.0761696   8.8122156  15.7754704  37.4629570
   8.3884405  14.4829564  37.6354911   8.4190401  15.1447268  37.2161768
  11.8179011  22.5136084  33.6877139  12.4558732  22.0196280  33.3539595
  11.1753103  22.4413485  33.1029366  11.8173238  22.4295093  33.5519494
  13.5436011  14.3625230  28.2543055  13.1163620  14.2751579  27.4991154
  12.9062064  14.4703006  28.8397899  13.3865619  14.3657890  28.2288496
   7.0357089   9.4700756  34.1940024   7.8630518   9.1985905  34.2498639
   7.0564935  10.2661597  34.5503842   7.1609939   9.5480510  34.2555207
  11.8733268  23.2055893  30.3282496  12.6625646  22.8544957  30.4484578
  12.0476866  24.0192281  30.0659130  12.0153550  23.2741750  30.3070364
   1.6126578  16.6164618  27.3810285   0.7714585  16.5168493  27.5889179
   1.8216586  17.3860099  27.7324605   1.5191271  16.7156662  27.4637600
  10.7267092   7.2165449  24.8898914  10.9316686   7.1487757  25.7355911
  10.3993516   8.0224271  24.8220092  10.7082340   7.3251390  25.0058569
   5.4243243  14.5446018  26.6307882   5.1206381  13.9902006  27.2318290
   4.7222664  14.7238228  26.1435916   5.2759453  14.4890800  26.6477588
   3.4861594  21.7595738  31.3379980   3.3781949  21.7697801  32.2042038
   3.6957376  22.5850519  31.1484934   3.5011705  21.8836813  31.4384072
  13.9800780   7.7697214  24.3701680  13.3675093   8.2567616  24.7555412
  14.0764955   7.0940705  24.9139331  13.9038677   7.7415522  24.5080538
   1.5035386  19.0108381  28.8001918   0.9123320  19.6517879  28.7704933
   2.2656410  19.4345998  28.7733217   1.5283647  19.1684219  28.7917065
   3.5479359  10.8377073  34.0341962   3.1564924  10.1910421  34.4697740
   3.7165222  11.4288509  34.6536218   3.5150269  10.8291341  34.1904668
  17.6225808  18.8414150  29.7979196  17.6808932  19.2900799  30.5439172
  16.9892275  19.2512963  29.3609276  17.5377103  18.9687885  29.8431744
  11.2624903  24.4617692  26.2333942  11.0644591  24.9508507  25.5390153
  10.6412614  24.6658934  26.8118075  11.1412467  24.5634231  26.2157165
   5.3232881  16.2302589  20.5744186   6.0674926  16.6176865  20.8127136
   5.4693577  15.3860015  20.7384674   5.4543466  16.1633062  20.6338156
   8.3110757  11.8028062  26.4738106   7.8370711  11.2769825  26.9843417
   8.6828893  11.2557535  25.9052967   8.2960646  11.6444059  26.4653253
  14.5747487  16.8630438  27.8844886  14.3345710  16.0236853  27.8887313
  15.0539494  16.9430605  28.6085660  14.6099671  16.7511838  27.9919689
  16.5752674  13.6431895  25.8374145  16.3362444  13.6027730  24.9994930
  16.7386576  14.4903047  25.9639866  16.5642978  13.7623980  25.7327627
  13.1798704  18.0281845  31.7679190  13.9032903  17.5754371  31.5890210
  12.9148667  18.3086510  30.9851518  13.2479978  18.0032813  31.6257906
   2.0485573  12.6242018  28.5032070   1.4238643  12.6360410  27.8958022
   1.7131168  13.1002193  29.1523310   1.9071065  12.6960535  28.5088638
   9.7931339  21.2668181  18.6673517  10.5165538  21.7326294  18.5238090
   9.3531930  21.3341790  17.9171114   9.8347031  21.3452017  18.5358298
   8.9617494  18.1265723  29.9174206   8.3474487  17.5823773  30.2122841
   9.4784779  17.6129959  29.4380022   8.9473156  17.9702132  29.8898434
   8.2013791  19.1969993  27.6518504   7.7741399  18.5719712  27.2183940
   8.1938735  18.9144915  28.4777511   8.1372932  19.0622774  27.7098332
   1.3176318  14.2335166  30.7206938   1.4769805  13.4778490  31.1258660
   1.1369212  14.7826106  31.3747676   1.3141677  14.2028980  30.8769644
   9.2596621   6.3996402  31.2757728   8.7637182   6.5960076  30.5849294
  10.0165683   6.7989070  31.1046529   9.2983446   6.4874135  31.1477864
   6.5299501  10.0738747  27.8661038   6.5541988   9.5398860  27.1773818
   6.7810974   9.5656056  28.5286629   6.5709419   9.9199651  27.8625683
   4.9930436  18.3670306  35.3487077   4.1426066  18.5042020  35.4844722
   5.1558564  17.6334084  35.7934779   4.8914299  18.2784407  35.4342676
   4.2315186  15.3170076  29.5440682   3.4007116  15.4843894  29.3375930
   4.1766704  14.9406026  30.3289567   4.1004601  15.2859807  29.6289210
  15.6134018  16.9908256  30.2709740  16.2051859  17.6305506  30.3027938
  16.0493013  16.2931292  30.5601807  15.7652450  16.9826606  30.3190573
   7.4427408  21.4125628  30.8967634   6.9352499  21.9661475  31.3408265
   7.1454054  21.4733918  30.0786409   7.3232293  21.5031939  30.8416091
   9.6089590   9.7778948  29.7392297  10.0344662   9.3251474  29.1275824
   8.9946584   9.2239018  30.0157085   9.5818236   9.6292924  29.6897322
  10.0535189  25.3288886  18.8271578   9.3364498  25.1549748  18.3618815
  10.7041926  25.0941458  18.2947064  10.0437039  25.2684678  18.6800796
  12.6383160  14.2053474  22.5712883  11.9674350  14.7483176  22.4425948
  13.3322910  14.6748329  22.3294578  12.6412027  14.3551745  22.5168410
   6.6869894  26.3450186  27.8024641   6.4635548  25.5869015  28.1708667
   6.1979737  26.3748207  27.0805081   6.5813343  26.2372411  27.7501382
  12.8011287  10.6609358  25.4803256  13.1538897  10.2339081  26.1549055
  11.9426089  10.5760201  25.6104332  12.7260732  10.5854098  25.5998266
   1.4994972  13.2916877  23.5386102   0.7806961  13.7081010  23.8058966
   1.8707335  13.8571116  22.9877741   1.4486904  13.4366159  23.4968909
  10.7994553  13.9244726  29.4288098  10.7792480  13.7428022  30.2822877
  10.8473754  14.7956745  29.4047682  10.8029194  14.0261265  29.5511393
   8.7440883  20.5131918  35.3536575   8.7036738  19.8681595  34.7681731
   9.5564201  20.4568536  35.6661987   8.8584036  20.4090885  35.3133524
   5.3348350  26.5650644  25.2561726   4.9208749  25.9024774  24.8665567
   6.0195725  26.7128503  24.7357420   5.3746722  26.4891302  25.1218223
   8.7013645  25.7240730  26.0085342   8.3029928  25.8343000  25.2406162
   8.0864864  25.9322796  26.5911902   8.5512534  25.7714298  25.9816642
  14.2335347   5.7827770  26.4087568  13.7266212   5.0756909  26.3408746
  15.0302781   5.4520958  26.5388645  14.2762587   5.6300921  26.4186563
  10.1499363  12.2894382  22.3061232   9.9213056  12.3127083  21.4639590
  10.4097439  11.4651849  22.4256243  10.1545551  12.1710462  22.1986430
   4.4318592  14.1428855  31.9086332   3.9197495  13.5350038  32.2671364
   4.2598088  14.8585447  32.3760308   4.3308229  14.1592154  32.0302556
   3.2044126  10.8270928  23.6015428   3.6801492  11.1888008  22.9665609
   2.7032725  11.4827396  23.8815571   3.2009485  10.9765117  23.5492169
  16.4355487  20.2992696  19.3928433  16.8189093  21.0484052  19.6226530
  15.6399601  20.5458516  19.1340422  16.3749269  20.4462390  19.3886006
   8.3087662  12.0653100  34.3488588   8.8659092  11.8366909  33.7167053
   7.9848727  12.8258765  34.0723800   8.3434072  12.1436936  34.2145085
   6.0270779  15.1520753  35.3140595   6.7782106  15.4672430  35.6280149
   6.2193356  14.9499924  34.4874517   6.1662193  15.1688135  35.2383991
  12.8756069  11.2794319  22.5564390  12.8750296  11.1242976  23.4148667
  12.6712249  12.1257306  22.5005776  12.8455847  11.3814940  22.6752330
  10.5996921  15.9591821  26.2100597  11.0950587  15.2414816  26.1704618
   9.7896697  15.6562619  26.0955084  10.5540815  15.8089467  26.1874323
   6.0455533  19.8089634  18.3597602   5.2366856  19.4856308  18.3130911
   6.5530442  19.1022856  18.2925850   6.0005200  19.6570951  18.3427896
  12.6648740  18.7095508  28.8977726  13.0903812  18.1869930  28.3448151
  12.3005660  19.3076346  28.3766349  12.6735343  18.7205735  28.7386736
   2.3002820  27.0059726  27.6575072   2.6149379  27.8196114  27.6652853
   2.7096233  26.6209945  28.3257231   2.4070918  27.0688428  27.7579163
   9.2527340  22.4229773  25.2278884   9.7238518  23.1370035  25.3968869
   9.5887518  21.8228523  25.7638753   9.3722455  22.4401237  25.3311260
  11.3404324  24.0331086  37.4070956  11.4501290  23.2439647  37.7627703
  11.6695221  23.9437022  36.6045294  11.4056730  23.9036939  37.3413346
   9.8901286  22.2147707  31.9906576   9.3422232  21.5905590  31.7226642
  10.3514315  22.4041979  31.2750656   9.8768496  22.1506757  31.8457007
  12.6995150  10.2833061  29.3757769  12.1158139  10.7842268  28.9635336
  13.0199444   9.7762618  28.7422092  12.6608326  10.2824896  29.2216276
   9.4559612  23.2198780  28.5215917  10.2757986  23.0761746  28.7832213
   9.1753690  23.8444978  29.0632355   9.5356356  23.2909132  28.6403857
  19.1272948  29.9639282  26.2411724  18.2710843  30.1247781  26.2920841
  19.1740601  29.0931346  26.2616785  19.0072059  29.8590084  26.2517790
  13.5114087  39.5002000  22.0048956  12.7596987  39.1217538  21.7765001
  13.9600099  39.5320434  21.2567766  13.4663754  39.4487607  21.8606458
  18.9639047  39.9227370  17.4334503  18.6290416  40.6004291  16.9978725
  19.4765918  39.5332681  16.8451375  18.9904628  39.9651948  17.2821294
  18.5043338  41.8741638  23.3745614  18.8882718  42.4428537  22.8350390
  18.4402480  41.1491149  22.8951430  18.5516766  41.8517102  23.2239477
  15.0898843  39.5120392  24.2711728  15.1909206  38.7020746  24.5808856
  14.4940589  39.4177339  23.6411407  15.0171382  39.3785420  24.2237967
  23.7489837  33.4515933  19.7577104  23.6329363  34.2023619  20.1869242
  24.5445724  33.1939887  20.0073191  23.8494427  33.5250780  19.8581195
  14.9299583  44.4297981  25.6726584  15.5737039  44.8711146  26.0622743
  15.2555839  43.6251408  25.5856843  15.0731412  44.3763176  25.7172062
   8.2863888  35.5340679  23.8964062   8.0514072  34.7008331  23.7896331
   8.4249528  35.8145345  23.0825263   8.2719550  35.4524182  23.7606417
  10.5853975  27.7026409  26.7948370   9.9659007  27.1119057  26.6258384
  10.4837839  28.2937845  26.1612693  10.4791651  27.7030492  26.6753359
  15.6320163  37.4409956  21.0446446  15.9536004  37.9815164  20.4407754
  16.2792259  36.8706728  21.1768736  15.7746218  37.4369131  20.9753481
  17.6821871  29.4425951  21.1280833  18.3802036  29.6214079  21.6202296
  17.9974203  28.9196291  20.5051222  17.8317208  29.3919723  21.1082843
  10.3123108  31.2478691  29.0391939  10.1881805  31.8341137  29.6741757
  10.9641393  30.7538887  29.3404214  10.3896758  31.2617496  29.1777868
  17.8709806  35.8296396  21.1160624  18.3103442  35.2213497  21.5615397
  17.7214469  35.4503770  20.3446089  17.9131272  35.6834867  21.0679792
  15.3381449  34.4240408  28.3179450  15.9830452  33.9312851  27.9990398
  15.5783226  34.5665195  29.1445528  15.4692034  34.3717850  28.3928983
  17.8767541  37.2695314  27.9686342  18.1590783  36.4746720  27.7473098
  18.6053701  37.7475901  27.9891403  18.0257104  37.2229911  27.9389357
  15.8548734  24.8118348  25.2102107  15.5252064  25.2629491  24.5405806
  15.1793736  24.7334511  25.7575114  15.7059171  24.8669483  25.1925331
  21.4719143  34.1823578  18.0691393  21.3870438  35.0384544  18.2140962
  21.9603526  33.9067902  18.7373553  21.5308040  34.2680899  18.1893475
  23.0625142  20.8003871  23.4551718  22.7478583  21.4907349  23.8872140
  22.5452084  20.7448653  22.7537219  22.9389613  20.8938759  23.4148667
  22.4037576  30.8008372  19.5689129  21.8749047  31.0168005  20.2286435
  22.9262596  31.4944510  19.4890098  22.4026029  30.9351509  19.6544728
  14.2937184  34.6971589  18.3696597  13.7094399  35.2021620  18.7762460
  13.8907279  34.4713975  17.6293189  14.1476488  34.7379837  18.3201622
   9.8481212  40.4126350  25.1720268   9.3648791  41.1376839  25.1479852
  10.6604531  40.7102480  25.2830426   9.8971960  40.5628703  25.1847547
  15.9195366  39.2058530  27.7770083  15.4022308  38.8465945  27.1731391
  16.6169758  38.6820705  27.7876149  15.9460948  39.0756218  27.6900341
  18.7514398  30.9437241  16.8465517  18.9910402  31.1515224  16.0340860
  19.0730239  30.1394749  16.9554462  18.8351556  30.8551342  16.7426070
  14.0604688  22.8730636  20.6925055  14.8150657  23.2408953  20.4542105
  13.8832223  23.2470191  21.4604235  14.1459167  22.9828824  20.7709944
  12.7025410  40.9282526  25.3240548  13.4045989  40.4134515  25.3813304
  12.6222893  41.2556677  26.1287423  12.7949170  40.8996752  25.4513340
  13.7504316  31.1658112  34.4520963  13.9224820  31.0564007  35.3006244
  14.2873674  31.8112518  34.2152155  13.8549320  31.2450114  34.5426060
  12.4161753  25.2800955  17.3903168  12.2337326  25.4972836  16.5644161
  13.2787366  25.3939968  17.4461783  12.5166343  25.3290853  17.2757655
  12.0276185  37.1188878  24.8326156  12.8665085  37.3511810  24.8799918
  12.0587954  36.2493189  24.7633191  12.1557903  37.0245824  24.8290801
  12.6528888  37.5389753  29.1339461  13.1927113  37.3960884  29.8042834
  11.9698834  37.9386504  29.5023488  12.6321042  37.5769424  29.2873883
  18.0961472  22.2827366  20.4252192  18.8247633  22.1043321  19.9790348
  18.1856365  23.1245446  20.6359370  18.2168134  22.3811244  20.3905710
   8.0566033  33.7590044  29.2873883   7.7904448  32.9429160  29.4464873
   8.0704597  33.8043199  28.4169399   8.0190756  33.6446948  29.1827365
  11.9623780  28.5575128  15.9025641  11.2481957  28.2713307  16.3148074
  12.4467749  28.8971754  16.5432029  11.9283143  28.5656778  16.0581276
  12.8064640  27.2968422  31.9340891  12.1136436  26.8265402  32.1801622
  13.4224967  27.0706726  32.5082598  12.7949170  27.1935554  32.0550043
  19.1371098  37.0605082  16.2787449  19.5522247  36.7290106  15.5871945
  18.3063028  36.8273984  16.1507586  19.0759107  36.9776338  16.1578297
   8.4659447  34.5448823  26.5685627   8.2835020  34.5195709  25.7157919
   9.2009116  35.0147761  26.6074536   8.5473511  34.6110185  26.4483546
  11.5305199  31.2633826  33.0767736  12.2545171  31.2486856  33.5632631
  11.6321335  31.9729181  32.5789704  11.6523408  31.3658529  33.0746523
  26.3649578  33.6201999  21.5488119  26.6957795  34.1529639  20.9428214
  26.9382666  33.6740887  22.2050070  26.4983257  33.7071568  21.5565900
  18.9050148  34.7432910  37.9416683  18.1123129  35.0576422  38.1269303
  19.0199075  34.9584379  37.1037468  18.8045558  34.8216747  37.8455018
  21.5781467  31.4666902  22.2311699  21.6728321  32.2056196  22.6851324
  20.9540310  31.0384377  22.6646263  21.4990497  31.5128222  22.3619846
   8.4330357  31.4242324  26.7184694   9.0103860  31.2878774  27.3576939
   7.7344419  30.9678108  26.9730278   8.4151379  31.3364590  26.8506984
  21.8304488  33.3115641  15.4648651  21.7484651  33.3817828  16.3303638
  22.4684209  33.8745385  15.2732391  21.9124326  33.4054612  15.5638600
  20.2698710  25.1804830  25.0327270  19.5655036  24.6914015  25.1911189
  20.3183684  25.1927304  24.1615714  20.1728761  25.1094478  24.9266610
  14.1632372  30.6314142  25.4188072  13.5881963  30.7906310  26.0552033
  13.7868048  29.9949551  24.9556522  14.0235184  30.5611955  25.4442630
  17.8305660  29.1037491  30.2780450  17.4420093  28.6791709  29.6232641
  17.1660359  29.3519641  30.7857477  17.6752588  29.0776212  30.2568318
   3.9089190  30.2754217  23.4332512   3.9949442  29.8986085  24.2146042
   4.5364988  29.9014662  22.9552471   4.0145741  30.1639699  23.4777990
  18.9344598  33.3336096  18.4757257  19.7485237  33.6250988  18.3640029
  18.8703740  32.6795958  17.9015550  19.0447337  33.2801290  18.3746095
  14.8052507  36.8057613  23.6029569  15.4426454  36.5669361  24.1481363
  15.2307578  37.0094772  22.8682730  14.9628673  36.8008623  23.5746727
   9.4965149  39.0445950  27.4863873   9.5369294  39.3160801  26.6583653
  10.0559673  39.5687858  27.9021661   9.5848495  39.1621705  27.4255761
  15.4455322  32.0259903  17.9404459  15.8300474  31.8067610  18.6921004
  15.1966942  32.8522848  18.0705535  15.4657394  32.1158049  18.0705535
  15.6123862  25.3066318  37.6567043  15.2977303  26.0765881  37.3936606
  15.2913795  24.7436574  37.0719270  15.5182781  25.3376587  37.5308393
  17.1873979  37.2830036  25.2823356  17.2612987  37.1205208  26.1365206
  18.0043485  37.4720225  25.0383837  17.3190337  37.2866778  25.3721381
  10.9479735  37.6287899  22.3117799  10.1217853  37.8749636  22.1852078
  11.0091727  37.5499979  23.1779857  10.8353902  37.6532848  22.4206744
  13.1655759  23.6956840  23.2713239  12.2978185  23.7679439  23.3370848
  13.4530963  24.4978918  23.4601214  13.0795507  23.8250987  23.3088006
  15.7278564  40.2464779  20.0136829  16.0176863  39.8553760  19.2896056
  16.4582045  40.4281484  20.4542104  15.8785449  40.2158593  19.9719636
  16.3173310  35.0482525  31.0989959  15.8185003  35.7598292  31.1774848
  17.1273534  35.3683191  31.0608122  16.3629416  35.2009373  31.1046528
  13.6684480  42.2232161  23.0796979  13.4484775  41.9329516  23.8723646
  13.4479002  41.5647116  22.5514891  13.6032074  42.0831870  23.1185887
  12.5801427  34.3105478  25.3452680  12.2914676  33.6842949  25.8798408
  13.4484775  34.2525765  25.4117361  12.6661679  34.2093022  25.4343635
  15.8352436  43.5961551  21.8627671  16.4876494  43.0637993  22.0918697
  15.1378044  43.2430203  22.2495545  15.8283154  43.4651074  21.9539839
  12.7833700  35.9500729  21.2695045  13.5379668  36.3313768  21.4830508
  12.1904313  36.4011872  21.7241742  12.8070414  36.0729556  21.3677924
  23.8292354  35.9165965  21.2058650  24.3950387  36.5759175  21.1217193
  23.1820257  36.2615663  21.6775053  23.8171110  36.0647906  21.2631407
  15.2440368  27.9063569  36.3952258  14.4340143  28.2121349  36.2842100
  15.7215054  28.6269151  36.5104842  15.1943846  28.0578170  36.3959329
  14.1031927  37.1209290  26.6435161  13.5812681  37.2609582  27.3287025
  14.4905947  36.3619954  26.8337278  14.0835628  37.0294814  26.7736237
  11.0923111  27.1715099  20.7130115  10.8047907  26.8016369  19.9762063
  11.7793579  27.6409954  20.4513820  11.1512008  27.1862068  20.5645191
  20.2998932  38.8604749  20.6295730  20.0585608  38.1272610  20.2222795
  20.4800265  39.4091606  19.9762063  20.2906556  38.8327140  20.4725953
  15.5298253  34.1513309  22.0416652  15.3341035  34.7588044  21.4476955
  15.7532598  33.4581253  21.5608326  15.5332894  34.1390835  21.8832733
  13.9276783  31.0368047  22.1597520  14.6499435  31.2009205  21.7001326
  13.4484776  31.7577712  22.0536860  13.9640513  31.1666277  22.0763134
  11.5784399  33.4426119  31.2651660  12.0905496  33.7210373  30.6160420
  11.2920742  34.1815414  31.6314473  11.6119263  33.5928473  31.2241538
  20.3339569  24.2717223  22.2721821  21.0365921  24.0724971  21.7941779
  20.0683757  23.4993165  22.5790665  20.3986201  24.1280189  22.2467263
   8.6651306  27.9496311  21.5615397   8.7667442  28.7522473  21.8896372
   9.4607192  27.7483647  21.2638477   8.7979211  28.0382210  21.5650752
  15.0968125  25.5352508  31.3252702  14.9051322  25.5507642  32.1752125
  15.9466721  25.7316182  31.3019357  15.1943847  25.5666859  31.4475996
   9.4815038  28.0643490  29.3036518   9.3400530  27.2127430  29.4281026
   9.7655601  28.1072150  28.4798724   9.5022884  27.9443240  29.2004142
  19.6353630  29.9010580  23.4481006  19.3888344  29.8206331  24.2817795
  19.9638753  29.1164048  23.2543534  19.6474874  29.7736845  23.5428529
  15.5950657  32.6367298  32.8603989  15.7394033  33.2168506  32.2247099
  15.9426306  33.0143595  33.5653844  15.6678119  32.7788002  32.8702984
  14.6678412  40.8270070  29.7265016  14.8167976  40.2672986  29.0738421
  15.4478415  40.9062072  30.1097535  14.8052506  40.7555636  29.6861965
  25.0255052  35.9672193  17.9984287  24.6461861  35.1809331  17.9913576
  24.3621297  36.5159050  17.8555931  24.8713527  35.9317017  17.9765084
  18.0072352  25.7308017  31.5324525  18.4644966  26.4631992  31.6597317
  18.0828681  25.3074483  32.2911781  18.0863322  25.7765255  31.6625601
  10.2505343  25.9773837  32.6213968   9.7147533  25.3654195  32.9374736
  10.3123108  26.5521973  33.2747635  10.1800976  25.9720765  32.7649395
  22.4799678  18.9097893  25.4018368  22.5983246  19.3674356  24.6685670
  22.3061854  18.1043154  25.1154585  22.4718849  18.8591665  25.2519301
  17.8501960  39.5185712  21.8373113  18.6151851  39.2495356  21.5155777
  17.7480050  39.0335722  22.5543176  17.9483456  39.4075277  21.8952941
  15.8854730  27.7210121  28.3766349  15.0950805  27.5401581  28.6983685
  16.2815353  26.9437074  28.3596643  15.8271606  27.5797582  28.4218897
  20.3720621  36.5497896  13.8173062  21.1393606  36.6098021  13.4078914
  19.9251930  35.9778337  13.3329381  20.4194048  36.4734471  13.6850773
  21.2698416  35.3552551  26.1025795  20.5943418  35.1237784  26.6039182
  21.2790792  34.7473734  25.4767900  21.1716921  35.2311477  26.0841947
  18.3992560  30.1970380  32.8589848  18.3351701  31.0580337  32.7309984
  18.5389748  29.8802374  32.0585399  18.4108030  30.2770547  32.7218061
  23.2715151  38.2117684  18.3335973  23.3534988  39.0184670  18.0097424
  23.7564893  38.2313643  19.0576746  23.3552309  38.3338346  18.3922871
  17.0811654  32.8902520  27.0006051  16.6573903  33.0907019  26.2645069
  16.9056509  32.0431368  27.1130350  16.9922535  32.7951301  26.9079741
  16.5823347  44.4053033  29.4627508  17.0719278  43.7063822  29.2803173
  16.0107580  44.1076903  30.0503565  16.5707877  44.2579256  29.5228549
  12.3694099  33.3854571  22.4334023  12.5258718  33.3201374  23.2890015
  12.7094692  34.1603124  22.2212703  12.4427334  33.4903769  22.5288617
  18.9073244  32.7612455  21.3027386  19.4488789  32.2582836  21.7666007
  19.2219803  32.7077649  20.4916872  19.0337641  32.6791876  21.2511198
  17.0759693  38.1529806  18.5867414  17.1452514  37.2944345  18.7260415
  17.8548148  38.3701687  18.2586439  17.2012543  38.0582670  18.5584572
  21.4667181  40.5767508  22.8003908  21.0746973  40.2734223  22.0826774
  21.6220253  41.4136598  22.6108862  21.4320771  40.6551344  22.6660405
   8.9428360  30.5689522  22.7494790   9.3227325  30.9874067  22.0855058
   8.3683725  31.1502977  23.0563634   8.9139685  30.7167380  22.6971531
  21.6306856  37.1417496  22.7409938  21.2721510  37.3132139  23.5173971
  21.1445566  37.6030702  22.1837937  21.5065553  37.2356468  22.7735207
  19.4477242  20.7648695  26.3437030  18.5770800  20.7387416  26.2970339
  19.7017583  20.5925887  25.5262875  19.3570802  20.7358839  26.2157166
  16.4195221  32.8216662  15.2810173  16.7087746  33.5981544  15.5553747
  16.5067020  32.3105393  15.9824672  16.4749477  32.8608580  15.4252671
  19.3155108  30.6697896  37.0761696  19.7854740  31.2940012  37.4629570
  19.3616989  30.0014871  37.6354911  19.3922984  30.6632576  37.2161768
  16.4726382  22.7754923  27.8010500  15.9564871  22.0835115  27.9262079
  15.9120311  23.4425700  27.7473099  16.3132895  22.7718181  27.8116566
  18.5418616  23.3147883  29.6303353  18.1550369  23.3396915  30.4116883
  18.0551553  22.7489562  29.1777869  18.4131124  23.2343634  29.6791256
  18.2075757  20.2014869  31.9213612  18.8368875  20.7375169  31.6434683
  18.3761620  20.1092228  32.7727178  18.3253552  20.2676231  32.0062141
  18.0089672  24.9886064  34.1940024  18.8363101  24.7171212  34.2498639
  18.0297518  25.7846905  34.5503842  18.1342522  25.0665818  34.2555207
  12.5859162  32.1349926  27.3810285  11.7447169  32.0353801  27.5889179
  12.7949170  32.9045407  27.7324605  12.4923855  32.2341970  27.4637600
  10.0634729  29.7569463  25.2095035   9.6691427  29.8312475  24.4345145
   9.5074846  30.1427410  25.7603397   9.9237541  29.8251238  25.1762695
  21.6999676  22.7350757  24.8898914  21.9049269  22.6673065  25.7355911
  21.3726100  23.5409579  24.8220092  21.6814924  22.8436698  25.0058569
  16.3975827  30.0631326  26.6307882  16.0938964  29.5087314  27.2318290
  15.6955248  30.2423536  26.1435916  16.2492037  30.0076108  26.6477588
  15.4541924  27.3731845  21.1952584  15.7301658  26.6550758  20.7830152
  16.0540593  27.9716765  20.9873690  15.5835189  27.3552216  21.1033345
  14.4594178  37.2781046  31.3379980  14.3514533  37.2883108  32.2042038
  14.6689959  38.1035827  31.1484934  14.4744289  37.4022121  31.4384072
  24.9533363  23.2882522  24.3701680  24.3407677  23.7752924  24.7555412
  25.0497538  22.6126013  24.9139331  24.8771261  23.2600830  24.5080538
  18.9552444  25.0445363  19.4699179  19.4096191  25.2155923  20.1947024
  19.4292490  24.4313473  19.0696955  19.0920765  24.9796248  19.5172941
  12.4767970  34.5293689  28.8001918  11.8855903  35.1703187  28.7704933
  13.2388993  34.9531306  28.7733217  12.5016230  34.6869527  28.7917065
  12.8728593  25.6895686  29.4669935  13.3330074  25.7634616  30.2045059
  12.9184699  26.4876941  29.1169757  12.9479148  25.8189834  29.5242692
  14.5211942  26.3562381  34.0341962  14.1297508  25.7095728  34.4697740
  14.6897805  26.9473817  34.6536218  14.4882853  26.3476649  34.1904668
  22.2357486  39.9803000  26.2333942  22.0377175  40.4693815  25.5390153
  21.6145197  40.1844242  26.8118075  22.1145051  40.0819539  26.2157165
  16.2965464  31.7487897  20.5744186  17.0407509  32.1362173  20.8127136
  16.4426161  30.9045322  20.7384674  16.4276050  31.6818370  20.6338156
  18.2145040  23.5438156  25.6076048  17.3681085  23.7160964  25.4817398
  18.2116172  22.7387500  25.9441876  18.0892190  23.4499185  25.6387175
  19.2843340  27.3213370  26.4738106  18.8103295  26.7955132  26.9843417
  19.6561476  26.7742843  25.9052967  19.2693229  27.1629367  26.4653253
   9.6616370  29.3184877  31.8421651  10.5241983  29.2180586  31.7558981
   9.3308153  28.7379586  31.2807224   9.7401567  29.2176504  31.7467057
  21.2126840  28.2149925  19.5363860  20.6849859  28.2978669  18.8469568
  21.6722548  28.9567796  19.5328504  21.2028690  28.3370587  19.4338555
  13.0218156  28.1427326  28.5032070  12.3971227  28.1545718  27.8958022
  12.6863751  28.6187501  29.1523310  12.8803648  28.2145843  28.5088638
  13.2059905  26.4852445  14.5604755  12.8572709  27.1372170  15.0236304
  12.7256351  26.4709558  13.8328626  13.0830149  26.5795498  14.5215846
   9.7343832  36.2027786  29.9435834   9.2043756  35.5120225  29.9930809
  10.0068925  36.1937972  29.1148543   9.6968554  36.0994918  29.8283250
  20.7663922  36.7853489  18.6673517  21.4898121  37.2511602  18.5238090
  20.3264513  36.8527098  17.9171114  20.8079615  36.8637325  18.5358298
  19.1746375  34.7155301  27.6518504  18.7473983  34.0905020  27.2183940
  19.1671319  34.4330223  28.4777511  19.1105516  34.5808082  27.7098332
  12.2908902  29.7520474  30.7206938  12.4502388  28.9963798  31.1258660
  12.1101795  30.3011413  31.3747676  12.2874261  29.7214288  30.8769644
  20.2329205  21.9181710  31.2757728  19.7369766  22.1145384  30.5849294
  20.9898267  22.3174378  31.1046529  20.2716029  22.0059443  31.1477864
  17.5032084  25.5924055  27.8661038  17.5274572  25.0584168  27.1773818
  17.7543558  25.0841364  28.5286629  17.5442003  25.4384959  27.8625683
   5.0139674  32.8755550  27.3004182   4.9083123  32.8302395  26.4356266
   4.2639894  33.2209331  27.5818467   4.8875277  32.9196459  27.2141512
  13.7833407  24.3194874  27.2466782  13.8231778  24.8204080  27.9601490
  12.9583071  24.4105267  26.9772706  13.6672933  24.4076690  27.3117321
  15.9663019  33.8855614  35.3487077  15.1158650  34.0227328  35.4844722
  16.1291147  33.1519392  35.7934779  15.8646883  33.7969715  35.4342676
  15.2047770  30.8355383  29.5440682  14.3739700  31.0029201  29.3375930
  15.1499287  30.4591334  30.3289567  15.0737185  30.8045115  29.6289210
  13.0131553  24.3264276  35.1797092  13.6384257  23.7826409  35.4526524
  12.5582033  23.8459194  34.6104883  13.0379814  24.1753758  35.1358686
  13.5783814  29.1110975  20.0730799  13.7186775  29.6083439  20.7759441
  14.0766347  28.4097269  20.2145013  13.6724895  29.0812954  20.1982378
  13.6084036  29.9778086  17.4023376  14.2429116  30.5738511  17.3372838
  13.6909647  29.6781544  18.2169246  13.7140587  30.0218994  17.5126463
  15.1863019  25.9092061  17.3768818  15.5078860  25.4295144  16.7228080
  15.4489963  26.7191708  17.1859630  15.2729044  25.9581959  17.2524310
  18.4159992  36.9310936  30.8967634  17.9085083  37.4846783  31.3408265
  18.1186638  36.9919226  30.0786409  18.2964877  37.0217247  30.8416091
  10.1137024  32.1745927  20.6712922  10.6229253  32.7710434  21.0524228
  10.5871296  31.9071900  19.9889342  10.2580400  32.2231742  20.6267445
  21.0267772  40.8474194  18.8271578  20.3097082  40.6735056  18.3618815
  21.6774510  40.6126766  18.2947064  21.0169623  40.7869986  18.6800796
  19.0216397  21.7679355  23.1482874  18.3784715  21.6177002  23.7168013
  18.6815804  21.5221700  22.3831979  18.8761474  21.7091478  23.1185889
  17.6602477  41.8635494  27.8024641  17.4368132  41.1054323  28.1708667
  17.1712320  41.8933515  27.0805081  17.5545926  41.7557719  27.7501382
  23.7743871  26.1794666  25.4803256  24.1271481  25.7524389  26.1549055
  22.9158672  26.0945509  25.6104332  23.6993315  26.1039406  25.5998266
  12.4727556  28.8102185  23.5386102  11.7539545  29.2266318  23.8058966
  12.8439918  29.3756424  22.9877741  12.4219488  28.9551467  23.4968909
  16.3080934  42.0835952  25.2561726  15.8941333  41.4210082  24.8665567
  16.9928308  42.2313811  24.7357420  16.3479306  42.0076610  25.1218223
  19.6746228  41.2426037  26.0085342  19.2762511  41.3528308  25.2406162
  19.0597448  41.4508104  26.5911902  19.5245117  41.2899605  25.9816642
  18.2474130  27.8500185  18.8759482  17.6538969  28.1717182  18.3244049
  18.2849408  27.0041281  18.6680588  18.1648519  27.7724514  18.7642253
  25.2067931  21.3013078  26.4087568  24.6998796  20.5942217  26.3408746
  26.0035365  20.9706266  26.5388645  25.2495170  21.1486229  26.4186563
  21.1231947  27.8079690  22.3061232  20.8945640  27.8312391  21.4639590
  21.3830023  26.9837157  22.4256243  21.1278135  27.6895770  22.1986430
  15.4051175  29.6614163  31.9086332  14.8930078  29.0535346  32.2671364
  15.2330671  30.3770755  32.3760308  15.3040812  29.6777462  32.0302556
  10.2516890  28.1051738  34.5588694  10.0819480  28.7653113  34.0136901
   9.8082840  28.3158299  35.2801183  10.1616223  28.2337720  34.5850324
  14.1776709  26.3456236  23.6015428  14.6534076  26.7073316  22.9665609
  13.6765309  27.0012704  23.8815571  14.1742068  26.4950425  23.5492169
  27.4088071  35.8178004  19.3928433  27.7921677  36.5669360  19.6226530
  26.6132184  36.0643824  19.1340422  27.3481853  35.9647698  19.3886006
  19.2820246  27.5838407  34.3488588  19.8391676  27.3552217  33.7167053
  18.9581311  28.3444073  34.0723800  19.3166656  27.6622244  34.2145085
   7.1518954  31.0098604  29.8177184   6.6045674  30.3399249  29.9358052
   7.9411333  30.6428452  29.8820651   7.1871138  30.8563590  29.8445885
  17.0003363  30.6706061  35.3140595  17.7514690  30.9857738  35.6280149
  17.1925939  30.4685232  34.4874517  17.1394777  30.6873443  35.2383991
  16.2203362  28.4897436  16.9688812  16.6002327  28.5077065  16.1839927
  15.4795958  28.9351425  16.8479659  16.1672200  28.5579210  16.8352380
  23.8488653  26.7979627  22.5564390  23.8482879  26.6428284  23.4148667
  23.6444833  27.6442614  22.5005776  23.8188431  26.9000248  22.6752330
   5.9105924  30.2219411  26.9723207   5.7327685  29.7696020  27.6978123
   5.6224946  31.0245573  27.1561685   5.8418877  30.2741969  27.1066710
  17.0188117  35.3274942  18.3597602  16.2099439  35.0041616  18.3130911
  17.5263025  34.6208164  18.2925850  16.9737783  35.1756258  18.3427896
   7.6478394  32.7547135  24.0844966   6.7823913  32.7432826  23.9727737
   7.7477210  32.5677358  24.9316105   7.5352561  32.7253196  24.1933911
  13.2735404  42.5245034  27.6575072  13.5881963  43.3381422  27.6652853
  13.6828817  42.1395253  28.3257231  13.3803502  42.5873736  27.7579163
  20.2259923  37.9415081  25.2278884  20.6971101  38.6555343  25.3968869
  20.5620102  37.3413831  25.7638753  20.3455038  37.9586545  25.3311260
  17.1429418  22.7142551  32.1836978  17.2757324  21.9173545  32.5117954
  17.5274571  23.2408954  32.7635254  17.2185747  22.6742468  32.3180481
  20.2161773  19.6372877  28.7818072  19.4107737  19.5270607  29.0985910
  20.0868509  19.7385333  27.9247937  20.0781906  19.6356547  28.7026112
  16.2122533  24.7158964  19.6516443  17.0338227  24.8857277  19.4098138
  15.7492184  24.8706225  18.9282741  16.2653695  24.7640697  19.5088088
  14.8017865  22.7101726  30.4314872  15.3462278  22.3692853  31.0219214
  14.8554801  23.5687188  30.5736157  14.8906984  22.7856986  30.5396746
  10.6148424  36.4718142  27.3053680  11.2193281  36.4313976  26.6767501
  10.4075736  37.3189294  27.3357736  10.6737321  36.5906145  27.2169797
   5.8499706  35.4552760  27.1752603   5.7523984  34.6449031  27.4842660
   6.6328576  35.4344553  26.7898871   5.9515843  35.3319850  27.1639466
  36.9005846  46.3948939  21.4858794  36.8699851  47.2493576  21.6577063
  37.4987195  46.0944232  22.0444937  36.9843004  46.4765436  21.5933596
  30.1005531  45.4824590  26.2411724  29.2443427  45.6433088  26.2920841
  30.1473185  44.6116654  26.2616785  29.9804643  45.3775392  26.2517790
  24.4846671  55.0187308  22.0048956  23.7329570  54.6402846  21.7765001
  24.9332683  55.0505742  21.2567766  24.4396338  54.9672915  21.8606458
  29.9371631  55.4412678  17.4334503  29.6022999  56.1189599  16.9978725
  30.4498501  55.0517989  16.8451375  29.9637212  55.4837256  17.2821294
  29.4775922  57.3926946  23.3745614  29.8615301  57.9613845  22.8350390
  29.4135063  56.6676457  22.8951430  29.5249349  57.3702410  23.2239477
  32.9457352  47.5416634  28.8843376  33.4913312  48.2201721  28.9437346
  32.8874228  47.4004095  28.0244957  33.0173267  47.6208636  28.7655436
  26.0631427  55.0305700  24.2711728  26.1641790  54.2206054  24.5808856
  25.4673172  54.9362647  23.6411407  25.9903966  54.8970728  24.2237967
  34.7222421  48.9701241  19.7577104  34.6061947  49.7208927  20.1869242
  35.5178308  48.7125195  20.0073191  34.8227010  49.0436088  19.8581195
  25.9032167  59.9483289  25.6726584  26.5469622  60.3896453  26.0622743
  26.2288422  59.1436716  25.5856843  26.0463995  59.8948484  25.7172062
  19.2596471  51.0525987  23.8964062  19.0246656  50.2193639  23.7896331
  19.3982112  51.3330652  23.0825263  19.2452134  50.9709490  23.7606417
  21.5586559  43.2211717  26.7948370  20.9391590  42.6304365  26.6258384
  21.4570422  43.8123153  26.1612693  21.4524234  43.2215800  26.6753359
  26.6052746  52.9595264  21.0446446  26.9268587  53.5000472  20.4407754
  27.2524843  52.3892036  21.1768736  26.7478802  52.9554439  20.9753481
  28.6554454  44.9611259  21.1280833  29.3534619  45.1399387  21.6202296
  28.9706787  44.4381599  20.5051222  28.8049792  44.9105031  21.1082843
  21.2855692  46.7663999  29.0391939  21.1614389  47.3526445  29.6741757
  21.9373976  46.2724195  29.3404214  21.3629341  46.7802804  29.1777868
  28.8442390  51.3481704  21.1160624  29.2836025  50.7398805  21.5615397
  28.6947053  50.9689078  20.3446089  28.8863855  51.2020175  21.0679792
  26.3114033  49.9425716  28.3179450  26.9563035  49.4498159  27.9990398
  26.5515810  50.0850503  29.1445528  26.4424618  49.8903158  28.3928983
  28.8500124  52.7880622  27.9686342  29.1323367  51.9932028  27.7473098
  29.5786285  53.2661209  27.9891403  28.9989688  52.7415219  27.9389357
  26.8281318  40.3303656  25.2102107  26.4984648  40.7814799  24.5405806
  26.1526320  40.2519819  25.7575114  26.6791754  40.3854791  25.1925331
  32.4451726  49.7008885  18.0691393  32.3603021  50.5569852  18.2140962
  32.9336110  49.4253210  18.7373553  32.5040624  49.7866207  18.1893475
  33.3770160  46.3193680  19.5689129  32.8481631  46.5353313  20.2286435
  33.8995180  47.0129818  19.4890098  33.3758613  46.4536817  19.6544728
  25.2669767  50.2156896  18.3696597  24.6826983  50.7206928  18.7762460
  24.8639863  49.9899283  17.6293189  25.1209071  50.2565145  18.3201622
  20.8213796  55.9311658  25.1720268  20.3381374  56.6562147  25.1479852
  21.6337114  56.2287788  25.2830426  20.8704544  56.0814011  25.1847547
  26.8927950  54.7243838  27.7770083  26.3754892  54.3651253  27.1731391
  27.5902341  54.2006013  27.7876149  26.9193531  54.5941526  27.6900341
  29.7246982  46.4622549  16.8465517  29.9642985  46.6700532  16.0340860
  30.0462823  45.6580057  16.9554462  29.8084140  46.3736650  16.7426070
  25.0337272  38.3915944  20.6925055  25.7883240  38.7594261  20.4542105
  24.8564807  38.7655499  21.4604235  25.1191750  38.5014132  20.7709944
  23.6757993  56.4467833  25.3240548  24.3778573  55.9319823  25.3813304
  23.5955476  56.7741985  26.1287423  23.7681754  56.4182060  25.4513340
  23.3894337  40.7986263  17.3903168  23.2069910  41.0158144  16.5644161
  24.2519950  40.9125276  17.4461783  23.4898926  40.8476161  17.2757655
  23.0008769  52.6374185  24.8326156  23.8397668  52.8697118  24.8799918
  23.0320538  51.7678497  24.7633191  23.1290486  52.5431132  24.8290801
  23.6261472  53.0575061  29.1339461  24.1659697  52.9146192  29.8042834
  22.9431418  53.4571811  29.5023488  23.6053626  53.0954732  29.2873883
  29.0694056  37.8012674  20.4252192  29.7980216  37.6228629  19.9790348
  29.1588949  38.6430754  20.6359370  29.1900718  37.8996552  20.3905710
  19.0298617  49.2775351  29.2873883  18.7637032  48.4614468  29.4464873
  19.0437181  49.3228507  28.4169399  18.9923339  49.1632256  29.1827365
  22.9356364  44.0760436  15.9025641  22.2214541  43.7898615  16.3148074
  23.4200332  44.4157062  16.5432029  22.9015727  44.0842086  16.0581276
  30.1103682  52.5790390  16.2787449  30.5254830  52.2475414  15.5871945
  29.2795611  52.3459292  16.1507586  30.0491690  52.4961646  16.1578297
  19.4392030  50.0634131  26.5685627  19.2567604  50.0381017  25.7157919
  20.1741699  50.5333069  26.6074536  19.5206094  50.1295493  26.4483546
  22.5037782  46.7819134  33.0767736  23.2277754  46.7672164  33.5632631
  22.6053919  47.4914489  32.5789704  22.6255991  46.8843837  33.0746523
  32.5514050  46.9852209  22.2311699  32.6460905  47.7241504  22.6851324
  31.9272894  46.5569685  22.6646263  32.4723081  47.0313530  22.3619846
  19.4062941  46.9427632  26.7184694  19.9836443  46.8064082  27.3576939
  18.7077002  46.4863416  26.9730278  19.3883962  46.8549898  26.8506984
  32.8037072  48.8300949  15.4648651  32.7217234  48.9003136  16.3303638
  33.4416792  49.3930693  15.2732391  32.8856909  48.9239920  15.5638600
  26.1630243  48.5961687  24.9323177  25.9049487  47.7633422  24.9054477
  26.2178726  48.8219300  24.0915677  26.1330021  48.5059458  24.8043314
  31.2431293  40.6990138  25.0327270  30.5387620  40.2099323  25.1911189
  31.2916267  40.7112612  24.1615714  31.1461345  40.6279786  24.9266610
  25.1364955  46.1499450  25.4188072  24.5614546  46.3091618  26.0552033
  24.7600631  45.5134859  24.9556522  24.9967767  46.0797263  25.4442630
  28.8038244  44.6222799  30.2780450  28.4152676  44.1977017  29.6232641
  28.1392942  44.8704949  30.7857477  28.6485172  44.5961520  30.2568318
  38.4461513  44.3797804  23.0528280  38.1898078  43.5677745  22.8626163
  39.2890827  44.3875371  22.8258468  38.5327538  44.2609801  22.9913097
  14.8821774  45.7939524  23.4332512  14.9682026  45.4171393  24.2146042
  15.5097571  45.4199970  22.9552471  14.9878325  45.6825007  23.4777990
  29.9077182  48.8521404  18.4757257  30.7217821  49.1436296  18.3640029
  29.8436323  48.1981266  17.9015550  30.0179921  48.7986598  18.3746095
  25.7785090  52.3242921  23.6029569  26.4159037  52.0854669  24.1481363
  26.2040162  52.5280080  22.8682730  25.9361256  52.3193931  23.5746727
  20.4697733  54.5631258  27.4863873  20.5101878  54.8346109  26.6583653
  21.0292257  55.0873166  27.9021661  20.5581079  54.6807013  27.4255761
  26.4187905  47.5445211  17.9404459  26.8033058  47.3252918  18.6921004
  26.1699526  48.3708156  18.0705535  26.4389978  47.6343357  18.0705535
  28.1606562  52.8015344  25.2823356  28.2345570  52.6390515  26.1365206
  28.9776069  52.9905533  25.0383837  28.2922921  52.8052086  25.3721381
  21.9212319  53.1473206  22.3117799  21.0950437  53.3934944  22.1852078
  21.9824310  53.0685287  23.1779857  21.8086486  53.1718155  22.4206744
  24.1388343  39.2142147  23.2713239  23.2710768  39.2864747  23.3370848
  24.4263547  40.0164226  23.4601214  24.0528091  39.3436295  23.3088006
  26.7011148  55.7650087  20.0136829  26.9909446  55.3739068  19.2896056
  27.4314629  55.9466792  20.4542104  26.8518032  55.7343900  19.9719636
  24.6417064  57.7417469  23.0796979  24.4217359  57.4514824  23.8723646
  24.4211586  57.0832424  22.5514891  24.5764658  57.6017177  23.1185887
  23.5534011  49.8290786  25.3452680  23.2647259  49.2028257  25.8798408
  24.4217359  49.7711073  25.4117361  23.6394263  49.7278330  25.4343635
  26.8085019  59.1146859  21.8627671  27.4609077  58.5823301  22.0918697
  26.1110628  58.7615511  22.2495545  26.8015737  58.9836382  21.9539839
  23.7566284  51.4686037  21.2695045  24.5112252  51.8499076  21.4830508
  23.1636897  51.9197180  21.7241742  23.7802998  51.5914864  21.3677924
  34.8024938  51.4351273  21.2058650  35.3682970  52.0944483  21.1217193
  34.1552841  51.7800971  21.6775053  34.7903694  51.5833214  21.2631407
  25.0764511  52.6394598  26.6435161  24.5545264  52.7794890  27.3287025
  25.4638531  51.8805262  26.8337278  25.0568212  52.5480122  26.7736237
  22.0655695  42.6900407  20.7130115  21.7780490  42.3201677  19.9762063
  22.7526163  43.1595262  20.4513820  22.1244592  42.7047376  20.5645191
  31.2731516  54.3790057  20.6295730  31.0318192  53.6457918  20.2222795
  31.4532849  54.9276914  19.9762063  31.2639140  54.3512448  20.4725953
  26.5030836  49.6698617  22.0416652  26.3073619  50.2773352  21.4476955
  26.7265182  48.9766561  21.5608326  26.5065477  49.6576143  21.8832733
  24.9009366  46.5553355  22.1597520  25.6232018  46.7194513  21.7001326
  24.4217359  47.2763020  22.0536860  24.9373097  46.6851585  22.0763134
  32.8602874  42.8917154  27.5394205  32.0213975  42.9178433  27.3032468
  32.9307241  43.5387889  28.1199552  32.7471267  42.9913280  27.5903322
  22.5516983  48.9611427  31.2651660  23.0638080  49.2395681  30.6160420
  22.2653326  49.7000721  31.6314473  22.5851846  49.1113781  31.2241538
  31.3072152  39.7902531  22.2721821  32.0098505  39.5910279  21.7941779
  31.0416341  39.0178473  22.5790665  31.3718784  39.6465497  22.2467263
  19.6383889  43.4681619  21.5615397  19.7400026  44.2707781  21.8896372
  20.4339776  43.2668955  21.2638477  19.7711795  43.5567518  21.5650752
  30.6086214  45.4195888  23.4481006  30.3620928  45.3391639  24.2817795
  30.9371337  44.6349355  23.2543534  30.6207457  45.2922153  23.5428529
  34.5034263  52.1279247  27.2367788  34.3648622  52.8260293  27.7416530
  33.7234260  51.9727903  26.8803969  34.3677489  52.2079414  27.2594062
  25.6410996  56.3455378  29.7265016  25.7900560  55.7858294  29.0738421
  26.4210998  56.4247380  30.1097535  25.7785090  56.2740944  29.6861965
  35.9987635  51.4857501  17.9984287  35.6194444  50.6994639  17.9913576
  35.3353881  52.0344358  17.8555931  35.8446110  51.4502325  17.9765084
  28.1664297  56.5170021  31.0049507  28.0907968  55.8478831  31.5600295
  28.0954156  57.2187809  31.5190173  28.1444904  56.5214928  31.1626355
  28.8234544  55.0371020  21.8373113  29.5884435  54.7680664  21.5155777
  28.7212634  54.5521030  22.5543176  28.9216039  54.9260584  21.8952941
  26.8587313  43.2395429  28.3766349  26.0683388  43.0586889  28.6983685
  27.2547936  42.4622382  28.3596643  26.8004190  43.0982890  28.4218897
  31.3453204  52.0683204  13.8173062  32.1126189  52.1283329  13.4078914
  30.8984513  51.4963645  13.3329381  31.3926631  51.9919779  13.6850773
  32.2431000  50.8737859  26.1025795  31.5676001  50.6423092  26.6039182
  32.2523376  50.2659042  25.4767900  32.1449504  50.7496785  26.0841947
  34.2447734  53.7302992  18.3335973  34.3267572  54.5369978  18.0097424
  34.7297476  53.7498951  19.0576746  34.3284892  53.8523654  18.3922871
  28.0544238  48.4087828  27.0006051  27.6306487  48.6092327  26.2645069
  27.8789093  47.5616676  27.1130350  27.9655118  48.3136609  26.9079741
  27.5555931  59.9238341  29.4627508  28.0451861  59.2249130  29.2803173
  26.9840163  59.6262211  30.0503565  27.5440461  59.7764564  29.5228549
  23.3426683  48.9039879  22.4334023  23.4991302  48.8386682  23.2890015
  23.6827276  49.6788432  22.2212703  23.4159917  49.0089077  22.5288617
  29.8805827  48.2797763  21.3027386  30.4221373  47.7768144  21.7666007
  30.1952386  48.2262957  20.4916872  30.0070224  48.1977184  21.2511198
  28.0492277  53.6715114  18.5867414  28.1185097  52.8129653  18.7260415
  28.8280732  53.8886995  18.2586439  28.1745127  53.5767978  18.5584572
  32.4399764  56.0952816  22.8003908  32.0479556  55.7919531  22.0826774
  32.5952837  56.9321905  22.6108862  32.4053354  56.1736652  22.6660405
  19.9160944  46.0874830  22.7494790  20.2959909  46.5059375  22.0855058
  19.3416309  46.6688285  23.0563634  19.8872269  46.2352688  22.6971531
  32.6039439  52.6602804  22.7409938  32.2454094  52.8317447  23.5173971
  32.1178150  53.1216010  22.1837937  32.4798136  52.7541775  22.7735207
  27.3927805  48.3401970  15.2810173  27.6820329  49.1166852  15.5553747
  27.4799603  47.8290701  15.9824672  27.4482061  48.3793888  15.4252671
  23.5591746  47.6535234  27.3810285  22.7179752  47.5539109  27.5889179
  23.7681753  48.4230715  27.7324605  23.4656438  47.7527278  27.4637600
  21.0367313  45.2754771  25.2095035  20.6424010  45.3497783  24.4345145
  20.4807429  45.6612718  25.7603397  20.8970125  45.3436546  25.1762695
  27.3708410  45.5816634  26.6307882  27.0671548  45.0272622  27.2318290
  26.6687831  45.7608844  26.1435916  27.2224620  45.5261416  26.6477588
  26.4274508  42.8917153  21.1952584  26.7034242  42.1736066  20.7830152
  27.0273177  43.4902073  20.9873690  26.5567772  42.8737524  21.1033345
  25.4326761  52.7966354  31.3379980  25.3247116  52.8068416  32.2042038
  25.6422543  53.6221135  31.1484934  25.4476872  52.9207429  31.4384072
  35.9265947  38.8067830  24.3701680  35.3140261  39.2938232  24.7555412
  36.0230122  38.1311320  24.9139331  35.8503845  38.7786138  24.5080538
  29.9285028  40.5630671  19.4699179  30.3828775  40.7341231  20.1947024
  30.4025074  39.9498781  19.0696955  30.0653348  40.4981556  19.5172941
  23.4500553  50.0478997  28.8001918  22.8588487  50.6888495  28.7704933
  24.2121577  50.4716614  28.7733217  23.4748814  50.2054835  28.7917065
  27.2698048  47.2673205  20.5744186  28.0140093  47.6547481  20.8127136
  27.4158744  46.4230630  20.7384674  27.4008633  47.2003678  20.6338156
  30.2575924  42.8398678  26.4738106  29.7835878  42.3140440  26.9843417
  30.6294060  42.2928151  25.9052967  30.2425813  42.6814675  26.4653253
  32.1859424  43.7335233  19.5363860  31.6582442  43.8163977  18.8469568
  32.6455132  44.4753104  19.5328504  32.1761274  43.8555895  19.4338555
  23.9950740  43.6612634  28.5032070  23.3703810  43.6731026  27.8958022
  23.6596335  44.1372809  29.1523310  23.8536232  43.7331151  28.5088638
  24.1792489  42.0037753  14.5604755  23.8305293  42.6557478  15.0236304
  23.6988934  41.9894866  13.8328626  24.0562733  42.0980806  14.5215846
  20.7076416  51.7213094  29.9435834  20.1776340  51.0305533  29.9930809
  20.9801509  51.7123279  29.1148543  20.6701138  51.6180226  29.8283250
  31.7396506  52.3038797  18.6673517  32.4630705  52.7696910  18.5238090
  31.2997097  52.3712406  17.9171114  31.7812198  52.3822633  18.5358298
  30.9082661  49.1636339  29.9174206  30.2939654  48.6194389  30.2122841
  31.4249946  48.6500575  29.4380022  30.8938324  49.0072748  29.8898434
  30.1478958  50.2340609  27.6518504  29.7206566  49.6090327  27.2183940
  30.1403903  49.9515531  28.4777511  30.0838099  50.0993389  27.7098332
  23.2641485  45.2705782  30.7206938  23.4234972  44.5149106  31.1258660
  23.0834379  45.8196721  31.3747676  23.2606844  45.2399596  30.8769644
  28.4764668  41.1109363  27.8661038  28.5007155  40.5769476  27.1773818
  28.7276142  40.6026672  28.5286629  28.5174587  40.9570267  27.8625683
  15.9872258  48.3940858  27.3004182  15.8815707  48.3487703  26.4356266
  15.2372478  48.7394639  27.5818467  15.8607861  48.4381766  27.2141512
  24.7565990  39.8380182  27.2466782  24.7964362  40.3389388  27.9601490
  23.9315655  39.9290575  26.9772706  24.6405516  39.9261998  27.3117321
  26.1780354  46.3540691  29.5440682  25.3472283  46.5214509  29.3375930
  26.1231871  45.9776642  30.3289567  26.0469768  46.3230423  29.6289210
  24.5516397  44.6296283  20.0730799  24.6919358  45.1268747  20.7759441
  25.0498930  43.9282577  20.2145013  24.6457478  44.5998262  20.1982378
  24.5816620  45.4963394  17.4023376  25.2161699  46.0923819  17.3372838
  24.6642231  45.1966852  18.2169246  24.6873171  45.5404302  17.5126463
  26.1595603  41.4277369  17.3768818  26.4811444  40.9480452  16.7228080
  26.4222546  42.2377015  17.1859630  26.2461628  41.4767267  17.2524310
  21.0869608  47.6931235  20.6712922  21.5961837  48.2895742  21.0524228
  21.5603880  47.4257208  19.9889342  21.2312983  47.7417050  20.6267445
  32.0000356  56.3659501  18.8271578  31.2829665  56.1920364  18.3618815
  32.6507093  56.1312074  18.2947064  31.9902206  56.3055294  18.6800796
  34.5848327  45.2424090  22.5712883  33.9139517  45.7853792  22.4425948
  35.2788077  45.7118945  22.3294578  34.5877194  45.3922361  22.5168410
  28.6335061  57.3820802  27.8024641  28.4100715  56.6239631  28.1708667
  28.1444904  57.4118823  27.0805081  28.5278510  57.2743026  27.7501382
  34.7476454  41.6979974  25.4803256  35.1004064  41.2709697  26.1549055
  33.8891256  41.6130817  25.6104332  34.6725899  41.6224714  25.5998266
  23.4460139  44.3287493  23.5386102  22.7272129  44.7451626  23.8058966
  23.8172502  44.8941732  22.9877741  23.3952071  44.4736775  23.4968909
  27.2813518  57.6021260  25.2561726  26.8673916  56.9395390  24.8665567
  27.9660892  57.7499119  24.7357420  27.3211889  57.5261918  25.1218223
  30.6478812  56.7611345  26.0085342  30.2495095  56.8713616  25.2406162
  30.0330031  56.9693412  26.5911902  30.4977701  56.8084913  25.9816642
  29.2206714  43.3685493  18.8759482  28.6271553  43.6902490  18.3244049
  29.2581991  42.5226589  18.6680588  29.1381103  43.2909821  18.7642253
  32.0964530  43.3264998  22.3061232  31.8678223  43.3497699  21.4639590
  32.3562607  42.5022465  22.4256243  32.1010718  43.2081078  22.1986430
  25.1509293  41.8641544  23.6015428  25.6266659  42.2258624  22.9665609
  24.6497892  42.5198012  23.8815571  25.1474652  42.0135733  23.5492169
  18.1251538  46.5283912  29.8177184  17.5778257  45.8584557  29.9358052
  18.9143916  46.1613759  29.8820651  18.1603722  46.3748898  29.8445885
  27.1935946  44.0082744  16.9688812  27.5734911  44.0262373  16.1839927
  26.4528542  44.4536733  16.8479659  27.1404784  44.0764518  16.8352380
  34.8221237  42.3164935  22.5564390  34.8215463  42.1613592  23.4148667
  34.6177417  43.1627922  22.5005776  34.7921014  42.4185556  22.6752330
  16.8838507  45.7404719  26.9723207  16.7060269  45.2881328  27.6978123
  16.5957530  46.5430881  27.1561685  16.8151461  45.7927277  27.1066710
  32.5462089  46.9962437  26.2100597  33.0415754  46.2785432  26.1704618
  31.7361864  46.6933234  26.0955084  32.5005982  46.8460083  26.1874323
  27.9920700  50.8460250  18.3597602  27.1832023  50.5226924  18.3130911
  28.4995609  50.1393472  18.2925850  27.9470367  50.6941566  18.3427896
  18.6210977  48.2732443  24.0844966  17.7556497  48.2618134  23.9727737
  18.7209793  48.0862666  24.9316105  18.5085144  48.2438504  24.1933911
  24.2467987  58.0430342  27.6575072  24.5614546  58.8566730  27.6652853
  24.6561401  57.6580560  28.3257231  24.3536085  58.1059044  27.7579163
  31.1992507  53.4600389  25.2278884  31.6703685  54.1740651  25.3968869
  31.5352685  52.8599139  25.7638753  31.3187622  53.4771853  25.3311260
  27.1855117  40.2344272  19.6516443  28.0070811  40.4042585  19.4098138
  26.7224768  40.3891533  18.9282741  27.2386279  40.2826005  19.5088088
  21.5881007  51.9903450  27.3053680  22.1925865  51.9499284  26.6767501
  21.3808320  52.8374602  27.3357736  21.6469905  52.1091453  27.2169797
  16.8232290  50.9738068  27.1752603  16.7256568  50.1634339  27.4842660
  17.6061159  50.9529861  26.7898871  16.9248426  50.8505158  27.1639466
  35.4579254  70.5372616  22.0048956  34.7062154  70.1588154  21.7765001
  35.9065266  70.5691050  21.2567766  35.4128921  70.4858223  21.8606458
  44.3831831  67.2696424  35.8472180  45.0898599  66.7748454  35.9759115
  44.5719767  67.7105505  35.1174838  44.5159737  67.2614774  35.7581226
  40.9104214  70.9597985  17.4334503  40.5755583  71.6374907  16.9978725
  41.4231085  70.5703297  16.8451375  40.9369795  71.0022564  17.2821294
  40.4508506  72.9112254  23.3745614  40.8347885  73.4799153  22.8350390
  40.3867647  72.1861765  22.8951430  40.4981933  72.8887718  23.2239477
  43.9189936  63.0601942  28.8843376  44.4645896  63.7387029  28.9437346
  43.8606812  62.9189403  28.0244957  43.9905850  63.1393944  28.7655436
  37.0364011  70.5491008  24.2711728  37.1374374  69.7391362  24.5808856
  36.4405756  70.4547955  23.6411407  36.9636549  70.4156036  24.2237967
  45.6955004  64.4886549  19.7577104  45.5794530  65.2394235  20.1869242
  46.4910891  64.2310502  20.0073191  45.7959594  64.5621396  19.8581195
  36.8764750  75.4668597  25.6726584  37.5202206  75.9081761  26.0622743
  37.2021006  74.6622024  25.5856843  37.0196579  75.4133792  25.7172062
  30.2329055  66.5711295  23.8964062  29.9979239  65.7378947  23.7896331
  30.3714696  66.8515960  23.0825263  30.2184717  66.4894798  23.7606417
  37.5785330  68.4780572  21.0446446  37.9001171  69.0185779  20.4407754
  38.2257426  67.9077344  21.1768736  37.7211385  68.4739747  20.9753481
  39.6287038  60.4796567  21.1280833  40.3267203  60.6584695  21.6202296
  39.9439371  59.9566906  20.5051222  39.7782375  60.4290339  21.1082843
  39.8174973  66.8667012  21.1160624  40.2568609  66.2584113  21.5615397
  39.6679636  66.4874385  20.3446089  39.8596439  66.7205483  21.0679792
  39.8232708  68.3065930  27.9686342  40.1055951  67.5117336  27.7473098
  40.5518868  68.7846517  27.9891403  39.9722271  68.2600527  27.9389357
  43.4184310  65.2194193  18.0691393  43.3335605  66.0755160  18.2140962
  43.9068693  64.9438517  18.7373553  43.4773207  65.3051515  18.1893475
  44.3502743  61.8378988  19.5689129  43.8214215  62.0538621  20.2286435
  44.8727763  62.5315126  19.4890098  44.3491196  61.9722124  19.6544728
  49.8050796  67.4125292  24.9422173  48.9748499  67.6235936  25.1055590
  49.7560048  66.5862347  24.6664457  49.6757531  67.3214898  24.9259538
  36.2402351  65.7342204  18.3696597  35.6559566  66.2392236  18.7762460
  35.8372446  65.5084591  17.6293189  36.0941655  65.7750453  18.3201622
  31.7946380  71.4496965  25.1720268  31.3113958  72.1747455  25.1479852
  32.6069698  71.7473096  25.2830426  31.8437127  71.5999319  25.1847547
  37.8660534  70.2429146  27.7770083  37.3487475  69.8836561  27.1731391
  38.5634925  69.7191321  27.7876149  37.8926115  70.1126834  27.6900341
  41.5224126  70.6923960  33.7386256  41.6107471  70.5050101  34.5864466
  41.9513838  70.0461390  33.3391102  41.5986228  70.5686968  33.8058007
  39.0894585  69.9755120  32.7203918  38.5265420  69.5627730  33.2443579
  39.8515609  69.9008026  33.1397061  39.1189034  69.9032521  32.8596918
  40.6979565  61.9807856  16.8465517  40.9375569  62.1885840  16.0340860
  41.0195406  61.1765365  16.9554462  40.7816723  61.8921958  16.7426070
  36.0069856  53.9101252  20.6925055  36.7615824  54.2779569  20.4542105
  35.8297390  54.2840807  21.4604235  36.0924334  54.0199440  20.7709944
  34.6490577  71.9653141  25.3240548  35.3511156  71.4505130  25.3813304
  34.5688060  72.2927293  26.1287423  34.7414337  71.9367368  25.4513340
  34.3626920  56.3171571  17.3903168  34.1802494  56.5343452  16.5644161
  35.2252533  56.4310584  17.4461783  34.4631510  56.3661469  17.2757655
  33.9741352  68.1559493  24.8326156  34.8130252  68.3882426  24.8799918
  34.0053121  67.2863805  24.7633191  34.1023070  68.0616440  24.8290801
  34.5994055  68.5760369  29.1339461  35.1392280  68.4331500  29.8042834
  33.9164002  68.9757119  29.5023488  34.5786209  68.6140040  29.2873883
  44.0234940  64.2551369  24.3284486  44.7792455  64.6882884  24.3673395
  44.1297265  63.6056139  24.9019122  44.1505111  64.2228853  24.4182511
  47.0615111  68.0824646  25.0786889  46.6250343  68.0861389  25.8345860
  46.7278027  68.7630145  24.6466466  46.9477731  68.1837102  25.1267721
  41.6344185  70.1232979  36.4030039  42.4184602  70.2363827  36.7685781
  41.4340779  69.2974116  36.5988725  41.7210210  70.0179699  36.4864425
  33.9088947  59.5945744  15.9025641  33.1947124  59.3083923  16.3148074
  34.3932916  59.9342370  16.5432029  33.8748311  59.6027393  16.0581276
  41.7914578  72.0343081  30.0496495  40.9929824  71.7942581  30.3070363
  42.2400590  72.0857474  30.7963542  41.7389189  72.0065473  30.1981419
  41.0836265  68.0975698  16.2787449  41.4987414  67.7660722  15.5871945
  40.2528195  67.8644600  16.1507586  41.0224274  68.0146954  16.1578297
  30.4124614  65.5819439  26.5685627  30.2300187  65.5566325  25.7157919
  31.1474283  66.0518377  26.6074536  30.4938678  65.6480801  26.4483546
  46.4824288  65.8170949  23.7118515  46.7179877  65.9616148  22.8845365
  46.6313852  66.5813357  24.1050028  46.5390091  65.9510003  23.6482119
  48.3114745  64.6572615  21.5488119  48.6422962  65.1900255  20.9428214
  48.8847833  64.7111502  22.2050070  48.4448424  64.7442184  21.5565900
  40.8515315  65.7803526  37.9416683  40.0588296  66.0947038  38.1269303
  40.9664242  65.9954995  37.1037468  40.7510726  65.8587363  37.8455018
  43.5246634  62.5037517  22.2311699  43.6193488  63.2426811  22.6851324
  42.9005478  62.0754993  22.6646263  43.4455664  62.5498838  22.3619846
  41.7799108  65.6823730  32.8801980  42.3537970  65.0450974  33.0350544
  41.7013912  65.6827812  32.0111637  41.8532343  65.5888841  32.7748391
  43.7769655  64.3486257  15.4648651  43.6949818  64.4188444  16.3303638
  44.4149376  64.9116001  15.2732391  43.8589493  64.4425228  15.5638600
  37.1362827  64.1146995  24.9323177  36.8782071  63.2818730  24.9054477
  37.1911309  64.3404608  24.0915677  37.1062604  64.0244766  24.8043314
  36.1097539  61.6684758  25.4188072  35.5347130  61.8276926  26.0552033
  35.7333215  61.0320167  24.9556522  35.9700351  61.5982571  25.4442630
  25.8554358  61.3124832  23.4332512  25.9414609  60.9356701  24.2146042
  26.4830155  60.9385278  22.9552471  25.9610909  61.2010315  23.4777990
  40.8809766  64.3706711  18.4757257  41.6950404  64.6621604  18.3640029
  40.8168907  63.7166574  17.9015550  40.9912505  64.3171906  18.3746095
  47.1019256  67.0532708  32.8886833  46.8657893  66.2220772  32.7698894
  47.7462485  67.0018315  33.4741677  47.1613926  66.9230396  32.9572726
  36.7517674  67.8428229  23.6029569  37.3891621  67.6039976  24.1481363
  37.1772745  68.0465388  22.8682730  36.9093840  67.8379239  23.5746727
  31.4430316  70.0816565  27.4863873  31.4834461  70.3531417  26.6583653
  32.0024840  70.6058474  27.9021661  31.5313662  70.1992321  27.4255761
  37.3920489  63.0630519  17.9404459  37.7765642  62.8438225  18.6921004
  37.1432109  63.8893464  18.0705535  37.4122561  63.1528665  18.0705535
  39.1339146  68.3200652  25.2823356  39.2078154  68.1575823  26.1365206
  39.9508652  68.5090841  25.0383837  39.2655504  68.3237394  25.3721381
  32.8944902  68.6658514  22.3117799  32.0683020  68.9120252  22.1852078
  32.9556894  68.5870595  23.1779857  32.7819069  68.6903463  22.4206744
  37.6743731  71.2835395  20.0136829  37.9642030  70.8924376  19.2896056
  38.4047212  71.4652100  20.4542104  37.8250616  71.2529208  19.9719636
  38.2638477  66.0853141  31.0989959  37.7650170  66.7968908  31.1774848
  39.0738701  66.4053807  31.0608122  38.3094583  66.2379989  31.1046528
  35.6149647  73.2602777  23.0796979  35.3949942  72.9700132  23.8723646
  35.3944169  72.6017732  22.5514891  35.5497241  73.1202485  23.1185887
  34.5266594  65.3476094  25.3452680  34.2379843  64.7213565  25.8798408
  35.3949942  65.2896381  25.4117361  34.6126846  65.2463638  25.4343635
  37.7817603  74.6332167  21.8627671  38.4341661  74.1008609  22.0918697
  37.0843212  74.2800819  22.2495545  37.7748321  74.5021690  21.9539839
  34.7298868  66.9871345  21.2695045  35.4844836  67.3684384  21.4830508
  34.1369480  67.4382488  21.7241742  34.7535581  67.1100172  21.3677924
  45.7757521  66.9536581  21.2058650  46.3415554  67.6129791  21.1217193
  45.1285425  67.2986279  21.6775053  45.7636278  67.1018522  21.2631407
  36.0497094  68.1579906  26.6435161  35.5277848  68.2980198  27.3287025
  36.4371115  67.3990570  26.8337278  36.0300795  68.0665430  26.7736237
  33.0388278  58.2085715  20.7130115  32.7513074  57.8386985  19.9762063
  33.7258747  58.6780570  20.4513820  33.0977176  58.2232684  20.5645191
  42.2464099  69.8975365  20.6295730  42.0050775  69.1643226  20.2222795
  42.4265432  70.4462222  19.9762063  42.2371723  69.8697756  20.4725953
  37.4763420  65.1883925  22.0416652  37.2806203  65.7958660  21.4476955
  37.6997765  64.4951869  21.5608326  37.4798061  65.1761450  21.8832733
  35.8741950  62.0738663  22.1597520  36.5964602  62.2379821  21.7001326
  35.3949943  62.7948328  22.0536860  35.9105681  62.2036892  22.0763134
  30.6116473  58.9866927  21.5615397  30.7132609  59.7893089  21.8896372
  31.4072360  58.7854263  21.2638477  30.7444379  59.0752826  21.5650752
  41.5818797  60.9381196  23.4481006  41.3353512  60.8576946  24.2817795
  41.9103920  60.1534663  23.2543534  41.5940041  60.8107461  23.5428529
  45.4766846  67.6464555  27.2367788  45.3381205  68.3445601  27.7416530
  44.6966844  67.4913211  26.8803969  45.3410073  67.7264722  27.2594062
  43.8144931  63.9460930  33.4890169  43.8092970  63.0740747  33.4932596
  44.5205925  64.1449099  33.0159625  43.9189935  63.8464804  33.4197205
  36.6143580  71.8640686  29.7265016  36.7633143  71.3043602  29.0738421
  37.3943582  71.9432688  30.1097535  36.7517673  71.7926251  29.6861965
  46.9720219  67.0042809  17.9984287  46.5927028  66.2179947  17.9913576
  46.3086464  67.5529666  17.8555931  46.8178694  66.9687633  17.9765084
  39.1396880  72.0355329  31.0049507  39.0640551  71.3664139  31.5600295
  39.0686739  72.7373117  31.5190173  39.1177487  72.0400236  31.1626355
  39.7967127  70.5556328  21.8373113  40.5617018  70.2865971  21.5155777
  39.6945217  70.0706338  22.5543176  39.8948623  70.4445892  21.8952941
  42.3185788  67.5868511  13.8173062  43.0858773  67.6468636  13.4078914
  41.8717097  67.0148953  13.3329381  42.3659215  67.5105087  13.6850773
  43.2163583  66.3923167  26.1025795  42.5408585  66.1608400  26.6039182
  43.2255959  65.7844350  25.4767900  43.1182088  66.2682093  26.0841947
  45.2180318  69.2488300  18.3335973  45.3000155  70.0555286  18.0097424
  45.7030060  69.2684259  19.0576746  45.3017476  69.3708962  18.3922871
  39.0276821  63.9273136  27.0006051  38.6039070  64.1277635  26.2645069
  38.8521676  63.0801984  27.1130350  38.9387702  63.8321917  26.9079741
  38.5288515  75.4423649  29.4627508  39.0184445  74.7434438  29.2803173
  37.9572747  75.1447519  30.0503565  38.5173045  75.2949872  29.5228549
  34.3159266  64.4225187  22.4334023  34.4723885  64.3571990  23.2890015
  34.6559859  65.1973740  22.2212703  34.3892501  64.5274385  22.5288617
  40.8538411  63.7983071  21.3027386  41.3953956  63.2953452  21.7666007
  41.1684970  63.7448265  20.4916872  40.9802808  63.7162492  21.2511198
  44.7255518  68.0085718  38.4154299  45.5390383  67.7370867  38.5759431
  44.5650484  67.7093258  37.6114494  44.8225467  67.9240644  38.3199704
  39.0224860  69.1900422  18.5867414  39.0917681  68.3314961  18.7260415
  39.8013316  69.4072303  18.2586439  39.1477710  69.0953286  18.5584572
  43.4132348  71.6138123  22.8003908  43.0212140  71.3104839  22.0826774
  43.5685420  72.4507213  22.6108862  43.3785938  71.6921960  22.6660405
  30.8893528  61.6060138  22.7494790  31.2692492  62.0244682  22.0855058
  30.3148892  62.1873593  23.0563634  30.8604852  61.7537996  22.6971531
  43.5772023  68.1788112  22.7409938  43.2186677  68.3502755  23.5173971
  43.0910734  68.6401318  22.1837937  43.4530720  68.2727083  22.7735207
  38.3660388  63.8587278  15.2810173  38.6552913  64.6352160  15.5553747
  38.4532187  63.3476009  15.9824672  38.4214644  63.8979196  15.4252671
  44.7376762  69.0692008  33.6877139  45.3756483  68.5752204  33.3539595
  44.0950854  68.9969409  33.1029366  44.7370989  68.9851017  33.5519494
  44.7931019  69.7611817  30.3282496  45.5823397  69.4100881  30.4484578
  44.9674617  70.5748205  30.0659130  44.9351300  69.8297674  30.3070364
  32.0099896  60.7940079  25.2095035  31.6156594  60.8683091  24.4345145
  31.4540013  61.1798026  25.7603397  31.8702708  60.8621854  25.1762695
  37.4007091  58.4102461  21.1952584  37.6766825  57.6921374  20.7830152
  38.0005760  59.0087381  20.9873690  37.5300356  58.3922832  21.1033345
  36.4059345  68.3151662  31.3379980  36.2979700  68.3253724  32.2042038
  36.6155126  69.1406443  31.1484934  36.4209456  68.4392737  31.4384072
  44.1822653  71.0173616  26.2333942  43.9842342  71.5064431  25.5390153
  43.5610364  71.2214858  26.8118075  44.0610218  71.1190154  26.2157165
  38.2430632  62.7858513  20.5744186  38.9872677  63.1732789  20.8127136
  38.3891328  61.9415938  20.7384674  38.3741217  62.7188986  20.6338156
  46.0996455  64.5837768  31.7679190  46.8230654  64.1310295  31.5890210
  45.8346417  64.8642434  30.9851518  46.1677728  64.5588737  31.6257906
  35.1525072  57.5223060  14.5604755  34.8037877  58.1742786  15.0236304
  34.6721518  57.5080174  13.8328626  35.0295316  57.6166114  14.5215846
  31.6808999  67.2398402  29.9435834  31.1508924  66.5490841  29.9930809
  31.9534092  67.2308587  29.1148543  31.6433721  67.1365534  29.8283250
  42.7129090  67.8224104  18.6673517  43.4363288  68.2882217  18.5238090
  42.2729681  67.8897714  17.9171114  42.7544782  67.9007941  18.5358298
  41.8815245  64.6821647  29.9174206  41.2672238  64.1379697  30.2122841
  42.3982530  64.1685883  29.4380022  41.8670907  64.5258056  29.8898434
  41.1211542  65.7525917  27.6518504  40.6939150  65.1275635  27.2183940
  41.1136486  65.4700839  28.4777511  41.0570683  65.6178697  27.7098332
  26.9604841  63.9126166  27.3004182  26.8548290  63.8673011  26.4356266
  26.2105061  64.2579947  27.5818467  26.8340444  63.9567074  27.2141512
  37.9128187  64.9226230  35.3487077  37.0623817  65.0597944  35.4844722
  38.0756314  64.1890008  35.7934779  37.8112050  64.8340331  35.4342676
  35.5248981  60.1481591  20.0730799  35.6651942  60.6454055  20.7759441
  36.0231514  59.4467885  20.2145013  35.6190062  60.1183570  20.1982378
  35.5549203  61.0148702  17.4023376  36.1894283  61.6109127  17.3372838
  35.6374814  60.7152160  18.2169246  35.6605754  61.0589610  17.5126463
  37.1328186  56.9462677  17.3768818  37.4544027  56.4665760  16.7228080
  37.3955130  57.7562323  17.1859630  37.2194212  56.9952575  17.2524310
  40.3625159  67.9681552  30.8967634  39.8550250  68.5217399  31.3408265
  40.0651805  68.0289842  30.0786409  40.2430044  68.0587863  30.8416091
  32.0602191  63.2116543  20.6712922  32.5694421  63.8081050  21.0524228
  32.5336464  62.9442516  19.9889342  32.2045567  63.2602358  20.6267445
  42.9732939  71.8844809  18.8271578  42.2562249  71.7105672  18.3618815
  43.6239677  71.6497382  18.2947064  42.9634790  71.8240602  18.6800796
  39.6067644  72.9006110  27.8024641  39.3833299  72.1424939  28.1708667
  39.1177488  72.9304131  27.0805081  39.5011093  72.7928334  27.7501382
  34.4192723  59.8472801  23.5386102  33.7004712  60.2636934  23.8058966
  34.7905085  60.4127040  22.9877741  34.3684655  59.9922083  23.4968909
  41.6638634  67.0687842  35.3536575  41.6234488  66.4237519  34.7681731
  42.4761952  67.0124460  35.6661987  41.7781787  66.9646809  35.3133524
  38.2546101  73.1206568  25.2561726  37.8406500  72.4580698  24.8665567
  38.9393475  73.2684427  24.7357420  38.2944473  73.0447226  25.1218223
  41.6211395  72.2796653  26.0085342  41.2227679  72.3898924  25.2406162
  41.0062615  72.4878720  26.5911902  41.4710285  72.3270221  25.9816642
  40.1939297  58.8870801  18.8759482  39.6004137  59.2087798  18.3244049
  40.2314575  58.0411897  18.6680588  40.1113686  58.8095129  18.7642253
  49.3553238  66.8548620  19.3928433  49.7386844  67.6039976  19.6226530
  48.5597351  67.1014440  19.1340422  49.2947020  67.0018314  19.3886006
  29.0984122  62.0469220  29.8177184  28.5510841  61.3769865  29.9358052
  29.8876500  61.6799067  29.8820651  29.1336305  61.8934206  29.8445885
  38.1668530  59.5268052  16.9688812  38.5467494  59.5447681  16.1839927
  37.4261126  59.9722041  16.8479659  38.1137367  59.5949826  16.8352380
  27.8571091  61.2590027  26.9723207  27.6792852  60.8066636  27.6978123
  27.5690113  62.0616189  27.1561685  27.7884044  61.3112585  27.1066710
  43.5194672  62.5147745  26.2100597  44.0148337  61.7970740  26.1704618
  42.7094448  62.2118542  26.0955084  43.4738565  62.3645391  26.1874323
  38.9653284  66.3645558  18.3597602  38.1564606  66.0412232  18.3130911
  39.4728193  65.6578780  18.2925850  38.9202950  66.2126874  18.3427896
  29.5943561  63.7917751  24.0844966  28.7289080  63.7803442  23.9727737
  29.6942377  63.6047974  24.9316105  29.4817728  63.7623812  24.1933911
  35.2200571  73.5615650  27.6575072  35.5347130  74.3752038  27.6652853
  35.6293984  73.1765868  28.3257231  35.3268669  73.6244352  27.7579163
  42.1725090  68.9785696  25.2278884  42.6436269  69.6925959  25.3968869
  42.5085269  68.3784447  25.7638753  42.2920206  68.9957161  25.3311260
  44.2602075  70.5887010  37.4070956  44.3699041  69.7995570  37.7627703
  44.5892972  70.4992946  36.6045294  44.3254481  70.4592863  37.3413346
  42.8099037  68.7703631  31.9906576  42.2619983  68.1461514  31.7226642
  43.2712066  68.9597903  31.2750656  42.7966246  68.7062681  31.8457007
  38.1587700  55.7529580  19.6516443  38.9803395  55.9227893  19.4098138
  37.6957351  55.9076841  18.9282741  38.2118863  55.8011313  19.5088088
  32.5613591  67.5088758  27.3053680  33.1658448  67.4684592  26.6767501
  32.3540903  68.3559910  27.3357736  32.6202488  67.6276761  27.2169797
  42.3757363  69.7754703  28.5215917  43.1955737  69.6317669  28.7832213
  42.0951441  70.4000902  29.0632355  42.4554106  69.8465055  28.6403857
  27.7964873  66.4923376  27.1752603  27.6989151  65.6819647  27.4842660
  28.5793743  66.4715169  26.7898871  27.8981010  66.3690466  27.1639466
  58.8471013  77.4319555  21.4858794  58.8165018  78.2864192  21.6577063
  59.4452362  77.1314848  22.0444937  58.9308171  77.5136052  21.5933596
  52.0470698  76.5195206  26.2411724  51.1908594  76.6803704  26.2920841
  52.0938352  75.6487270  26.2616785  51.9269810  76.4146008  26.2517790
  55.3564415  82.7881732  35.8472180  56.0631182  82.2933762  35.9759115
  55.5452350  83.2290813  35.1174838  55.4892320  82.7800082  35.7581226
  54.8922519  78.5787250  28.8843376  55.4378479  79.2572337  28.9437346
  54.8339396  78.4374711  28.0244957  54.9638434  78.6579252  28.7655436
  43.5051726  74.2582333  26.7948370  42.8856758  73.6674980  26.6258384
  43.4035590  74.8493768  26.1612693  43.3989401  74.2586416  26.6753359
  50.6019622  75.9981875  21.1280833  51.2999786  76.1770003  21.6202296
  50.9171954  75.4752214  20.5051222  50.7514959  75.9475647  21.1082843
  43.2320859  77.8034615  29.0391939  43.1079556  78.3897060  29.6741757
  43.8839143  77.3094811  29.3404214  43.3094508  77.8173419  29.1777868
  48.2579200  80.9796332  28.3179450  48.9028202  80.4868775  27.9990398
  48.4980977  81.1221118  29.1445528  48.3889785  80.9273774  28.3928983
  50.7965291  83.8251238  27.9686342  51.0788534  83.0302644  27.7473098
  51.5251452  84.3031825  27.9891403  50.9454855  83.7785835  27.9389357
  48.7746485  71.3674272  25.2102107  48.4449815  71.8185415  24.5405806
  48.0991487  71.2890435  25.7575114  48.6256921  71.4225407  25.1925331
  55.9822893  67.3559795  23.4551718  55.6676334  68.0463273  23.8872140
  55.4649835  67.3004577  22.7537219  55.8587363  67.4494683  23.4148667
  46.9802439  69.4286560  20.6925055  47.7348407  69.7964877  20.4542105
  46.8029974  69.8026114  21.4604235  47.0656918  69.5384748  20.7709944
  60.2737338  75.5781001  28.7372594  59.4365759  75.6483188  28.9720189
  60.2425569  75.5805495  27.8646897  60.1455620  75.5891228  28.6432142
  46.6702067  77.7214036  34.4520963  46.8422571  77.6119931  35.3006244
  47.2071424  78.3668442  34.2152155  46.7747071  77.8006038  34.5426060
  45.3359504  71.8356879  17.3903168  45.1535077  72.0528760  16.5644161
  46.1985117  71.9495892  17.4461783  45.4364093  71.8846777  17.2757655
  51.0159223  68.8383290  20.4252192  51.7445383  68.6599245  19.9790348
  51.1054116  69.6801370  20.6359370  51.1365885  68.9367168  20.3905710
  54.9967524  79.7736677  24.3284486  55.7525039  80.2068192  24.3673395
  55.1029848  79.1241447  24.9019122  55.1237694  79.7414161  24.4182511
  40.9763784  80.3145967  29.2873883  40.7102199  79.4985084  29.4464873
  40.9902348  80.3599123  28.4169399  40.9388506  80.2002872  29.1827365
  57.9545178  70.6423782  27.3216317  58.5971086  70.7121887  27.9078232
  58.2068198  69.9753005  26.8195859  58.0867310  70.5550131  27.3343596
  44.8821531  75.1131052  15.9025641  44.1679708  74.8269231  16.3148074
  45.3665500  75.4527678  16.5432029  44.8480894  75.1212701  16.0581276
  45.7262390  73.8524346  31.9340891  45.0334187  73.3821325  32.1801622
  46.3422718  73.6262650  32.5082598  45.7146920  73.7491477  32.0550043
  41.3857198  81.1004747  26.5685627  41.2032771  81.0751633  25.7157919
  42.1206867  81.5703685  26.6074536  41.4671261  81.1666109  26.4483546
  44.4502949  77.8189750  33.0767736  45.1742922  77.8042780  33.5632631
  44.5519086  78.5285105  32.5789704  44.5721158  77.9214453  33.0746523
  51.8247899  81.2988834  37.9416683  51.0320879  81.6132346  38.1269303
  51.9396826  81.5140303  37.1037468  51.7243309  81.3772671  37.8455018
  54.4979218  78.0222825  22.2311699  54.5926072  78.7612119  22.6851324
  53.8738061  77.5940301  22.6646263  54.4188248  78.0684146  22.3619846
  52.7531691  81.2009038  32.8801980  53.3270553  80.5636282  33.0350544
  52.6746495  81.2013120  32.0111637  52.8264926  81.1074149  32.7748391
  41.3528108  77.9798247  26.7184694  41.9301611  77.8434698  27.3576939
  40.6542170  77.5234032  26.9730278  41.3349129  77.8920514  26.8506984
  48.1095410  79.6332303  24.9323177  47.8514654  78.8004038  24.9054477
  48.1643893  79.8589916  24.0915677  48.0795188  79.5430074  24.8043314
  53.1896460  71.7360754  25.0327270  52.4852787  71.2469939  25.1911189
  53.2381435  71.7483228  24.1615714  53.0926512  71.6650402  24.9266610
  47.0830122  77.1870066  25.4188072  46.5079714  77.3462234  26.0552033
  46.7065799  76.5505475  24.9556522  46.9432935  77.1167878  25.4442630
  50.7503411  75.6593415  30.2780450  50.3617844  75.2347633  29.6232641
  50.0858109  75.9075564  30.7857477  50.5950339  75.6332136  30.2568318
  60.3926680  75.4168419  23.0528280  60.1363245  74.6048361  22.8626163
  61.2355994  75.4245987  22.8258468  60.4792705  75.2980417  22.9913097
  36.8286941  76.8310140  23.4332512  36.9147193  76.4542009  24.2146042
  37.4562739  76.4570586  22.9552471  36.9343492  76.7195622  23.4777990
  54.5729772  69.3568044  27.7904434  54.9540284  68.6746215  28.1772309
  53.7693057  69.0677646  27.6080099  54.5106234  69.2135092  27.8208490
  47.7250257  83.3613537  23.6029569  48.3624204  83.1225284  24.1481363
  48.1505329  83.5650696  22.8682730  47.8826424  83.3564547  23.5746727
  48.3653072  78.5815827  17.9404459  48.7498225  78.3623533  18.6921004
  48.1164693  79.4078772  18.0705535  48.3855145  78.6713973  18.0705535
  48.5321613  71.8622242  37.6567043  48.2175054  72.6321805  37.3936606
  48.2111545  71.2992498  37.0719270  48.4380532  71.8932511  37.5308393
  50.1071729  83.8385959  25.2823356  50.1810738  83.6761131  26.1365206
  50.9241236  84.0276149  25.0383837  50.2388088  83.8422702  25.3721381
  46.0853510  70.2512763  23.2713239  45.2175935  70.3235363  23.3370848
  46.3728714  71.0534842  23.4601214  45.9993258  70.3806910  23.3088006
  55.2086399  70.3990623  31.6024561  55.9539991  70.2100433  31.1887986
  54.7923703  70.9248861  31.0438417  55.2571373  70.4492768  31.4589134
  62.5848669  77.7699851  26.5530066  63.1356591  77.1367920  26.7927158
  62.5692785  78.3015244  27.2445570  62.6633866  77.7548799  26.6908924
  49.2371060  81.6038448  31.0989959  48.7382754  82.3154216  31.1774848
  50.0471285  81.9239115  31.0608122  49.2827167  81.7565297  31.1046528
  45.4999178  80.8661401  25.3452680  45.2112426  80.2398873  25.8798408
  46.3682526  80.8081689  25.4117361  45.5859430  80.7648946  25.4343635
  56.2877076  76.0096185  25.6634662  55.9441842  75.2886520  26.0141912
  56.3870118  75.8010036  24.8213020  56.2519118  75.8720388  25.5906342
  45.7031451  82.5056653  21.2695045  46.4577419  82.8869692  21.4830508
  45.1102064  82.9567796  21.7241742  45.7268165  82.6285480  21.3677924
  48.1638118  74.4619493  36.3952258  47.3537894  74.7677273  36.2842100
  48.6412805  75.1825075  36.5104842  48.1141597  74.6134094  36.3959329
  44.0120862  73.7271023  20.7130115  43.7245658  73.3572293  19.9762063
  44.6991330  74.1965878  20.4513820  44.0709759  73.7417992  20.5645191
  48.4496003  80.7069233  22.0416652  48.2538786  81.3143967  21.4476955
  48.6730349  80.0137177  21.5608326  48.4530644  80.6946758  21.8832733
  46.8474533  77.5923971  22.1597520  47.5697185  77.7565129  21.7001326
  46.3682526  78.3133636  22.0536860  46.8838264  77.7222200  22.0763134
  54.8068041  73.9287770  27.5394205  53.9679142  73.9549049  27.3032468
  54.8772408  74.5758505  28.1199552  54.6936435  74.0283895  27.5903322
  44.4982150  79.9982043  31.2651660  45.0103247  80.2766297  30.6160420
  44.2118493  80.7371337  31.6314473  44.5317013  80.1484397  31.2241538
  53.2537319  70.8273147  22.2721821  53.9563672  70.6280895  21.7941779
  52.9881508  70.0549089  22.5790665  53.3183952  70.6836113  22.2467263
  58.6825565  79.1355756  24.8255447  58.5959539  79.2911182  25.6790226
  58.2276045  79.7793832  24.4514852  58.6028822  79.2531511  24.8962554
  41.5849056  74.5052235  21.5615397  41.6865193  75.3078396  21.8896372
  42.3804943  74.3039571  21.2638477  41.7176962  74.5938134  21.5650752
  48.0165876  72.0908432  31.3252702  47.8249073  72.1063566  32.1752125
  48.8664472  72.2872106  31.3019357  48.1141597  72.1222783  31.4475996
  42.4012789  74.6199413  29.3036518  42.2598280  73.7683354  29.4281026
  42.6853352  74.6628074  28.4798724  42.4220635  74.4999163  29.2004142
  52.5551381  76.4566503  23.4481006  52.3086095  76.3762254  24.2817795
  52.8836504  75.6719971  23.2543534  52.5672624  76.3292769  23.5428529
  54.7877515  79.4646238  33.4890169  54.7825553  78.5926055  33.4932596
  55.4938509  79.6634407  33.0159625  54.8922519  79.3650112  33.4197205
  48.5148408  79.1923222  32.8603989  48.6591784  79.7724430  32.2247099
  48.8624057  79.5699519  33.5653844  48.5875870  79.3343926  32.8702984
  50.6868326  78.3913390  30.6429121  49.9391640  78.5844405  30.2377399
  50.8409851  77.5658610  30.4053242  50.5990753  78.2978502  30.5474527
  50.9270103  72.2863941  31.5324525  51.3842717  73.0187915  31.6597317
  51.0026431  71.8630406  32.2911781  51.0061072  72.3321179  31.6625601
  43.1703094  72.5329761  32.6213968  42.6345283  71.9210119  32.9374736
  43.2320859  73.1077897  33.2747635  43.0998726  72.5276689  32.7649395
  55.3997429  65.4653816  25.4018368  55.5180997  65.9230280  24.6685670
  55.2259604  64.6599078  25.1154585  55.3916600  65.4147588  25.2519301
  48.8052480  74.2766045  28.3766349  48.0148555  74.0957505  28.6983685
  49.2013103  73.4992998  28.3596643  48.7469357  74.1353506  28.4218897
  54.1896167  81.9108475  26.1025795  53.5141169  81.6793707  26.6039182
  54.1988543  81.3029658  25.4767900  54.0914671  81.7867400  26.0841947
  51.3190311  76.7526304  32.8589848  51.2549452  77.6136261  32.7309984
  51.4587499  76.4358297  32.0585399  51.3305781  76.8326471  32.7218061
  50.0009405  79.4458444  27.0006051  49.5771654  79.6462943  26.2645069
  49.8254260  78.5987292  27.1130350  49.9120285  79.3507225  26.9079741
  45.2891850  79.9410495  22.4334023  45.4456469  79.8757298  23.2890015
  45.6292443  80.7159048  22.2212703  45.3625085  80.0459693  22.5288617
  51.8270994  79.3168379  21.3027386  52.3686540  78.8138760  21.7666007
  52.1417553  79.2633573  20.4916872  51.9535391  79.2347800  21.2511198
  52.9760264  74.2104683  31.3549687  53.1902233  73.5715597  30.8013041
  52.3594163  74.6550507  30.9257549  52.9165593  74.1814827  31.2100118
  41.8626111  77.1245445  22.7494790  42.2425076  77.5429990  22.0855058
  41.2881476  77.7058901  23.0563634  41.8337436  77.2723304  22.6971531
  55.1399352  75.8193748  32.2932994  54.3276033  75.5119639  32.3746167
  55.5989286  75.3392748  32.8575706  55.0879736  75.7030241  32.3887588
  52.2352859  77.2253820  37.0761696  52.7052490  77.8495936  37.4629570
  52.2814739  76.5570795  37.6354911  52.3120735  77.2188500  37.2161768
  49.3924133  69.3310847  27.8010500  48.8762621  68.6391039  27.9262079
  48.8318062  69.9981624  27.7473099  49.2330646  69.3274105  27.8116566
  51.4616366  69.8703807  29.6303353  51.0748119  69.8952839  30.4116883
  50.9749304  69.3045486  29.1777869  51.3328875  69.7899558  29.6791256
  57.4366346  76.4366462  28.2543055  57.0093954  76.3492811  27.4991154
  56.7992399  76.5444238  28.8397899  57.2795953  76.4399122  28.2288496
  50.9287423  71.5441987  34.1940024  51.7560852  71.2727136  34.2498639
  50.9495269  72.3402829  34.5503842  51.0540273  71.6221742  34.2555207
  45.5056913  78.6905850  27.3810285  44.6644919  78.5909724  27.5889179
  45.7146921  79.4601330  27.7324605  45.4121605  78.7897894  27.4637600
  42.9832480  76.3125387  25.2095035  42.5889177  76.3868399  24.4345145
  42.4272597  76.6983334  25.7603397  42.8435292  76.3807162  25.1762695
  54.6197426  69.2906681  24.8898914  54.8247020  69.2228989  25.7355911
  54.2923850  70.0965502  24.8220092  54.6012674  69.3992622  25.0058569
  49.3173578  76.6187249  26.6307882  49.0136715  76.0643238  27.2318290
  48.6152998  76.7979459  26.1435916  49.1689787  76.5632032  26.6477588
  48.3739675  73.9287769  21.1952584  48.6499409  73.2106682  20.7830152
  48.9738344  74.5272689  20.9873690  48.5032939  73.9108140  21.1033345
  57.8731114  69.8438445  24.3701680  57.2605428  70.3308848  24.7555412
  57.9695289  69.1681936  24.9139331  57.7969012  69.8156754  24.5080538
  51.8750195  71.6001287  19.4699179  52.3293942  71.7711847  20.1947024
  52.3490241  70.9869397  19.0696955  52.0118515  71.5352172  19.5172941
  45.3965721  81.0849613  28.8001918  44.8053654  81.7259111  28.7704933
  46.1586744  81.5087230  28.7733217  45.4213981  81.2425451  28.7917065
  45.7926343  72.2451610  29.4669935  46.2527825  72.3190540  30.2045059
  45.8382450  73.0432864  29.1169757  45.8676899  72.3745757  29.5242692
  47.4409693  72.9118305  34.0341962  47.0495258  72.2651652  34.4697740
  47.6095556  73.5029740  34.6536218  47.4080603  72.9032573  34.1904668
  49.2163215  78.3043821  20.5744186  49.9605260  78.6918097  20.8127136
  49.3623911  77.4601246  20.7384674  49.3473800  78.2374294  20.6338156
  51.1342791  70.0994080  25.6076048  50.2878836  70.2716888  25.4817398
  51.1313923  69.2943424  25.9441876  51.0089941  70.0055109  25.6387175
  52.2041091  73.8769294  26.4738106  51.7301045  73.3511056  26.9843417
  52.5759227  73.3298767  25.9052967  52.1890980  73.7185291  26.4653253
  42.5814121  75.8740801  31.8421651  43.4439734  75.7736510  31.7558981
  42.2505904  75.2935510  31.2807224  42.6599318  75.7732428  31.7467057
  58.4677822  78.9371670  27.8844886  58.2276044  78.0978085  27.8887313
  58.9469829  79.0171837  28.6085660  58.5030005  78.8253070  27.9919689
  54.1324591  74.7705849  19.5363860  53.6047609  74.8534593  18.8469568
  54.5920299  75.5123720  19.5328504  54.1226441  74.8926511  19.4338555
  60.4683009  75.7173127  25.8374145  60.2292779  75.6768961  24.9994930
  60.6316910  76.5644279  25.9639866  60.4573312  75.8365212  25.7327627
  57.0729039  80.1023076  31.7679190  57.7963238  79.6495603  31.5890210
  56.8079001  80.3827742  30.9851518  57.1410312  80.0774045  31.6257906
  45.9415907  74.6983250  28.5032070  45.3168977  74.7101642  27.8958022
  45.6061502  75.1743425  29.1523310  45.8001399  74.7701767  28.5088638
  46.1257656  73.0408368  14.5604755  45.7770460  73.6928094  15.0236304
  45.6454102  73.0265481  13.8328626  46.0027900  73.1351422  14.5215846
  52.8547828  80.2006955  29.9174206  52.2404821  79.6565005  30.2122841
  53.3715113  79.6871191  29.4380022  52.8403491  80.0443364  29.8898434
  52.0944125  81.2711225  27.6518504  51.6671733  80.6460943  27.2183940
  52.0869070  80.9886147  28.4777511  52.0303267  81.1364005  27.7098332
  45.2106653  76.3076398  30.7206938  45.3700139  75.5519722  31.1258660
  45.0299546  76.8567337  31.3747676  45.2072011  76.2770212  30.8769644
  53.1526955  68.4737633  31.2757728  52.6567517  68.6701308  30.5849294
  53.9096018  68.8730302  31.1046529  53.1913780  68.5615367  31.1477864
  50.4229835  72.1479979  27.8661038  50.4472322  71.6140092  27.1773818
  50.6741309  71.6397288  28.5286629  50.4639754  71.9940883  27.8625683
  37.9337425  79.4311474  27.3004182  37.8280874  79.3858319  26.4356266
  37.1837645  79.7765255  27.5818467  37.8073028  79.4752382  27.2141512
  46.7031157  70.8750797  27.2466782  46.7429529  71.3760004  27.9601490
  45.8780822  70.9661191  26.9772706  46.5870683  70.9632614  27.3117321
  48.8860770  80.4411537  35.3487077  48.0356401  80.5783252  35.4844722
  49.0488898  79.7075316  35.7934779  48.7844634  80.3525639  35.4342676
  48.1245521  77.3911307  29.5440682  47.2937450  77.5585125  29.3375930
  48.0697038  77.0147258  30.3289567  47.9934936  77.3601039  29.6289210
  45.9329304  70.8820200  35.1797092  46.5582007  70.3382333  35.4526524
  45.4779784  70.4015118  34.6104883  45.9577565  70.7309682  35.1358686
  46.4981565  75.6666899  20.0730799  46.6384526  76.1639363  20.7759441
  46.9964097  74.9653193  20.2145013  46.5922645  75.6368878  20.1982378
  46.5281787  76.5334010  17.4023376  47.1626866  77.1294435  17.3372838
  46.6107398  76.2337467  18.2169246  46.6338338  76.5774918  17.5126463
  59.5064353  79.0649487  30.2709740  60.0982193  79.7046738  30.3027938
  59.9423347  78.3672524  30.5601807  59.6582784  79.0567838  30.3190573
  48.1060770  72.4647985  17.3768818  48.4276611  71.9851068  16.7228080
  48.3687714  73.2747631  17.1859630  48.1926795  72.5137883  17.2524310
  51.3357743  83.4866860  30.8967634  50.8282834  84.0402706  31.3408265
  51.0384389  83.5475149  30.0786409  51.2162628  83.5773171  30.8416091
  53.5019925  71.8520179  29.7392297  53.9274996  71.3992706  29.1275824
  52.8876918  71.2980250  30.0157085  53.4748570  71.7034155  29.6897322
  43.0334775  78.7301851  20.6712922  43.5427004  79.3266358  21.0524228
  43.5069047  78.4627824  19.9889342  43.1778150  78.7787666  20.6267445
  51.9414148  68.3235279  23.1482874  51.2982466  68.1732925  23.7168013
  51.6013555  68.0777624  22.3831979  51.7959225  68.2647401  23.1185889
  56.5313494  76.2794706  22.5712883  55.8604684  76.8224408  22.4425948
  57.2253244  76.7489561  22.3294578  56.5342362  76.4292977  22.5168410
  56.6941622  72.7350589  25.4803256  57.0469232  72.3080312  26.1549055
  55.8356423  72.6501433  25.6104332  56.6191066  72.6595330  25.5998266
  45.3925307  75.3658109  23.5386102  44.6737296  75.7822242  23.8058966
  45.7637669  75.9312348  22.9877741  45.3417238  75.5107391  23.4968909
  54.6924887  75.9985958  29.4288098  54.6722815  75.8169253  30.2822877
  54.7404088  76.8697977  29.4047682  54.6959528  76.1002496  29.5511393
  52.6371217  82.5873150  35.3536575  52.5967072  81.9422827  34.7681731
  53.4494535  82.5309767  35.6661987  52.7514371  82.4832117  35.3133524
  51.1671881  74.4056109  18.8759482  50.5736720  74.7273106  18.3244049
  51.2047159  73.5597204  18.6680588  51.0846270  74.3280437  18.7642253
  58.1265682  67.8569001  26.4087568  57.6196546  67.1498141  26.3408746
  58.9233115  67.5262190  26.5388645  58.1692921  67.7042153  26.4186563
  54.0429697  74.3635614  22.3061232  53.8143391  74.3868315  21.4639590
  54.3027774  73.5393081  22.4256243  54.0475886  74.2451694  22.1986430
  48.3248926  76.2170087  31.9086332  47.8127829  75.6091270  32.2671364
  48.1528422  76.9326679  32.3760308  48.2238563  76.2333386  32.0302556
  43.1714641  74.6607662  34.5588694  43.0017231  75.3209037  34.0136901
  42.7280591  74.8714223  35.2801183  43.0813974  74.7893644  34.5850324
  47.0974460  72.9012160  23.6015428  47.5731826  73.2629240  22.9665609
  46.5963060  73.5568627  23.8815571  47.0939819  73.0506349  23.5492169
  52.2017996  74.1394331  34.3488588  52.7589426  73.9108141  33.7167053
  51.8779061  74.8999997  34.0723800  52.2364406  74.2178168  34.2145085
  40.0716705  77.5654527  29.8177184  39.5243425  76.8955173  29.9358052
  40.8609083  77.1984375  29.8820651  40.1068889  77.4119514  29.8445885
  49.9201114  77.2261985  35.3140595  50.6712441  77.5413661  35.6280149
  50.1123690  77.0241155  34.4874517  50.0592528  77.2429366  35.2383991
  49.1401113  75.0453360  16.9688812  49.5200078  75.0632989  16.1839927
  48.3993709  75.4907348  16.8479659  49.0869951  75.1135134  16.8352380
  56.7686404  73.3535551  22.5564390  56.7680630  73.1984207  23.4148667
  56.5642584  74.1998538  22.5005776  56.7386182  73.4556172  22.6752330
  38.8303675  76.7775335  26.9723207  38.6525436  76.3251944  27.6978123
  38.5422697  77.5801497  27.1561685  38.7616628  76.8297893  27.1066710
  54.4927256  78.0333053  26.2100597  54.9880921  77.3156048  26.1704618
  53.6827031  77.7303850  26.0955084  54.4471149  77.8830699  26.1874323
  40.5676144  79.3103059  24.0844966  39.7021664  79.2988749  23.9727737
  40.6674960  79.1233282  24.9316105  40.4550311  79.2809120  24.1933911
  56.5579075  80.7836740  28.8977726  56.9834146  80.2611162  28.3448151
  56.1935994  81.3817578  28.3766349  56.5665677  80.7946967  28.7386736
  53.1457674  84.4971004  25.2278884  53.6168852  85.2111267  25.3968869
  53.4817853  83.8969755  25.7638753  53.2652789  84.5142469  25.3311260
  50.0627169  69.2698475  32.1836978  50.1955075  68.4729468  32.5117954
  50.4472322  69.7964878  32.7635254  50.1383498  69.2298392  32.3180481
  53.7831620  84.2888939  31.9906576  53.2352566  83.6646822  31.7226642
  54.2444649  84.4783211  31.2750656  53.7698830  84.2247989  31.8457007
  56.5925485  72.3574293  29.3757769  56.0088474  72.8583500  28.9635336
  56.9129779  71.8503849  28.7422092  56.5538660  72.3566128  29.2216276
  49.1320284  71.2714888  19.6516443  49.9535978  71.4413201  19.4098138
  48.6689935  71.4262149  18.9282741  49.1851446  71.3196621  19.5088088
  47.7215616  69.2657650  30.4314872  48.2660029  68.9248777  31.0219214
  47.7752551  70.1243112  30.5736157  47.8104735  69.3412909  30.5396746
  22.1317488  13.1703939  22.7812227  22.8384255  12.6755970  22.9099162
  22.3205423  13.6113021  22.0514885  22.2645394  13.1622289  22.6921273
  19.2709782  16.5931476  20.6726302  19.3593128  16.4057616  21.5204513
  19.6999495  15.9468905  20.2731149  19.3471885  16.4694483  20.7398054
  16.8380242  15.8762636  19.6543965  16.2751077  15.4635245  20.1783626
  17.6001266  15.8015541  20.0737108  16.8674691  15.8040036  19.7936965
  13.4455140   8.1036244  21.3861010  13.6175644   7.9942138  22.2346291
  13.9824498   8.7490649  21.1492202  13.5500144   8.1828245  21.4766107
  19.3829842  16.0240495  23.3370086  20.1670258  16.1371342  23.7025828
  19.1826436  15.1981632  23.5328772  19.4695867  15.9187214  23.4204472
  19.5400235  17.9350597  16.9836542  18.7415481  17.6950097  17.2410410
  19.9886247  17.9864990  17.7303589  19.4874846  17.9072988  17.1321466
  18.6000972  11.6811042  24.8756730  17.8073953  11.9954553  25.0609349
  18.7149899  11.8962510  24.0377514  18.4996382  11.7594878  24.7795065
  19.5284765  11.5831245  19.8142026  20.1023626  10.9458490  19.9690590
  19.4499568  11.5835328  18.9451684  19.6018000  11.4896357  19.7088437
  24.8504913  12.9540223  19.8226880  24.6143550  12.1228288  19.7038940
  25.4948141  12.9025830  20.4081724  24.9099583  12.8237911  19.8912773
  25.8741333  12.7384672  15.8855174  25.5687150  13.4712729  16.2468490
  25.1547549  12.3322601  15.6047960  25.7228675  12.7866405  15.8968311
  31.5743125   9.3777672  15.2123518  31.5067626   9.3973632  14.3426105
  31.5598788  10.2208000  15.4379189  31.5621882   9.5051407  15.1175995
  16.0124133  11.9860656  18.0330006  15.5135827  12.6976424  18.1114895
  16.8224358  12.3061322  17.9948169  16.0580240  12.1387504  18.0386575
  14.9391191   4.8441700  23.3292305  14.1290967   5.1499480  23.2182147
  15.4165878   5.5647283  23.4444889  14.8894670   4.9956301  23.3299376
  21.5630588   9.8468446  20.4230216  21.5578627   8.9748262  20.4272643
  22.2691582  10.0456615  19.9499672  21.6675592   9.7472320  20.3537252
  15.2901481   9.5745429  19.7944036  15.4344857  10.1546638  19.1587146
  15.6377130   9.9521726  20.4993891  15.3628943   9.7166134  19.8043031
  14.3629236  17.7648201  16.6605063  14.5118800  17.2051117  16.0078468
  15.1429239  17.8440203  17.0437582  14.5003330  17.6933767  16.6202012
  16.8882537  17.9362844  17.9389554  16.8126208  17.2671655  18.4940342
  16.8172396  18.6380632  18.4530220  16.8663144  17.9407752  18.0966402
  16.2774171  21.3431164  16.3967555  16.7670102  20.6441953  16.2143219
  15.7058404  21.0455034  16.9843612  16.2658701  21.1957388  16.4568596
  22.4741175  13.9093233  25.3494345  23.2876040  13.6378382  25.5099478
  22.3136141  13.6100773  24.5454541  22.5711123  13.8248159  25.2539751
  21.9152425   6.2015956  19.2273041  21.1029107   5.8941846  19.3086213
  22.3742359   5.7214956  19.7915753  21.8632810   6.0852448  19.3227635
  19.0105932   7.6076027  24.0101743  19.4805564   8.2318143  24.3969617
  19.0567813   6.9393003  24.5694958  19.0873808   7.6010707  24.1501814
  22.4862419  14.9699524  20.6217186  23.1242139  14.4759719  20.2879642
  21.8436510  14.8976924  20.0369413  22.4856645  14.8858532  20.4859541
  22.5416675  15.6619332  17.2622543  23.3309054  15.3108397  17.3824624
  22.7160273  16.4755720  16.9999177  22.6836957  15.7305189  17.2410411
  14.1545002  14.2159177  18.2720027  14.0465357  14.2261240  19.1382085
  14.3640783  15.0413958  18.0824981  14.1695113  14.3400252  18.3724118
  28.2909215  11.2977590  16.7319243  28.3492339  11.7464238  17.4779219
  27.6575683  11.7076402  16.2949323  28.2060510  11.4251324  16.7771791
  21.9308310  16.9181131  13.1673989  21.7327999  17.4071946  12.4730200
  21.3096021  17.1222373  13.7458122  21.8095874  17.0197670  13.1497212
  23.8482112  10.4845284  18.7019237  24.5716311  10.0317810  18.5230257
  23.5832074  10.7649949  17.9191565  23.9163385  10.4596252  18.5597953
  15.6613843  10.8233745  22.2827124  14.8109474  10.9605459  22.4184769
  15.8241971  10.0897523  22.7274826  15.5597707  10.7347846  22.3682723
  26.2817426   9.4471695  17.2049787  26.8735266  10.0868945  17.2367985
  26.7176420   8.7494731  17.4941854  26.4335857   9.4390045  17.2530620
  18.1110816  13.8689067  17.8307681  17.6035907  14.4224914  18.2748311
  17.8137462  13.9297357  17.0126455  17.9915701  13.9595378  17.7756138
  17.3553301  18.8013625  14.7364688  17.1318955  18.0432455  15.1048714
  16.8663144  18.8311646  14.0145128  17.2496750  18.6935850  14.6841429
  19.4124290  12.9695357  22.2876622  19.3720145  12.3245034  21.7021777
  20.2247609  12.9131975  22.6002034  19.5267444  12.8654324  22.2473571
  18.9771069   4.5216539  21.2828635  19.5342500   4.2930348  20.6507100
  18.6532134   5.2822204  21.0063847  19.0117480   4.6000375  21.1485132
  16.6954187   7.6084192  22.2480642  17.4465514   7.9235869  22.5620196
  16.8876763   7.4063363  21.4214564  16.8345601   7.6251574  22.1724038
  23.3332148  11.1658948  15.8317773  23.7587219  10.6433369  15.2788198
  22.9689068  11.7639785  15.3106396  23.3418750  11.1769175  15.6726783
  12.9686228  19.4623165  14.5915118  13.2832787  20.2759553  14.5992900
  13.3779641  19.0773384  15.2597278  13.0754326  19.5251867  14.6919210
  22.0087732  16.4894525  24.3411002  22.1184697  15.7003086  24.6967750
  22.3378628  16.4000461  23.5385341  22.0740138  16.3600378  24.2753393
  20.5584694  14.6711146  18.9246623  20.0105640  14.0469030  18.6566688
  21.0197722  14.8605418  18.2090702  20.5451903  14.6070196  18.7797054
  20.1243020  15.6762219  15.4555964  20.9441394  15.5325185  15.7172259
  19.8437098  16.3008418  15.9972402  20.2039763  15.7472571  15.5743904
  36.5956670  23.3327070   8.4198841  36.5650675  24.1871707   8.5917110
  37.1938019  23.0322363   8.9784984  36.6793828  23.4143567   8.5273643
  29.7956355  22.4202721  13.1751771  28.9394251  22.5811220  13.2260888
  29.8424009  21.5494785  13.1956832  29.6755467  22.3153523  13.1857837
  24.1797495  31.9565439   8.9389003  23.4280394  31.5780978   8.7105048
  24.6283506  31.9883873   8.1907813  24.1347162  31.9051046   8.7946505
  29.6322455  32.3790809   4.3674550  29.2973823  33.0567730   3.9318772
  30.1449325  31.9896120   3.7791421  29.6588036  32.4215387   4.2161341
  29.1726746  34.3305077  10.3085661  29.5566125  34.8991976   9.7690437
  29.1085887  33.6054588   9.8291477  29.2200173  34.3080541  10.1579524
  32.6408176  24.4794765  15.8183423  33.1864136  25.1579852  15.8777392
  32.5825052  24.3382226  14.9585004  32.7124090  24.5586767  15.6995483
  25.7582251  31.9683831  11.2051775  25.8592614  31.1584185  11.5148903
  25.1623996  31.8740778  10.5751454  25.6854790  31.8348859  11.1578014
  34.4173245  25.9079372   6.6917150  34.3012771  26.6587058   7.1209289
  35.2129131  25.6503326   6.9413237  34.5177834  25.9814219   6.7921242
  25.5982991  36.8861421  12.6066631  26.2420446  37.3274585  12.9962790
  25.9239246  36.0814847  12.5196890  25.7414819  36.8326615  12.6512108
  18.9547295  27.9904118  10.8304109  18.7197480  27.1571770  10.7236378
  19.0932936  28.2708784  10.0165310  18.9402958  27.9087621  10.6946464
  21.2537383  20.1589849  13.7288416  20.6342414  19.5682496  13.5598431
  21.1521246  20.7501284  13.0952740  21.1475058  20.1593931  13.6093406
  26.3003570  29.8973395   7.9786493  26.6219411  30.4378603   7.3747801
  26.9475667  29.3270167   8.1108783  26.4429625  29.8932571   7.9093528
  28.3505278  21.8989390   8.0620880  29.0485443  22.0777518   8.5542343
  28.6657611  21.3759730   7.4391269  28.5000616  21.8483162   8.0422890
  20.9806516  23.7042130  15.9731985  20.8565213  24.2904576  16.6081804
  21.6324800  23.2102326  16.2744260  21.0580165  23.7180935  16.1117915
  28.5393214  28.2859835   8.0500671  28.9786849  27.6776936   8.4955444
  28.3897877  27.9067209   7.2786136  28.5814679  28.1398307   8.0019838
  26.0064857  26.8803847  15.2519497  26.6513859  26.3876290  14.9330445
  26.2466634  27.0228634  16.0785575  26.1375442  26.8281289  15.3269030
  28.5450948  29.7258753  14.9026389  28.8274191  28.9310159  14.6813145
  29.2737109  30.2039341  14.9231450  28.6940512  29.6793350  14.8729404
  26.5232142  17.2681787  12.1442154  26.1935472  17.7192931  11.4745853
  25.8477144  17.1897950  12.6915161  26.3742578  17.3232922  12.1265377
  32.1402550  26.6387017   5.0031440  32.0553845  27.4947983   5.1481009
  32.6286934  26.3631341   5.6713599  32.1991448  26.7244338   5.1233522
  33.7308550  13.2567310  10.3891765  33.4161991  13.9470789  10.8212187
  33.2135491  13.2012092   9.6877266  33.6073020  13.3502198  10.3488714
  33.0720984  23.2571811   6.5029175  32.5432455  23.4731444   7.1626482
  33.5946003  23.9507949   6.4230145  33.0709436  23.3914948   6.5884775
  38.5269036  28.8318115  11.8762220  37.6966740  29.0428759  12.0395636
  38.4778289  28.0055170  11.6004503  38.3975772  28.7407722  11.8599585
  20.5164620  32.8689789  12.1060315  20.0332198  33.5940278  12.0819898
  21.3287938  33.1665919  12.2170473  20.5655368  33.0192142  12.1187594
  26.5878774  31.6621969  14.7110129  26.0705716  31.3029384  14.1071437
  27.2853165  31.1384144  14.7216195  26.6144355  31.5319657  14.6240388
  27.8112826  31.3947943  19.6543965  27.2483661  30.9820553  20.1783626
  28.5733849  31.3200849  20.0737108  27.8407274  31.3225344  19.7936965
  23.3708817  33.3845965  12.2580595  24.0729397  32.8697954  12.3153351
  23.2906300  33.7120116  13.0627470  23.4632578  33.3560191  12.3853387
  38.0222995  21.4788516  15.6712641  37.1851416  21.5490703  15.9060236
  37.9911226  21.4813011  14.7986944  37.8941277  21.4898743  15.5772189
  24.4187724  23.6221552  21.3861010  24.5908227  23.5127446  22.2346291
  24.9557081  24.2675957  21.1492202  24.5232728  23.7013553  21.4766107
  22.6959593  29.5752317  11.7666203  23.5348492  29.8075249  11.8139964
  22.7271362  28.7056628  11.6973238  22.8241310  29.4809263  11.7630847
  23.3212296  29.9953192  16.0679508  23.8610521  29.8524323  16.7382881
  22.6382242  30.3949943  16.4363535  23.3004450  30.0332863  16.2213930
  32.7453181  25.6744192  11.2624533  33.5010696  26.1075707  11.3013441
  32.8515505  25.0248962  11.8359169  32.8723351  25.6421676  11.3522558
  35.7833352  29.5017470  12.0126936  35.3468584  29.5054212  12.7685907
  35.4496267  30.1822969  11.5806513  35.6695972  29.6029926  12.0607768
  18.7249441  26.2153483  16.2213930  18.4587856  25.3992599  16.3804920
  18.7388005  26.2606638  15.3509445  18.6874163  26.1010387  16.1167412
  35.7030835  16.5431298  14.2556364  36.3456743  16.6129402  14.8418279
  35.9553855  15.8760520  13.7535906  35.8352967  16.4557646  14.2683643
  23.4748047  19.7531861  18.8680938  22.7819844  19.2828841  19.1141669
  24.0908374  19.5270165  19.4422645  23.4632577  19.6498993  18.9890090
  30.5132819  33.4535905  16.9836542  29.7148064  33.2135405  17.2410410
  30.9618830  33.5050297  17.7303589  30.4607430  33.4258296  17.1321466
  38.9177698  26.2198390  10.9046573  39.5794132  25.6589058  10.8042481
  38.2769110  25.7250420  11.2299264  38.9206565  26.0634799  10.9378913
  29.8054506  29.5168521   3.2127496  30.2205654  29.1853545   2.5211992
  28.9746435  29.2837423   3.0847633  29.7442514  29.4339777   3.0918344
  19.1342854  27.0012262  13.5025674  18.9518428  26.9759148  12.6497966
  19.8692523  27.4711200  13.5414583  19.2156918  27.0673624  13.3823593
  35.2042529  27.2363772  10.6458562  35.4398118  27.3808971   9.8185412
  35.3532092  28.0006180  11.0390075  35.2608332  27.3702826  10.5822166
  22.1988606  23.7197265  20.0107783  22.9228578  23.7050296  20.4972677
  22.3004743  24.4292620  19.5129751  22.3206815  23.8221968  20.0086570
  37.0332985  26.0765438   8.4828165  37.3641202  26.6093078   7.8768260
  37.6066073  26.1304326   9.1390116  37.1666664  26.1635007   8.4905947
  32.2464874  23.9230341   9.1651746  32.3411729  24.6619635   9.6191371
  31.6223718  23.4947816   9.5986310  32.1673905  23.9691661   9.2959893
  30.5017348  27.1016553  19.8142026  31.0756210  26.4643797  19.9690590
  30.4232152  27.1020636  18.9451684  30.5750583  27.0081665  19.7088437
  19.1013765  23.8805763  13.6524741  19.6787267  23.7442213  14.2916986
  18.4027826  23.4241547  13.9070325  19.0834786  23.7928029  13.7847030
  25.8581067  25.5339818  11.8663224  25.6000311  24.7011553  11.8394523
  25.9129550  25.7597431  11.0255724  25.8280845  25.4437590  11.7383361
  30.9382117  17.6368269  11.9667317  30.2338444  17.1477455  12.1251236
  30.9867091  17.6490744  11.0955761  30.8412169  17.5657917  11.8606656
  24.8315779  23.0877581  12.3528119  24.2565370  23.2469749  12.9892080
  24.4551455  22.4512990  11.8896569  24.6918591  23.0175394  12.3782677
  28.4989068  21.5600930  17.2120497  28.1103500  21.1355148  16.5572688
  27.8343766  21.8083080  17.7197524  28.3435995  21.5339651  17.1908365
  38.1412337  21.3175935   9.9868327  37.8848902  20.5055876   9.7966210
  38.9841651  21.3253502   9.7598514  38.2278362  21.1987932   9.9253144
  32.3215429  15.2575559  14.7244481  32.7025941  14.5753730  15.1112355
  31.5178714  14.9685161  14.5420146  32.2591891  15.1142607  14.7548537
  29.6028006  25.7899535   5.4097304  30.4168645  26.0814428   5.2980075
  29.5387147  25.1359397   4.8355597  29.7130745  25.7364729   5.3086141
  25.4735914  29.2621052  10.5369616  26.1109861  29.0232800  11.0821409
  25.8990986  29.4658211   9.8022777  25.6312080  29.2572062  10.5086773
  20.1648557  31.5009389  14.4203920  20.2052702  31.7724240  13.5923699
  20.7243081  32.0251297  14.8361708  20.2531903  31.6185144  14.3595808
  26.2807270  17.7629757  24.5907090  25.9660711  18.5329320  24.3276652
  25.9597202  17.2000013  24.0059317  26.1866189  17.7940026  24.4648440
  36.8473917  28.2569980  15.8855174  36.5419734  28.9898036  16.2468490
  36.1280132  27.8507909  15.6047960  36.6961259  28.3051713  15.8968311
  27.8557386  29.7393475  12.2163402  27.9296394  29.5768647  13.0705252
  28.6726892  29.9283664  11.9723884  27.9873745  29.7430217  12.3061428
  42.5475709  24.8962980  15.2123518  42.4800209  24.9158939  14.3426105
  42.5331371  25.7393308  15.4379189  42.5354465  25.0236715  15.1175995
  21.6163143  30.0851338   9.2457846  20.7901261  30.3313075   9.1192125
  21.6775134  30.0063418  10.1119904  21.5037310  30.1096287   9.3546790
  32.9572055  16.2998138  18.5364608  33.7025647  16.1107948  18.1228033
  32.5409360  16.8256376  17.9778464  33.0057030  16.3500283  18.3929181
  26.3961972  32.7028218   6.9476876  26.6860270  32.3117199   6.2236102
  27.1265453  32.8844923   7.3882151  26.5468856  32.6722032   6.9059683
  40.3334326  23.6707367  13.4870113  40.8842248  23.0375436  13.7267205
  40.3178442  24.2022759  14.1785617  40.4119523  23.6556315  13.6248971
  26.9856717  27.5045964  18.0330006  26.4868411  28.2161731  18.1114895
  27.7956941  27.8246630  17.9948169  27.0312824  27.6572812  18.0386575
  24.3367887  34.6795600  10.0137025  24.1168183  34.3892955  10.8063692
  24.1162409  34.0210555   9.4854938  24.2715482  34.5395309  10.0525934
  23.2484835  26.7668917  12.2792727  22.9598083  26.1406388  12.8138454
  24.1168183  26.7089204  12.3457408  23.3345087  26.6656461  12.3683682
  34.0362732  21.9103700  12.5974709  33.6927498  21.1894035  12.9481959
  34.1355775  21.7017551  11.7553067  34.0004775  21.7727903  12.5246389
  26.5035843  36.0524990   8.7967718  27.1559901  35.5201433   9.0258744
  25.8061452  35.6993643   9.1835592  26.4966561  35.9214513   8.8879886
  23.4517108  28.4064168   8.2035092  24.2063076  28.7877207   8.4170555
  22.8587721  28.8575311   8.6581789  23.4753822  28.5292995   8.3017971
  34.4975762  28.3729404   8.1398697  35.0633794  29.0322614   8.0557240
  33.8503665  28.7179102   8.6115099  34.4854518  28.5211346   8.1971454
  25.9123775  20.3627008  23.3292305  25.1023551  20.6684788  23.2182147
  26.3898462  21.0832591  23.4444889  25.8627254  20.5141609  23.3299376
  24.7715335  29.5772729  13.5775208  24.2496088  29.7173021  14.2627072
  25.1589355  28.8183393  13.7677325  24.7519036  29.4858253  13.7076284
  30.9682340  31.3168188   7.5635776  30.7269016  30.5836049   7.1562841
  31.1483673  31.8655045   6.9102110  30.9589964  31.2890580   7.4065999
  26.1981660  26.6076748   8.9756699  26.0024443  27.2151483   8.3817002
  26.4216006  25.9144692   8.4948373  26.2016301  26.5954274   8.8172779
  24.5960190  23.4931486   9.0937567  25.3182842  23.6572644   8.6341373
  24.1168183  24.2141151   8.9876907  24.6323921  23.6229716   9.0103181
  32.5553698  19.8295285  14.4734252  31.7164798  19.8556564  14.2372515
  32.6258065  20.4766020  15.0539599  32.4422091  19.9291411  14.5243369
  22.2467807  25.8989559  18.1991707  22.7588904  26.1773812  17.5500467
  21.9604150  26.6378853  18.5654520  22.2802670  26.0491912  18.1581585
  31.0022976  16.7280662   9.2061868  31.7049329  16.5288410   8.7281826
  30.7367165  15.9556604   9.5130711  31.0669608  16.5843628   9.1807309
  36.4311222  25.0363272  11.7595494  36.3445196  25.1918698  12.6130273
  35.9761702  25.6801347  11.3854899  36.3514478  25.1539027  11.8302600
  25.7651532  17.9915947  18.2592748  25.5734729  18.0071082  19.1092172
  26.6150128  18.1879621  18.2359403  25.8627254  18.0230298  18.3816043
  20.1498445  20.5206929  16.2376565  20.0083937  19.6690869  16.3621073
  20.4339009  20.5635589  15.4138771  20.1706291  20.4006679  16.1344189
  30.3037038  22.3574019  10.3821053  30.0571752  22.2769770  11.2157842
  30.6322161  21.5727487  10.1883581  30.3158281  22.2300284  10.4768576
  34.1985087  29.0657378  14.1707834  34.0599446  29.7638424  14.6756577
  33.4185084  28.9106035  13.8144016  34.0628313  29.1457545  14.1934109
  26.2634065  25.0930737  19.7944036  26.4077441  25.6731946  19.1587146
  26.6109714  25.4707034  20.4993891  26.3361526  25.2351441  19.8043031
  28.4353982  24.2920906  17.5769168  27.6877296  24.4851920  17.1717446
  28.5895508  23.4666125  17.3393289  28.3476410  24.1986017  17.4814574
  25.3361820  33.2833509  16.6605063  25.4851384  32.7236425  16.0078468
  26.1161822  33.3625511  17.0437582  25.4735914  33.2119075  16.6202012
  35.6938459  28.4235632   4.9324334  35.3145268  27.6372770   4.9253623
  35.0304705  28.9722489   4.7895978  35.5396934  28.3880456   4.9105131
  27.8615121  33.4548152  17.9389554  27.7858792  32.7856963  18.4940342
  27.7904980  34.1565940  18.4530220  27.8395728  33.4593059  18.0966402
  28.6755759  18.1871456  18.4664572  29.1328374  18.9195431  18.5937364
  28.7512088  17.7637922  19.2251827  28.7546729  18.2328695  18.5965648
  20.9188751  18.4337276  19.5554015  20.3830940  17.8217634  19.8714783
  20.9806515  19.0085412  20.2087682  20.8484383  18.4284204  19.6989442
  33.1483085  11.3661332  12.3358415  33.2666653  11.8237795  11.6025717
  32.9745261  10.5606593  12.0494632  33.1402256  11.3155104  12.1859348
  28.5185368  31.9749151   8.7713160  29.2835259  31.7058795   8.4495824
  28.4163458  31.4899161   9.4883223  28.6166863  31.8638716   8.8292987
  26.5538137  20.1773560  15.3106396  25.7634212  19.9965021  15.6323731
  26.9498760  19.4000513  15.2936690  26.4955014  20.0361021  15.3558944
  31.9381824  27.8115991  13.0365842  31.2626825  27.5801223  13.5379229
  31.9474200  27.2037173  12.4107947  31.8400328  27.6874916  13.0181994
  29.0675968  22.6533820  19.7929895  29.0035109  23.5143776  19.6650031
  29.2073155  22.3365813  18.9925446  29.0791438  22.7333986  19.6558107
  33.9398558  30.6681123   5.2676020  34.0218396  31.4748109   4.9437470
  34.4248300  30.6877082   5.9916793  34.0235716  30.7901785   5.3262918
  27.7495061  25.3465959  13.9346097  27.3257311  25.5470458  13.1985116
  27.5739917  24.4994807  14.0470397  27.6605942  25.2514740  13.8419788
  27.2506755  36.8616472  16.3967555  27.7402685  36.1627261  16.2143219
  26.6790987  36.5640342  16.9843612  27.2391285  36.7142696  16.4568596
  23.0377506  25.8418010   9.3674070  23.1942126  25.7764813  10.2230062
  23.3778100  26.6166563   9.1552750  23.1110741  25.9467208   9.4628664
  29.5756651  25.2175894   8.2367433  30.1172197  24.7146275   8.7006054
  29.8903210  25.1641089   7.4256918  29.7021048  25.1355315   8.1851245
  27.7443101  30.6093245   5.5207461  27.8135921  29.7507784   5.6600462
  28.5231556  30.8265126   5.1926486  27.8695951  30.5146109   5.4924619
  30.7245920  20.1112198  18.2889734  30.9387890  19.4723113  17.7353088
  30.1079820  20.5558022  17.8597595  30.6651250  20.0822342  18.1440165
  32.1350588  33.0330947   9.7343955  31.7430380  32.7297662   9.0166821
  32.2903661  33.8700037   9.5448908  32.1004178  33.1114783   9.6000452
  32.8885008  21.7201264  19.2273041  32.0761690  21.4127154  19.3086213
  33.3474943  21.2400264  19.7915753  32.8365393  21.6037756  19.3227635
  32.2990263  29.5980936   9.6749985  31.9404918  29.7695578  10.4514018
  31.8128974  30.0594141   9.1177984  32.1748960  29.6919907   9.7075254
  30.1160649  13.2212134  13.2777076  29.2454207  13.1950855  13.2310386
  30.3700990  13.0489326  12.4602922  30.0254209  13.1922278  13.1497213
  29.9838516  23.1261335  24.0101743  30.4538147  23.7503451  24.3969617
  30.0300396  22.4578311  24.5694958  30.0606392  23.1196015  24.1501814
  27.1409790  15.2318362  14.7350547  26.6248278  14.5398554  14.8602126
  26.5803718  15.8989140  14.6813146  26.9816303  15.2281620  14.7456613
  29.2102023  15.7711323  16.5643399  28.8233776  15.7960354  17.3456929
  28.7234960  15.2053001  16.1117916  29.0814532  15.6907073  16.6131303
  35.1852003  22.3373977  15.1883102  34.7579611  22.2500326  14.4331201
  34.5478056  22.4451753  15.7737946  35.0281610  22.3406637  15.1628543
  28.8759165  12.6578308  18.8553659  29.5052283  13.1938608  18.5774730
  29.0445027  12.5655667  19.7067225  28.9936959  12.7239670  18.9402187
  28.6773080  17.4449503  21.1280071  29.5046509  17.1734652  21.1838685
  28.6980926  18.2410344  21.4843889  28.8025930  17.5229257  21.1895254
  33.5149259  31.1804640  17.2622543  34.3041637  30.8293705  17.3824624
  33.6892857  31.9941028  16.9999177  33.6569541  31.2490497  17.2410411
  23.2542569  24.5913366  14.3150332  22.4130576  24.4917240  14.5229225
  23.4632577  25.3608846  14.6664652  23.1607262  24.6905409  14.3977646
  20.7318136  22.2132902  12.1435082  20.3374834  22.2875914  11.3685192
  20.1758253  22.5990849  12.6943444  20.5920949  22.2814677  12.1102742
  32.3683083  15.1914196  11.8238961  32.5732677  15.1236504  12.6695958
  32.0409507  15.9973018  11.7560139  32.3498331  15.3000137  11.9398616
  27.0659234  22.5194765  13.5647929  26.7622372  21.9650753  14.1658337
  26.3638655  22.6986975  13.0775963  26.9175444  22.4639547  13.5817635
  25.1277585  29.7344485  18.2720027  25.0197940  29.7446548  19.1382085
  25.3373367  30.5599266  18.0824981  25.1427696  29.8585560  18.3724118
  35.6216771  15.7445961  11.3041727  35.0091085  16.2316363  11.6895458
  35.7180946  15.0689452  11.8479378  35.5454669  15.7164269  11.4420585
  23.1451377  26.9857128  15.7341964  22.5539311  27.6266626  15.7044980
  23.9072401  27.4094745  15.7073264  23.1699638  27.1432966  15.7257112
  23.5412000  18.1459126  16.4009982  24.0013482  18.2198055  17.1385106
  23.5868107  18.9440380  16.0509803  23.6162555  18.2753273  16.4582739
  25.1895350  18.8125820  20.9682009  24.7980915  18.1659168  21.4037787
  25.3581213  19.4037256  21.5876265  25.1566260  18.8040088  21.1244715
  39.2641799  26.8162898  16.7319243  39.3224923  27.2649546  17.4779219
  38.6308267  27.2261710  16.2949323  39.1793094  26.9436632  16.7771791
  32.9040894  32.4366439  13.1673989  32.7060582  32.9257254  12.4730200
  32.2828605  32.6407681  13.7458122  32.7828458  32.5382978  13.1497212
  26.9648872  24.2051336   7.5084233  27.7090917  24.5925613   7.7467183
  27.1109568  23.3608762   7.6724721  27.0959457  24.1381809   7.5678203
  28.8828447  16.0001595  12.5416095  28.0364492  16.1724403  12.4157444
  28.8799580  15.1950939  12.8781923  28.7575597  15.9062624  12.5727222
  29.9526748  19.7776810  13.4078153  29.4786702  19.2518572  13.9183463
  30.3244884  19.2306282  12.8393014  29.9376637  19.6192806  13.3993300
  20.3299778  21.7748316  18.7761698  21.1925391  21.6744025  18.6899028
  19.9991561  21.1943026  18.2147270  20.4084974  21.6739943  18.6807104
  36.2163478  24.8379185  14.8184933  35.9761701  23.9985600  14.8227359
  36.6955486  24.9179352  15.5425707  36.2515662  24.7260585  14.9259735
  38.2168665  21.6180642  12.7714192  37.9778435  21.5776477  11.9334977
  38.3802567  22.4651794  12.8979913  38.2058969  21.7372727  12.6667674
  34.8214696  26.0030592  18.7019237  35.5448894  25.5503118  18.5230257
  34.5564658  26.2835257  17.9191565  34.8895969  25.9781560  18.5597953
  23.6901564  20.5990765  15.4372116  23.0654634  20.6109157  14.8298069
  23.3547159  21.0750940  16.0863357  23.5487056  20.6709282  15.4428685
  20.4027239  28.6591225  16.8775881  19.8727164  27.9683664  16.9270856
  20.6752333  28.6501411  16.0488589  20.3651962  28.5558357  16.7623297
  31.4347330  29.2416928   5.6013563  32.1581529  29.7075041   5.4578137
  30.9947921  29.3090537   4.8511160  31.4763022  29.3200764   5.4698345
  30.6033485  26.1014470  16.8514252  29.9890478  25.5572520  17.1462888
  31.1200770  25.5878706  16.3720069  30.5889147  25.9450879  16.8238481
  29.8429782  27.1718740  14.5858551  29.4157390  26.5468459  14.1523986
  29.8354727  26.8893662  15.4117558  29.7788923  27.0371521  14.6438379
  22.9592309  22.2083913  17.6546985  23.1185796  21.4527237  18.0598707
  22.7785203  22.7574853  18.3087723  22.9557668  22.1777727  17.8109691
  30.9012612  14.3745149  18.2097774  30.4053174  14.5708823  17.5189341
  31.6581674  14.7737817  18.0386576  30.9399437  14.4622882  18.0817911
  28.1715492  18.0487495  14.8001085  28.1957979  17.5147607  14.1113865
  28.4226965  17.5404803  15.4626676  28.2125411  17.8948398  14.7965730
  15.6823082  25.3318990  14.2344229  15.5766531  25.2865834  13.3696313
  14.9323302  25.6772770  14.5158514  15.5558685  25.3759898  14.1481559
  24.4516814  16.7758313  14.1806829  24.4915186  17.2767519  14.8941537
  23.6266479  16.8668706  13.9112752  24.3356340  16.8640129  14.2457368
  26.6346427  26.3419053  22.2827124  25.7842058  26.4790767  22.4184769
  26.7974555  25.6082831  22.7274826  26.5330291  26.2533154  22.3682723
  25.8731178  23.2918823  16.4780728  25.0423107  23.4592641  16.2715976
  25.8182695  22.9154773  17.2629614  25.7420592  23.2608554  16.5629256
  23.6814961  16.7827716  22.1137139  24.3067664  16.2389848  22.3866571
  23.2265441  16.3022633  21.5444929  23.7063221  16.6317197  22.0698733
  37.2550010  24.9657003  17.2049787  37.8467850  25.6054253  17.2367985
  37.6909004  24.2680039  17.4941854  37.4068441  24.9575353  17.2530620
  29.0843399  29.3874375  17.8307681  28.5768490  29.9410222  18.2748311
  28.7870046  29.4482665  17.0126455  28.9648284  29.4780686  17.7756138
  31.2505582  17.7527695  16.6732344  31.6760653  17.3000221  16.0615870
  30.6362575  17.1987765  16.9497131  31.2234227  17.6041671  16.6237369
  31.6951180  33.3037633   5.7611624  30.9780489  33.1298495   5.2958862
  32.3457917  33.0690205   5.2287110  31.6853030  33.2433425   5.6140842
  34.2799151  22.1802221   9.5052930  33.6090341  22.7231923   9.3765995
  34.9738901  22.6497076   9.2634624  34.2828018  22.3300492   9.4508457
  28.3285885  34.3198933  14.7364688  28.1051539  33.5617762  15.1048714
  27.8395728  34.3496954  14.0145128  28.2229334  34.2121158  14.6841429
  34.4427278  18.6358105  12.4143303  34.7954888  18.2087828  13.0889101
  33.5842080  18.5508948  12.5444379  34.3676723  18.5602845  12.5338313
  23.1410963  21.2665624  10.4726149  22.4222952  21.6829757  10.7399013
  23.5123326  21.8319863   9.9217787  23.0902895  21.4114906  10.4308956
  32.4410544  21.8993473  16.3628145  32.4208471  21.7176769  17.2162924
  32.4889745  22.7705492  16.3387729  32.4445185  22.0010012  16.4851440
  30.3856874  28.4880665  22.2876622  30.3452729  27.8430342  21.7021777
  31.1980192  28.4317283  22.6002034  30.5000028  28.3839632  22.2473571
  26.9764342  34.5399391  12.1901772  26.5624740  33.8773522  11.8005614
  27.6611716  34.6877250  11.6697467  27.0162713  34.4640049  12.0558270
  30.3429636  33.6989477  12.9425389  29.9445919  33.8091747  12.1746209
  29.7280855  33.9071543  13.5251949  30.1928525  33.7463045  12.9156688
  35.8751338  13.7576517  13.3427615  35.3682203  13.0505656  13.2748793
  36.6718772  13.4269705  13.4728692  35.9178578  13.6049668  13.3526610
  31.7915354  20.2643129   9.2401279  31.5629047  20.2875830   8.3979637
  32.0513430  19.4400596   9.3596290  31.7961542  20.1459209   9.1326477
  26.0734583  22.1177602  18.8426379  25.5613486  21.5098785  19.2011411
  25.9014079  22.8334194  19.3100355  25.9724220  22.1340901  18.9642603
  20.9200297  20.5615177  21.4928741  20.7502888  21.2216552  20.9476948
  20.4766247  20.7721738  22.2141230  20.8299631  20.6901159  21.5190370
  24.8460117  18.8019675  10.5355475  25.3217483  19.1636755   9.9005656
  24.3448716  19.4576143  10.8155617  24.8425476  18.9513864  10.4832216
  38.0771478  28.2741443   6.3268480  38.4605084  29.0232799   6.5566577
  37.2815592  28.5207263   6.0680469  38.0165261  28.4211137   6.3226053
  29.9503653  20.0401847  21.2828635  30.5075083  19.8115656  20.6507100
  29.6264718  20.8007512  21.0063847  29.9850063  20.1185683  21.1485132
  17.8202362  23.4662043  16.7517231  17.2729081  22.7962688  16.8698099
  18.6094740  23.0991891  16.8160698  17.8554546  23.3127029  16.7785931
  27.6686770  23.1269500  22.2480642  28.4198097  23.4421177  22.5620196
  27.8609347  22.9248671  21.4214564  27.8078184  23.1436882  22.1724038
  34.5172060  19.2543066   9.4904437  34.5166287  19.0991723  10.3488714
  34.3128241  20.1006053   9.4345823  34.4871838  19.3563687   9.6092377
  16.5789331  22.6782851  13.9063254  16.4011093  22.2259460  14.6318169
  16.2908354  23.4809012  14.0901731  16.5102285  22.7305408  14.0406757
  32.2412913  23.9340568  13.1440644  32.7366578  23.2163563  13.1044664
  31.4312688  23.6311366  13.0295131  32.1956806  23.7838214  13.1214370
  27.6871524  27.7838381   5.2937649  26.8782847  27.4605055   5.2470958
  28.1946433  27.0771603   5.2265897  27.6421191  27.6319698   5.2767943
  18.3161801  25.2110574  11.0185013  17.4507321  25.1996265  10.9067784
  18.4160617  25.0240797  11.8656152  18.2035968  25.1816636  11.1273957
  34.3064731  26.6844255  15.8317773  34.7319803  26.1618677  15.2788198
  33.9421651  27.2825093  15.3106396  34.3151334  26.6954483  15.6726783
  23.9418811  34.9808473  14.5915118  24.2565370  35.7944861  14.5992900
  24.3512225  34.5958692  15.2597278  24.0486909  35.0437175  14.6919210
  30.8943331  30.3978520  12.1618930  31.3654509  31.1118782  12.3308916
  31.2303509  29.7977270  12.6978800  31.0138446  30.4149984  12.2651306
  27.8112826  15.1705990  19.1177025  27.9440731  14.3736984  19.4458001
  28.1957979  15.6972393  19.6975301  27.8869155  15.1305907  19.2520528
  31.5317277  30.1896454  18.9246623  30.9838223  29.5654338  18.6566688
  31.9930306  30.3790726  18.2090702  31.5184487  30.1255504  18.7797054
  30.8845181  12.0936316  15.7158118  30.0791145  11.9834046  16.0325957
  30.7551916  12.1948772  14.8587984  30.7465314  12.0919987  15.6366159
  34.3411142  18.2581808  16.3097815  33.7574130  18.7591015  15.8975383
  34.6615436  17.7511365  15.6762139  34.3024317  18.2573643  16.1556323
  25.4701273  15.1665165  17.3654919  26.0145686  14.8256292  17.9559261
  25.5238208  16.0250627  17.5076204  25.5590392  15.2420425  17.4736792
  21.2831831  28.9281581  14.2393727  21.8876689  28.8877416  13.6107548
  21.0759144  29.7752733  14.2697783  21.3420729  29.0469584  14.1509843
  31.0975603  31.1947527  15.4555964  31.9173977  31.0510493  15.7172259
  30.8169681  31.8193725  15.9972402  31.1772347  31.2657879  15.5743904
  16.5183114  27.9116199  14.1092650  16.4207392  27.1012470  14.4182707
  17.3011983  27.8907992  13.7238918  16.6199250  27.7883289  14.0979513
  47.5689254  38.8512378   8.4198841  47.5383258  39.7057015   8.5917110
  48.1670603  38.5507671   8.9784984  47.6526412  38.9328875   8.5273643
  40.7688939  37.9388029  13.1751771  39.9126834  38.0996528  13.2260888
  40.8156592  37.0680093  13.1956832  40.6488050  37.8338831  13.1857837
  35.1530078  47.4750747   8.9389003  34.4012978  47.0966286   8.7105048
  35.6016090  47.5069181   8.1907813  35.1079745  47.4236354   8.7946505
  40.6055038  47.8976117   4.3674550  40.2706407  48.5753038   3.9318772
  41.1181909  47.5081428   3.7791421  40.6320619  47.9400695   4.2161341
  40.1459330  49.8490385  10.3085661  40.5298709  50.4177284   9.7690437
  40.0818471  49.1239896   9.8291477  40.1932757  49.8265849  10.1579524
  43.6140760  39.9980073  15.8183423  44.1596720  40.6765160  15.8777392
  43.5557636  39.8567534  14.9585004  43.6856674  40.0772075  15.6995483
  36.7314835  47.4869139  11.2051775  36.8325197  46.6769493  11.5148903
  36.1356580  47.3926086  10.5751454  36.6587373  47.3534167  11.1578014
  45.3905828  41.4264680   6.6917150  45.2745354  42.1772366   7.1209289
  46.1861715  41.1688634   6.9413237  45.4910418  41.4999527   6.7921242
  36.5715574  52.4046728  12.6066631  37.2153030  52.8459893  12.9962790
  36.8971830  51.6000155  12.5196890  36.7147403  52.3511923  12.6512108
  29.9279879  43.5089426  10.8304109  29.6930063  42.6757078  10.7236378
  30.0665520  43.7894092  10.0165310  29.9135541  43.4272929  10.6946464
  32.2269966  35.6775157  13.7288416  31.6074998  35.0867804  13.5598431
  32.1253830  36.2686592  13.0952740  32.1207642  35.6779239  13.6093406
  37.2736154  45.4158703   7.9786493  37.5951995  45.9563911   7.3747801
  37.9208250  44.8455475   8.1108783  37.4162209  45.4117879   7.9093528
  39.3237862  37.4174698   8.0620880  40.0218027  37.5962826   8.5542343
  39.6390194  36.8945038   7.4391269  39.4733199  37.3668470   8.0422890
  31.9539099  39.2227438  15.9731985  31.8297796  39.8089884  16.6081804
  32.6057384  38.7287634  16.2744260  32.0312749  39.2366243  16.1117915
  39.5125797  43.8045143   8.0500671  39.9519433  43.1962244   8.4955444
  39.3630460  43.4252517   7.2786136  39.5547263  43.6583614   8.0019838
  36.9797440  42.3989155  15.2519497  37.6246443  41.9061598  14.9330445
  37.2199217  42.5413942  16.0785575  37.1108025  42.3466597  15.3269030
  39.5183532  45.2444061  14.9026389  39.8006775  44.4495467  14.6813145
  40.2469692  45.7224648  14.9231450  39.6673095  45.1978658  14.8729404
  37.4964726  32.7867095  12.1442154  37.1668056  33.2378239  11.4745853
  36.8209727  32.7083258  12.6915161  37.3475162  32.8418230  12.1265377
  43.1135134  42.1572325   5.0031440  43.0286429  43.0133291   5.1481009
  43.6019517  41.8816649   5.6713599  43.1724031  42.2429646   5.1233522
  44.7041133  28.7752618  10.3891765  44.3894574  29.4656096  10.8212187
  44.1868075  28.7197400   9.6877266  44.5805604  28.8687506  10.3488714
  44.0453567  38.7757119   6.5029175  43.5165039  38.9916752   7.1626482
  44.5678587  39.4693257   6.4230145  44.0442020  38.9100256   6.5884775
  49.5001620  44.3503423  11.8762220  48.6699323  44.5614067  12.0395636
  49.4510872  43.5240478  11.6004503  49.3708355  44.2593030  11.8599585
  35.9353175  42.6720336   5.3036643  35.3510390  43.1770367   5.7102507
  35.5323270  42.4462722   4.5633235  35.7892479  42.7128584   5.2541669
  31.4897204  48.3875097  12.1060315  31.0064782  49.1125586  12.0819898
  32.3020522  48.6851227  12.2170473  31.5387951  48.5377450  12.1187594
  37.5611358  47.1807277  14.7110129  37.0438299  46.8214692  14.1071437
  38.2585749  46.6569452  14.7216195  37.5876939  47.0504965  14.6240388
  38.7845409  46.9133251  19.6543965  38.2216244  46.5005861  20.1783626
  39.5466433  46.8386157  20.0737108  38.8139858  46.8410652  19.7936965
  40.3930389  38.9185988   3.7805564  40.6326393  39.1263971   2.9680907
  40.7146230  38.1143496   3.8894508  40.4767547  38.8300089   3.6766117
  35.7020680  30.8479383   7.6265102  36.4566648  31.2157700   7.3882152
  35.5248214  31.2218938   8.3944281  35.7875158  30.9577571   7.7049990
  34.3441401  48.9031273  12.2580595  35.0461980  48.3883262  12.3153351
  34.2638884  49.2305424  13.0627470  34.4365161  48.8745499  12.3853387
  48.9955578  36.9973824  15.6712641  48.1583999  37.0676011  15.9060236
  48.9643809  36.9998319  14.7986944  48.8673861  37.0084051  15.5772189
  35.3920307  39.1406860  21.3861010  35.5640811  39.0312754  22.2346291
  35.9289665  39.7861265  21.1492202  35.4965311  39.2198861  21.4766107
  34.0577744  33.2549702   4.3243215  33.8753317  33.4721583   3.4984208
  34.9203357  33.3688715   4.3801829  34.1582334  33.3039600   4.2097702
  33.6692176  45.0937625  11.7666203  34.5081076  45.3260557  11.8139964
  33.7003945  44.2241936  11.6973238  33.7973894  44.9994571  11.7630847
  34.2944879  45.5138500  16.0679508  34.8343104  45.3709631  16.7382881
  33.6114826  45.9135251  16.4363535  34.2737033  45.5518171  16.2213930
  39.7377463  30.2576113   7.3592239  40.4663624  30.0792068   6.9130395
  39.8272356  31.0994193   7.5699417  39.8584125  30.3559991   7.3245756
  43.7185764  41.1929500  11.2624533  44.4743279  41.6261015  11.3013441
  43.8248089  40.5434270  11.8359169  43.8455935  41.1606984  11.3522558
  46.7565935  45.0202778  12.0126936  46.3201167  45.0239520  12.7685907
  46.4228851  45.7008277  11.5806513  46.6428555  45.1215233  12.0607768
  29.6982024  41.7338791  16.2213930  29.4320440  40.9177907  16.3804920
  29.7120588  41.7791946  15.3509445  29.6606747  41.6195695  16.1167412
  46.6763418  32.0616605  14.2556364  47.3189327  32.1314710  14.8418279
  46.9286439  31.3945828  13.7535906  46.8085550  31.9742954  14.2683643
  33.6039771  36.5323875   2.8365688  32.8897948  36.2462054   3.2488120
  34.0883740  36.8720501   3.4772075  33.5699135  36.5405525   2.9921323
  34.4480631  35.2717169  18.8680938  33.7552427  34.8014149  19.1141669
  35.0640958  35.0455473  19.4422645  34.4365161  35.1684301  18.9890090
  41.4865402  48.9721213  16.9836542  40.6880648  48.7320713  17.2410410
  41.9351414  49.0235605  17.7303589  41.4340013  48.9443604  17.1321466
  49.8910281  41.7383698  10.9046573  50.5526716  41.1774366  10.8042481
  49.2501693  41.2435728  11.2299264  49.8939149  41.5820107  10.9378913
  40.7787089  45.0353829   3.2127496  41.1938238  44.7038853   2.5211992
  39.9479019  44.8022731   3.0847633  40.7175098  44.9525085   3.0918344
  30.1075438  42.5197570  13.5025674  29.9251011  42.4944456  12.6497966
  30.8425107  42.9896508  13.5414583  30.1889502  42.5858932  13.3823593
  46.1775112  42.7549080  10.6458562  46.4130701  42.8994279   9.8185412
  46.3264676  43.5191488  11.0390075  46.2340915  42.8888134  10.5822166
  33.1721190  39.2382573  20.0107783  33.8961162  39.2235603  20.4972677
  33.2737326  39.9477928  19.5129751  33.2939399  39.3407276  20.0086570
  48.0065569  41.5950746   8.4828165  48.3373786  42.1278386   7.8768260
  48.5798657  41.6489634   9.1390116  48.1399248  41.6820315   8.4905947
  43.2197458  39.4415649   9.1651746  43.3144312  40.1804943   9.6191371
  42.5956302  39.0133124   9.5986310  43.1406488  39.4876969   9.2959893
  41.4749932  42.6201861  19.8142026  42.0488794  41.9829105  19.9690590
  41.3964736  42.6205944  18.9451684  41.5483167  42.5266973  19.7088437
  30.0746348  39.3991071  13.6524741  30.6519851  39.2627521  14.2916986
  29.3760410  38.9426855  13.9070325  30.0567370  39.3113337  13.7847030
  43.4720479  41.2864388   2.3988698  43.3900642  41.3566575   3.2643685
  44.1100200  41.8494132   2.2072438  43.5540317  41.3803359   2.4978647
  36.8313650  41.0525126  11.8663224  36.5732895  40.2196861  11.8394523
  36.8862133  41.2782739  11.0255724  36.8013428  40.9622898  11.7383361
  41.9114701  33.1553577  11.9667317  41.2071027  32.6662763  12.1251236
  41.9599675  33.1676051  11.0955761  41.8144752  33.0843225  11.8606656
  35.8048363  38.6062889  12.3528119  35.2297954  38.7655057  12.9892080
  35.4284039  37.9698298  11.8896569  35.6651175  38.5360702  12.3782677
  39.4721651  37.0786238  17.2120497  39.0836084  36.6540456  16.5572688
  38.8076350  37.3268388  17.7197524  39.3168579  37.0524959  17.1908365
  49.1144920  36.8361243   9.9868327  48.8581485  36.0241184   9.7966210
  49.9574234  36.8438810   9.7598514  49.2010946  36.7173240   9.9253144
  25.5505181  38.2502964  10.3672559  25.6365433  37.8734832  11.1486089
  26.1780979  37.8763409   9.8892518  25.6561732  38.1388446  10.4118037
  43.2948013  30.7760867  14.7244481  43.6758525  30.0939038  15.1112355
  42.4911297  30.4870469  14.5420146  43.2324475  30.6327915  14.7548537
  40.5760590  41.3084843   5.4097304  41.3901228  41.5999735   5.2980075
  40.5119731  40.6544705   4.8355597  40.6863329  41.2550037   5.3086141
  46.7970080  43.9910839  19.8226880  46.5608717  43.1598904  19.7038940
  47.4413309  43.9396446  20.4081724  46.8564750  43.8608527  19.8912773
  36.4468498  44.7806360  10.5369616  37.0842445  44.5418108  11.0821409
  36.8723569  44.9843519   9.8022777  36.6044664  44.7757370  10.5086773
  31.1381140  47.0194697  14.4203920  31.1785285  47.2909548  13.5923699
  31.6975664  47.5436605  14.8361708  31.2264486  47.1370452  14.3595808
  37.0871313  40.0008650   4.8744505  37.4716466  39.7816357   5.6261051
  36.8382933  40.8271595   5.0045582  37.1073385  40.0906796   5.0045582
  47.8206500  43.7755288  15.8855174  47.5152317  44.5083344  16.2468490
  47.1012716  43.3693217  15.6047960  47.6693843  43.8237021  15.8968311
  38.8289970  45.2578783  12.2163402  38.9028978  45.0953955  13.0705252
  39.6459476  45.4468972  11.9723884  38.9606328  45.2615525  12.3061428
  53.5208292  40.4148288  15.2123518  53.4532793  40.4344247  14.3426105
  53.5063955  41.2578615  15.4379189  53.5087049  40.5422023  15.1175995
  32.5895726  45.6036646   9.2457846  31.7633844  45.8498383   9.1192125
  32.6507718  45.5248726  10.1119904  32.4769893  45.6281595   9.3546790
  34.8071750  31.6705587  10.2053286  33.9394176  31.7428186  10.2710895
  35.0946954  32.4727665  10.3941261  34.7211498  31.7999734  10.2428053
  43.9304639  31.8183446  18.5364608  44.6758231  31.6293256  18.1228033
  43.5141944  32.3441684  17.9778464  43.9789613  31.8685591  18.3929181
  37.3694555  48.2213526   6.9476876  37.6592854  47.8302507   6.2236102
  38.0998036  48.4030231   7.3882151  37.5201440  48.1907340   6.9059683
  51.3066910  39.1892674  13.4870113  51.8574831  38.5560743  13.7267205
  51.2911025  39.7208067  14.1785617  51.3852106  39.1741623  13.6248971
  37.9589301  43.0231272  18.0330006  37.4600994  43.7347039  18.1114895
  38.7689525  43.3431938  17.9948169  38.0045407  43.1758120  18.0386575
  35.3100471  50.1980908  10.0137025  35.0900766  49.9078263  10.8063692
  35.0894993  49.5395863   9.4854938  35.2448065  50.0580617  10.0525934
  34.2217418  42.2854225  12.2792727  33.9330667  41.6591696  12.8138454
  35.0900766  42.2274512  12.3457408  34.3077670  42.1841769  12.3683682
  45.0095316  37.4289008  12.5974709  44.6660082  36.7079343  12.9481959
  45.1088359  37.2202859  11.7553067  44.9737359  37.2913211  12.5246389
  37.4768427  51.5710298   8.7967718  38.1292485  51.0386740   9.0258744
  36.7794035  51.2178950   9.1835592  37.4699145  51.4399821   8.8879886
  34.4249692  43.9249476   8.2035092  35.1795660  44.3062515   8.4170555
  33.8320304  44.3760619   8.6581789  34.4486405  44.0478303   8.3017971
  45.4708345  43.8914712   8.1398697  46.0366378  44.5507922   8.0557240
  44.8236249  44.2364410   8.6115099  45.4587102  44.0396653   8.1971454
  36.8856359  35.8812316  23.3292305  36.0756134  36.1870096  23.2182147
  37.3631045  36.6017898  23.4444889  36.8359837  36.0326917  23.3299376
  35.7447918  45.0958037  13.5775208  35.2228672  45.2358329  14.2627072
  36.1321939  44.3368701  13.7677325  35.7251619  45.0043561  13.7076284
  32.7339102  35.1463846   7.6470162  32.4463898  34.7765116   6.9102110
  33.4209570  35.6158701   7.3853867  32.7928000  35.1610815   7.4985238
  41.9414923  46.8353496   7.5635776  41.7001599  46.1021357   7.1562841
  42.1216256  47.3840353   6.9102110  41.9322547  46.8075888   7.4065999
  37.1714244  42.1262056   8.9756699  36.9757026  42.7336791   8.3817002
  37.3948589  41.4330000   8.4948373  37.1748885  42.1139582   8.8172779
  35.5692774  39.0116794   9.0937567  36.2915426  39.1757952   8.6341373
  35.0900767  39.7326459   8.9876907  35.6056505  39.1415024   9.0103181
  43.5286281  35.3480593  14.4734252  42.6897382  35.3741872  14.2372515
  43.5990649  35.9951328  15.0539599  43.4154675  35.4476719  14.5243369
  33.2200391  41.4174866  18.1991707  33.7321487  41.6959120  17.5500467
  32.9336733  42.1564161  18.5654520  33.2535254  41.5677220  18.1581585
  41.9755560  32.2465970   9.2061868  42.6781913  32.0473718   8.7281826
  41.7099748  31.4741912   9.5130711  42.0402192  32.1028936   9.1807309
  47.4043805  40.5548580  11.7595494  47.3177780  40.7104006  12.6130273
  46.9494285  41.1986655  11.3854899  47.3247062  40.6724335  11.8302600
  30.3067297  35.9245058   8.4955443  30.4083433  36.7271220   8.8236419
  31.1023184  35.7232394   8.1978524  30.4395202  36.0130957   8.4990799
  36.7384116  33.5101255  18.2592748  36.5467313  33.5256389  19.1092172
  37.5882712  33.7064929  18.2359403  36.8359838  33.5415606  18.3816043
  31.1231029  36.0392237  16.2376565  30.9816521  35.1876177  16.3621073
  31.4071592  36.0820897  15.4138771  31.1438875  35.9191987  16.1344189
  41.2769621  37.8759327  10.3821053  41.0304336  37.7955078  11.2157842
  41.6054744  37.0912795  10.1883581  41.2890865  37.7485592  10.4768576
  45.1717670  44.5842686  14.1707834  45.0332029  45.2823732  14.6756577
  44.3917668  44.4291343  13.8144016  45.0360897  44.6642853  14.1934109
  43.5095755  40.8839061  20.4230216  43.5043794  40.0118878  20.4272643
  44.2156749  41.0827231  19.9499672  43.6140759  40.7842936  20.3537252
  37.2366649  40.6116045  19.7944036  37.3810024  41.1917253  19.1587146
  37.5842297  40.9892342  20.4993891  37.3094110  40.7536749  19.8043031
  39.4086566  39.8106214  17.5769168  38.6609880  40.0037228  17.1717446
  39.5628091  38.9851433  17.3393289  39.3208994  39.7171325  17.4814574
  36.3094404  48.8018817  16.6605063  36.4583967  48.2421733  16.0078468
  37.0894406  48.8810819  17.0437582  36.4468497  48.7304383  16.6202012
  46.6671043  43.9420940   4.9324334  46.2877852  43.1558078   4.9253623
  46.0037288  44.4907797   4.7895978  46.5129518  43.9065764   4.9105131
  38.8347704  48.9733460  17.9389554  38.7591375  48.3042271  18.4940342
  38.7637563  49.6751248  18.4530220  38.8128311  48.9778367  18.0966402
  39.6488343  33.7056764  18.4664572  40.1060957  34.4380739  18.5937364
  39.7244672  33.2823230  19.2251827  39.7279313  33.7514002  18.5965648
  31.8921334  33.9522584  19.5554015  31.3563524  33.3402942  19.8714783
  31.9539099  34.5270720  20.2087682  31.8216967  33.9469512  19.6989442
  44.1215669  26.8846640  12.3358415  44.2399237  27.3423103  11.6025717
  43.9477845  26.0791901  12.0494632  44.1134840  26.8340412  12.1859348
  39.4917951  47.4934459   8.7713160  40.2567842  47.2244103   8.4495824
  39.3896041  47.0084469   9.4883223  39.5899447  47.3824024   8.8292987
  37.5270721  35.6958868  15.3106396  36.7366796  35.5150328  15.6323731
  37.9231344  34.9185821  15.2936690  37.4687597  35.5546329  15.3558944
  42.0136612  44.5246643   0.7513109  42.7809597  44.5846768   0.3418961
  41.5667921  43.9527084   0.2669428  42.0610039  44.4483218   0.6190820
  42.9114407  43.3301299  13.0365842  42.2359409  43.0986531  13.5379229
  42.9206783  42.7222481  12.4107947  42.8132912  43.2060224  13.0181994
  40.0408551  38.1719127  19.7929895  39.9767692  39.0329084  19.6650031
  40.1805739  37.8551121  18.9925446  40.0524021  38.2519294  19.6558107
  44.9131142  46.1866431   5.2676020  44.9950979  46.9933417   4.9437470
  45.3980884  46.2062390   5.9916793  44.9968300  46.3087093   5.3262918
  38.7227645  40.8651267  13.9346097  38.2989894  41.0655766  13.1985116
  38.5472500  40.0180115  14.0470397  38.6338526  40.7700048  13.8419788
  34.0110090  41.3603318   9.3674070  34.1674709  41.2950121  10.2230062
  34.3510683  42.1351871   9.1552750  34.0843325  41.4652516   9.4628664
  40.5489235  40.7361202   8.2367433  41.0904780  40.2331583   8.7006054
  40.8635794  40.6826397   7.4256918  40.6753632  40.6540623   8.1851245
  38.7175684  46.1278553   5.5207461  38.7868505  45.2693092   5.6600462
  39.4964140  46.3450434   5.1926486  38.8428534  46.0331417   5.4924619
  41.6978504  35.6297506  18.2889734  41.9120474  34.9908421  17.7353088
  41.0812403  36.0743330  17.8597595  41.6383833  35.6007650  18.1440165
  43.1083172  48.5516255   9.7343955  42.7162964  48.2482970   9.0166821
  43.2636244  49.3885345   9.5448908  43.0736762  48.6300091   9.6000452
  30.5844352  38.5438269   9.6834837  30.9643316  38.9622814   9.0195104
  30.0099716  39.1251724   9.9903680  30.5555676  38.6916128   9.6311578
  43.8617592  37.2386572  19.2273041  43.0494274  36.9312462  19.3086213
  44.3207527  36.7585572  19.7915753  43.8097977  37.1223064  19.3227635
  43.2722847  45.1166243   9.6749985  42.9137501  45.2880886  10.4514018
  42.7861557  45.5779449   9.1177984  43.1481544  45.2105215   9.7075254
  41.0893233  28.7397442  13.2777076  40.2186791  28.7136163  13.2310386
  41.3433574  28.5674634  12.4602922  40.9986793  28.7107586  13.1497213
  38.0611212  40.7965409   2.2150219  38.3503737  41.5730291   2.4893794
  38.1483011  40.2854140   2.9164719  38.1165468  40.8357327   2.3592717
  38.1142373  30.7503670  14.7350547  37.5980862  30.0583862  14.8602126
  37.5536302  31.4174447  14.6813146  37.9548886  30.7466928  14.7456613
  40.1834607  31.2896630  16.5643399  39.7966360  31.3145662  17.3456929
  39.6967544  30.7238309  16.1117916  40.0547116  31.2092381  16.6131303
  46.1584586  37.8559285  15.1883102  45.7312194  37.7685634  14.4331201
  45.5210639  37.9637061  15.7737946  46.0014193  37.8591945  15.1628543
  39.8491748  28.1763616  18.8553659  40.4784866  28.7123916  18.5774730
  40.0177611  28.0840975  19.7067225  39.9669543  28.2424978  18.9402187
  39.6505663  32.9634811  21.1280071  40.4779093  32.6919960  21.1838685
  39.6713509  33.7595652  21.4843889  39.7758513  33.0414565  21.1895254
  44.4881843  46.6989948  17.2622543  45.2774221  46.3479012  17.3824624
  44.6625440  47.5126336  16.9999177  44.6302124  46.7675805  17.2410411
  34.2275153  40.1098673  14.3150332  33.3863160  40.0102548  14.5229225
  34.4365161  40.8794154  14.6664652  34.1339846  40.2090717  14.3977646
  31.7050720  37.7318210  12.1435082  31.3107418  37.8061222  11.3685192
  31.1490837  38.1176157  12.6943444  31.5653532  37.7999985  12.1102742
  43.3415667  30.7099504  11.8238961  43.5465260  30.6421812  12.6695958
  43.0142091  31.5158326  11.7560139  43.3230915  30.8185445  11.9398616
  38.0391818  38.0380073  13.5647929  37.7354955  37.4836061  14.1658337
  37.3371239  38.2172283  13.0775963  37.8908028  37.9824855  13.5817635
  37.0957915  35.3480592   8.1292631  37.3717649  34.6299505   7.7170198
  37.6956584  35.9465512   7.9213737  37.2251180  35.3300963   8.0373392
  36.1010169  45.2529793  18.2720027  35.9930524  45.2631855  19.1382085
  36.3105950  46.0784574  18.0824981  36.1160280  45.3770868  18.3724118
  46.5949355  31.2631269  11.3041727  45.9823668  31.7501671  11.6895458
  46.6913529  30.5874760  11.8479378  46.5187252  31.2349577  11.4420585
  40.5968436  33.0194110   6.4039226  41.0512182  33.1904670   7.1287070
  41.0708481  32.4062220   6.0037002  40.7336756  32.9544995   6.4512988
  34.1183961  42.5042436  15.7341964  33.5271894  43.1451934  15.7044980
  34.8804984  42.9280053  15.7073264  34.1432222  42.6618274  15.7257112
  34.5144584  33.6644433  16.4009982  34.9746065  33.7383363  17.1385106
  34.5600690  34.4625688  16.0509803  34.5895139  33.7938581  16.4582739
  36.1627933  34.3311128  20.9682009  35.7713499  33.6844475  21.4037787
  36.3313796  34.9222564  21.5876265  36.1298844  34.3225396  21.1244715
  50.2374382  42.3348205  16.7319243  50.2957506  42.7834854  17.4779219
  49.6040850  42.7447018  16.2949323  50.1525678  42.4621940  16.7771791
  43.8773477  47.9551747  13.1673989  43.6793166  48.4442562  12.4730200
  43.2561188  48.1592989  13.7458122  43.7561042  48.0568286  13.1497212
  37.9381456  39.7236644   7.5084233  38.6823500  40.1110920   7.7467183
  38.0842152  38.8794070   7.6724721  38.0692041  39.6567117   7.5678203
  39.8561031  31.5186903  12.5416095  39.0097076  31.6909711  12.4157444
  39.8532163  30.7136247  12.8781923  39.7308181  31.4247932  12.5727222
  40.9259331  35.2962117  13.4078153  40.4519286  34.7703880  13.9183463
  41.2977467  34.7491590  12.8393014  40.9109220  35.1378114  13.3993300
  31.3032362  37.2933624  18.7761698  32.1657975  37.1929333  18.6899028
  30.9724145  36.7128333  18.2147270  31.3817558  37.1925251  18.6807104
  47.1896062  40.3564493  14.8184933  46.9494285  39.5170908  14.8227359
  47.6688069  40.4364660  15.5425707  47.2248246  40.2445893  14.9259735
  42.8542831  36.1898672   6.4703906  42.3265850  36.2727416   5.7809615
  43.3138539  36.9316544   6.4668551  42.8444682  36.3119334   6.3678601
  49.1901249  37.1365950  12.7714192  48.9511019  37.0961784  11.9334977
  49.3535150  37.9837102  12.8979913  49.1791552  37.2558035  12.6667674
  45.7947279  41.5215900  18.7019237  46.5181478  41.0688426  18.5230257
  45.5297241  41.8020565  17.9191565  45.8628552  41.4966868  18.5597953
  34.6634147  36.1176073  15.4372116  34.0387218  36.1294465  14.8298069
  34.3279742  36.5936248  16.0863357  34.5219639  36.1894590  15.4428685
  34.8475896  34.4601192   1.4944801  34.4988701  35.1120917   1.9576351
  34.3672342  34.4458305   0.7668673  34.7246140  34.5544245   1.4555893
  31.3759823  44.1776533  16.8775881  30.8459748  43.4868972  16.9270856
  31.6484916  44.1686719  16.0488589  31.3384545  44.0743665  16.7623297
  42.4079914  44.7602236   5.6013563  43.1314112  45.2260349   5.4578137
  41.9680505  44.8275845   4.8511160  42.4495606  44.8386072   5.4698345
  41.5766069  41.6199778  16.8514252  40.9623062  41.0757828  17.1462888
  42.0933354  41.1064014  16.3720069  41.5621731  41.4636187  16.8238481
  40.8162366  42.6904048  14.5858551  40.3889974  42.0653767  14.1523986
  40.8087310  42.4078970  15.4117558  40.7521507  42.5556829  14.6438379
  33.9324893  37.7269221  17.6546985  34.0918380  36.9712545  18.0598707
  33.7517786  38.2760161  18.3087723  33.9290252  37.6963035  17.8109691
  41.8745196  29.8930457  18.2097774  41.3785757  30.0894131  17.5189341
  42.6314258  30.2923125  18.0386576  41.9132021  29.9808190  18.0817911
  39.1448075  33.5672802  14.8001085  39.1690563  33.0332915  14.1113865
  39.3959549  33.0590111  15.4626676  39.1857994  33.4133706  14.7965730
  26.6555665  40.8504297  14.2344229  26.5499114  40.8051142  13.3696313
  25.9055885  41.1958078  14.5158514  26.5291268  40.8945206  14.1481559
  35.4249398  32.2943621  14.1806829  35.4647769  32.7952827  14.8941537
  34.5999062  32.3854014  13.9112752  35.3088924  32.3825437  14.2457368
  37.6079011  41.8604361  22.2827124  36.7574641  41.9976075  22.4184769
  37.7707138  41.1268139  22.7274826  37.5062874  41.7718462  22.3682723
  36.8463761  38.8104131  16.4780728  36.0155691  38.9777948  16.2715976
  36.7915278  38.4340081  17.2629614  36.7153176  38.7793862  16.5629256
  35.2199805  37.0859722   7.0070846  35.3602766  37.5832186   7.7099487
  35.7182338  36.3846016   7.1485060  35.3140886  37.0561701   7.1322425
  35.2500027  37.9526833   4.3363423  35.8845107  38.5487258   4.2712885
  35.3325638  37.6530291   5.1509293  35.3556578  37.9967741   4.4466509
  48.2282593  40.4842310  17.2049787  48.8200433  41.1239561  17.2367985
  48.6641588  39.7865347  17.4941854  48.3801024  40.4760661  17.2530620
  36.8279010  33.8840808   4.3108865  37.1494851  33.4043891   3.6568127
  37.0905954  34.6940455   4.1199676  36.9145036  33.9330706   4.1864357
  40.0575983  44.9059683  17.8307681  39.5501074  45.4595530  18.2748311
  39.7602629  44.9667973  17.0126455  39.9380868  44.9965994  17.7756138
  42.2238165  33.2713002  16.6732344  42.6493237  32.8185529  16.0615870
  41.6095158  32.7173073  16.9497131  42.1966811  33.1226979  16.6237369
  31.7553015  40.1494674   7.6052969  32.2645245  40.7459181   7.9864274
  32.2287287  39.8820647   6.9229388  31.8996391  40.1980489   7.5607492
  42.6683763  48.8222941   5.7611624  41.9513073  48.6483803   5.2958862
  43.3190501  48.5875513   5.2287110  42.6585614  48.7618733   5.6140842
  40.6632388  29.7428102  10.0822921  40.0200706  29.5925749  10.6508059
  40.3231795  29.4970448   9.3172026  40.5177465  29.6840225  10.0525936
  45.2531734  37.6987529   9.5052930  44.5822924  38.2417231   9.3765995
  45.9471485  38.1682384   9.2634624  45.2560602  37.8485800   9.4508457
  39.3018468  49.8384241  14.7364688  39.0784123  49.0803070  15.1048714
  38.8128311  49.8682262  14.0145128  39.1961917  49.7306466  14.6841429
  45.4159862  34.1543413  12.4143303  45.7687472  33.7273136  13.0889101
  44.5574663  34.0694256  12.5444379  45.3409307  34.0788153  12.5338313
  34.1143547  36.7850932  10.4726149  33.3955536  37.2015065  10.7399013
  34.4855909  37.3505171   9.9217787  34.0635479  36.9300214  10.4308956
  43.4143128  37.4178781  16.3628145  43.3941055  37.2362076  17.2162924
  43.4622328  38.2890800  16.3387729  43.4177769  37.5195320  16.4851440
  41.3589458  44.0065973  22.2876622  41.3185312  43.3615650  21.7021777
  42.1712776  43.9502591  22.6002034  41.4732611  43.9024940  22.2473571
  37.9496925  50.0584699  12.1901772  37.5357324  49.3958829  11.8005614
  38.6344299  50.2062558  11.6697467  37.9895297  49.9825357  12.0558270
  41.3162219  49.2174784  12.9425389  40.9178502  49.3277055  12.1746209
  40.7013439  49.4256851  13.5251949  41.1661109  49.2648352  12.9156688
  39.8890121  35.8248932   5.8099529  39.2954961  36.1465929   5.2584096
  39.9265399  34.9790028   5.6020635  39.8064510  35.7473261   5.6982300
  46.8483922  29.2761825  13.3427615  46.3414787  28.5690964  13.2748793
  47.6451356  28.9455013  13.4728692  46.8911161  29.1234976  13.3526610
  42.7647938  35.7828437   9.2401279  42.5361631  35.8061138   8.3979637
  43.0246014  34.9585904   9.3596290  42.7694126  35.6644517   9.1326477
  37.0467166  37.6362910  18.8426379  36.5346069  37.0284093  19.2011411
  36.8746662  38.3519502  19.3100355  36.9456803  37.6526209  18.9642603
  35.8192700  34.3204983  10.5355475  36.2950067  34.6822063   9.9005656
  35.3181300  34.9761451  10.8155617  35.8158059  34.4699172  10.4832216
  49.0504062  43.7926751   6.3268480  49.4337668  44.5418107   6.5566577
  48.2548175  44.0392571   6.0680469  48.9897844  43.9396445   6.3226053
  40.9236237  35.5587154  21.2828635  41.4807667  35.3300964  20.6507100
  40.5997302  36.3192820  21.0063847  40.9582647  35.6370991  21.1485132
  28.7934946  38.9847351  16.7517231  28.2461665  38.3147996  16.8698099
  29.5827324  38.6177199  16.8160698  28.8287129  38.8312337  16.7785931
  38.6419354  38.6454808  22.2480642  39.3930681  38.9606485  22.5620196
  38.8341930  38.4433979  21.4214564  38.7810768  38.6622190  22.1724038
  37.8619354  36.4646183   3.9028859  38.2418318  36.4825812   3.1179973
  37.1211950  36.9100172   3.7819706  37.8088191  36.5327958   3.7692427
  45.4904644  34.7728374   9.4904437  45.4898870  34.6177031  10.3488714
  45.2860824  35.6191361   9.4345823  45.4604422  34.8748995   9.6092377
  27.5521915  38.1968159  13.9063254  27.3743676  37.7444768  14.6318169
  27.2640937  38.9994320  14.0901731  27.4834868  38.2490716  14.0406757
  43.2145496  39.4525876  13.1440644  43.7099161  38.7348871  13.1044664
  42.4045272  39.1496674  13.0295131  43.1689389  39.3023522  13.1214370
  38.6604108  43.3023689   5.2937649  37.8515430  42.9790363   5.2470958
  39.1679016  42.5956911   5.2265897  38.6153774  43.1505006   5.2767943
  29.2894385  40.7295882  11.0185013  28.4239904  40.7181573  10.9067784
  29.3893201  40.5426105  11.8656152  29.1768552  40.7001944  11.1273957
  45.2797315  42.2029563  15.8317773  45.7052386  41.6803985  15.2788198
  44.9154235  42.8010401  15.3106396  45.2883918  42.2139790  15.6726783
  34.9151395  50.4993781  14.5915118  35.2297954  51.3130169  14.5992900
  35.3244808  50.1144000  15.2597278  35.0219493  50.5622483  14.6919210
  41.8675914  45.9163828  12.1618930  42.3387093  46.6304090  12.3308916
  42.2036093  45.3162578  12.6978800  41.9871029  45.9335292  12.2651306
  38.7845409  30.6891298  19.1177025  38.9173315  29.8922292  19.4458001
  39.1690562  31.2157701  19.6975301  38.8601738  30.6491215  19.2520528
  42.5049861  45.7081762  18.9246623  41.9570807  45.0839645  18.6566688
  42.9662889  45.8976034  18.2090702  42.4917070  45.6440812  18.7797054
  41.8577765  27.6121624  15.7158118  41.0523728  27.5019354  16.0325957
  41.7284500  27.7134080  14.8587984  41.7197897  27.6105294  15.6366159
  45.3143725  33.7767116  16.3097815  44.7306714  34.2776323  15.8975383
  45.6348019  33.2696672  15.6762139  45.2756900  33.7758951  16.1556323
  37.8538524  32.6907711   6.5856490  38.6754219  32.8606024   6.3438185
  37.3908175  32.8454972   5.8622788  37.9069686  32.7389444   6.4428134
  36.4433856  30.6850473  17.3654919  36.9878269  30.3441600  17.9559261
  36.4970792  31.5435935  17.5076204  36.5322976  30.7605733  17.4736792
  32.2564415  44.4466889  14.2393727  32.8609272  44.4062723  13.6107548
  32.0491727  45.2938041  14.2697783  32.3153312  44.5654892  14.1509843
  42.0708187  46.7132835  15.4555964  42.8906561  46.5695801  15.7172259
  41.7902265  47.3379033  15.9972402  42.1504930  46.7843187  15.5743904
  27.4915697  43.4301507  14.1092650  27.3939975  42.6197778  14.4182707
  28.2744567  43.4093300  13.7238918  27.5931834  43.3068597  14.0979513
  58.5421837  54.3697686   8.4198841  58.5115842  55.2242323   8.5917110
  59.1403186  54.0692979   8.9784984  58.6258995  54.4514183   8.5273643
  51.7421522  53.4573337  13.1751771  50.8859418  53.6181835  13.2260888
  51.7889176  52.5865401  13.1956832  51.6220634  53.3524139  13.1857837
  46.1262662  62.9936055   8.9389003  45.3745561  62.6151593   8.7105048
  46.5748674  63.0254489   8.1907813  46.0812329  62.9421662   8.7946505
  55.0515239  59.7259863  22.7812227  55.7582006  59.2311894  22.9099162
  55.2403174  60.1668944  22.0514885  55.1843144  59.7178213  22.6921273
  54.5873343  55.5165381  15.8183423  55.1329303  56.1950468  15.8777392
  54.5290220  55.3752842  14.9585004  54.6589258  55.5957383  15.6995483
  47.7047418  63.0054447  11.2051775  47.8057781  62.1954801  11.5148903
  47.1089163  62.9111394  10.5751454  47.6319957  62.8719475  11.1578014
  47.5448158  67.9232036  12.6066631  48.1885613  68.3645200  12.9962790
  47.8704413  67.1185463  12.5196890  47.6879986  67.8697231  12.6512108
  40.9012462  59.0274734  10.8304109  40.6662647  58.1942386  10.7236378
  41.0398103  59.3079400  10.0165310  40.8868125  58.9458237  10.6946464
  43.2002550  51.1960464  13.7288416  42.5807582  50.6053112  13.5598431
  43.0986413  51.7871900  13.0952740  43.0940225  51.1964547  13.6093406
  50.2970446  52.9360006   8.0620880  50.9950610  53.1148134   8.5542343
  50.6122778  52.4130346   7.4391269  50.4465783  52.8853778   8.0422890
  42.9271683  54.7412746  15.9731985  42.8030380  55.3275192  16.6081804
  43.5789967  54.2472942  16.2744260  43.0045332  54.7551551  16.1117915
  50.4858381  59.3230451   8.0500671  50.9252016  58.7147552   8.4955444
  50.3363044  58.9437825   7.2786136  50.5279847  59.1768922   8.0019838
  47.9530024  57.9174463  15.2519497  48.5979026  57.4246906  14.9330445
  48.1931801  58.0599250  16.0785575  48.0840609  57.8651905  15.3269030
  50.4916115  60.7629369  14.9026389  50.7739358  59.9680775  14.6813145
  51.2202276  61.2409956  14.9231450  50.6405679  60.7163966  14.8729404
  48.4697309  48.3052403  12.1442154  48.1400639  48.7563546  11.4745853
  47.7942311  48.2268566  12.6915161  48.3207745  48.3603538  12.1265377
  55.6773717  44.2937926  10.3891765  55.3627158  44.9841404  10.8212187
  55.1600659  44.2382708   9.6877266  55.5538187  44.3872814  10.3488714
  60.4734204  59.8688731  11.8762220  59.6431907  60.0799375  12.0395636
  60.4243456  59.0425786  11.6004503  60.3440939  59.7778337  11.8599585
  42.4629787  63.9060405  12.1060315  41.9797365  64.6310894  12.0819898
  43.2753105  64.2036535  12.2170473  42.5120535  64.0562758  12.1187594
  48.5343941  62.6992585  14.7110129  48.0170883  62.3400000  14.1071437
  49.2318332  62.1754760  14.7216195  48.5609522  62.5690273  14.6240388
  52.1907533  63.1487399  20.6726302  52.2790879  62.9613540  21.5204513
  52.6197246  62.5024829  20.2731149  52.2669635  63.0250407  20.7398054
  49.7577993  62.4318559  19.6543965  49.1948828  62.0191169  20.1783626
  50.5199016  62.3571465  20.0737108  49.7872442  62.3595960  19.7936965
  46.6753263  46.3664691   7.6265102  47.4299231  46.7343008   7.3882152
  46.4980798  46.7404246   8.3944281  46.7607742  46.4762879   7.7049990
  45.3173984  64.4216581  12.2580595  46.0194564  63.9068570  12.3153351
  45.2371467  64.7490732  13.0627470  45.4097745  64.3930807  12.3853387
  59.9688162  52.5159132  15.6712641  59.1316583  52.5861319  15.9060236
  59.9376393  52.5183627  14.7986944  59.8406444  52.5269359  15.5772189
  45.0310328  48.7735010   4.3243215  44.8485901  48.9906891   3.4984208
  45.8935941  48.8874023   4.3801829  45.1314917  48.8224908   4.2097702
  44.6424760  60.6122933  11.7666203  45.4813659  60.8445865  11.8139964
  44.6736529  59.7427244  11.6973238  44.7706477  60.5179879  11.7630847
  45.2677463  61.0323808  16.0679508  45.8075688  60.8894939  16.7382881
  44.5847409  61.4320558  16.4363535  45.2469617  61.0703479  16.2213930
  50.7110047  45.7761421   7.3592239  51.4396207  45.5977376   6.9130395
  50.8004940  46.6179501   7.5699417  50.8316709  45.8745299   7.3245756
  54.6918348  56.7114808  11.2624533  55.4475863  57.1446323  11.3013441
  54.7980672  56.0619578  11.8359169  54.8188518  56.6792292  11.3522558
  57.7298519  60.5388086  12.0126936  57.2933751  60.5424828  12.7685907
  57.3961434  61.2193585  11.5806513  57.6161139  60.6400541  12.0607768
  40.6714608  57.2524098  16.2213930  40.4053023  56.4363215  16.3804920
  40.6853172  57.2977254  15.3509445  40.6339330  57.1381003  16.1167412
  57.6496002  47.5801913  14.2556364  58.2921910  47.6500018  14.8418279
  57.9019022  46.9131136  13.7535906  57.7818134  47.4928262  14.2683643
  44.5772355  52.0509183   2.8365688  43.8630532  51.7647362   3.2488120
  45.0616324  52.3905809   3.4772075  44.5431718  52.0590833   2.9921323
  52.4597986  64.4906520  16.9836542  51.6613231  64.2506021  17.2410410
  52.9083997  64.5420913  17.7303589  52.4072597  64.4628912  17.1321466
  60.8642865  57.2569005  10.9046573  61.5259299  56.6959674  10.8042481
  60.2234277  56.7621036  11.2299264  60.8671733  57.1005415  10.9378913
  41.0808022  58.0382878  13.5025674  40.8983595  58.0129764  12.6497966
  41.8157690  58.5081816  13.5414583  41.1622085  58.1044240  13.3823593
  57.1507696  58.2734388  10.6458562  57.3863285  58.4179587   9.8185412
  57.2997259  59.0376796  11.0390075  57.2073499  58.4073442  10.5822166
  54.1930042  54.9600957   9.1651746  54.2876896  55.6990251   9.6191371
  53.5688885  54.5318432   9.5986310  54.1139072  55.0062277   9.2959893
  52.4482515  58.1387169  19.8142026  53.0221377  57.5014413  19.9690590
  52.3697319  58.1391252  18.9451684  52.5215750  58.0452281  19.7088437
  41.0478932  54.9176379  13.6524741  41.6252434  54.7812829  14.2916986
  40.3492994  54.4612163  13.9070325  41.0299953  54.8298645  13.7847030
  47.8046234  56.5710434  11.8663224  47.5465478  55.7382169  11.8394523
  47.8594717  56.7968047  11.0255724  47.7746012  56.4808206  11.7383361
  52.8847284  48.6738885  11.9667317  52.1803611  48.1848070  12.1251236
  52.9332259  48.6861359  11.0955761  52.7877336  48.6028533  11.8606656
  46.7780946  54.1248197  12.3528119  46.2030537  54.2840365  12.9892080
  46.4016622  53.4883606  11.8896569  46.6383759  54.0546010  12.3782677
  50.4454235  52.5971546  17.2120497  50.0568668  52.1725764  16.5572688
  49.7808933  52.8453696  17.7197524  50.2901163  52.5710267  17.1908365
  60.0877504  52.3546551   9.9868327  59.8314069  51.5426492   9.7966210
  60.9306818  52.3624118   9.7598514  60.1743529  52.2358548   9.9253144
  36.5237765  53.7688271  10.3672559  36.6098017  53.3920140  11.1486089
  37.1513563  53.3948717   9.8892518  36.6294316  53.6573754  10.4118037
  54.2680596  46.2946175  14.7244481  54.6491108  45.6124346  15.1112355
  53.4643881  46.0055777  14.5420146  54.2057058  46.1513223  14.7548537
  57.7702663  59.5096147  19.8226880  57.5341301  58.6784212  19.7038940
  58.4145892  59.4581754  20.4081724  57.8297334  59.3793835  19.8912773
  47.4201081  60.2991668  10.5369616  48.0575028  60.0603416  11.0821409
  47.8456153  60.5028827   9.8022777  47.5777248  60.2942678  10.5086773
  42.1113724  62.5380005  14.4203920  42.1517869  62.8094856  13.5923699
  42.6708248  63.0621913  14.8361708  42.1997070  62.6555760  14.3595808
  48.0603896  55.5193958   4.8744505  48.4449049  55.3001665   5.6261051
  47.8115517  56.3456903   5.0045582  48.0805969  55.6092104   5.0045582
  58.7939084  59.2940595  15.8855174  58.4884901  60.0268652  16.2468490
  58.0745300  58.8878525  15.6047960  58.6426426  59.3422328  15.8968311
  49.8022553  60.7764091  12.2163402  49.8761562  60.6139263  13.0705252
  50.6192060  60.9654280  11.9723884  49.9338912  60.7800833  12.3061428
  64.4940876  55.9333596  15.2123518  64.4265376  55.9529555  14.3426105
  64.4796538  56.7763923  15.4379189  64.4819632  56.0607331  15.1175995
  43.5628310  61.1221953   9.2457846  42.7366428  61.3683691   9.1192125
  43.6240301  61.0434034  10.1119904  43.4502477  61.1466902   9.3546790
  45.7804334  47.1890894  10.2053286  44.9126759  47.2613494  10.2710895
  46.0679538  47.9912973  10.3941261  45.6944082  47.3185042  10.2428053
  54.9037222  47.3368754  18.5364608  55.6490815  47.1478564  18.1228033
  54.4874527  47.8626992  17.9778464  54.9522197  47.3870899  18.3929181
  62.2799493  54.7077982  13.4870113  62.8307415  54.0746051  13.7267205
  62.2643609  55.2393375  14.1785617  62.3584690  54.6926931  13.6248971
  48.9321884  58.5416580  18.0330006  48.4333578  59.2532347  18.1114895
  49.7422108  58.8617246  17.9948169  48.9777991  58.6943428  18.0386575
  46.2833055  65.7166216  10.0137025  46.0633350  65.4263571  10.8063692
  46.0627577  65.0581171   9.4854938  46.2180649  65.5765925  10.0525934
  45.1950002  57.8039533  12.2792727  44.9063250  57.1777004  12.8138454
  46.0633350  57.7459820  12.3457408  45.2810254  57.7027077  12.3683682
  55.9827900  52.9474316  12.5974709  55.6392665  52.2264651  12.9481959
  56.0820942  52.7388167  11.7553067  55.9469942  52.8098519  12.5246389
  45.3982275  59.4434784   8.2035092  46.1528243  59.8247823   8.4170555
  44.8052888  59.8945927   8.6581789  45.4218989  59.5663611   8.3017971
  46.7180502  60.6143345  13.5775208  46.1961255  60.7543637  14.2627072
  47.1054522  59.8554009  13.7677325  46.6984203  60.5228869  13.7076284
  43.7071686  50.6649154   7.6470162  43.4196482  50.2950424   6.9102110
  44.3942154  51.1344009   7.3853867  43.7660583  50.6796123   7.4985238
  48.1446827  57.6447364   8.9756699  47.9489610  58.2522099   8.3817002
  48.3681173  56.9515308   8.4948373  48.1481468  57.6324890   8.8172779
  46.5425357  54.5302102   9.0937567  47.2648009  54.6943260   8.6341373
  46.0633350  55.2511767   8.9876907  46.5789088  54.6600332   9.0103181
  54.5018865  50.8665901  14.4734252  53.6629966  50.8927180  14.2372515
  54.5723232  51.5136636  15.0539599  54.3887258  50.9662027  14.5243369
  52.9488143  47.7651278   9.2061868  53.6514496  47.5659026   8.7281826
  52.6832332  46.9927220   9.5130711  53.0134776  47.6214244   9.1807309
  58.3776389  56.0733888  11.7595494  58.2910363  56.2289314  12.6130273
  57.9226869  56.7171963  11.3854899  58.2979645  56.1909643  11.8302600
  41.2799880  51.4430366   8.4955443  41.3816017  52.2456528   8.8236419
  42.0755767  51.2417702   8.1978524  41.4127786  51.5316265   8.4990799
  42.0963612  51.5577544  16.2376565  41.9549104  50.7061485  16.3621073
  42.3804176  51.6006205  15.4138771  42.1171459  51.4377294  16.1344189
  52.2502205  53.3944635  10.3821053  52.0036919  53.3140386  11.2157842
  52.5787328  52.6098103  10.1883581  52.2623448  53.2670900  10.4768576
  56.1450254  60.1027994  14.1707834  56.0064613  60.8009040  14.6756577
  55.3650252  59.9476650  13.8144016  56.0093481  60.1828161  14.1934109
  54.4828339  56.4024369  20.4230216  54.4776377  55.5304186  20.4272643
  55.1889333  56.6012539  19.9499672  54.5873343  56.3028244  20.3537252
  50.3819149  55.3291522  17.5769168  49.6342464  55.5222536  17.1717446
  50.5360675  54.5036741  17.3393289  50.2941577  55.2356633  17.4814574
  47.2826987  64.3204125  16.6605063  47.4316551  63.7607041  16.0078468
  48.0626989  64.3996127  17.0437582  47.4201081  64.2489691  16.6202012
  49.8080288  64.4918768  17.9389554  49.7323959  63.8227579  18.4940342
  49.7370147  65.1936556  18.4530220  49.7860895  64.4963675  18.0966402
  50.6220927  49.2242072  18.4664572  51.0793541  49.9566047  18.5937364
  50.6977255  48.8008538  19.2251827  50.7011896  49.2699310  18.5965648
  55.0948252  42.4031948  12.3358415  55.2131821  42.8608411  11.6025717
  54.9210428  41.5977209  12.0494632  55.0867423  42.3525720  12.1859348
  48.5003304  51.2144176  15.3106396  47.7099379  51.0335636  15.6323731
  48.8963927  50.4371129  15.2936690  48.4420181  51.0731637  15.3558944
  53.8846991  58.8486606  13.0365842  53.2091993  58.6171839  13.5379229
  53.8939367  58.2407789  12.4107947  53.7865495  58.7245532  13.0181994
  51.0141135  53.6904435  19.7929895  50.9500276  54.5514392  19.6650031
  51.1538322  53.3736429  18.9925446  51.0256605  53.7704602  19.6558107
  49.6960229  56.3836575  13.9346097  49.2722478  56.5841074  13.1985116
  49.5205084  55.5365423  14.0470397  49.6071109  56.2885356  13.8419788
  49.1971922  67.8987088  16.3967555  49.6867852  67.1997877  16.2143219
  48.6256154  67.6010958  16.9843612  49.1856452  67.7513311  16.4568596
  44.9842674  56.8788626   9.3674070  45.1407293  56.8135429  10.2230062
  45.3243267  57.6537179   9.1552750  45.0575908  56.9837824   9.4628664
  51.5221818  56.2546510   8.2367433  52.0637364  55.7516891   8.7006054
  51.8368377  56.2011704   7.4256918  51.6486215  56.1725931   8.1851245
  55.3938926  60.4649157  25.3494345  56.2073791  60.1934306  25.5099478
  55.2333892  60.1656697  24.5454541  55.4908874  60.3804083  25.2539751
  52.6711088  51.1482814  18.2889734  52.8853057  50.5093728  17.7353088
  52.0544987  51.5928638  17.8597595  52.6116417  51.1192958  18.1440165
  41.5576935  54.0623577   9.6834837  41.9375900  54.4808122   9.0195104
  40.9832300  54.6437032   9.9903680  41.5288260  54.2101435   9.6311578
  54.8350176  52.7571879  19.2273041  54.0226857  52.4497770  19.3086213
  55.2940110  52.2770880  19.7915753  54.7830560  52.6408372  19.3227635
  52.0625816  44.2582750  13.2777076  51.1919374  44.2321471  13.2310386
  52.3166158  44.0859942  12.4602922  51.9719376  44.2292894  13.1497213
  49.0874957  46.2688978  14.7350547  48.5713445  45.5769170  14.8602126
  48.5268886  46.9359755  14.6813146  48.9281470  46.2652236  14.7456613
  51.1567190  46.8081938  16.5643399  50.7698943  46.8330970  17.3456929
  50.6700127  46.2423617  16.1117916  51.0279699  46.7277689  16.6131303
  55.4060170  61.5255447  20.6217186  56.0439890  61.0315643  20.2879642
  54.7634261  61.4532848  20.0369413  55.4054396  61.4414456  20.4859541
  57.1317170  53.3744593  15.1883102  56.7044778  53.2870942  14.4331201
  56.4943223  53.4822369  15.7737946  56.9746777  53.3777253  15.1628543
  50.8224332  43.6948924  18.8553659  51.4517450  44.2309224  18.5774730
  50.9910195  43.6026283  19.7067225  50.9402126  43.7610286  18.9402187
  55.4614426  62.2175256  17.2622543  56.2506804  61.8664320  17.3824624
  55.6358024  63.0311644  16.9999177  55.6034708  62.2861113  17.2410411
  45.2007737  55.6283981  14.3150332  44.3595743  55.5287856  14.5229225
  45.4097745  56.3979462  14.6664652  45.1072429  55.7276025  14.3977646
  42.6783304  53.2503518  12.1435082  42.2840001  53.3246530  11.3685192
  42.1223420  53.6361465  12.6943444  42.5386116  53.3185293  12.1102742
  54.3148250  46.2284812  11.8238961  54.5197844  46.1607120  12.6695958
  53.9874674  47.0343634  11.7560139  54.2963498  46.3370753  11.9398616
  49.0124401  53.5565381  13.5647929  48.7087539  53.0021369  14.1658337
  48.3103822  53.7357591  13.0775963  48.8640611  53.5010163  13.5817635
  48.0690499  50.8665900   8.1292631  48.3450233  50.1484813   7.7170198
  48.6689168  51.4650820   7.9213737  48.1983763  50.8486271   8.0373392
  47.0742753  60.7715101  18.2720027  46.9663107  60.7817163  19.1382085
  47.2838534  61.5969882  18.0824981  47.0892864  60.8956176  18.3724118
  57.5681938  46.7816577  11.3041727  56.9556252  47.2686979  11.6895458
  57.6646113  46.1060067  11.8479378  57.4919836  46.7534885  11.4420585
  51.5701019  48.5379418   6.4039226  52.0244766  48.7089978   7.1287070
  52.0441065  47.9247528   6.0037002  51.7069339  48.4730303   6.4512988
  45.0916545  58.0227744  15.7341964  44.5004478  58.6637242  15.7044980
  45.8537568  58.4465361  15.7073264  45.1164805  58.1803582  15.7257112
  45.4877167  49.1829741  16.4009982  45.9478649  49.2568671  17.1385106
  45.5333274  49.9810995  16.0509803  45.5627723  49.3123889  16.4582739
  61.2106966  57.8533513  16.7319243  61.2690090  58.3020162  17.4779219
  60.5773434  58.2632326  16.2949323  61.1258261  57.9807248  16.7771791
  54.8506061  63.4737055  13.1673989  54.6525749  63.9627870  12.4730200
  54.2293772  63.6778297  13.7458122  54.7293625  63.5753594  13.1497212
  48.9114039  55.2421952   7.5084233  49.6556084  55.6296228   7.7467183
  49.0574735  54.3979377   7.6724721  49.0424624  55.1752425   7.5678203
  50.8293615  47.0372211  12.5416095  49.9829660  47.2095019  12.4157444
  50.8264747  46.2321555  12.8781923  50.7040764  46.9433240  12.5727222
  51.8991915  50.8147425  13.4078153  51.4251869  50.2889187  13.9183463
  52.2710051  50.2676898  12.8393014  51.8841804  50.6563422  13.3993300
  58.1628646  55.8749801  14.8184933  57.9226868  55.0356216  14.8227359
  58.6420653  55.9549968  15.5425707  58.1980829  55.7631201  14.9259735
  53.8275415  51.7083980   6.4703906  53.2998433  51.7912724   5.7809615
  54.2871123  52.4501851   6.4668551  53.8177265  51.8304642   6.3678601
  60.1633833  52.6551258  12.7714192  59.9243603  52.6147092  11.9334977
  60.3267734  53.5022410  12.8979913  60.1524136  52.7743343  12.6667674
  56.7679863  57.0401208  18.7019237  57.4914062  56.5873734  18.5230257
  56.5029825  57.3205873  17.9191565  56.8361136  57.0152176  18.5597953
  45.6366731  51.6361381  15.4372116  45.0119801  51.6479773  14.8298069
  45.3012326  52.1121556  16.0863357  45.4952223  51.7079898  15.4428685
  45.8208480  49.9786500   1.4944801  45.4721284  50.6306225   1.9576351
  45.3404926  49.9643613   0.7668673  45.6978724  50.0729553   1.4555893
  42.3492407  59.6961841  16.8775881  41.8192331  59.0054280  16.9270856
  42.6217500  59.6872027  16.0488589  42.3117129  59.5928973  16.7623297
  52.5498652  57.1385086  16.8514252  51.9355645  56.5943136  17.1462888
  53.0665937  56.6249322  16.3720069  52.5354315  56.9821495  16.8238481
  51.7894949  58.2089356  14.5858551  51.3622557  57.5839074  14.1523986
  51.7819894  57.9264278  15.4117558  51.7254091  58.0742136  14.6438379
  44.9057476  53.2454529  17.6546985  45.0650963  52.4897853  18.0598707
  44.7250370  53.7945468  18.3087723  44.9022835  53.2148343  17.8109691
  52.8477779  45.4115764  18.2097774  52.3518341  45.6079439  17.5189341
  53.6046841  45.8108433  18.0386576  52.8864604  45.4993498  18.0817911
  50.1180659  49.0858110  14.8001085  50.1423146  48.5518223  14.1113865
  50.3692133  48.5775419  15.4626676  50.1590578  48.9319014  14.7965730
  37.6288249  56.3689605  14.2344229  37.5231698  56.3236450  13.3696313
  36.8788469  56.7143386  14.5158514  37.5023852  56.4130514  14.1481559
  46.3981981  47.8128929  14.1806829  46.4380353  48.3138135  14.8941537
  45.5731646  47.9039322  13.9112752  46.2821507  47.9010745  14.2457368
  47.8196345  54.3289438  16.4780728  46.9888274  54.4963256  16.2715976
  47.7647862  53.9525389  17.2629614  47.6885760  54.2979170  16.5629256
  46.1932388  52.6045030   7.0070846  46.3335350  53.1017494   7.7099487
  46.6914921  51.9031324   7.1485060  46.2873469  52.5747009   7.1322425
  46.2232611  53.4712141   4.3363423  46.8577690  54.0672566   4.2712885
  46.3058222  53.1715599   5.1509293  46.3289162  53.5153049   4.4466509
  59.2015177  56.0027618  17.2049787  59.7933017  56.6424869  17.2367985
  59.6374171  55.3050655  17.4941854  59.3533608  55.9945969  17.2530620
  47.8011594  49.4026116   4.3108865  48.1227435  48.9229199   3.6568127
  48.0638537  50.2125762   4.1199676  47.8877619  49.4516014   4.1864357
  51.0308566  60.4244991  17.8307681  50.5233658  60.9780838  18.2748311
  50.7335213  60.4853281  17.0126455  50.9113451  60.5151302  17.7756138
  53.1970749  48.7898310  16.6732344  53.6225820  48.3370837  16.0615870
  52.5827742  48.2358381  16.9497131  53.1699394  48.6412287  16.6237369
  42.7285599  55.6679982   7.6052969  43.2377828  56.2644489   7.9864274
  43.2019871  55.4005955   6.9229388  42.8728974  55.7165797   7.5607492
  51.6364972  45.2613410  10.0822921  50.9933290  45.1111057  10.6508059
  51.2964379  45.0155755   9.3172026  51.4910049  45.2025533  10.0525936
  56.2264318  53.2172837   9.5052930  55.5555508  53.7602539   9.3765995
  56.9204068  53.6867692   9.2634624  56.2293186  53.3671108   9.4508457
  50.2751052  65.3569549  14.7364688  50.0516706  64.5988378  15.1048714
  49.7860895  65.3867570  14.0145128  50.1694501  65.2491774  14.6841429
  56.3892445  49.6728721  12.4143303  56.7420056  49.2458444  13.0889101
  55.5307247  49.5879564  12.5444379  56.3141890  49.5973461  12.5338313
  45.0876130  52.3036240  10.4726149  44.3688120  52.7200373  10.7399013
  45.4588493  52.8690479   9.9217787  45.0368062  52.4485522  10.4308956
  54.3875711  52.9364089  16.3628145  54.3673639  52.7547384  17.2162924
  54.4354912  53.8076108  16.3387729  54.3910352  53.0380627  16.4851440
  52.3322041  59.5251281  22.2876622  52.2917896  58.8800958  21.7021777
  53.1445359  59.4687899  22.6002034  52.4465195  59.4210248  22.2473571
  48.9229509  65.5770007  12.1901772  48.5089907  64.9144137  11.8005614
  49.6076883  65.7247866  11.6697467  48.9627880  65.5010665  12.0558270
  52.2894803  64.7360092  12.9425389  51.8911086  64.8462363  12.1746209
  51.6746022  64.9442159  13.5251949  52.1393692  64.7833660  12.9156688
  50.8622705  51.3434240   5.8099529  50.2687544  51.6651237   5.2584096
  50.8997983  50.4975336   5.6020635  50.7797094  51.2658568   5.6982300
  57.8216506  44.7947132  13.3427615  57.3147370  44.0876272  13.2748793
  58.6183939  44.4640321  13.4728692  57.8643745  44.6420284  13.3526610
  53.7380521  51.3013745   9.2401279  53.5094214  51.3246446   8.3979637
  53.9978598  50.4771212   9.3596290  53.7426709  51.1829825   9.1326477
  46.7925284  49.8390291  10.5355475  47.2682650  50.2007371   9.9005656
  46.2913884  50.4946759  10.8155617  46.7890643  49.9884480  10.4832216
  51.8968820  51.0772462  21.2828635  52.4540250  50.8486272  20.6507100
  51.5729885  51.8378128  21.0063847  51.9315230  51.1556299  21.1485132
  48.8351937  51.9831491   3.9028859  49.2150902  52.0011120   3.1179973
  48.0944533  52.4285480   3.7819706  48.7820775  52.0513265   3.7692427
  56.4637228  50.2913682   9.4904437  56.4631454  50.1362339  10.3488714
  56.2593408  51.1376669   9.4345823  56.4337005  50.3934303   9.6092377
  38.5254499  53.7153466  13.9063254  38.3476260  53.2630075  14.6318169
  38.2373521  54.5179628  14.0901731  38.4567452  53.7676024  14.0406757
  54.1878080  54.9711184  13.1440644  54.6831745  54.2534179  13.1044664
  53.3777855  54.6681981  13.0295131  54.1421973  54.8208830  13.1214370
  40.2626968  56.2481190  11.0185013  39.3972488  56.2366881  10.9067784
  40.3625784  56.0611413  11.8656152  40.1501135  56.2187251  11.1273957
  56.2529899  57.7214871  15.8317773  56.6784970  57.1989293  15.2788198
  55.8886818  58.3195709  15.3106396  56.2616501  57.7325098  15.6726783
  45.8883978  66.0179089  14.5915118  46.2030537  66.8315477  14.5992900
  46.2977392  65.6329308  15.2597278  45.9952076  66.0807791  14.6919210
  52.8408498  61.4349136  12.1618930  53.3119676  62.1489398  12.3308916
  53.1768676  60.8347886  12.6978800  52.9603613  61.4520600  12.2651306
  54.9285483  63.0450449  24.3411002  55.0382448  62.2559010  24.6967750
  55.2576379  62.9556385  23.5385341  54.9937888  62.9156302  24.2753393
  53.4782444  61.2267070  18.9246623  52.9303390  60.6024953  18.6566688
  53.9395473  61.4161342  18.2090702  53.4649654  61.1626120  18.7797054
  52.8310348  43.1306932  15.7158118  52.0256312  43.0204662  16.0325957
  52.7017084  43.2319388  14.8587984  52.6930481  43.1290602  15.6366159
  56.2876309  49.2952424  16.3097815  55.7039297  49.7961631  15.8975383
  56.6080603  48.7881980  15.6762139  56.2489484  49.2944259  16.1556323
  48.8271108  48.2093019   6.5856490  49.6486802  48.3791332   6.3438185
  48.3640759  48.3640280   5.8622788  48.8802270  48.2574752   6.4428134
  47.4166440  46.2035781  17.3654919  47.9610853  45.8626908  17.9559261
  47.4703375  47.0621243  17.5076204  47.5055559  46.2791041  17.4736792
  43.2296998  59.9652197  14.2393727  43.8341856  59.9248031  13.6107548
  43.0224311  60.8123349  14.2697783  43.2885896  60.0840200  14.1509843
  53.0440771  62.2318142  15.4555964  53.8639144  62.0881108  15.7172259
  52.7634848  62.8564341  15.9972402  53.1237514  62.3028494  15.5743904
  38.4648281  58.9486815  14.1092650  38.3672559  58.1383086  14.4182707
  39.2477150  58.9278608  13.7238918  38.5664417  58.8253905  14.0979513
  53.9004266  70.2598054  15.9731985  53.7762963  70.8460500  16.6081804
  54.5522551  69.7658250  16.2744260  53.9777916  70.2736858  16.1117915
  57.3385474  70.1777475  21.3861010  57.5105978  70.0683370  22.2346291
  57.8754832  70.8231881  21.1492202  57.4430478  70.2569477  21.4766107
  56.3945798  66.3087785  18.8680938  55.7017595  65.8384764  19.1141669
  57.0106125  66.0826089  19.4422645  56.3830328  66.2054917  18.9890090
  55.1186357  70.2753189  20.0107783  55.8426329  70.2606219  20.4972677
  55.2202493  70.9848544  19.5129751  55.2404566  70.3777892  20.0086570
  62.4931306  73.7552273  24.8756730  61.7004287  74.0695785  25.0609349
  62.6080233  73.9703742  24.0377514  62.3926717  73.8336110  24.7795065
  61.4186818  68.1156854  17.2120497  61.0301251  67.6911072  16.5572688
  60.7541517  68.3639004  17.7197524  61.2633746  68.0895575  17.1908365
  59.2005020  64.3185681  24.5907090  58.8858461  65.0885244  24.3276652
  58.8794953  63.7555937  24.0059317  59.1063939  64.3495950  24.4648440
  65.8769806  62.8554062  18.5364608  66.6223398  62.6663872  18.1228033
  65.4607111  63.3812300  17.9778464  65.9254780  62.9056207  18.3929181
  58.8321526  66.9182932  23.3292305  58.0221301  67.2240712  23.2182147
  59.3096212  67.6388514  23.4444889  58.7825005  67.0697533  23.3299376
  55.1665558  72.4545482  18.1991707  55.6786655  72.7329736  17.5500467
  54.8801900  73.1934776  18.5654520  55.2000421  72.6047836  18.1581585
  58.6849283  64.5471871  18.2592748  58.4932480  64.5627005  19.1092172
  59.5347879  64.7435545  18.2359403  58.7825005  64.5786222  18.3816043
  53.0696196  67.0762852  16.2376565  52.9281688  66.2246793  16.3621073
  53.3536759  67.1191513  15.4138771  53.0904042  66.9562602  16.1344189
  59.1831816  71.6486661  19.7944036  59.3275191  72.2287869  19.1587146
  59.5307464  72.0262958  20.4993891  59.2559277  71.7907365  19.8043031
  61.5953510  64.7427380  18.4664572  62.0526124  65.4751355  18.5937364
  61.6709839  64.3193846  19.2251827  61.6744480  64.7884618  18.5965648
  53.8386501  64.9893200  19.5554015  53.3028691  64.3773558  19.8714783
  53.9004266  65.5641336  20.2087682  53.7682134  64.9840128  19.6989442
  59.4735888  66.7329484  15.3106396  58.6831963  66.5520944  15.6323731
  59.8696511  65.9556437  15.2936690  59.4152764  66.5916945  15.3558944
  61.9873718  69.2089743  19.7929895  61.9232860  70.0699700  19.6650031
  62.1270906  68.8921737  18.9925446  61.9989188  69.2889910  19.6558107
  63.6443671  66.6668122  18.2889734  63.8585641  66.0279036  17.7353088
  63.0277570  67.1113946  17.8597595  63.5849000  66.6378266  18.1440165
  65.8082759  68.2757187  19.2273041  64.9959441  67.9683078  19.3086213
  66.2672694  67.7956188  19.7915753  65.7563144  68.1593680  19.3227635
  62.9036267  69.6817259  24.0101743  63.3735898  70.3059375  24.3969617
  62.9498147  69.0134234  24.5694958  62.9804143  69.6751939  24.1501814
  60.0607540  61.7874286  14.7350547  59.5446029  61.0954478  14.8602126
  59.5001469  62.4545063  14.6813146  59.9014054  61.7837544  14.7456613
  62.1299774  62.3267246  16.5643399  61.7431527  62.3516278  17.3456929
  61.6432711  61.7608925  16.1117916  62.0012283  62.2462997  16.6131303
  61.7956916  59.2134232  18.8553659  62.4250033  59.7494532  18.5774730
  61.9642778  59.1211591  19.7067225  61.9134710  59.2795594  18.9402187
  61.5970830  64.0005427  21.1280071  62.4244260  63.7290575  21.1838685
  61.6178676  64.7966268  21.4843889  61.7223680  64.0785181  21.1895254
  56.4609751  64.7015049  16.4009982  56.9211232  64.7753979  17.1385106
  56.5065858  65.4996303  16.0509803  56.5360306  64.8309196  16.4582739
  58.1093101  65.3681744  20.9682009  57.7178666  64.7215091  21.4037787
  58.2778963  65.9593180  21.5876265  58.0764011  65.3596012  21.1244715
  53.2497529  68.3304240  18.7761698  54.1123142  68.2299949  18.6899028
  52.9189312  67.7498949  18.2147270  53.3282725  68.2295867  18.6807104
  56.6099315  67.1546689  15.4372116  55.9852385  67.1665081  14.8298069
  56.2744910  67.6306864  16.0863357  56.4684806  67.2265206  15.4428685
  55.8790060  68.7639837  17.6546985  56.0383547  68.0083161  18.0598707
  55.6982954  69.3130776  18.3087723  55.8755419  68.7333651  17.8109691
  63.8210363  60.9301072  18.2097774  63.3250924  61.1264747  17.5189341
  64.5779425  61.3293741  18.0386576  63.8597188  61.0178806  18.0817911
  57.3714565  63.3314237  14.1806829  57.4112936  63.8323443  14.8941537
  56.5464230  63.4224630  13.9112752  57.2554091  63.4196053  14.2457368
  59.5544178  72.8974977  22.2827124  58.7039808  73.0346691  22.4184769
  59.7172305  72.1638755  22.7274826  59.4528041  72.8089078  22.3682723
  56.6012711  63.3383639  22.1137139  57.2265415  62.7945772  22.3866571
  56.1463191  62.8578557  21.5444929  56.6260972  63.1873121  22.0698733
  64.1703332  64.3083618  16.6732344  64.5958404  63.8556145  16.0615870
  63.5560325  63.7543689  16.9497131  64.1431978  64.1597595  16.6237369
  63.3054625  75.0436589  22.2876622  63.2650480  74.3986266  21.7021777
  64.1177943  74.9873207  22.6002034  63.4197778  74.9395556  22.2473571
  58.9932333  68.6733526  18.8426379  58.4811237  68.0654709  19.2011411
  58.8211830  69.3890118  19.3100355  58.8921970  68.6896825  18.9642603
  53.8398048  67.1171101  21.4928741  53.6700638  67.7772476  20.9476948
  53.3963998  67.3277662  22.2141230  53.7497382  67.2457083  21.5190370
  62.8701404  66.5957770  21.2828635  63.4272834  66.3671580  20.6507100
  62.5462469  67.3563436  21.0063847  62.9047814  66.6741607  21.1485132
  50.7400113  70.0217967  16.7517231  50.1926832  69.3518612  16.8698099
  51.5292491  69.6547814  16.8160698  50.7752296  69.8682953  16.7785931
  60.5884521  69.6825424  22.2480642  61.3395848  69.9977100  22.5620196
  60.7807098  69.4804595  21.4214564  60.7275935  69.6992805  22.1724038
  49.4987082  69.2338774  13.9063254  49.3208843  68.7815383  14.6318169
  49.2106104  70.0364936  14.0901731  49.4300035  69.2861332  14.0406757
  60.7310577  61.7261914  19.1177025  60.8638482  60.9292908  19.4458001
  61.1155729  62.2528317  19.6975301  60.8066905  61.6861831  19.2520528
  63.8042932  58.6492240  15.7158118  62.9988895  58.5389970  16.0325957
  63.6749667  58.7504696  14.8587984  63.6663065  58.6475910  15.6366159
  58.3899023  61.7221089  17.3654919  58.9343436  61.3812216  17.9559261
  58.4435959  62.5806551  17.5076204  58.4788143  61.7976349  17.4736792
  43.7733479  21.1452686   9.7152274  44.4800246  20.6504717   9.8439208
  43.9621415  21.5861768   8.9854932  43.9061385  21.1371036   9.6261319
  36.2666398  29.3424860  -0.4593322  36.9103854  29.7838024  -0.0697164
  36.5922654  28.5378286  -0.5463063  36.4098227  29.2890054  -0.4147845
  40.9125774  24.5680223   7.6066349  41.0009119  24.3806363   8.4544560
  41.3415486  23.9217652   7.2071196  40.9887876  24.4443230   7.6738101
  38.4796233  23.8511383   6.5884011  37.9167068  23.4383992   7.1123673
  39.2417257  23.7764288   7.0077155  38.5090682  23.7788783   6.7277012
  35.0871131  16.0784991   8.3201057  35.2591635  15.9690885   9.1686338
  35.6240489  16.7239396   8.0832249  35.1916135  16.1576992   8.4106153
  41.0245833  23.9989242  10.2710133  41.8086249  24.1120089  10.6365875
  40.8242427  23.1730379  10.4668819  41.1111858  23.8935961  10.3544519
  41.1816226  25.9099344   3.9176588  40.3831472  25.6698844   4.1750457
  41.6302238  25.9613737   4.6643636  41.1290837  25.8821735   4.0661513
  40.2416963  19.6559789  11.8096777  39.4489944  19.9703300  11.9949396
  40.3565890  19.8711257  10.9717561  40.1412374  19.7343625  11.7135111
  41.1700756  19.5579992   6.7482073  41.7439617  18.9207237   6.9030637
  41.0915560  19.5584075   5.8791731  41.2433991  19.4645104   6.6428484
  46.4920904  20.9288970   6.7566926  46.2559541  20.0977035   6.6378987
  47.1364133  20.8774577   7.3421771  46.5515574  20.7986658   6.8252820
  36.9490677  10.2193196  11.5247137  36.6344118  10.9892759  11.2616699
  36.6280610   9.6563452  10.9399363  36.8549596  10.2503465  11.3988486
  47.5157324  20.7133419   2.8195221  47.2103141  21.4461476   3.1808537
  46.7963540  20.3071348   2.5388007  47.3644667  20.7615152   2.8308358
  53.2159116  17.3526419   2.1463565  53.1483617  17.3722379   1.2766152
  53.2014779  18.1956747   2.3719236  53.2037873  17.4800154   2.0516042
  37.6540125  19.9609403   4.9670053  37.1551818  20.6725171   5.0454942
  38.4640349  20.2810069   4.9288215  37.6996231  20.1136251   4.9726622
  36.5807183  12.8190447  10.2632351  35.7706958  13.1248227  10.1522194
  37.0581869  13.5396030  10.3784935  36.5310661  12.9705048  10.2639422
  44.8668494  21.5220817   1.1047881  44.7282853  22.2201863   1.6096624
  44.0868492  21.3669474   0.7484063  44.7311721  21.6020984   1.1274155
  36.9317473  17.5494176   6.7284083  37.0760848  18.1295385   6.0927193
  37.2793121  17.9270473   7.4333938  37.0044934  17.6914881   6.7383078
  36.0045227  25.7396948   3.5945110  36.1534791  25.1799864   2.9418514
  36.7845230  25.8188950   3.9777629  36.1419321  25.6682514   3.5542059
  38.5298528  25.9111591   4.8729601  38.4542199  25.2420402   5.4280389
  38.4588387  26.6129379   5.3870267  38.5079135  25.9156499   5.0306449
  39.7359375  15.1097259   6.7269941  39.6718516  15.9707215   6.5990078
  39.8756563  14.7929252   5.9265493  39.7474845  15.1897425   6.5898154
  37.9190162  29.3179911   3.3307602  38.4086093  28.6190700   3.1483266
  37.3474395  29.0203781   3.9183659  37.9074692  29.1706135   3.3908642
  44.1157166  21.8841980  12.2834392  44.9292031  21.6127129  12.4439525
  43.9552132  21.5849520  11.4794588  44.2127114  21.7996906  12.1879798
  43.5568416  14.1764703   6.1613088  42.7445098  13.8690593   6.2426260
  44.0158351  13.6963703   6.7255800  43.5048801  14.0601195   6.2567682
  40.6521923  15.5824774  10.9441790  41.1221555  16.2066891  11.3309664
  40.6983804  14.9141750  11.5035005  40.7289799  15.5759454  11.0841861
  44.1278410  22.9448271   7.5557233  44.7658131  22.4508466   7.2219689
  43.4852502  22.8725671   6.9709460  44.1272637  22.8607279   7.4199588
  35.7960993  22.1907925   5.2060074  35.6881348  22.2009987   6.0722132
  36.0056774  23.0162705   5.0165027  35.8111104  22.3148999   5.3064165
  49.9325206  19.2726337   3.6659290  49.9908330  19.7212985   4.4119266
  49.2991674  19.6825149   3.2289370  49.8476502  19.4000071   3.7111838
  43.5724301  24.8929879   0.1014036  43.3743990  25.3820693  -0.5929753
  42.9512012  25.0971120   0.6798169  43.4511866  24.9946417   0.0837259
  45.4898103  18.4594031   5.6359284  46.2132302  18.0066557   5.4570304
  45.2248065  18.7398697   4.8531612  45.5579376  18.4344999   5.4937999
  41.2716893  18.5577909   3.7854299  40.6573886  18.0135959   4.0802934
  41.7884177  18.0442146   3.3060115  41.2572555  18.4014318   3.7578528
  37.3029835  18.7982492   9.2167171  36.4525465  18.9354206   9.3524816
  37.4657962  18.0646270   9.6614872  37.2013698  18.7096593   9.3022770
  47.9233417  17.4220442   4.1389834  48.5151257  18.0617692   4.1708032
  48.3592412  16.7243478   4.4281901  48.0751848  17.4138792   4.1870666
  39.7526807  21.8437814   4.7647728  39.2451898  22.3973661   5.2088358
  39.4553453  21.9046104   3.9466502  39.6331692  21.9344125   4.7096184
  38.9969292  26.7762372   1.6704735  38.7734947  26.0181202   2.0388761
  38.5079135  26.8060393   0.9485174  38.8912741  26.6684597   1.6181476
  41.0540282  20.9444104   9.2216668  41.0136136  20.2993781   8.6361824
  41.8663600  20.8880722   9.5342080  41.1683435  20.8403071   9.1813618
  41.0113043  26.1552916  -0.1234564  40.6129326  26.2655186  -0.8913744
  40.3964263  26.3634982   0.4591996  40.8611932  26.2026484  -0.1503265
  40.6187061  12.4965286   8.2168682  41.1758491  12.2679095   7.5847147
  40.2948126  13.2570951   7.9403894  40.6533471  12.5749122   8.0825179
  38.3370178  15.5832939   9.1820689  39.0881505  15.8984616   9.4960243
  38.5292754  15.3812110   8.3554610  38.4761592  15.6000321   9.1064084
  44.9748139  19.1407695   2.7657820  45.4003210  18.6182116   2.2128245
  44.6105059  19.7388532   2.2446443  44.9834741  19.1517922   2.6066829
  34.6102219  27.4371912   1.5255165  34.9248778  28.2508301   1.5332947
  35.0195632  27.0522131   2.1937324  34.7170317  27.5000614   1.6259257
  43.6503723  24.4643272  11.2751049  43.7600688  23.6751833  11.6307796
  43.9794620  24.3749208  10.4725387  43.7156129  24.3349125  11.2093440
  42.2000685  22.6459893   5.8586670  41.6521631  22.0217777   5.5906735
  42.6613713  22.8354165   5.1430749  42.1867894  22.5818943   5.7137101
  41.7659011  23.6510966   2.3896011  42.5857385  23.5073932   2.6512306
  41.4853089  24.2757165   2.9312449  41.8455754  23.7221318   2.5083950
  51.4372346  30.3951468   0.1091818  50.5810242  30.5559967   0.1600935
  51.4840000  29.5243532   0.1296879  51.3171458  30.2902270   0.1197884
  45.8213486  39.9314186  -4.1270951  45.0696385  39.5529725  -4.3554906
  46.2699498  39.9632620  -4.8752140  45.7763153  39.8799793  -4.2713448
  54.7466063  36.6637994   9.7152274  55.4532830  36.1690025   9.8439208
  54.9353998  37.1047076   8.9854932  54.8793968  36.6556344   9.6261319
  54.2824167  32.4543512   2.7523469  54.8280127  33.1328599   2.8117439
  54.2241044  32.3130973   1.8925051  54.3540082  32.5335514   2.6335530
  47.3998242  39.9432578  -1.8608178  47.5008605  39.1332932  -1.5511050
  46.8039987  39.8489525  -2.4908500  47.3270781  39.8097607  -1.9081940
  47.2398982  44.8610168  -0.4593322  47.8836437  45.3023332  -0.0697164
  47.5655237  44.0563594  -0.5463063  47.3830810  44.8075362  -0.4147845
  42.8953374  28.1338596   0.6628463  42.2758405  27.5431243   0.4938478
  42.7937237  28.7250031   0.0292786  42.7891049  28.1342678   0.5433453
  49.9921269  29.8738137  -5.0039074  50.6901434  30.0526265  -4.5117610
  50.3073602  29.3508477  -5.6268684  50.1416607  29.8231909  -5.0237064
  50.1809205  36.2608582  -5.0159282  50.6202840  35.6525683  -4.5704509
  50.0313868  35.8815956  -5.7873817  50.2230671  36.1147054  -5.0640115
  47.6480848  34.8552594   2.1859543  48.2929850  34.3625037   1.8670492
  47.8882625  34.9977381   3.0125622  47.7791433  34.8030036   2.2609077
  50.1866939  37.7007500   1.8366436  50.4690182  36.9058906   1.6153192
  50.9153100  38.1788088   1.8571497  50.3356503  37.6542097   1.8069451
  48.1648133  25.2430534  -0.9217799  47.8351463  25.6941678  -1.5914100
  47.4893135  25.1646697  -0.3744793  48.0158569  25.2981669  -0.9394576
  60.1685028  36.8066862  -1.1897733  59.3382731  37.0177506  -1.0264317
  60.1194280  35.9803917  -1.4655450  60.0391763  36.7156469  -1.2060368
  42.1580611  40.8438536  -0.9599638  41.6748189  41.5689025  -0.9840055
  42.9703929  41.1414666  -0.8489481  42.2071359  40.9940889  -0.9472359
  48.2294765  39.6370716   1.6450176  47.7121707  39.2778131   1.0411484
  48.9269156  39.1132891   1.6556242  48.2560346  39.5068404   1.5580435
  51.8858357  40.0865531   7.6066349  51.9741703  39.8991671   8.4544560
  52.3148070  39.4402960   7.2071196  51.9620459  39.9628538   7.6738101
  49.4528817  39.3696691   6.5884011  48.8899652  38.9569300   7.1123673
  50.2149840  39.2949596   7.0077155  49.4823265  39.2974091   6.7277012
  45.0124808  41.3594712  -0.8079358  45.7145388  40.8446701  -0.7506602
  44.9322291  41.6868863  -0.0032483  45.1048569  41.3308938  -0.6806566
  59.6638986  29.4537263   2.6052688  58.8267407  29.5239450   2.8400282
  59.6327217  29.4561758   1.7326990  59.5357268  29.4647490   2.5112236
  46.0603715  31.5970299   8.3201057  46.2324219  31.4876193   9.1686338
  46.5973072  32.2424704   8.0832249  46.1648719  31.6762300   8.4106153
  44.3375584  37.5501064  -1.2993750  45.1764483  37.7823996  -1.2519989
  44.3687353  36.6805375  -1.3686715  44.4657301  37.4558010  -1.3029106
  44.9628287  37.9701939   3.0019555  45.5026512  37.8273070   3.6722927
  44.2798233  38.3698690   3.3703581  44.9420441  38.0081610   3.1553977
  54.3869172  33.6492939  -1.8035421  55.1426687  34.0824454  -1.7646512
  54.4931496  32.9997709  -1.2300784  54.5139342  33.6170423  -1.7137395
  57.4249343  37.4766217  -1.0533018  56.9884575  37.4802959  -0.2974046
  57.0912258  38.1571716  -1.4853440  57.3111963  37.5778673  -1.0052185
  51.9978416  39.5174550  10.2710133  52.7818833  39.6305397  10.6365875
  51.7975011  38.6915687  10.4668819  52.0844442  39.4121269  10.3544519
  40.3665432  34.1902230   3.1553977  40.1003847  33.3741346   3.3144967
  40.3803996  34.2355385   2.2849492  40.3290154  34.0759134   3.0507459
  57.3446826  24.5180045   1.1896410  57.9872734  24.5878149   1.7758326
  57.5969846  23.8509267   0.6875952  57.4768958  24.4306393   1.2023690
  45.1164038  27.7280608   5.8020984  44.4235835  27.2577588   6.0481716
  45.7324366  27.5018912   6.3762691  45.1048568  27.6247740   5.9230137
  52.1548810  41.4284652   3.9176588  51.3564055  41.1884152   4.1750457
  52.6034821  41.4799045   4.6643636  52.1023421  41.4007043   4.0661513
  60.5593689  34.1947137  -2.1613380  61.2210123  33.6337805  -2.2617472
  59.9185101  33.6999167  -1.8360689  60.5622556  34.0383546  -2.1281040
  40.7758845  34.9761009   0.4365721  40.5934419  34.9507895  -0.4161987
  41.5108514  35.4459947   0.4754630  40.8572909  35.0422371   0.3163639
  56.8458520  35.2112519  -2.4201392  57.0814109  35.3557718  -3.2474541
  56.9948083  35.9754927  -2.0269878  56.9024323  35.3451573  -2.4837788
  43.8404597  31.6946012   6.9447830  44.5644569  31.6799043   7.4312724
  43.9420734  32.4041367   6.4469798  43.9622806  31.7970715   6.9426616
  51.2149547  35.1745097  11.8096777  50.4222527  35.4888608  11.9949396
  51.3298474  35.3896565  10.9717561  51.1144957  35.2528933  11.7135111
  53.8880866  31.8979088  -3.9008208  53.9827720  32.6368382  -3.4468582
  53.2639709  31.4696563  -3.4673643  53.8089896  31.9440408  -3.7700060
  52.1433339  35.0765300   6.7482073  52.7172201  34.4392544   6.9030637
  52.0648143  35.0769383   5.8791731  52.2166574  34.9830412   6.6428484
  40.7429756  31.8554510   0.5864787  41.3203258  31.7190961   1.2257033
  40.0443818  31.3990294   0.8410372  40.7250777  31.7676776   0.7187077
  47.4997058  33.5088565  -1.1996729  47.2416302  32.6760300  -1.2265430
  47.5545541  33.7346178  -2.0404229  47.4696836  33.4186337  -1.3276593
  52.5798108  25.6117016  -1.0992637  51.8754435  25.1226202  -0.9408717
  52.6283082  25.6239491  -1.9704192  52.4828160  25.5406664  -1.2053297
  46.4731770  31.0626328  -0.7131835  45.8981361  31.2218496  -0.0767874
  46.0967446  30.4261737  -1.1763384  46.3334582  30.9924141  -0.6877276
  50.1405059  29.5349677   4.1460544  49.7519492  29.1103895   3.4912735
  49.4759757  29.7831827   4.6537571  49.9851987  29.5088398   4.1248412
  53.9631420  23.2324306   1.6584528  54.3441932  22.5502477   2.0452402
  53.1594705  22.9433908   1.4760193  53.9007882  23.0891354   1.6888584
  57.4653487  36.4474278   6.7566926  57.2292125  35.6162343   6.6378987
  58.1096716  36.3959885   7.3421771  57.5248158  36.3171966   6.8252820
  47.1151905  37.2369799  -2.5290337  47.7525852  36.9981547  -1.9838544
  47.5406977  37.4406958  -3.2637176  47.2728072  37.2320809  -2.5573180
  41.8064548  39.4758136   1.3543967  41.8468693  39.7472987   0.5263746
  42.3659072  40.0000044   1.7701755  41.8947894  39.5933891   1.2935855
  47.9223261  25.7378504  11.5247137  47.6076702  26.5078067  11.2616699
  47.6013193  25.1748760  10.9399363  47.8282180  25.7688773  11.3988486
  58.4889908  36.2318727   2.8195221  58.1835725  36.9646783   3.1808537
  57.7696123  35.8256656   2.5388007  58.3377250  36.2800460   2.8308358
  49.4973377  37.7142222  -0.8496551  49.5712386  37.5517394   0.0045299
  50.3142884  37.9032411  -1.0936069  49.6289736  37.7178964  -0.7598525
  64.1891700  32.8711727   2.1463565  64.1216200  32.8907686   1.2766152
  64.1747362  33.7142055   2.3719236  64.1770456  32.9985462   2.0516042
  43.2579134  38.0600085  -3.8202107  42.4317252  38.3061822  -3.9467829
  43.3191125  37.9812166  -2.9540049  43.1453301  38.0845034  -3.7113163
  54.5988046  24.2746885   5.4704655  55.3441638  24.0856695   5.0568080
  54.1825351  24.8005123   4.9118511  54.6473021  24.3249030   5.3269228
  61.9750317  31.6456114   0.4210160  62.5258239  31.0124183   0.6607252
  61.9594433  32.1771506   1.1125664  62.0535514  31.6305062   0.5589018
  48.6272708  35.4794711   4.9670053  48.1284402  36.1910479   5.0454942
  49.4372932  35.7995377   4.9288215  48.6728815  35.6321559   4.9726622
  45.9783879  42.6544347  -3.0522928  45.7584174  42.3641702  -2.2596261
  45.7578401  41.9959302  -3.5805015  45.9131473  42.5144056  -3.0134019
  44.8900826  34.7417664  -0.7867226  44.6014074  34.1155135  -0.2521499
  45.7584174  34.6837951  -0.7202546  44.9761078  34.6405208  -0.6976271
  45.0933099  36.3812915  -4.8624861  45.8479067  36.7625954  -4.6489398
  44.5003712  36.8324059  -4.4078164  45.1169813  36.5041742  -4.7641983
  47.5539766  28.3375755  10.2632351  46.7439542  28.6433535  10.1522194
  48.0314453  29.0581338  10.3784935  47.5043245  28.4890356  10.2639422
  46.4131326  37.5521476   0.5115254  45.8912079  37.6921768   1.1967119
  46.8005346  36.7932141   0.7017372  46.3935027  37.4607000   0.6416331
  47.8397651  34.5825495  -4.0903255  47.6440434  35.1900230  -4.6842952
  48.0631997  33.8893439  -4.5711581  47.8432292  34.5703021  -4.2487174
  46.2376181  31.4680233  -3.9722386  46.9598833  31.6321391  -4.4318580
  45.7584174  32.1889898  -4.0783046  46.2739912  31.5978463  -4.0556772
  54.1969689  27.8044032   1.4074299  53.3580790  27.8305311   1.1712562
  54.2674056  28.4514767   1.9879645  54.0838082  27.9040158   1.4583416
  43.8883798  33.8738306   5.1331754  44.4004895  34.1522559   4.4840513
  43.6020141  34.6127600   5.4994567  43.9218661  34.0240659   5.0921632
  58.0727213  33.0112019  -1.3064459  57.9861187  33.1667445  -0.4529681
  57.6177693  33.6550094  -1.6805054  57.9930469  33.1287774  -1.2357353
  47.4067523  25.9664694   5.1932795  47.2150720  25.9819829   6.0432219
  48.2566119  26.1628368   5.1699450  47.5043245  25.9979045   5.3156090
  41.7914436  28.4955676   3.1716612  41.6499928  27.6439616   3.2961120
  42.0755000  28.5384336   2.3478818  41.8122283  28.3755426   3.0684236
  51.9453029  30.3322766  -2.6838900  51.6987743  30.2518517  -1.8502111
  52.2738152  29.5476234  -2.8776372  51.9574272  30.2049031  -2.5891377
  55.8401078  37.0406125   1.1047881  55.7015437  37.7387171   1.6096624
  55.0601076  36.8854782   0.7484063  55.7044304  37.1206292   1.1274155
  54.1779163  33.3402501   7.3570263  54.1727201  32.4682317   7.3612689
  54.8840157  33.5390670   6.8839719  54.2824167  33.2406375   7.2877298
  47.9050056  33.0679484   6.7284083  48.0493432  33.6480693   6.0927193
  48.2525705  33.4455781   7.4333938  47.9777517  33.2100188   6.7383078
  50.0769973  32.2669653   4.5109215  49.3293287  32.4600667   4.1057493
  50.2311499  31.4414872   4.2733336  49.9892401  32.1734764   4.4154621
  46.9777811  41.2582256   3.5945110  47.1267375  40.6985172   2.9418514
  47.7577813  41.3374258   3.9777629  47.1151905  41.1867822   3.5542059
  49.5031112  41.4296899   4.8729601  49.4274783  40.7605710   5.4280389
  49.4320971  42.1314687   5.3870267  49.4811719  41.4341806   5.0306449
  50.3171750  26.1620204   5.4004618  50.7744365  26.8944178   5.5277411
  50.3928079  25.7386669   6.1591874  50.3962720  26.2077442   5.5305695
  42.5604742  26.4086023   6.4894062  42.0246931  25.7966381   6.8054829
  42.6222506  26.9834159   7.1427729  42.4900374  26.4032951   6.6329489
  48.1954128  28.1522307   2.2446442  47.4050203  27.9713768   2.5663778
  48.5914751  27.3749260   2.2276737  48.1371005  28.0109768   2.2898991
  53.5797815  35.7864738  -0.0294112  52.9042817  35.5549970   0.4719275
  53.5890191  35.1785921  -0.6552007  53.4816319  35.6623663  -0.0477959
  50.7091959  30.6282567   6.7269941  50.6451100  31.4892523   6.5990078
  50.8489146  30.3114560   5.9265493  50.7207429  30.7082733   6.5898154
  49.3911053  33.3214706   0.8686144  48.9673302  33.5219205   0.1325163
  49.2155908  32.4743554   0.9810444  49.3021933  33.2263487   0.7759834
  48.8922746  44.8365219   3.3307602  49.3818676  44.1376008   3.1483266
  48.3206978  44.5389089   3.9183659  48.8807276  44.6891443   3.3908642
  44.6793498  33.8166757  -3.6985883  44.8358117  33.7513560  -2.8429891
  45.0194091  34.5915310  -3.9107204  44.7526732  33.9215955  -3.6031289
  51.2172642  33.1924641  -4.8292520  51.7588188  32.6895022  -4.3653899
  51.5319201  33.1389836  -5.6403035  51.3437039  33.1104062  -4.8808708
  55.0889750  37.4027288  12.2834392  55.9024615  37.1312437  12.4439525
  54.9284716  37.1034828  11.4794588  55.1859698  37.3182214  12.1879798
  52.3661912  28.0860945   5.2229780  52.5803881  27.4471860   4.6693134
  51.7495811  28.5306769   4.7937642  52.3067241  28.0571089   5.0780212
  41.2527759  31.0001708  -3.3825116  41.6326724  31.4186253  -4.0464849
  40.6783124  31.5815163  -3.0756273  41.2239084  31.1479567  -3.4348375
  54.5301000  29.6950011   6.1613088  53.7177681  29.3875901   6.2426260
  54.9890934  29.2149011   6.7255800  54.4781384  29.5786503   6.2567682
  51.7576640  21.1960881   0.2117123  50.8870198  21.1699602   0.1650433
  52.0116981  21.0238073  -0.6057031  51.6670200  21.1671025   0.0837260
  51.6254507  31.1010082  10.9441790  52.0954138  31.7252198  11.3309664
  51.6716387  30.4327058  11.5035005  51.7022383  31.0944762  11.0841861
  48.7825781  23.2067110   1.6690594  48.2664269  22.5147301   1.7942173
  48.2219710  23.8737887   1.6153192  48.6232294  23.2030367   1.6796660
  50.8518014  23.7460070   3.4983446  50.4649767  23.7709101   4.2796976
  50.3650951  23.1801748   3.0457963  50.7230523  23.6655820   3.5471350
  55.1010994  38.4633579   7.5557233  55.7390714  37.9693774   7.2219689
  54.4585085  38.3910979   6.9709460  55.1005220  38.3792587   7.4199588
  56.8267994  30.3122724   2.1223148  56.3995602  30.2249073   1.3671248
  56.1894047  30.4200500   2.7077992  56.6697601  30.3155384   2.0968590
  50.5175156  20.6327055   5.7893706  51.1468274  21.1687355   5.5114776
  50.6861019  20.5404414   6.6407272  50.6352950  20.6988417   5.8742234
  50.3189071  25.4198250   8.0620118  51.1462500  25.1483399   8.1178732
  50.3396917  26.2159091   8.4183936  50.4441921  25.4978004   8.1235301
  55.1565250  39.1553387   4.1962590  55.9457628  38.8042452   4.3164671
  55.3308848  39.9689775   3.9339223  55.2985532  39.2239244   4.1750458
  44.8958561  32.5662113   1.2490378  44.0546567  32.4665987   1.4569272
  45.1048569  33.3357593   1.6004699  44.8023253  32.6654156   1.3317693
  42.3734128  30.1881649  -0.9224871  41.9790825  30.2624661  -1.6974761
  41.8174244  30.5739596  -0.3716509  42.2336940  30.2563424  -0.9557211
  54.0099074  23.1662944  -1.2420992  54.2148668  23.0985251  -0.3963995
  53.6825498  23.9721765  -1.3099815  53.9914322  23.2748884  -1.1261337
  48.7075225  30.4943512   0.4987976  48.4038363  29.9399500   1.0998384
  48.0054646  30.6735722   0.0116010  48.5591435  30.4388294   0.5157682
  46.7693576  37.7093232   5.2060074  46.6613931  37.7195295   6.0722132
  46.9789358  38.5348013   5.0165027  46.7843688  37.8334307   5.3064165
  44.7867368  34.9605875   2.6682011  44.1955302  35.6015373   2.6385026
  45.5488392  35.3843492   2.6413311  44.8115629  35.1181713   2.6597158
  45.1827991  26.1207873   3.3350029  45.6429473  26.1946802   4.0725153
  45.2284098  26.9189127   2.9849850  45.2578547  26.2502020   3.3922785
  46.8311341  26.7874567   7.9022056  46.4396906  26.1407915   8.3377834
  46.9997204  27.3786003   8.5216311  46.7982251  26.7788835   8.0584762
  60.9057790  34.7911645   3.6659290  60.9640914  35.2398293   4.4119266
  60.2724258  35.2010457   3.2289370  60.8209085  34.9185379   3.7111838
  54.5456885  40.4115186   0.1014036  54.3476573  40.9006001  -0.5929753
  53.9244596  40.6156428   0.6798169  54.4244449  40.5131725   0.0837259
  48.6064863  32.1800083  -5.5575720  49.3506908  32.5674360  -5.3192770
  48.7525559  31.3357509  -5.3935232  48.7375448  32.1130556  -5.4981750
  50.5244439  23.9750342  -0.5243859  49.6780484  24.1473150  -0.6502509
  50.5215571  23.1699686  -0.1878030  50.3991588  23.8811371  -0.4932732
  51.5942739  27.7525557   0.3418199  51.1202693  27.2267319   0.8523510
  51.9660875  27.2055029  -0.2266939  51.5792628  27.5941553   0.3333347
  41.9715769  29.7497063   5.7101745  42.8341382  29.6492772   5.6239075
  41.6407552  29.1691773   5.1487317  42.0500965  29.6488690   5.6147151
  57.8579469  32.8127932   1.7524980  57.6177692  31.9734347   1.7567406
  58.3371477  32.8928099   2.4765753  57.8931653  32.7009332   1.8599782
  59.8584657  29.5929389  -0.2945761  59.6194426  29.5525224  -1.1324976
  60.0218558  30.4400541  -0.1680040  59.8474960  29.7121474  -0.3992279
  56.4630687  33.9779339   5.6359284  57.1864885  33.5251865   5.4570304
  56.1980649  34.2584004   4.8531612  56.5311960  33.9530307   5.4937999
  45.3317555  28.5739512   2.3712163  44.7070625  28.5857904   1.7638116
  44.9963150  29.0499687   3.0203403  45.1903047  28.6458029   2.3768732
  42.0443231  36.6339972   3.8115928  41.5143155  35.9432411   3.8610902
  42.3168324  36.6250158   2.9828636  42.0067953  36.5307104   3.6963344
  52.2449476  34.0763217   3.7854299  51.6306469  33.5321267   4.0802934
  52.7616761  33.5627453   3.3060115  52.2305139  33.9199626   3.7578528
  51.4845773  35.1467487   1.5198598  51.0573381  34.5217206   1.0864033
  51.4770718  34.8642409   2.3457605  51.4204914  35.0120268   1.5778425
  44.6008300  30.1832660   4.5887032  44.7601787  29.4275984   4.9938754
  44.4201194  30.7323600   5.2427769  44.5973659  30.1526474   4.7449738
  52.5428603  22.3493896   5.1437821  52.0469165  22.5457570   4.4529388
  53.2997665  22.7486564   4.9726623  52.5815428  22.4371629   5.0157958
  49.8131483  26.0236242   1.7341132  49.8373970  25.4896354   1.0453912
  50.0642957  25.5153550   2.3966722  49.8541402  25.8697146   1.7305776
  37.3239073  33.3067737   1.1684276  37.2182522  33.2614581   0.3036360
  36.5739293  33.6521517   1.4498561  37.1974676  33.3508645   1.0821606
  46.0932805  24.7507060   1.1146876  46.1331177  25.2516266   1.8281584
  45.2682470  24.8417453   0.8452799  45.9772331  24.8388876   1.1797414
  48.2762418  34.3167800   9.2167171  47.4258049  34.4539514   9.3524816
  48.4390546  33.5831578   9.6614872  48.1746282  34.2281901   9.3022770
  47.5147169  31.2667570   3.4120775  46.6839098  31.4341388   3.2056023
  47.4598686  30.8903520   4.1969660  47.3836583  31.2357301   3.4969303
  45.3230952  24.7576463   9.0477186  45.9483655  24.2138595   9.3206618
  44.8681432  24.2771380   8.4784976  45.3479212  24.6065944   9.0038780
  58.8966001  32.9405750   4.1389834  59.4883841  33.5803000   4.1708032
  59.3324995  32.2428786   4.4281901  59.0484432  32.9324100   4.1870666
  50.7259390  37.3623122   4.7647728  50.2184482  37.9158969   5.2088358
  50.4286037  37.4231412   3.9466502  50.6064275  37.4529433   4.7096184
  52.8921573  25.7276442   3.6072391  53.3176644  25.2748968   2.9955917
  52.2778566  25.1736512   3.8837178  52.8650218  25.5790418   3.5577416
  55.9215142  30.1550968  -3.5607024  55.2506332  30.6980670  -3.6893958
  56.6154892  30.6245824  -3.8025329  55.9244009  30.3049239  -3.6151496
  49.9701876  42.2947680   1.6704735  49.7467530  41.5366509   2.0388761
  49.4811719  42.3245701   0.9485174  49.8645325  42.1869905   1.6181476
  56.0843269  26.6106852  -0.6516650  56.4370880  26.1836575   0.0229148
  55.2258071  26.5257695  -0.5215574  56.0092714  26.5351592  -0.5321640
  44.7826954  29.2414372  -2.5933804  44.0638944  29.6578504  -2.3260940
  45.1539317  29.8068610  -3.1442166  44.7318886  29.3863653  -2.6350997
  54.0826535  29.8742220   3.2968192  54.0624463  29.6925516   4.1502971
  54.1305736  30.7454239   3.2727775  54.0861176  29.9758759   3.4191487
  48.6180333  42.5148138  -0.8758181  48.2040731  41.8522269  -1.2654339
  49.3027707  42.6625997  -1.3962487  48.6578704  42.4388796  -1.0101684
  51.9845627  41.6738224  -0.1234564  51.5861910  41.7840494  -0.8913744
  51.3696846  41.8820290   0.4591996  51.8344516  41.7211792  -0.1503265
  53.4331345  28.2391876  -3.8258674  53.2045038  28.2624577  -4.6680316
  53.6929422  27.4149343  -3.7063664  53.4377533  28.1207956  -3.9333477
  47.7150574  30.0926349   5.7766426  47.2029477  29.4847532   6.1351457
  47.5430070  30.8082942   6.2440402  47.6140211  30.1089648   5.8982650
  42.5616289  28.5363924   8.4268788  42.3918879  29.1965299   7.8816994
  42.1182238  28.7470486   9.1481277  42.4715622  28.6649906   8.4530417
  46.4876108  26.7768422  -2.5304479  46.9633474  27.1385502  -3.1654297
  45.9864708  27.4324890  -2.2504336  46.4841467  26.9262611  -2.5827738
  51.5919644  28.0150594   8.2168682  52.1491074  27.7864403   7.5847147
  51.2680709  28.7756259   7.9403894  51.6266054  28.0934430   8.0825179
  39.4618353  31.4410790   3.6857278  38.9145072  30.7711435   3.8038146
  40.2510731  31.0740638   3.7500745  39.4970537  31.2875776   3.7125978
  49.3102761  31.1018247   9.1820689  50.0614088  31.4169924   9.4960243
  49.5025338  30.8997418   8.3554610  49.4494176  31.1185629   9.1064084
  56.1588052  27.2291813  -3.5755516  56.1582278  27.0740470  -2.7171240
  55.9544232  28.0754800  -3.6314130  56.1287829  27.3312434  -3.4567577
  38.2205323  30.6531598   0.8403301  38.0427084  30.2008207   1.5658216
  37.9324345  31.4557759   1.0241778  38.1518276  30.7054155   0.9746804
  53.8828904  31.9089315   0.0780691  54.3782569  31.1912310   0.0384711
  53.0728679  31.6060113  -0.0364822  53.8372797  31.7586961   0.0554417
  39.9577792  33.1859321  -2.0474940  39.0923312  33.1745012  -2.1592169
  40.0576608  32.9989544  -1.2003801  39.8451959  33.1565383  -1.9385996
  55.9480722  34.6593003   2.7657820  56.3735794  34.1367424   2.2128245
  55.5837642  35.2573840   2.2446443  55.9567325  34.6703230   2.6066829
  45.5834802  42.9557220   1.5255165  45.8981361  43.7693608   1.5332947
  45.9928216  42.5707439   2.1937324  45.6902900  43.0185922   1.6259257
  52.5359322  38.3727267  -0.9041023  53.0070500  39.0867529  -0.7351038
  52.8719500  37.7726017  -0.3681153  52.6554437  38.3898731  -0.8008647
  54.6236306  39.9828580  11.2751049  54.7333272  39.1937141  11.6307796
  54.9527203  39.8934516  10.4725387  54.6888712  39.8534433  11.2093440
  49.4528817  23.1454737   6.0517072  49.5856722  22.3485731   6.3798048
  49.8373970  23.6721140   6.6315348  49.5285146  23.1054654   6.1860575
  53.1733268  38.1645201   5.8586670  52.6254214  37.5403085   5.5906735
  53.6346297  38.3539473   5.1430749  53.1600478  38.1004251   5.7137101
  52.5261172  20.0685063   2.6498165  51.7207136  19.9582793   2.9666004
  52.3967908  20.1697519   1.7928031  52.3881305  20.0668734   2.5706206
  55.9827133  26.2330555   3.2437862  55.3990121  26.7339762   2.8315430
  56.3031427  25.7260112   2.6102185  55.9440308  26.2322390   3.0896369
  47.1117264  23.1413912   4.2994966  47.6561677  22.8005039   4.8899307
  47.1654199  23.9999374   4.4416250  47.2006383  23.2169172   4.4076839
  42.9247822  36.9030328   1.1733774  43.5292680  36.8626163   0.5447594
  42.7175135  37.7501480   1.2037829  42.9836720  37.0218331   1.0849890
  52.7391595  39.1696274   2.3896011  53.5589968  39.0259240   2.6512306
  52.4585672  39.7942472   2.9312449  52.8188338  39.2406626   2.5083950
  38.1599105  35.8864946   1.0432697  38.0623383  35.0761217   1.3522753
  38.9427974  35.8656739   0.6578965  38.2615241  35.7632036   1.0319560
  53.8685957  43.6523904   0.6628463  53.2490989  43.0616551   0.4938478
  53.7669821  44.2435339   0.0292786  53.7623633  43.6527986   0.5433453
  53.5955090  47.1976185   2.9072032  53.4713787  47.7838631   3.5421851
  54.2473375  46.7036381   3.2084307  53.6728740  47.2114990   3.0457962
  57.0336298  47.1155607   8.3201057  57.2056802  47.0061501   9.1686338
  57.5705656  47.7610012   8.0832249  57.1381302  47.1947608   8.4106153
  62.9711000  55.0359858  10.2710133  63.7551417  55.1490705  10.6365875
  62.7707594  54.2100995  10.4668819  63.0577025  54.9306577  10.3544519
  51.3398015  49.7087538   3.1553977  51.0736431  48.8926654   3.3144967
  51.3536580  49.7540693   2.2849492  51.3022738  49.5944442   3.0507459
  56.0896622  43.2465916   5.8020984  55.3968419  42.7762896   6.0481716
  56.7056949  43.0204220   6.3762691  56.0781152  43.1433048   5.9230137
  54.8137181  47.2131320   6.9447830  55.5377153  47.1984351   7.4312724
  54.9153317  47.9226675   6.4469798  54.9355390  47.3156023   6.9426616
  62.1882130  50.6930404  11.8096777  61.3955111  51.0073916  11.9949396
  62.3031057  50.9081873  10.9717561  62.0877541  50.7714241  11.7135111
  61.1137642  45.0534985   4.1460544  60.7252075  44.6289203   3.4912735
  60.4492341  45.3017135   4.6537571  60.9584570  45.0273706   4.1248412
  64.9364004  38.7509614   1.6584528  65.3174516  38.0687785   2.0452402
  64.1327288  38.4619216   1.4760193  64.8740466  38.6076662   1.6888584
  58.8955844  41.2563812  11.5247137  58.5809285  42.0263375  11.2616699
  58.5745777  40.6934068  10.9399363  58.8014763  41.2874081  11.3988486
  65.5720630  39.7932193   5.4704655  66.3174222  39.6042003   5.0568080
  65.1557935  40.3190431   4.9118511  65.6205604  39.8434338   5.3269228
  58.5272350  43.8561063  10.2632351  57.7172125  44.1618843  10.1522194
  59.0047036  44.5766645  10.3784935  58.4775828  44.0075664  10.2639422
  54.8616382  49.3923613   5.1331754  55.3737479  49.6707867   4.4840513
  54.5752724  50.1312908   5.4994567  54.8951245  49.5425967   5.0921632
  58.3800107  41.4850002   5.1932795  58.1883304  41.5005137   6.0432219
  59.2298703  41.6813676   5.1699450  58.4775829  41.5164353   5.3156090
  52.7647020  44.0140984   3.1716612  52.6232512  43.1624924   3.2961120
  53.0487583  44.0569644   2.3478818  52.7854866  43.8940734   3.0684236
  58.8782640  48.5864792   6.7284083  59.0226015  49.1666001   6.0927193
  59.2258288  48.9641089   7.4333938  58.9510101  48.7285496   6.7383078
  61.2904334  41.6805511   5.4004618  61.7476948  42.4129486   5.5277411
  61.3660663  41.2571977   6.1591874  61.3695304  41.7262750   5.5305695
  53.5337325  41.9271331   6.4894062  52.9979515  41.3151689   6.8054829
  53.5955090  42.5019467   7.1427729  53.4632958  41.9218259   6.6329489
  59.1686712  43.6707615   2.2446442  58.3782787  43.4899075   2.5663778
  59.5647335  42.8934568   2.2276737  59.1103588  43.5295076   2.2898991
  61.6824542  46.1467874   6.7269941  61.6183683  47.0077831   6.5990078
  61.8221730  45.8299868   5.9265493  61.6940012  46.2268041   6.5898154
  66.0622333  52.9212596  12.2834392  66.8757198  52.6497745  12.4439525
  65.9017299  52.6220136  11.4794588  66.1592282  52.8367522  12.1879798
  63.3394495  43.6046253   5.2229780  63.5536465  42.9657168   4.6693134
  62.7228394  44.0492077   4.7937642  63.2799824  43.5756397   5.0780212
  65.5033583  45.2135319   6.1613088  64.6910265  44.9061209   6.2426260
  65.9623518  44.7334319   6.7255800  65.4513968  45.0971811   6.2567682
  62.7309224  36.7146189   0.2117123  61.8602782  36.6884910   0.1650433
  62.9849565  36.5423381  -0.6057031  62.6402784  36.6856333   0.0837260
  62.5987091  46.6195390  10.9441790  63.0686722  47.2437506  11.3309664
  62.6448971  45.9512366  11.5035005  62.6754966  46.6130070  11.0841861
  59.7558364  38.7252417   1.6690594  59.2396853  38.0332609   1.7942173
  59.1952293  39.3923195   1.6153192  59.5964878  38.7215675   1.6796660
  61.8250598  39.2645377   3.4983446  61.4382351  39.2894409   4.2796976
  61.3383535  38.6987056   3.0457963  61.6963107  39.1841128   3.5471350
  61.4907739  36.1512363   5.7893706  62.1200857  36.6872663   5.5114776
  61.6593602  36.0589722   6.6407272  61.6085534  36.2173725   5.8742234
  61.2921654  40.9383558   8.0620118  62.1195084  40.6668707   8.1178732
  61.3129500  41.7344399   8.4183936  61.4174504  41.0163312   8.1235301
  56.1560575  41.6393181   3.3350029  56.6162056  41.7132110   4.0725153
  56.2016682  42.4374435   2.9849850  56.2311130  41.7687328   3.3922785
  57.8043925  42.3059875   7.9022056  57.4129490  41.6593223   8.3377834
  57.9729787  42.8971311   8.5216311  57.7714835  42.2974143   8.0584762
  52.9448353  45.2682371   5.7101745  53.8073966  45.1678080   5.6239075
  52.6140136  44.6877080   5.1487317  53.0233549  45.1673998   5.6147151
  56.3050139  44.0924820   2.3712163  55.6803209  44.1043212   1.7638116
  55.9695733  44.5684995   3.0203403  56.1635630  44.1643337   2.3768732
  55.5740884  45.7017968   4.5887032  55.7334371  44.9461292   4.9938754
  55.3933778  46.2508908   5.2427769  55.5706243  45.6711782   4.7449738
  63.5161187  37.8679204   5.1437821  63.0201748  38.0642878   4.4529388
  64.2730249  38.2671872   4.9726623  63.5548012  37.9556937   5.0157958
  60.7864067  41.5421549   1.7341132  60.8106554  41.0081662   1.0453912
  61.0375540  41.0338858   2.3966722  60.8273985  41.3882453   1.7305776
  48.2971656  48.8253044   1.1684276  48.1915105  48.7799889   0.3036360
  47.5471876  49.1706825   1.4498561  48.1707259  48.8693953   1.0821606
  57.0665389  40.2692368   1.1146876  57.1063760  40.7701574   1.8281584
  56.2415053  40.3602761   0.8452799  56.9504915  40.3574184   1.1797414
  59.2495002  49.8353108   9.2167171  58.3990632  49.9724822   9.3524816
  59.4123129  49.1016886   9.6614872  59.1478865  49.7467209   9.3022770
  58.4879752  46.7852878   3.4120775  57.6571682  46.9526696   3.2056023
  58.4331269  46.4088828   4.1969660  58.3569167  46.7542609   3.4969303
  56.2963535  40.2761770   9.0477186  56.9216239  39.7323903   9.3206618
  55.8414015  39.7956688   8.4784976  56.3211796  40.1251252   9.0038780
  63.8654156  41.2461750   3.6072391  64.2909228  40.7934276   2.9955917
  63.2511149  40.6921820   3.8837178  63.8382802  41.0975726   3.5577416
  63.0005449  51.9814720   9.2216668  62.9601304  51.3364397   8.6361824
  63.8128767  51.9251338   9.5342080  63.1148602  51.8773687   9.1813618
  58.6883157  45.6111657   5.7766426  58.1762060  45.0032840   6.1351457
  58.5162654  46.3268249   6.2440402  58.5872794  45.6274956   5.8982650
  53.5348872  44.0549232   8.4268788  53.3651462  44.7150607   7.8816994
  53.0914822  44.2655793   9.1481277  53.4448206  44.1835214   8.4530417
  62.5652228  43.5335902   8.2168682  63.1223658  43.3049711   7.5847147
  62.2413293  44.2941567   7.9403894  62.5998638  43.6119738   8.0825179
  50.4350937  46.9596098   3.6857278  49.8877656  46.2896743   3.8038146
  51.2243315  46.5925946   3.7500745  50.4703120  46.8061084   3.7125978
  60.2835345  46.6203555   9.1820689  61.0346672  46.9355232   9.4960243
  60.4757921  46.4182726   8.3554610  60.4226759  46.6370937   9.1064084
  49.1937906  46.1716906   0.8403301  49.0159667  45.7193515   1.5658216
  48.9056928  46.9743067   1.0241778  49.1250859  46.2239463   0.9746804
  60.4261400  38.6640045   6.0517072  60.5589306  37.8671039   6.3798048
  60.8106553  39.1906448   6.6315348  60.5017729  38.6239962   6.1860575
  63.4993756  35.5870371   2.6498165  62.6939719  35.4768101   2.9666004
  63.3700491  35.6882827   1.7928031  63.3613888  35.5854041   2.5706206
  58.0849847  38.6599220   4.2994966  58.6294260  38.3190347   4.8899307
  58.1386783  39.5184682   4.4416250  58.1738967  38.7354480   4.4076839
   1.8074684  59.1077703  36.2477032   1.4928125  59.7981181  36.6797454
   1.2901626  59.0522485  35.5462532   1.6839155  59.2012591  36.2073981
   6.0989129  67.3298909  41.5297908   5.2617550  67.4001096  41.7645502
   6.0677360  67.3323404  40.6572210   5.9707412  67.3409136  41.4357456
   3.7796969  62.3941690  40.1141630   4.4222878  62.4639795  40.7003546
   4.0319990  61.7270913  39.6121172   3.9119101  62.3068039  40.1268910
   6.2178471  67.1686328  35.8453594   5.9615036  66.3566269  35.6551477
   7.0607785  67.1763895  35.6183781   6.3044497  67.0498325  35.7838411
   1.0338190  62.1508531  44.3949875   1.7791782  61.9618341  43.9813300
   0.6175495  62.6766769  43.8363731   1.0823164  62.2010676  44.2514448
   8.4100461  69.5217759  39.3455380   8.9608382  68.8885828  39.5852472
   8.3944576  70.0533152  40.0370884   8.4885657  69.5066708  39.4834238
   2.1128867  67.7614093  38.4559976   1.7693633  67.0404428  38.8067226
   2.2121910  67.5527944  37.6138334   2.0770910  67.6238296  38.3831656
   1.2249220  57.2171725  38.1943681   1.3432788  57.6748188  37.4610984
   1.0511396  56.4116986  37.9079899   1.2168391  57.1665497  38.0444615
   3.2618137  68.1884370  41.0468368   2.8345745  68.1010719  40.2916468
   2.6244190  68.2962146  41.6323212   3.1047744  68.1917030  41.0213810
   3.6982906  61.5956354  37.1626993   3.0857219  62.0826756  37.5480725
   3.7947081  60.9199844  37.7064645   3.6220803  61.5674662  37.3005852
   6.2934800  67.4691035  38.6299459   6.0544570  67.4286869  37.7920244
   6.4568701  68.3162187  38.7565180   6.2825104  67.5883120  38.5252941
   2.5193413  64.4868498  38.2728570   2.8721023  64.0598221  38.9474368
   1.6608215  64.4019341  38.4029646   2.4442858  64.4113238  38.3923580
   3.9517473  59.6086909  39.2012882   3.4448338  58.9016049  39.1334060
   4.7484907  59.2780098  39.3313959   3.9944712  59.4560061  39.2111877
   2.5938195  65.1053459  35.3489704   2.5932422  64.9502116  36.2073980
   2.3894375  65.9516446  35.2931090   2.5637973  65.2074080  35.4677644
   2.4177276  64.1092201  42.1683082   1.8340265  64.6101408  41.7560650
   2.7381570  63.6021757  41.5347405   2.3790452  64.1084036  42.0141589
   4.3673629  46.1215594  21.2124154   4.3367633  46.9760231  21.3842424
   4.9654978  45.8210887  21.7710298   4.4510787  46.2032091  21.3198957
   0.8767030  51.4777771  35.5737541   1.5833798  50.9829802  35.7024475
   1.0654966  51.9186853  34.8440199   1.0094936  51.4696121  35.4846586
   2.1890203  48.6967896  19.4842464   2.0729729  49.4475582  19.9134602
   2.9846090  48.4391850  19.7338551   2.2894793  48.7702743  19.5846556
   1.5025508  36.0455834  23.1817078   1.1878949  36.7359313  23.6137501
   0.9852450  35.9900616  22.4802579   1.3789979  36.1390723  23.1414028
   6.2985995  51.6206639  24.6687533   5.4683698  51.8317283  24.8320950
   6.2495247  50.7943694  24.3929817   6.1692730  51.5296246  24.6524899
   5.7939953  44.2677040  28.4637955   4.9568374  44.3379227  28.6985549
   5.7628184  44.2701535  27.5912257   5.6658236  44.2787267  28.3697503
   0.5170139  48.4632716  24.0549846   1.2727654  48.8964231  24.0938755
   0.6232464  47.8137486  24.6284482   0.6440310  48.4310200  24.1447872
   3.5550310  52.2905994  24.8052249   3.1185542  52.2942736  25.5611221
   3.2213226  52.9711493  24.3731827   3.4412930  52.3918450  24.8533082
   3.4747793  39.3319822  27.0481677   4.1173702  39.4017926  27.6343592
   3.7270814  38.6649044  26.5461219   3.6069925  39.2446170  27.0608956
   6.6894656  49.0086914  23.6971887   7.3511091  48.4477582  23.5967795
   6.0486068  48.5138944  24.0224578   6.6923524  48.8523323  23.7304227
   2.9759487  50.0252296  23.4383875   3.2115076  50.1697495  22.6110726
   3.1249051  50.7894704  23.8315389   3.0325290  50.1591350  23.3747479
   4.8049944  48.8653962  21.2753479   5.1358161  49.3981602  20.6693574
   5.3783032  48.9192850  21.9315430   4.9383623  48.9523531  21.2831261
   5.9129295  44.1064459  22.7793641   5.6565860  43.2944400  22.5891524
   6.7558609  44.1142026  22.5523828   5.9995321  43.9876456  22.7178458
   3.5954455  51.2614055  32.6152193   3.3593092  50.4302120  32.4964254
   4.2397684  51.2099662  33.2007038   3.6549125  51.1311743  32.6838087
   4.6190875  51.0458504  28.6780488   4.3136692  51.7786560  29.0393803
   3.8997091  50.6396433  28.3973274   4.4678218  51.0940237  28.6893625
  10.3192667  47.6851504  28.0048832  10.2517168  47.7047463  27.1351419
  10.3048330  48.5281832  28.2304503  10.3071424  47.8125239  27.9101309
   8.1051285  46.4595891  26.2795426   8.6559206  45.8263960  26.5192519
   8.0895400  46.9911283  26.9710931   8.1836481  46.4444839  26.4174285
   1.8079691  44.6992224  25.3900023   1.4644457  43.9782559  25.7407272
   1.9072734  44.4906075  24.5478381   1.7721734  44.5616427  25.3171703
   2.2692720  51.1617928  20.9324011   2.8350753  51.8211138  20.8482554
   1.6220624  51.5067626  21.4040413   2.2571477  51.3099870  20.9896767
   4.2028180  47.8251796  24.5520807   4.1162155  47.9807222  25.4055586
   3.7478660  48.4689871  24.1780212   4.1231437  47.9427551  24.6227914
   1.9702045  51.8545902  26.9633148   1.8316404  52.5526948  27.4681890
   1.1902043  51.6994559  26.6069330   1.8345272  51.9346069  26.9859422
   3.4655418  51.2124156  17.7249647   3.0862227  50.4261294  17.7178937
   2.8021663  51.7611013  17.5821292   3.3113893  51.1768980  17.7030444
   0.9200044  34.1549856  25.1283728   1.0383612  34.6126319  24.3951031
   0.7462220  33.3495117  24.8419946   0.9119215  34.1043628  24.9784662
   1.7115517  53.4569647  18.0601333   1.7935354  54.2636633  17.7362784
   2.1965259  53.4765606  18.7842107   1.7952675  53.5790309  18.1188232
   1.2190717  52.2167065  38.1419659   2.0325582  51.9452214  38.3024792
   1.0585683  51.9174605  37.3379855   1.3160666  52.1321991  38.0465065
   1.2311961  53.2773356  33.4142500   1.8691682  52.7833551  33.0804956
   0.5886053  53.2050756  32.8294726   1.2306188  53.1932364  33.2784855
   2.9568961  45.1262501  27.9808415   2.5296569  45.0388850  27.2256515
   2.3195014  45.2340277  28.5663259   2.7998568  45.1295161  27.9553857
   1.2866218  53.9693164  30.0547856   2.0758596  53.6182229  30.1749938
   1.4609816  54.7829552  29.7924490   1.4286499  54.0379021  30.0335724
   3.3933730  38.5334485  24.0967040   2.7808043  39.0204887  24.4820772
   3.4897904  37.8577976  24.6404691   3.3171627  38.5052793  24.2345898
   7.0358758  49.6051422  29.5244556   7.0941881  50.0538070  30.2704533
   6.4025225  50.0150234  29.0874636   6.9510053  49.7325156  29.5697105
   3.9880437  47.6267709  27.6110247   3.7478660  46.7874124  27.6152673
   4.4672444  47.7067876  28.3351020   4.0232621  47.5149109  27.7185049
   5.9885624  44.4069166  25.5639506   5.7495394  44.3665001  24.7260290
   6.1519525  45.2540318  25.6905227   5.9775927  44.5261251  25.4592988
   2.5931654  48.7919116  31.4944551   3.3165853  48.3391642  31.3155571
   2.3281616  49.0723781  30.7116879   2.6612927  48.7670084  31.3523266
   5.0266968  47.7545527  29.9975101   5.6184808  48.3942777  30.0293299
   5.4625963  47.0568563  30.2867167   5.1785399  47.7463877  30.0455933
   2.0516109  44.9690745  22.2978243   1.3807299  45.5120447  22.1691309
   2.7455860  45.4385601  22.0559938   2.0544977  45.1189016  22.2433771
   2.2144237  41.4246629  25.2068616   2.5671847  40.9976352  25.8814415
   1.3559038  41.3397472  25.3369693   2.1393682  41.3491369  25.3263627
   3.6468297  36.5465041  26.1352929   3.1399162  35.8394180  26.0674106
   4.4435731  36.2158229  26.2654005   3.6895536  36.3938192  26.1451924
   5.8488437  51.0629967  19.1193793   6.2322043  51.8121323  19.3491890
   5.0532550  51.3095787  18.8605782   5.7882219  51.2099661  19.1151367
   2.2889019  42.0431590  22.2829751   2.2883245  41.8880247  23.1414027
   2.0845199  42.8894577  22.2271137   2.2588797  42.1452211  22.4017690
   2.0781690  49.4732780  28.6243087   2.5036762  48.9507201  28.0713512
   1.7138610  50.0713617  28.1031710   2.0868293  49.4843007  28.4652096
   0.7537274  54.7968357  37.1336316   0.8634239  54.0076918  37.4893063
   1.0828171  54.7074293  36.3310654   0.8189680  54.6674210  37.0678707
   2.1128100  41.0470332  29.1023129   1.5291089  41.5479539  28.6900696
   2.4332394  40.5399889  28.4687452   2.0741275  41.0462167  28.9481636
  15.3406212  61.6400902  21.2124154  15.3100217  62.4945539  21.3842424
  15.9387561  61.3396195  21.7710298  15.4243370  61.7217399  21.3198957
   8.5405897  60.7276553  25.9677085   7.6843793  60.8885052  26.0186201
   8.5873551  59.8568617  25.9882146   8.4205009  60.6227355  25.9783151
  11.8499614  66.9963079  35.5737541  12.5566381  66.5015110  35.7024475
  12.0387549  67.4372160  34.8440199  11.9827519  66.9881429  35.4846586
  11.3857718  62.7868597  28.6108736  11.9313678  63.4653684  28.6702706
  11.3274595  62.6456058  27.7510318  11.4573633  62.8660599  28.4920797
  13.1622787  64.2153204  19.4842464  13.0462313  64.9660890  19.9134602
  13.9578674  63.9577158  19.7338551  13.2627376  64.2888051  19.5846556
   7.0954821  60.2063222  20.8546193   7.7934985  60.3851350  21.3467656
   7.4107153  59.6833562  20.2316583   7.2450158  60.1556994  20.8348203
   7.2842756  66.5933667  20.8425985   7.7236391  65.9850768  21.2880757
   7.1347419  66.2141041  20.0711450   7.3264222  66.4472138  20.7945152
   4.7514399  65.1877679  28.0444810   5.3963401  64.6950122  27.7255759
   4.9916176  65.3302466  28.8710888   4.8824984  65.1355121  28.1194343
   7.2900490  68.0332585  27.6951703   7.5723733  67.2383991  27.4738459
   8.0186651  68.5113172  27.7156764   7.4390054  67.9867182  27.6654718
   5.2681684  55.5755619  24.9367468   4.9385014  56.0266763  24.2671167
   4.5926686  55.4971782  25.4840474   5.1192120  55.6306754  24.9190691
  10.8852093  64.9460849  17.7956754  10.8003388  65.8021815  17.9406323
  11.3736476  64.6705173  18.4638913  10.9440990  65.0318170  17.9158835
  12.4758092  51.5641142  23.1817078  12.1611533  52.2544620  23.6137501
  11.9585034  51.5085924  22.4802579  12.3522562  51.6576030  23.1414028
  11.8170526  61.5645643  19.2954489  11.2881997  61.7805276  19.9551795
  12.3395546  62.2581781  19.2155458  11.8158979  61.6988780  19.3810088
  17.2718579  67.1391947  24.6687533  16.4416282  67.3502591  24.8320950
  17.2227831  66.3129002  24.3929817  17.1425314  67.0481554  24.6524899
   8.9891908  70.4190615  33.4651616   9.0775254  70.2316756  34.3129826
   9.4181621  69.7728045  33.0656463   9.0654011  70.2953623  33.5323368
   8.1647348  61.7074512  16.5730878   8.4043352  61.9152495  15.7606221
   8.4863189  60.9032020  16.6819822   8.2484506  61.6188613  16.4691431
   3.4737638  53.6367907  20.4190416   4.2283606  54.0046224  20.1807466
   3.2965173  54.0107462  21.1869595   3.5592117  53.7466095  20.4975304
  16.7672537  59.7862348  28.4637955  15.9300958  59.8564535  28.6985549
  16.7360768  59.7886843  27.5912257  16.6390819  59.7972575  28.3697503
   3.1637266  61.9295384  34.1786323   3.3357770  61.8201278  35.0271605
   3.7006623  62.5749789  33.9417516   3.2682270  62.0087385  34.2691420
   1.8294703  56.0438226  17.1168529   1.6470276  56.2610107  16.2909521
   2.6920316  56.1577239  17.1727143   1.9299292  56.0928124  17.0023016
   7.5094422  53.0464637  20.1517552   8.2380582  52.8680592  19.7055709
   7.5989315  53.8882717  20.3624730   7.6301084  53.1448515  20.1171070
  11.4902723  63.9818024  24.0549846  12.2460238  64.4149539  24.0938755
  11.5965047  63.3322794  24.6284482  11.6172893  63.9495508  24.1447872
  14.5282894  67.8091302  24.8052249  14.0918126  67.8128044  25.5611221
  14.1945809  68.4896801  24.3731827  14.4145514  67.9103757  24.8533082
   9.1011967  69.8499634  36.1295400   9.8852384  69.9630482  36.4951142
   8.9008562  69.0240772  36.3254085   9.1877993  69.7446354  36.2129786
  14.4480377  54.8505129  27.0481677  15.0906285  54.9203234  27.6343592
  14.7003397  54.1834352  26.5461219  14.5802509  54.7631478  27.0608956
   2.2197589  58.0605693  31.6606251   1.5269386  57.5902673  31.9066983
   2.8357917  57.8343997  32.2347958   2.2082119  57.9572825  31.7815404
  17.6627240  64.5272222  23.6971887  18.3243674  63.9662890  23.5967795
  17.0218652  64.0324252  24.0224578  17.6656108  64.3708631  23.7304227
  13.9492071  65.5437604  23.4383875  14.1847660  65.6882803  22.6110726
  14.0981634  66.3080012  23.8315389  14.0057874  65.6776658  23.3747479
   0.9438148  62.0271097  32.8033096   1.6678121  62.0124128  33.2897991
   1.0454285  62.7366452  32.3055065   1.0656357  62.1295800  32.8011883
  15.7782527  64.3839270  21.2753479  16.1090745  64.9166910  20.6693574
  16.3515616  64.4378158  21.9315430  15.9116207  64.4708839  21.2831261
   8.3183098  65.5070181  37.6682043   7.5256078  65.8213693  37.8534663
   8.4332025  65.7221650  36.8302828   8.2178508  65.5854018  37.5720378
  10.9914417  62.2304173  21.9577059  11.0861271  62.9693467  22.4116685
  10.3673260  61.8021648  22.3911624  10.9123447  62.2765493  22.0885207
   9.2466890  65.4090385  32.6067340   9.8205752  64.7717629  32.7615904
   9.1681694  65.4094468  31.7376998   9.3200125  65.3155497  32.5013751
  11.2437438  64.0752912  15.1914011  11.1617600  64.1455100  16.0568998
  11.8817158  64.6382656  14.9997752  11.3257275  64.1691883  15.2903961
   4.6030609  63.8413650  24.6588538   4.3449853  63.0085385  24.6319837
   4.6579092  64.0671263  23.8181038   4.5730387  63.7511422  24.5308674
   9.6831659  55.9442101  24.7592630   8.9787986  55.4551287  24.9176549
   9.7316634  55.9564575  23.8881075   9.5861711  55.8731749  24.6531970
   3.5765321  61.3951413  25.1453432   3.0014912  61.5543581  25.7817393
   3.2000998  60.7586822  24.6821883   3.4368134  61.3249226  25.1707991
   7.2438610  59.8674762  30.0045811   6.8553043  59.4428980  29.3498002
   6.5793308  60.1156912  30.5122837   7.0885538  59.8413483  29.9833679
  16.8861879  59.6249767  22.7793641  16.6298444  58.8129708  22.5891524
  17.7291193  59.6327334  22.5523828  16.9727904  59.5061764  22.7178458
  11.0664971  53.5649391  27.5169795  11.4475483  52.8827562  27.9037669
  10.2628256  53.2758993  27.3345459  11.0041433  53.4216439  27.5473851
   8.3477548  64.0973367  18.2022618   9.1618187  64.3888259  18.0905389
   8.2836689  63.4433229  17.6280911   8.4580287  64.0438561  18.1011455
  14.5687038  66.7799363  32.6152193  14.3325676  65.9487428  32.4964254
  15.2130267  66.7284970  33.2007038  14.6281709  66.6497051  32.6838087
   4.2185456  67.5694884  23.3294930   4.8559403  67.3306632  23.8746723
   4.6440528  67.7732043  22.5948090   4.3761623  67.5645894  23.3012087
   5.0256812  56.0703589  37.3832403   4.7110253  56.8403152  37.1201966
   4.7046744  55.5073845  36.7984630   4.9315731  56.1013858  37.2573753
  15.5923459  66.5643812  28.6780488  15.2869276  67.2971868  29.0393803
  14.8729675  66.1581741  28.3973274  15.4410801  66.6125545  28.6893625
   6.6006928  68.0467307  25.0088716   6.6745937  67.8842479  25.8630566
   7.4176435  68.2357496  24.7649198   6.7323287  68.0504049  25.0986742
  21.2925251  63.2036812  28.0048832  21.2249751  63.2232771  27.1351419
  21.2780913  64.0467139  28.2304503  21.2804008  63.3310547  27.9101309
   2.5788709  54.4594111  22.9978600   1.7111134  54.5316710  23.0636209
   2.8663913  55.2616190  23.1866575   2.4928457  54.5888258  23.0353366
  11.7021598  54.6071970  31.3289922  12.4475190  54.4181780  30.9153347
  11.2858902  55.1330208  30.7703778  11.7506572  54.6574115  31.1854495
  19.0783868  61.9781198  26.2795426  19.6291790  61.3449267  26.5192519
  19.0627984  62.5096591  26.9710931  19.1569065  61.9630147  26.4174285
   5.7306259  65.8119796  30.8255320   5.2317953  66.5235563  30.9040208
   6.5406484  66.1320462  30.7873482   5.7762366  65.9646644  30.8311888
   1.9934377  65.0742749  25.0718041   1.7047625  64.4480220  25.6063768
   2.8617725  65.0163036  25.1382721   2.0794629  64.9730293  25.1608995
  12.7812275  60.2177532  25.3900023  12.4377040  59.4967867  25.7407272
  12.8805317  60.0091383  24.5478381  12.7454317  60.0801735  25.3171703
  13.2425304  66.6803236  20.9324011  13.8083336  67.3396446  20.8482554
  12.5953207  67.0252934  21.4040413  13.2304060  66.8285178  20.9896767
   4.6573317  58.6700840  36.1217618   3.8473093  58.9758620  36.0107460
   5.1348004  59.3906422  36.2370202   4.6076796  58.8215441  36.1224689
   3.5164877  67.8846561  26.3700521   2.9945630  68.0246853  27.0552386
   3.9038897  67.1257225  26.5602639   3.4968578  67.7932085  26.5001598
   9.7131882  69.6242020  20.3561090   9.4718558  68.8909881  19.9488155
   9.8933215  70.1728877  19.7027423   9.7039506  69.5964412  20.1991313
   4.9431202  64.9150580  21.7682012   4.7473985  65.5225315  21.1742315
   5.1665548  64.2218524  21.2873686   4.9465843  64.9028106  21.6098093
   3.3409732  61.8005318  21.8862881   4.0632384  61.9646476  21.4266687
   2.8617725  62.5214983  21.7802220   3.3773463  61.9303548  21.8028495
  11.3003240  58.1369117  27.2659566  10.4614341  58.1630396  27.0297829
  11.3707607  58.7839852  27.8464912  11.1871634  58.2365243  27.3168682
   0.9917349  64.2063390  30.9917021   1.5038446  64.4847644  30.3425780
   0.7053692  64.9452685  31.3579834   1.0252212  64.3565744  30.9506899
   9.7472518  55.0354494  21.9987182  10.4498871  54.8362242  21.5207140
   9.4816707  54.2630436  22.3056025   9.8119151  54.8917460  21.9732623
  15.1760764  63.3437104  24.5520807  15.0894738  63.4992530  25.4055586
  14.7211244  63.9875179  24.1780212  15.0964020  63.4612859  24.6227914
   4.5101075  56.2989779  31.0518062   4.3184272  56.3144914  31.9017486
   5.3599670  56.4953453  31.0284717   4.6076796  56.3304130  31.1741357
   9.0486580  60.6647851  23.1746367   8.8021294  60.5843602  24.0083156
   9.3771703  59.8801319  22.9808894   9.0607823  60.5374116  23.2693890
  12.9434629  67.3731210  26.9633148  12.8048988  68.0712256  27.4681890
  12.1634627  67.2179867  26.6069330  12.8077856  67.4531377  26.9859422
  11.2812714  63.6727585  33.2155530  11.2760752  62.8007402  33.2197956
  11.9873708  63.8715755  32.7424985  11.3857718  63.5731460  33.1462565
   5.0083607  63.4004569  32.5869350   5.1526983  63.9805777  31.9512460
   5.3559256  63.7780866  33.2919205   5.0811069  63.5425273  32.5968345
   7.1803525  62.5994738  30.3694482   6.4326839  62.7925752  29.9642760
   7.3345050  61.7739957  30.1318603   7.0925952  62.5059849  30.2739887
  14.4388002  66.7309464  17.7249647  14.0594810  65.9446602  17.7178937
  13.7754247  67.2796321  17.5821292  14.2846476  66.6954288  17.7030444
   7.4205302  56.4945288  31.2589885   7.8777916  57.2269263  31.3862677
   7.4961630  56.0711754  32.0177141   7.4996271  56.5402527  31.3890962
  11.8932628  49.6735164  25.1283728  12.0116196  50.1311627  24.3951031
  11.7194803  48.8680425  24.8419946  11.8851798  49.6228936  24.9784662
   5.2987679  58.4847392  28.1031709   4.5083754  58.3038852  28.4249045
   5.6948302  57.7074345  28.0862004   5.2404556  58.3434853  28.1484258
  10.6831366  66.1189823  25.8291155  10.0076368  65.8875055  26.3304542
  10.6923742  65.5111005  25.2033260  10.5849870  65.9948748  25.8107307
   7.8125510  60.9607651  32.5855208   7.7484651  61.8217608  32.4575345
   7.9522698  60.6439645  31.7850759   7.8240980  61.0407818  32.4483421
  12.6848100  68.9754955  18.0601333  12.7667938  69.7821941  17.7362784
  13.1697843  68.9950914  18.7842107  12.7685258  69.0975617  18.1188232
   6.4944604  63.6539791  26.7271411   6.0706853  63.8544290  25.9910429
   6.3189459  62.8068639  26.8395711   6.4055484  63.5588572  26.6345101
   1.7827049  64.1491842  22.1599384   1.9391668  64.0838645  23.0155376
   2.1227642  64.9240395  21.9478063   1.8560283  64.2541040  22.2553978
   8.3206193  63.5249726  21.0292747   8.8621739  63.0220107  21.4931367
   8.6352752  63.4714921  20.2182232   8.4470590  63.4429147  20.9776559
  12.1923301  67.7352373  38.1419659  13.0058166  67.4637522  38.3024792
  12.0318267  67.4359913  37.3379855  12.2893249  67.6507299  38.0465065
   9.4695463  58.4186030  31.0815047   9.6837432  57.7796945  30.5278401
   8.8529362  58.8631854  30.6522909   9.4100792  58.3896174  30.9365478
  11.6334551  60.0275096  32.0198354  10.8211232  59.7200986  32.1011527
  12.0924485  59.5474096  32.5841067  11.5814935  59.9111588  32.1152949
  11.0439805  67.9054768  22.4675299  10.6854460  68.0769410  23.2439331
  10.5578516  68.3667973  21.9103297  10.9198502  67.9993739  22.5000568
   8.8610191  51.5285966  26.0702390   7.9903749  51.5024687  26.0235700
   9.1150533  51.3563158  25.2528236   8.7703751  51.4996110  25.9422527
   8.7288058  61.4335167  36.8027057   9.1987689  62.0577283  37.1894931
   8.7749938  60.7652143  37.3620271   8.8055934  61.4269847  36.9427128
   5.8859332  53.5392194  27.5275860   5.3697820  52.8472386  27.6527439
   5.3253261  54.2062971  27.4738459   5.7265845  53.5355452  27.5381926
   7.9551565  54.0785154  29.3568713   7.5683318  54.1034186  30.1382243
   7.4684503  53.5126833  28.9043230   7.8264074  53.9980905  29.4056617
  12.2044545  68.7958663  33.4142500  12.8424265  68.3018859  33.0804956
  11.5618636  68.7236064  32.8294726  12.2038771  68.7117672  33.2784855
  13.9301545  60.6447809  27.9808415  13.5029153  60.5574158  27.2256515
  13.2927598  60.7525585  28.5663259  13.7731152  60.6480469  27.9553857
   7.6208707  50.9652140  31.6478973   8.2501825  51.5012440  31.3700043
   7.7894570  50.8729499  32.4992539   7.7386502  51.0313502  31.7327501
   7.4222622  55.7523335  33.9205385   8.2496051  55.4808484  33.9763999
   7.4430468  56.5484176  34.2769203   7.5475472  55.8303089  33.9820567
  12.2598801  69.4878472  30.0547856  13.0491179  69.1367536  30.1749938
  12.4342399  70.3014860  29.7924490  12.4019083  69.5564329  30.0335724
   1.9992112  62.8987197  27.1075645   1.1580118  62.7991072  27.3154539
   2.2082120  63.6682678  27.4589966   1.9056804  62.9979241  27.1902960
  11.1132625  53.4988028  24.6164275  11.3182219  53.4310336  25.4621272
  10.7859049  54.3046850  24.5485452  11.0947873  53.6073969  24.7323930
   5.8108777  60.8268597  26.3573243   5.5071914  60.2724585  26.9583650
   5.1088197  61.0060807  25.8701277   5.6624986  60.7713379  26.3742948
   4.8674874  58.1369116  20.9217945   5.1434608  57.4188029  20.5095512
   5.4673543  58.7354036  20.7139051   4.9968138  58.1189487  20.8298706
  14.3666313  54.0519793  24.0967040  13.7540627  54.5390195  24.4820772
  14.4630488  53.3763284  24.6404691  14.2904211  54.0238101  24.2345898
   8.3685394  55.8082634  19.1964540   8.8229141  55.9793194  19.9212384
   8.8425440  55.1950745  18.7962315   8.5053714  55.7433519  19.2438301
   1.8900920  65.2930960  28.5267278   1.2988853  65.9340458  28.4970293
   2.6521943  65.7168577  28.4998578   1.9149180  65.4506798  28.5182425
   2.2861542  56.4532958  29.1935296   2.7463024  56.5271887  29.9310419
   2.3317649  57.2514212  28.8435117   2.3612098  56.5827105  29.2508052
   3.9344892  57.1199652  33.7607323   3.5430457  56.4733000  34.1963101
   4.1030755  57.7111088  34.3801578   3.9015802  57.1113920  33.9170029
  18.0091341  65.1236729  29.5244556  18.0674465  65.5723378  30.2704533
  17.3757809  65.5335542  29.0874636  17.9242636  65.2510464  29.5697105
  11.6490436  70.7440271  25.9599303  11.4510124  71.2331086  25.2655514
  11.0278147  70.9481513  26.5383436  11.5278000  70.8456810  25.9422526
   5.7098414  62.5125168  20.3009547   6.4540459  62.8999444  20.5392497
   5.8559110  61.6682594  20.4650035   5.8408999  62.4455641  20.3603517
   7.6277990  54.3075427  25.3341408   6.7814035  54.4798235  25.2082758
   7.6249122  53.5024771  25.6707237   7.5025140  54.2136456  25.3652535
   8.6976290  58.0850641  26.2003466   8.2236244  57.5592404  26.7108777
   9.0694426  57.5380114  25.6318328   8.6826179  57.9266638  26.1918613
  14.9613021  63.1453017  27.6110247  14.7211243  62.3059432  27.6152673
  15.4405028  63.2253184  28.3351020  14.9965204  63.0334417  27.7185049
  10.6259790  58.9787196  19.2629220  10.0982808  59.0615940  18.5734929
  11.0855498  59.7205068  19.2593865  10.6161640  59.1007858  19.1603915
  16.9618208  59.9254474  25.5639506  16.7227978  59.8850309  24.7260290
  17.1252109  60.7725626  25.6905227  16.9508511  60.0446559  25.4592988
  13.5664238  64.3104424  31.4944551  14.2898437  63.8576950  31.3155571
  13.3014200  64.5909089  30.7116879  13.6345511  64.2855392  31.3523266
   2.4351106  58.9064597  28.2297430   1.8104176  58.9182989  27.6223383
   2.0996701  59.3824772  28.8788670   2.2936598  58.9783114  28.2353999
  10.1796872  67.5490760  18.3938877  10.9031071  68.0148873  18.2503450
   9.7397463  67.6164369  17.6436474  10.2212564  67.6274596  18.2623658
   9.3483027  64.4088302  29.6439566   8.7340020  63.8646352  29.9388201
   9.8650312  63.8952538  29.1645382   9.3338690  64.2524711  29.6163794
   8.5879324  65.4792572  27.3783865   8.1606932  64.8542291  26.9449300
   8.5804269  65.1967494  28.2042872   8.5238466  65.3445353  27.4363692
   1.7041851  60.5157745  30.4472299   1.8635338  59.7601069  30.8524021
   1.5234745  61.0648685  31.1013036   1.7007210  60.4851559  30.6035005
   9.6462154  52.6818981  31.0023088   9.1502716  52.8782655  30.3114655
  10.4031217  53.0811649  30.8311890   9.6848979  52.7696714  30.8743225
   6.9165034  56.3561326  27.5926399   6.9407521  55.8221439  26.9039179
   7.1676508  55.8478635  28.2551989   6.9574953  56.2022230  27.5891043
   3.1966356  55.0832145  26.9732143   3.2364728  55.5841351  27.6866850
   2.3716021  55.1742538  26.7038066   3.0805882  55.1713961  27.0382681
   5.3795969  64.6492885  35.0752438   4.5291600  64.7864599  35.2110082
   5.5424097  63.9156663  35.5200139   5.2779833  64.5606986  35.1608037
   4.6180720  61.5992655  29.2706042   3.7872649  61.7666473  29.0641290
   4.5632237  61.2228605  30.0554927   4.4870135  61.5682386  29.3554570
   2.4264503  55.0901547  34.9062453   3.0517206  54.5463680  35.1791885
   1.9714983  54.6096465  34.3370243   2.4512764  54.9391029  34.8624046
   2.9916764  59.8748246  19.7996160   3.1319725  60.3720710  20.5024801
   3.4899296  59.1734540  19.9410373   3.0857844  59.8450225  19.9247739
  15.9999552  63.2730834  29.9975101  16.5917392  63.9128085  30.0293299
  16.4358546  62.5753871  30.2867167  16.1517983  63.2649185  30.0455933
   4.5995969  56.6729333  17.1034178   4.9211810  56.1932415  16.4493441
   4.8622913  57.4828979  16.9124990   4.6861994  56.7219230  16.9789671
   7.8292942  67.6948207  30.6232995   7.3218033  68.2484054  31.0673625
   7.5319588  67.7556497  29.8051769   7.7097826  67.7854518  30.5681451
   9.9955124  56.0601526  29.4657658  10.4210195  55.6074053  28.8541184
   9.3812117  55.5061597  29.7422445   9.9683769  55.9115503  29.4162683
   8.4349347  52.5316626  22.8748235   7.7917665  52.3814273  23.4433373
   8.0948754  52.2858972  22.1097339   8.2894424  52.4728749  22.8451250
  13.0248693  60.4876053  22.2978243  12.3539883  61.0305755  22.1691309
  13.7188443  60.9570908  22.0559938  13.0277561  60.6374324  22.2433771
  13.1876821  56.9431937  25.2068616  13.5404431  56.5161660  25.8814415
  12.3291622  56.8582780  25.3369693  13.1126265  56.8676677  25.3263627
   1.8860506  59.5739456  23.2651463   1.1672495  59.9903589  23.5324326
   2.2572868  60.1393695  22.7143101   1.8352437  59.7188738  23.2234270
  11.1860086  60.2067305  29.1553459  11.1658014  60.0250601  30.0088237
  11.2339287  61.0779324  29.1313042  11.1894727  60.3083844  29.2776753
   9.1306416  66.7954497  35.0801935   9.0902271  66.1504174  34.4947091
   9.9429734  66.7391115  35.3927347   9.2449570  66.6913464  35.0398884
   7.6607080  58.6137456  18.6024842   7.0671919  58.9354453  18.0509409
   7.6982358  57.7678552  18.3945949   7.5781469  58.5361785  18.4907614
  14.6200881  52.0650349  26.1352929  14.1131745  51.3579488  26.0674106
  15.4168314  51.7343537  26.2654005  14.6628120  51.9123500  26.1451924
  10.5364896  58.5716961  22.0326593  10.3078589  58.5949662  21.1904951
  10.7962973  57.7474428  22.1521603  10.5411085  58.4533041  21.9251790
   4.8184125  60.4251434  31.6351693   4.3063028  59.8172617  31.9936724
   4.6463621  61.1408026  32.1025669   4.7173762  60.4414733  31.7567916
   3.5909659  57.1093507  23.3280788   4.0667025  57.4710587  22.6930969
   3.0898259  57.7649975  23.6080931   3.5875018  57.2587696  23.2757529
  16.8221021  66.5815275  19.1193793  17.2054626  67.3306631  19.3491890
  16.0265134  66.8281095  18.8605782  16.7614803  66.7284969  19.1151367
   8.6953195  58.3475679  34.0753948   9.2524625  58.1189488  33.4432414
   8.3714260  59.1081344  33.7989161   8.7299605  58.4259515  33.9410445
   6.4136313  61.4343332  35.0405955   7.1647639  61.7495009  35.3545510
   6.6058889  61.2322503  34.2139877   6.5527727  61.4510714  34.9649351
   5.6336312  59.2534707  16.6954172   6.0135277  59.2714336  15.9105287
   4.8928908  59.6988696  16.5745020   5.5805150  59.3216482  16.5617740
  13.2621603  57.5616898  22.2829751  13.2615829  57.4065555  23.1414027
  13.0577783  58.4079885  22.2271137  13.2321381  57.6637519  22.4017690
  10.9862455  62.2414400  25.9365958  11.4816120  61.5237395  25.8969978
  10.1762230  61.9385198  25.8220445  10.9406348  62.0912046  25.9139684
  13.0514274  64.9918087  28.6243087  13.4769345  64.4692509  28.0713512
  12.6871193  65.5898925  28.1031710  13.0600876  65.0028314  28.4652096
   9.6392873  68.7052352  24.9544244  10.1104051  69.4192614  25.1234229
   9.9753052  68.1051102  25.4904114   9.7587988  68.7223816  25.0576620
  11.7269858  70.3153665  37.1336316  11.8366823  69.5262226  37.4893063
  12.0560754  70.2259601  36.3310654  11.7922263  70.1859518  37.0678707
   6.5562368  53.4779822  31.9102339   6.6890274  52.6810816  32.2383314
   6.9407521  54.0046225  32.4900614   6.6318697  53.4379739  32.0445842
  10.2766819  68.4970286  31.7171937   9.7287765  67.8728169  31.4492002
  10.7379848  68.6864558  31.0016016  10.2634029  68.4329336  31.5722368
   9.6294723  50.4010148  28.5083432   8.8240687  50.2907878  28.8251270
   9.5001459  50.5022604  27.6513298   9.4914856  50.3993818  28.4291472
  13.0860684  56.5655640  29.1023129  12.5023673  57.0664847  28.6900696
  13.4064978  56.0585196  28.4687452  13.0473859  56.5647475  28.9481636
   5.6255483  55.4796235  19.3781804   6.4471177  55.6494548  19.1363499
   5.1625134  55.6343496  18.6548101   5.6786645  55.5277968  19.2353448
   4.2150815  53.4738997  30.1580233   4.7595228  53.1330124  30.7484574
   4.2687750  54.3324459  30.3001517   4.3039934  53.5494257  30.2662106
   9.8425146  69.5021359  28.2481278  10.6623519  69.3584325  28.5097573
   9.5619223  70.1267557  28.7897716   9.9221889  69.5731711  28.3669217
  16.2414268  71.0940927  24.9367468  15.9117598  71.5452070  24.2671167
  15.5659270  71.0157090  25.4840474  16.0924704  71.1492062  24.9190691
  23.4490675  67.0826450  23.1817078  23.1344116  67.7729928  23.6137501
  22.9317617  67.0271232  22.4802579  23.3255146  67.1761338  23.1414028
  14.4470222  69.1553215  20.4190416  15.2016190  69.5231532  20.1807466
  14.2697756  69.5292770  21.1869595  14.5324700  69.2651403  20.4975304
  27.7405120  75.3047656  28.4637955  26.9033542  75.3749843  28.6985549
  27.7093351  75.3072151  27.5912257  27.6123403  75.3157883  28.3697503
  12.8027286  71.5623534  17.1168529  12.6202860  71.7795415  16.2909521
  13.6652899  71.6762547  17.1727143  12.9031876  71.6113432  17.0023016
  18.4827006  68.5649945  20.1517552  19.2113166  68.3865900  19.7055709
  18.5721899  69.4068025  20.3624730  18.6033668  68.6633823  20.1171070
  25.4212960  70.3690437  27.0481677  26.0638869  70.4388542  27.6343592
  25.6735981  69.7019660  26.5461219  25.5535092  70.2816786  27.0608956
  20.6564243  71.4627409  24.7592630  19.9520570  70.9736594  24.9176549
  20.7049217  71.4749883  23.8881075  20.5594294  71.3917057  24.6531970
  27.8594463  75.1435075  22.7793641  27.6031027  74.3315016  22.5891524
  28.7023777  75.1512642  22.5523828  27.9460488  75.0247072  22.7178458
  22.0397555  69.0834699  27.5169795  22.4208067  68.4012870  27.9037669
  21.2360839  68.7944301  27.3345459  21.9774017  68.9401747  27.5473851
  15.9989395  71.5888897  37.3832403  15.6842836  72.3588460  37.1201966
  15.6779328  71.0259153  36.7984630  15.9048314  71.6199166  37.2573753
  13.5521292  69.9779419  22.9978600  12.6843718  70.0502018  23.0636209
  13.8396497  70.7801497  23.1866575  13.4661040  70.1073566  23.0353366
  22.6754181  70.1257278  31.3289922  23.4207773  69.9367088  30.9153347
  22.2591486  70.6515516  30.7703778  22.7239155  70.1759423  31.1854495
  23.7544858  75.7362840  25.3900023  23.4109624  75.0153175  25.7407272
  23.8537901  75.5276691  24.5478381  23.7186901  75.5987043  25.3171703
  20.7205102  70.5539802  21.9987182  21.4231455  70.3547550  21.5207140
  20.4549291  69.7815744  22.3056025  20.7851734  70.4102768  21.9732623
  15.4833658  71.8175087  31.0518062  15.2916855  71.8330221  31.9017486
  16.3332254  72.0138761  31.0284717  15.5809380  71.8489438  31.1741357
  18.3937885  72.0130596  31.2589885  18.8510499  72.7454571  31.3862677
  18.4694214  71.5897062  32.0177141  18.4728855  72.0587834  31.3890962
  22.8665211  65.1920472  25.1283728  22.9848779  65.6496935  24.3951031
  22.6927387  64.3865733  24.8419946  22.8584382  65.1414244  24.9784662
  19.8342775  67.0471274  26.0702390  18.9636333  67.0209995  26.0235700
  20.0883116  66.8748466  25.2528236  19.7436335  67.0181418  25.9422527
  16.8591915  69.0577502  27.5275860  16.3430404  68.3657694  27.6527439
  16.2985844  69.7248279  27.4738459  16.6998429  69.0540760  27.5381926
  18.9284149  69.5970462  29.3568713  18.5415902  69.6219494  30.1382243
  18.4417086  69.0312141  28.9043230  18.7996658  69.5166213  29.4056617
  18.5941291  66.4837448  31.6478973  19.2234409  67.0197748  31.3700043
  18.7627153  66.3914807  32.4992539  18.7119085  66.5498810  31.7327501
  18.3955205  71.2708643  33.9205385  19.2228635  70.9993791  33.9763999
  18.4163051  72.0669484  34.2769203  18.5208055  71.3488397  33.9820567
  22.0865209  69.0173336  24.6164275  22.2914802  68.9495644  25.4621272
  21.7591633  69.8232158  24.5485452  22.0680457  69.1259277  24.7323930
  25.3398897  69.5705101  24.0967040  24.7273210  70.0575503  24.4820772
  25.4363072  68.8948591  24.6404691  25.2636794  69.5423409  24.2345898
  19.3417978  71.3267942  19.1964540  19.7961724  71.4978502  19.9212384
  19.8158023  70.7136052  18.7962315  19.4786298  71.2618827  19.2438301
  18.6010573  69.8260735  25.3341408  17.7546618  69.9983543  25.2082758
  18.5981706  69.0210079  25.6707237  18.4757723  69.7321764  25.3652535
  19.6708874  73.6035949  26.2003466  19.1968828  73.0777711  26.7108777
  20.0427009  73.0565422  25.6318328  19.6558763  73.4451946  26.1918613
  27.9350791  75.4439782  25.5639506  27.6960561  75.4035616  24.7260290
  28.0984692  76.2910934  25.6905227  27.9241095  75.5631867  25.4592988
  20.6194738  68.2004288  31.0023088  20.1235299  68.3967963  30.3114655
  21.3763800  68.5996957  30.8311890  20.6581563  68.2882022  30.8743225
  17.8897618  71.8746634  27.5926399  17.9140105  71.3406747  26.9039179
  18.1409091  71.3663943  28.2551989  17.9307536  71.7207538  27.5891043
  14.1698940  70.6017453  26.9732143  14.2097311  71.1026659  27.6866850
  13.3448605  70.6927846  26.7038066  14.0538466  70.6899269  27.0382681
  13.3997087  70.6086855  34.9062453  14.0249790  70.0648988  35.1791885
  12.9447566  70.1281773  34.3370243  13.4245347  70.4576337  34.8624046
  20.9687707  71.5786834  29.4657658  21.3942779  71.1259361  28.8541184
  20.3544700  71.0246905  29.7422445  20.9416353  71.4300811  29.4162683
  19.4081930  68.0501934  22.8748235  18.7650248  67.8999581  23.4433373
  19.0681337  67.8044279  22.1097339  19.2627007  67.9914057  22.8451250
  24.1609404  72.4617245  25.2068616  24.5137014  72.0346968  25.8814415
  23.3024206  72.3768088  25.3369693  24.0858849  72.3861985  25.3263627
  25.5933464  67.5835656  26.1352929  25.0864329  66.8764796  26.0674106
  26.3900898  67.2528845  26.2654005  25.6360703  67.4308808  26.1451924
  21.5097480  74.0902269  22.0326593  21.2811173  74.1134970  21.1904951
  21.7695556  73.2659736  22.1521603  21.5143668  73.9718349  21.9251790
  24.2354186  73.0802206  22.2829751  24.2348413  72.9250863  23.1414027
  24.0310366  73.9265193  22.2271137  24.2053964  73.1822827  22.4017690
  17.5294952  68.9965130  31.9102339  17.6622857  68.1996124  32.2383314
  17.9140104  69.5231533  32.4900614  17.6051280  68.9565047  32.0445842
  20.6027307  65.9195456  28.5083432  19.7973270  65.8093186  28.8251270
  20.4734042  66.0207912  27.6513298  20.4647440  65.9179126  28.4291472
  24.0593267  72.0840948  29.1023129  23.4756256  72.5850155  28.6900696
  24.3797561  71.5770504  28.4687452  24.0206443  72.0832783  28.9481636
  16.5988066  70.9981543  19.3781804  17.4203761  71.1679856  19.1363499
  16.1357717  71.1528804  18.6548101  16.6519229  71.0463276  19.2353448
  15.1883398  68.9924305  30.1580233  15.7327811  68.6515432  30.7484574
  15.2420334  69.8509767  30.3001517  15.2772518  69.0679565  30.2662106
   0.5717854  28.4155902  22.5077588   1.2784621  27.9207933  22.6364522
   0.7605790  28.8564984  21.7780246   0.7045760  28.4074253  22.4186633
   3.2905279  28.1992186  19.5492240   3.0543916  27.3680251  19.4304301
   3.9348508  28.1477793  20.1347084   3.3499949  28.0689874  19.6178134
   4.3141699  27.9836635  15.6120535   4.0087516  28.7164692  15.9733850
   3.5947915  27.5774564  15.3313321   4.1629042  28.0318368  15.6233672
  10.0143491  24.6229636  14.9388879   9.9467992  24.6425595  14.0691465
   9.9999154  25.4659963  15.1644549  10.0022248  24.7503370  14.8441356
   0.9141541  29.1545196  25.0759706   1.7276406  28.8830345  25.2364838
   0.7536507  28.8552736  24.2719902   1.0111489  29.0700122  24.9805112
   0.9817042  30.9071295  16.9887903   1.7709420  30.5560360  17.1089985
   1.1560639  31.7207683  16.7264537   1.1237323  30.9757152  16.9675771
   6.7309581  26.5429553  16.4584603   6.7892705  26.9916201  17.2044580
   6.0976049  26.9528366  16.0214683   6.6460877  26.6703287  16.5037151
   2.2882478  25.7297247  18.4284598   3.0116677  25.2769773  18.2495618
   2.0232440  26.0101913  17.6456926   2.3563751  25.7048215  18.2863313
   4.7217792  24.6923658  16.9315147   5.3135632  25.3320908  16.9633346
   5.1576787  23.9946694  17.2207214   4.8736223  24.6842008  16.9795980
   1.7732514  26.4110911  15.5583133   2.1987585  25.8885333  15.0053558
   1.4089434  27.0091748  15.0371756   1.7819116  26.4221138  15.3992143
   0.4488098  31.7346488  24.0676363   0.5585063  30.9455049  24.4233110
   0.7778995  31.6452425  23.2650701   0.5140504  31.6052341  24.0018754
  15.0357036  38.5779033   8.1464201  15.0051041  39.4323670   8.3182470
  15.6338385  38.2774326   8.7050345  15.1194194  38.6595530   8.2539003
   8.2356721  37.6654684  12.9017131   7.3794617  37.8263183  12.9526248
   8.2824375  36.7946748  12.9222192   8.1155833  37.5605486  12.9123197
  11.5450438  43.9341210  22.5077588  12.2517205  43.4393241  22.6364522
  11.7338373  44.3750292  21.7780246  11.6778343  43.9259560  22.4186633
   7.6127112  49.5757041  10.0351022   7.9966491  50.1443939   9.4955797
   7.5486253  48.8506551   9.5556838   7.6600539  49.5532504   9.8844884
  11.0808542  39.7246728  15.5448783  11.6264502  40.4031815  15.6042753
  11.0225419  39.5834189  14.6850365  11.1524457  39.8038730  15.4260844
   4.1982617  47.2135795  10.9317136   4.2992980  46.4036148  11.2414263
   3.6024362  47.1192741  10.3016814   4.1255156  47.0800823  10.8843374
  12.8573611  41.1531336   6.4182511  12.7413137  41.9039022   6.8474649
  13.6529498  40.8955289   6.6678598  12.9578200  41.2266182   6.5186603
   4.0383357  52.1313384  12.3331992   4.6820812  52.5726548  12.7228150
   4.3639612  51.3266810  12.2462250   4.1815185  52.0778578  12.3777469
   6.7905644  37.1441353   7.7886240   7.4885809  37.3229481   8.2807703
   7.1057977  36.6211693   7.1656629   6.9400982  37.0935126   7.7688250
   6.9793580  43.5311799   7.7766031   7.4187215  42.9228899   8.2220804
   6.8298243  43.1519172   7.0051496   7.0215046  43.3850270   7.7285199
   4.4465223  42.1255810  14.9784857   5.0914225  41.6328253  14.6595805
   4.6867000  42.2680597  15.8050935   4.5775808  42.0733253  15.0534390
   6.9851314  44.9710716  14.6291750   7.2674557  44.1762122  14.4078505
   7.7137475  45.4491304  14.6496811   7.1340878  44.9245313  14.5994765
   4.9632508  32.5133750  11.8707515   4.6335838  32.9644894  11.2011213
   4.2877510  32.4349913  12.4180521   4.8142944  32.5684885  11.8530738
  10.5802916  41.8838980   4.7296801  10.4954212  42.7399946   4.8746370
  11.0687300  41.6083304   5.3978960  10.6391814  41.9696301   4.8498882
  11.5121350  38.5023774   6.2294536  10.9832821  38.7183407   6.8891842
  12.0346370  39.1959912   6.1495505  11.5109803  38.6366911   6.3150135
  16.9669403  44.0770078  11.6027580  16.1367106  44.2880722  11.7660997
  16.9178655  43.2507133  11.3269864  16.8376138  43.9859685  11.5864946
   5.0279140  46.9073933  14.4375490   4.5106082  46.5481348  13.8336798
   5.7253531  46.3836107  14.4481556   5.0544721  46.7771621  14.3505748
   8.6842732  47.3568747  20.3991663   8.7726078  47.1694887  21.2469873
   9.1132445  46.7106176  19.9996510   8.7604834  47.2331754  20.4663414
   6.2513192  46.6399907  19.3809325   5.6884027  46.2272516  19.9048986
   7.0134215  46.5652812  19.8002468   6.2807640  46.5677307  19.5202325
   1.8109183  48.6297928  11.9845955   2.5129763  48.1149917  12.0418712
   1.7306666  48.9572079  12.7892830   1.9032944  48.6012154  12.1118747
  16.4623361  36.7240479  15.3978002  15.6251782  36.7942666  15.6325596
  16.4311592  36.7264974  14.5252304  16.3341643  36.7350706  15.3037550
   2.8588090  38.8673515  21.1126370   3.0308594  38.7579409  21.9611652
   3.3957447  39.5127920  20.8757563   2.9633094  38.9465516  21.2031467
   1.1359959  44.8204280  11.4931563   1.9748858  45.0527213  11.5405325
   1.1671728  43.9508591  11.4238599   1.2641676  44.7261226  11.4896208
   1.7612662  45.2405155  15.7944869   2.3010887  45.0976286  16.4648241
   1.0782608  45.6401906  16.1628895   1.7404816  45.2784826  15.9479290
  11.1853547  40.9196156  10.9889893  11.9411062  41.3527670  11.0278802
  11.2915871  40.2700925  11.5624529  11.3123717  40.8873639  11.0787919
  14.2233718  44.7469433  11.7392296  13.7868950  44.7506175  12.4951268
  13.8896633  45.4274932  11.3071874  14.1096338  44.8481889  11.7873129
   8.7962791  46.7877766  23.0635446   9.5803208  46.9008613  23.4291189
   8.5959386  45.9618903  23.2594132   8.8828817  46.6824485  23.1469832
  14.1431201  31.7883261  13.9821724  14.7857109  31.8581365  14.5683639
  14.3954221  31.1212484  13.4801266  14.2753333  31.7009609  13.9949003
   1.9148413  34.9983824  18.5946298   1.2220210  34.5280804  18.8407030
   2.5308741  34.7722129  19.1688005   1.9032943  34.8950956  18.7155451
   8.9533185  48.6987868  16.7101902   8.1548430  48.4587368  16.9675771
   9.4019196  48.7502261  17.4568950   8.9007796  48.6710259  16.8586826
  17.3578064  41.4650353  10.6311933  18.0194498  40.9041021  10.5307842
  16.7169476  40.9702383  10.9564624  17.3606931  41.3086762  10.6644274
  13.6442895  42.4815735  10.3723922  13.8798484  42.6260934   9.5450773
  13.7932458  43.2458143  10.7655436  13.7008698  42.6154790  10.3087526
   0.6388972  38.9649228  19.7373143   1.3628944  38.9502259  20.2238038
   0.7405109  39.6744583  19.2395111   0.7607181  39.0673931  19.7351930
  15.4733351  41.3217401   8.2093526  15.8041569  41.8545041   7.6033621
  16.0466440  41.3756289   8.8655477  15.6067031  41.4086970   8.2171308
   8.0133922  42.4448313  24.6022090   7.2206902  42.7591824  24.7874710
   8.1282849  42.6599781  23.7642875   7.9129332  42.5232149  24.5060425
  10.6865241  39.1682304   8.8917106  10.7812095  39.9071598   9.3456732
  10.0624084  38.7399779   9.3251671  10.6074271  39.2143624   9.0225254
   8.9417714  42.3468516  19.5407387   9.5156576  41.7095761  19.6955951
   8.8632518  42.3472599  18.6717045   9.0150949  42.2533628  19.4353798
   4.2981433  40.7791782  11.5928584   4.0400677  39.9463516  11.5659884
   4.3529916  41.0049395  10.7521085   4.2681211  40.6889553  11.4648721
   9.3782483  32.8820232  11.6932677   8.6738810  32.3929418  11.8516596
   9.4267457  32.8942707  10.8221121   9.2812535  32.8109880  11.5872017
   3.2716145  38.3329544  12.0793479   2.6965736  38.4921712  12.7157440
   2.8951821  37.6964953  11.6161930   3.1318958  38.2627357  12.1048038
   6.9389434  36.8052893  16.9385858   6.5503867  36.3807111  16.2838049
   6.2744132  37.0535043  17.4462884   6.7836362  36.7791614  16.9173725
  16.5812703  36.5627898   9.7133688  16.3249268  35.7507839   9.5231570
  17.4242017  36.5705465   9.4863875  16.6678728  36.4439895   9.6518505
  10.7615795  30.5027522  14.4509842  11.1426307  29.8205693  14.8377716
   9.9579080  30.2137124  14.2685506  10.6992257  30.3594571  14.4813898
   8.0428372  41.0351498   5.1362665   8.8569011  41.3266391   5.0245436
   7.9787513  40.3811360   4.5620957   8.1531111  40.9816693   5.0351502
  14.2637862  43.7177494  19.5492240  14.0276500  42.8865559  19.4304301
  14.9081091  43.6663101  20.1347084  14.3232533  43.5875182  19.6178134
   3.9136280  44.5073015  10.2634977   4.5510227  44.2684763  10.8086770
   4.3391352  44.7110174   9.5288137   4.0712447  44.5024026  10.2352134
   4.7207636  33.0081720  24.3172450   4.4061077  33.7781283  24.0542013
   4.3997568  32.4451976  23.7324677   4.6266555  33.0391989  24.1913800
  15.2874283  43.5021943  15.6120535  14.9820100  44.2350000  15.9733850
  14.5680499  43.0959872  15.3313321  15.1361625  43.5503676  15.6233672
   6.2957752  44.9845438  11.9428763   6.3696761  44.8220610  12.7970613
   7.1127259  45.1735628  11.6989245   6.4274111  44.9882180  12.0326788
  20.9876075  40.1414943  14.9388879  20.9200575  40.1610903  14.0691465
  20.9731737  40.9845271  15.1644549  20.9754831  40.2688678  14.8441356
  11.3972421  31.5450101  18.2629968  12.1426013  31.3559912  17.8493394
  10.9809726  32.0708339  17.7043825  11.4457396  31.5952247  18.1194542
  18.7734692  38.9159330  13.2135473  19.3242614  38.2827399  13.4532565
  18.7578808  39.4474722  13.9050978  18.8519889  38.9008278  13.3514332
   5.4257083  42.7497927  17.7595367   4.9268777  43.4613695  17.8380255
   6.2357307  43.0698594  17.7213529   5.4713190  42.9024776  17.7651935
   1.6885201  42.0120880  12.0058088   1.3998449  41.3858351  12.5403815
   2.5568549  41.9541167  12.0722768   1.7745453  41.9108424  12.0949042
  12.4763099  37.1555663  12.3240069  12.1327864  36.4345999  12.6747319
  12.5756141  36.9469514  11.4818428  12.4405141  37.0179867  12.2511750
  12.9376128  43.6181367   7.8664058  13.5034160  44.2774577   7.7822601
  12.2904031  43.9631065   8.3380460  12.9254884  43.7663309   7.9236814
   4.3524141  35.6078971  23.0557665   3.5423917  35.9136751  22.9447507
   4.8298828  36.3284554  23.1710249   4.3027620  35.7593572  23.0564736
   3.2115701  44.8224692  13.3040568   2.6896454  44.9624984  13.9892433
   3.5989721  44.0635357  13.4942685   3.1919402  44.7310216  13.4341645
   9.4082706  46.5620152   7.2901137   9.1669382  45.8288012   6.8828202
   9.5884039  47.1107009   6.6367470   9.3990330  46.5342543   7.1331360
   4.6382026  41.8528711   8.7022059   4.4424809  42.4603446   8.1082362
   4.8616372  41.1596655   8.2213733   4.6416667  41.8406237   8.5438140
   3.0360556  38.7383449   8.8202927   3.7583208  38.9024607   8.3606733
   2.5568549  39.4593114   8.7142267   3.0724287  38.8681679   8.7368541
  10.9954064  35.0747248  14.1999612  10.1565165  35.1008527  13.9637876
  11.0658431  35.7217984  14.7804959  10.8822457  35.1743374  14.2508729
   9.4423342  31.9732625   8.9327228  10.1449695  31.7740373   8.4547187
   9.1767531  31.2008567   9.2396072   9.5069975  31.8295591   8.9072670
  14.8711588  40.2815235  11.4860854  14.7845562  40.4370661  12.3395633
  14.4162068  40.9253310  11.1120259  14.7914844  40.3990990  11.5567961
   4.2051898  33.2367910  17.9858109   4.0135095  33.2523045  18.8357532
   5.0550494  33.4331585  17.9624764   4.3027620  33.2682261  18.1081404
   8.7437404  37.6025982  10.1086414   8.4972118  37.5221733  10.9423203
   9.0722527  36.8179450   9.9148941   8.7558647  37.4752247  10.2033937
  12.6385453  44.3109341  13.8973195  12.4999812  45.0090387  14.4021937
  11.8585451  44.1557998  13.5409377  12.5028680  44.3909508  13.9199469
  10.9763538  40.6105717  20.1495577  10.9711576  39.7385533  20.1538003
  11.6824532  40.8093886  19.6765032  11.0808542  40.5109591  20.0802612
   4.7034431  40.3382701  19.5209397   4.8477807  40.9183909  18.8852507
   5.0510080  40.7158997  20.2259251   4.7761892  40.4803405  19.5308392
   6.8754348  39.5372869  17.3034528   6.1277663  39.7303883  16.8982806
   7.0295874  38.7118088  17.0658650   6.7876776  39.4437980  17.2079934
   3.7762186  48.5285472  16.3870424   3.9251750  47.9688388  15.7343828
   4.5562188  48.6077474  16.7702942   3.9136280  48.4571038  16.3467373
  14.1338826  43.6687595   4.6589694  13.7545634  42.8824733   4.6518983
  13.4705071  44.2174452   4.5161338  13.9797300  43.6332419   4.6370491
   6.3015487  48.7000115  17.6654914   6.2259158  48.0308926  18.2205703
   6.2305346  49.4017903  18.1795581   6.2796094  48.7045023  17.8231763
   7.1156126  33.4323420  18.1929932   7.5728740  34.1647394  18.3202724
   7.1912454  33.0089885  18.9517188   7.1947095  33.4780658  18.3231009
  11.5883451  26.6113295  12.0623775  11.7067020  27.0689758  11.3291078
  11.4145627  25.8058556  11.7759993  11.5802622  26.5607067  11.9124709
   6.9585734  47.2201114   8.4978520   7.7235625  46.9510758   8.1761185
   6.8563824  46.7351124   9.2148583   7.0567229  47.1090679   8.5558348
   4.9938503  35.4225524  15.0371756   4.2034578  35.2416984  15.3589092
   5.3899126  34.6452476  15.0202051   4.9355380  35.2812984  15.0824304
  10.3782190  43.0567954  12.7631202   9.7027192  42.8253186  13.2644589
  10.3874566  42.4489137  12.1373307  10.2800694  42.9326879  12.7447354
   7.5076334  37.8985783  19.5195255   7.4435475  38.7595739  19.3915392
   7.6473521  37.5817776  18.7190806   7.5191804  37.9785949  19.3823468
  12.3798924  45.9133086   4.9941380  12.4618762  46.7200072   4.6702831
  12.8648666  45.9329045   5.7182153  12.4636082  46.0353748   5.0528279
   6.1895428  40.5917922  13.6611458   5.7657677  40.7922421  12.9250476
   6.0140283  39.7446770  13.7735758   6.1006308  40.4966703  13.5685148
   5.6907121  52.1068435  16.1232915   6.1803051  51.4079224  15.9408580
   5.1191353  51.8092305  16.7108973   5.6791651  51.9594659  16.1833956
   1.4777873  41.0869973   9.0939430   1.6342492  41.0216776   9.9495422
   1.8178466  41.8618526   8.8818110   1.5511107  41.1919172   9.1894025
   8.0157017  40.4627857   7.9632794   8.5572563  39.9598238   8.4271414
   8.3303576  40.4093052   7.1522279   8.1421414  40.3807278   7.9116606
  11.8874125  44.6730504  25.0759706  12.7008990  44.4015653  25.2364838
  11.7269091  44.3738044  24.2719902  11.9844073  44.5885430  24.9805112
   9.1646287  35.3564162  18.0155094   9.3788256  34.7175076  17.4618448
   8.5480186  35.8009985  17.5862956   9.1051616  35.3274305  17.8705525
  10.5750954  48.2782910   9.4609315  10.1830746  47.9749625   8.7432181
  10.7304027  49.1152000   9.2714269  10.5404544  48.3566747   9.3265812
  11.3285375  36.9653227  18.9538401  10.5162056  36.6579117  19.0351574
  11.7875309  36.4852227  19.5181113  11.2765759  36.8489719  19.0492995
  10.7390629  44.8432899   9.4015346  10.3805284  45.0147542  10.1779378
  10.2529340  45.3046104   8.8443344  10.6149326  44.9371870   9.4340615
   8.5561015  28.4664097  13.0042437   7.6854573  28.4402818  12.9575746
   8.8101356  28.2941289  12.1868283   8.4654575  28.4374241  12.8762574
   8.4238882  38.3713298  23.7367104   8.8938513  38.9955415  24.1234978
   8.4700762  37.7030274  24.2960318   8.5006758  38.3647978  23.8767175
   5.5810156  30.4770326  14.4615907   5.0648644  29.7850517  14.5867486
   5.0204085  31.1441103  14.4078506   5.4216669  30.4733583  14.4721973
   7.6502389  31.0163286  16.2908760   7.2634142  31.0412317  17.0722290
   7.1635326  30.4504964  15.8383276   7.5214898  30.9359037  16.3396664
  11.8995369  45.7336795  20.3482546  12.5375089  45.2396990  20.0145002
  11.2569460  45.6614195  19.7634773  11.8989595  45.6495803  20.2124901
  13.6252369  37.5825941  14.9148462  13.1979977  37.4952289  14.1596562
  12.9878422  37.6903716  15.5003306  13.4681976  37.5858600  14.8893904
   7.3159531  27.9030271  18.5819020   7.9452649  28.4390571  18.3040090
   7.4845394  27.8107630  19.4332585   7.4337325  27.9691633  18.6667548
   7.1173446  32.6901466  20.8545431   7.9446875  32.4186615  20.9104046
   7.1381292  33.4862308  21.2109249   7.2426296  32.7681220  20.9160614
  11.9549625  46.4256603  16.9887903  12.7442003  46.0745668  17.1089985
  12.1293223  47.2392991  16.7264537  12.0969907  46.4942460  16.9675771
   1.6942936  39.8365329  14.0415692   0.8530942  39.7369203  14.2494586
   1.9032944  40.6060809  14.3930013   1.6007628  39.9357372  14.1243007
  10.8083449  30.4366160  11.5504322  11.0133043  30.3688467  12.3961319
  10.4809873  31.2424981  11.4825499  10.7898697  30.5452100  11.6663977
   5.5059600  37.7646728  13.2913290   5.2022738  37.2102716  13.8923697
   4.8039021  37.9438938  12.8041324   5.3575810  37.7091510  13.3082995
   3.5677951  44.9796449  17.9985387   3.4598306  44.9898511  18.8647445
   3.7773733  45.8051229  17.8090341   3.5828063  45.1037523  18.0989479
  14.0617137  30.9897924  11.0307087  13.4491451  31.4768326  11.4160819
  14.1581312  30.3141415  11.5744738  13.9855035  30.9616233  11.1685945
   1.5851743  42.2309091  15.4607325   0.9939677  42.8718589  15.4310340
   2.3472767  42.6546708  15.4338624   1.6100004  42.3884929  15.4522472
   1.9812366  33.3911089  16.1275343   2.4413848  33.4650018  16.8650466
   2.0268473  34.1892343  15.7775164   2.0562922  33.5205236  16.1848099
   3.6295716  34.0577784  20.6947370   3.2381281  33.4111131  21.1303147
   3.7981579  34.6489219  21.3141625   3.5966626  34.0492051  20.8510076
  17.7042165  42.0614861  16.4584603  17.7625289  42.5101509  17.2044580
  17.0708633  42.4713673  16.0214683  17.6193460  42.1888595  16.5037151
  11.3441260  47.6818403  12.8939349  11.1460948  48.1709217  12.1995561
  10.7228971  47.8859644  13.4723483  11.2228824  47.7834941  12.8762573
   5.4049238  39.4503299   7.2349594   6.1491283  39.8377576   7.4732544
   5.5509934  38.6060725   7.3990081   5.5359823  39.3833772   7.2943563
   7.3228814  31.2453558  12.2681455   6.4764859  31.4176366  12.1422805
   7.3199946  30.4402902  12.6047283   7.1975963  31.1514587  12.2992582
   8.3927114  35.0228773  13.1343513   7.9187068  34.4970535  13.6448824
   8.7645250  34.4758246  12.5658375   8.3777003  34.8644769  13.1258660
  14.6563845  40.0831148  14.5450294  14.4162067  39.2437564  14.5492720
  15.1355852  40.1631315  15.2691067  14.6916028  39.9712548  14.6525096
  16.6569032  36.8632606  12.4979553  16.4178802  36.8228440  11.6600337
  16.8202933  37.7103758  12.6245274  16.6459335  36.9824691  12.3933035
  13.2615062  41.2482555  18.4284598  13.9849261  40.7955081  18.2495618
  12.9965024  41.5287221  17.6456926  13.3296335  41.2233523  18.2863313
   2.1301930  35.8442728  15.1637477   1.5055000  35.8561120  14.5563430
   1.7947525  36.3202904  15.8128717   1.9887422  35.9161245  15.1694045
   9.8747696  44.4868891   5.3278924  10.5981895  44.9527004   5.1843497
   9.4348287  44.5542500   4.5776521   9.9163388  44.5652728   5.1963705
   9.0433851  41.3466433  16.5779613   8.4290844  40.8024483  16.8728248
   9.5601136  40.8330670  16.0985429   9.0289514  41.1902842  16.5503841
   8.2830148  42.4170703  14.3123911   7.8557756  41.7920422  13.8789347
   8.2755093  42.1345625  15.1382919   8.2189290  42.2823484  14.3703739
   1.3992675  37.4535876  17.3812345   1.5586162  36.6979200  17.7864067
   1.2185569  38.0026816  18.0353083   1.3958034  37.4229690  17.5375051
   9.3412978  29.6197112  17.9363135   8.8453540  29.8160786  17.2454702
  10.0982040  30.0189780  17.7651937   9.3799803  29.7074846  17.8083272
   6.6115858  33.2939458  14.5266445   6.6358345  32.7599570  13.8379225
   6.8627332  32.7856766  15.1892036   6.6525777  33.1400362  14.5231090
   2.8917180  32.0210276  13.9072190   2.9315552  32.5219482  14.6206897
   2.0666845  32.1120670  13.6378113   2.7756706  32.1092092  13.9722728
   5.0746793  41.5871016  22.0092484   4.2242424  41.7242730  22.1450129
   5.2374921  40.8534794  22.4540186   4.9730657  41.4985117  22.0948084
   4.3131544  38.5370786  16.2046089   3.4823473  38.7044604  15.9981337
   4.2583061  38.1606737  16.9894974   4.1820959  38.5060517  16.2894617
   2.1215327  32.0279679  21.8402499   2.7468030  31.4841811  22.1131932
   1.6665807  31.5474596  21.2710290   2.1463588  31.8769160  21.7964093
  15.6950376  40.2108966  16.9315147  16.2868216  40.8506216  16.9633346
  16.1309370  39.5132002  17.2207214  15.8468807  40.2027316  16.9795980
   7.5243765  44.6326338  17.5573041   7.0168857  45.1862185  18.0013672
   7.2270412  44.6934628  16.7391816   7.4048650  44.7232649  17.5021498
   9.6905948  32.9979658  16.3997704  10.1161019  32.5452184  15.7881231
   9.0762941  32.4439728  16.6762492   9.6634593  32.8493634  16.3502730
  12.7199517  37.4254184   9.2318290  12.0490707  37.9683887   9.1031356
  13.4139267  37.8949040   8.9899985  12.7228385  37.5752456   9.1773818
   6.7686251  49.5650896  14.4630048   6.5451905  48.8069726  14.8314075
   6.2796094  49.5948918  13.7410488   6.6629700  49.4573121  14.4106789
  12.8827644  33.8810068  12.1408663  13.2355255  33.4539791  12.8154462
  12.0242446  33.7960911  12.2709740  12.8077089  33.8054809  12.2603674
   1.5811329  36.5117588  10.1991510   0.8623319  36.9281720  10.4664373
   1.9523692  37.0771826   9.6483148   1.5303261  36.6566869  10.1574317
  10.8810910  37.1445437  16.0893505  10.8608838  36.9628732  16.9428284
  10.9290111  38.0157455  16.0653089  10.8845551  37.2461975  16.2116800
   8.8257240  43.7332629  22.0141982   8.7853095  43.0882305  21.4287138
   9.6380558  43.6769246  22.3267394   8.9400394  43.6291595  21.9738931
   5.4164708  49.7851354  11.9167133   5.0025106  49.1225485  11.5270975
   6.1012082  49.9329213  11.3962827   5.4563079  49.7092013  11.7823630
   8.7830002  48.9441440  12.6690749   8.3846285  49.0543710  11.9011570
   8.1681221  49.1523506  13.2517309   8.6328891  48.9915008  12.6422049
  14.3151705  29.0028480  13.0692976  13.8082569  28.2957619  13.0014153
  15.1119138  28.6721669  13.1994052  14.3578944  28.8501631  13.0791971
  10.2315720  35.5095092   8.9666639  10.0029413  35.5327793   8.1244998
  10.4913797  34.6852559   9.0861650  10.2361908  35.3911172   8.8591837
   4.5134949  37.3629565  18.5691740   4.0013852  36.7550748  18.9276771
   4.3414445  38.0786158  19.0365715   4.4124586  37.3792864  18.6907963
   3.2860483  34.0471638  10.2620835   3.7617849  34.4088718   9.6271016
   2.7849083  34.7028106  10.5420978   3.2825842  34.1965827  10.2097576
  16.5171844  43.5193406   6.0533840  16.9005450  44.2684763   6.2831937
  15.7215958  43.7659226   5.7945829  16.4565627  43.6663100   6.0491414
   8.3904019  35.2853810  21.0093995   8.9475449  35.0567619  20.3772461
   8.0665084  36.0459475  20.7329208   8.4250429  35.3637646  20.8750492
   6.1087136  38.3721463  21.9746002   6.8598463  38.6873140  22.2885556
   6.3009713  38.1700634  21.1479924   6.2478551  38.3888845  21.8989398
  12.9572427  34.4995029   9.2169798  12.9566653  34.3443686  10.0754074
  12.7528607  35.3458016   9.1611183  12.9272204  34.6015650   9.3357737
  10.6813279  39.1792531  12.8706005  11.1766944  38.4615526  12.8310025
   9.8713054  38.8763329  12.7560492  10.6357172  39.0290177  12.8479730
  12.7465098  41.9296219  15.5583133  13.1720169  41.4070640  15.0053558
  12.3822017  42.5277056  15.0371756  12.7551700  41.9406446  15.3992143
   2.3819177  50.2260436  14.3180479   2.6965736  51.0396825  14.3258261
   2.7912591  49.8410655  14.9862638   2.4887275  50.2889138  14.4184571
   9.3343697  45.6430483  11.8884291   9.8054875  46.3570745  12.0574276
   9.6703875  45.0429233  12.4244160   9.4538812  45.6601947  11.9916667
  11.4220682  47.2531796  24.0676363  11.5317647  46.4640357  24.4233110
  11.7511578  47.1637732  23.2650701  11.4873087  47.1237649  24.0018754
   6.2513192  30.4157953  18.8442386   6.3841098  29.6188947  19.1723361
   6.6358345  30.9424356  19.4240661   6.3269521  30.3757870  18.9785889
   9.9717643  45.4348417  18.6511983   9.4238589  44.8106301  18.3832049
  10.4330672  45.6242689  17.9356063   9.9584853  45.3707467  18.5062415
   9.3245547  27.3388280  15.4423479   8.5191511  27.2286009  15.7591317
   9.1952283  27.4400735  14.5853345   9.1865680  27.3371950  15.3631519
  12.7811508  33.5033771  16.0363176  12.1974496  34.0042978  15.6240743
  13.1015802  32.9963328  15.4027499  12.7424683  33.5025607  15.8821683
   3.9101639  30.4117129  17.0920279   4.4546052  30.0708255  17.6824621
   3.9638574  31.2702590  17.2341564   3.9990758  30.4872388  17.2002153
   9.5375970  46.4399490  15.1821325  10.3574343  46.2962456  15.4437620
   9.2570047  47.0645689  15.7237763   9.6172713  46.5109842  15.3009264
  26.0089620  54.0964341   8.1464201  25.9783624  54.9508978   8.3182470
  26.6070969  53.7959634   8.7050345  26.0926778  54.1780838   8.2539003
  19.2089305  53.1839992  12.9017131  18.3527200  53.3448491  12.9526248
  19.2556959  52.3132056  12.9222192  19.0888416  53.0790794  12.9123197
  22.5183021  59.4526518  22.5077588  23.2249789  58.9578549  22.6364522
  22.7070957  59.8935600  21.7780246  22.6510927  59.4444868  22.4186633
  18.5859696  65.0942348  10.0351022  18.9699075  65.6629247   9.4955797
  18.5218837  64.3691859   9.5556838  18.6333123  65.0717812   9.8844884
  22.0541126  55.2432036  15.5448783  22.5997086  55.9217123  15.6042753
  21.9958002  55.1019497  14.6850365  22.1257040  55.3224038  15.4260844
  15.1715201  62.7321102  10.9317136  15.2725564  61.9221456  11.2414263
  14.5756946  62.6378049  10.3016814  15.0987739  62.5986131  10.8843374
  23.8306194  56.6716643   6.4182511  23.7145720  57.4224330   6.8474649
  24.6262081  56.4140597   6.6678598  23.9310784  56.7451490   6.5186603
  15.0115940  67.6498692  12.3331992  15.6553396  68.0911856  12.7228150
  15.3372196  66.8452118  12.2462250  15.1547769  67.5963886  12.3777469
  10.6670332  50.9227120  13.4553777  10.0475364  50.3319767  13.2863792
  10.5654196  51.5138555  12.8218100  10.5608008  50.9231202  13.3358766
  17.7638228  52.6626661   7.7886240  18.4618393  52.8414789   8.2807703
  18.0790561  52.1397001   7.1656629  17.9133565  52.6120434   7.7688250
  10.3939465  54.4679401  15.6997346  10.2698162  55.0541847  16.3347165
  11.0457750  53.9739597  16.0009621  10.4713115  54.4818206  15.8383275
  17.9526163  59.0497106   7.7766031  18.3919799  58.4414207   8.2220804
  17.8030826  58.6704480   7.0051496  17.9947629  58.9035578   7.7285199
  15.4197806  57.6441118  14.9784857  16.0646809  57.1513561  14.6595805
  15.6599583  57.7865905  15.8050935  15.5508392  57.5918560  15.0534390
  17.9583898  60.4896024  14.6291750  18.2407141  59.6947430  14.4078505
  18.6870058  60.9676612  14.6496811  18.1073462  60.4430621  14.5994765
  15.9365092  48.0319058  11.8707515  15.6068422  48.4830202  11.2011213
  15.2610093  47.9535221  12.4180521  15.7875528  48.0870193  11.8530738
  21.5535500  57.4024288   4.7296801  21.4686795  58.2585254   4.8746370
  22.0419883  57.1268612   5.3978960  21.6124397  57.4881609   4.8498882
  23.1441499  44.0204581  10.1157125  22.8294940  44.7108060  10.5477548
  22.6268441  43.9649363   9.4142626  23.0205970  44.1139470  10.0754074
  22.4853933  54.0209082   6.2294536  21.9565405  54.2368715   6.8891842
  23.0078953  54.7145220   6.1495505  22.4842386  54.1552219   6.3150135
  27.9401986  59.5955386  11.6027580  27.1099689  59.8066030  11.7660997
  27.8911238  58.7692441  11.3269864  27.8108722  59.5044993  11.5864946
  16.0011724  62.4259241  14.4375490  15.4838665  62.0666656  13.8336798
  16.6986115  61.9021415  14.4481556  16.0277305  62.2956928  14.3505748
  19.6575316  62.8754055  20.3991663  19.7458662  62.6880195  21.2469873
  20.0865028  62.2291484  19.9996510  19.7337418  62.7517062  20.4663414
  17.2245775  62.1585215  19.3809325  16.6616610  61.7457824  19.9048986
  17.9866799  62.0838120  19.8002468  17.2540224  62.0862615  19.5202325
  18.8330755  54.1637951   3.5070924  19.0726759  54.3715935   2.6946268
  19.1546596  53.3595459   3.6159869  18.9167913  54.0752052   3.4031477
  14.1421046  46.0931346   7.3530462  14.8967014  46.4609664   7.1147513
  13.9648580  46.4670901   8.1209642  14.2275524  46.2029534   7.4315351
  12.7841767  64.1483236  11.9845955  13.4862346  63.6335225  12.0418712
  12.7039250  64.4757387  12.7892830  12.8765527  64.1197462  12.1118747
  27.4355944  52.2425787  15.3978002  26.5984366  52.3127974  15.6325596
  27.4044175  52.2450282  14.5252304  27.3074227  52.2536014  15.3037550
  13.8320673  54.3858823  21.1126370  14.0041177  54.2764717  21.9611652
  14.3690031  55.0313228  20.8757563  13.9365677  54.4650824  21.2031467
  12.4978110  48.5001665   4.0508575  12.3153684  48.7173546   3.2249568
  13.3603723  48.6140678   4.1067190  12.5982700  48.5491563   3.9363062
  12.1092542  60.3389588  11.4931563  12.9481442  60.5712520  11.5405325
  12.1404311  59.4693899  11.4238599  12.2374260  60.2446534  11.4896208
  12.7345245  60.7590463  15.7944869  13.2743470  60.6161594  16.4648241
  12.0515192  61.1587214  16.1628895  12.7137399  60.7970134  15.9479290
  18.1777830  45.5028076   7.0857599  18.9063990  45.3244031   6.6395755
  18.2672722  46.3446156   7.2964777  18.2984492  45.6011955   7.0511117
  22.1586130  56.4381464  10.9889893  22.9143645  56.8712978  11.0278802
  22.2648455  55.7886233  11.5624529  22.2856301  56.4058947  11.0787919
  25.1966301  60.2654741  11.7392296  24.7601533  60.2691483  12.4951268
  24.8629217  60.9460240  11.3071874  25.0828921  60.3667197  11.7873129
  19.7695375  62.3063074  23.0635446  20.5535792  62.4193921  23.4291189
  19.5691970  61.4804211  23.2594132  19.8561400  62.2009793  23.1469832
   8.1382390  56.9790754  15.9479290   7.8720806  56.1629870  16.1070281
   8.1520955  57.0243909  15.0774806   8.1007113  56.8647658  15.8432772
  25.1163784  47.3068569  13.9821724  25.7589693  47.3766673  14.5683639
  25.3686805  46.6397791  13.4801266  25.2485916  47.2194917  13.9949003
  12.8880997  50.5169132  18.5946298  12.1952794  50.0466112  18.8407030
  13.5041324  50.2907436  19.1688005  12.8765527  50.4136264  18.7155451
  19.9265768  64.2173176  16.7101902  19.1281014  63.9772676  16.9675771
  20.3751780  64.2687569  17.4568950  19.8740380  64.1895567  16.8586826
  28.3310648  56.9835661  10.6311933  28.9927082  56.4226329  10.5307842
  27.6902060  56.4887691  10.9564624  28.3339515  56.8272070  10.6644274
   8.5475804  57.7649533  13.2291035   8.3651377  57.7396419  12.3763327
   9.2825473  58.2348471  13.2679943   8.6289868  57.8310895  13.1088953
  24.6175478  58.0001043  10.3723922  24.8531067  58.1446242   9.5450773
  24.7665042  58.7643451  10.7655436  24.6741282  58.1340097  10.3087526
  11.6121556  54.4834536  19.7373143  12.3361528  54.4687567  20.2238038
  11.7137692  55.1929891  19.2395111  11.7339765  54.5859239  19.7351930
  26.4465935  56.8402709   8.2093526  26.7774152  57.3730349   7.6033621
  27.0199023  56.8941597   8.8655477  26.5799614  56.9272278   8.2171308
  18.9866505  57.9633621  24.6022090  18.1939486  58.2777132  24.7874710
  19.1015432  58.1785089  23.7642875  18.8861916  58.0417457  24.5060425
  21.6597824  54.6867612   8.8917106  21.7544679  55.4256906   9.3456732
  21.0356668  54.2585087   9.3251671  21.5806854  54.7328932   9.0225254
  19.9150298  57.8653824  19.5407387  20.4889160  57.2281069  19.6955951
  19.8365102  57.8657907  18.6717045  19.9883533  57.7718936  19.4353798
   8.5146714  54.6443034  13.3790101   9.0920217  54.5079485  14.0182346
   7.8160776  54.1878818  13.6335686   8.4967736  54.5565300  13.5112391
  21.9120845  56.5316352   2.1254058  21.8301008  56.6018539   2.9909045
  22.5500566  57.0946095   1.9337799  21.9940683  56.6255323   2.2244008
  15.2714017  56.2977089  11.5928584  15.0133261  55.4648824  11.5659884
  15.3262499  56.5234702  10.7521085  15.2413794  56.2074861  11.4648721
  20.3515067  48.4005540  11.6932677  19.6471393  47.9114726  11.8516596
  20.4000041  48.4128015  10.8221121  20.2545118  48.3295188  11.5872017
  14.2448729  53.8514852  12.0793479  13.6698320  54.0107020  12.7157440
  13.8684405  53.2150261  11.6161930  14.1051541  53.7812665  12.1048038
  17.9122017  52.3238201  16.9385858  17.5236450  51.8992419  16.2838049
  17.2476716  52.5720351  17.4462884  17.7568945  52.2976922  16.9173725
  27.5545287  52.0813206   9.7133688  27.2981851  51.2693147   9.5231570
  28.3974600  52.0890773   9.4863875  27.6411312  51.9625203   9.6518505
  21.7348379  46.0212830  14.4509842  22.1158891  45.3391001  14.8377716
  20.9311663  45.7322432  14.2685506  21.6724841  45.8779878  14.4813898
  19.0160956  56.5536806   5.1362665  19.8301594  56.8451699   5.0245436
  18.9520097  55.8996668   4.5620957  19.1263695  56.5002001   5.0351502
  25.2370446  59.2362802  19.5492240  25.0009083  58.4050867  19.4304301
  25.8813675  59.1848409  20.1347084  25.2965117  59.1060490  19.6178134
  14.8868864  60.0258323  10.2634977  15.5242811  59.7870071  10.8086770
  15.3123935  60.2295482   9.5288137  15.0445030  60.0209333  10.2352134
   9.5781506  62.2646660  14.1469280   9.6185652  62.5361511  13.3189060
  10.1376030  62.7888568  14.5627068   9.6664852  62.3822415  14.0861169
  15.6940219  48.5267028  24.3172450  15.3793660  49.2966591  24.0542013
  15.3730152  47.9637284  23.7324677  15.5999138  48.5577297  24.1913800
  17.2690336  60.5030746  11.9428763  17.3429344  60.3405918  12.7970613
  18.0859842  60.6920935  11.6989245  17.4006694  60.5067488  12.0326788
  31.9608659  55.6600251  14.9388879  31.8933159  55.6796210  14.0691465
  31.9464321  56.5030579  15.1644549  31.9487415  55.7873986  14.8441356
  13.2472116  46.9157550   9.9318647  12.3794542  46.9880149   9.9976256
  13.5347321  47.7179629  10.1206622  13.1611864  47.0451697   9.9693413
  22.3705005  47.0635409  18.2629968  23.1158597  46.8745219  17.8493394
  21.9542310  47.5893647  17.7043825  22.4189979  47.1137554  18.1194542
  29.7467276  54.4344638  13.2135473  30.2975197  53.8012707  13.4532565
  29.7311391  54.9660030  13.9050978  29.8252472  54.4193586  13.3514332
  16.3989667  58.2683235  17.7595367  15.9001360  58.9799003  17.8380255
  17.2089891  58.5883901  17.7213529  16.4445773  58.4210083  17.7651935
  12.6617784  57.5306188  12.0058088  12.3731033  56.9043659  12.5403815
  13.5301132  57.4726475  12.0722768  12.7478036  57.4293732  12.0949042
  23.4495682  52.6740971  12.3240069  23.1060448  51.9531306  12.6747319
  23.5488725  52.4654822  11.4818428  23.4137725  52.5365174  12.2511750
  23.9108711  59.1366675   7.8664058  24.4766744  59.7959885   7.7822601
  23.2636615  59.4816373   8.3380460  23.8987468  59.2848617   7.9236814
  15.3256725  51.1264279  23.0557665  14.5156500  51.4322059  22.9447507
  15.8031411  51.8469862  23.1710249  15.2760204  51.2778880  23.0564736
  14.1848284  60.3410000  13.3040568  13.6629038  60.4810292  13.9892433
  14.5722305  59.5820665  13.4942685  14.1651985  60.2495524  13.4341645
  11.1739468  50.3915809   7.3735523  10.8864264  50.0217079   6.6367470
  11.8609937  50.8610664   7.1119228  11.2328366  50.4062778   7.2250599
  20.3815289  62.0805459   7.2901137  20.1401965  61.3473320   6.8828202
  20.5616622  62.6292316   6.6367470  20.3722913  62.0527851   7.1331360
  15.6114610  57.3714019   8.7022059  15.4157393  57.9788754   8.1082362
  15.8348956  56.6781963   8.2213733  15.6149251  57.3591545   8.5438140
  14.0093140  54.2568757   8.8202927  14.7315792  54.4209915   8.3606733
  13.5301133  54.9778422   8.7142267  14.0456871  54.3866987   8.7368541
  21.9686648  50.5932556  14.1999612  21.1297748  50.6193835  13.9637876
  22.0391015  51.2403291  14.7804959  21.8555041  50.6928682  14.2508729
  11.6600757  56.6626830  17.9257067  12.1721854  56.9411083  17.2765827
  11.3737099  57.4016124  18.2919880  11.6935620  56.8129183  17.8846945
  20.4155926  47.4917933   8.9327228  21.1182279  47.2925681   8.4547187
  20.1500115  46.7193875   9.2396072  20.4802558  47.3480899   8.9072670
  25.8444171  55.8000543  11.4860854  25.7578146  55.9555969  12.3395633
  25.3894651  56.4438618  11.1120259  25.7647428  55.9176298  11.5567961
   8.7467663  51.1697021   8.2220804   8.8483799  51.9723183   8.5501779
   9.5423550  50.9684357   7.9243884   8.8795569  51.2582920   8.2256159
  15.1784482  48.7553218  17.9858109  14.9867679  48.7708353  18.8357532
  16.0283078  48.9516892  17.9624764  15.2760204  48.7867569  18.1081404
   9.5631395  51.2844200  15.9641925   9.4216887  50.4328140  16.0886433
   9.8471958  51.3272860  15.1404131   9.5839241  51.1643950  15.8609549
  19.7169987  53.1211290  10.1086414  19.4704702  53.0407041  10.9423203
  20.0455110  52.3364758   9.9148941  19.7291231  52.9937555  10.2033937
  23.6118036  59.8294649  13.8973195  23.4732396  60.5275695  14.4021937
  22.8318034  59.6743306  13.5409377  23.4761263  59.9094816  13.9199469
  21.9496121  56.1291025  20.1495577  21.9444160  55.2570841  20.1538003
  22.6557115  56.3279194  19.6765032  22.0541125  56.0294899  20.0802612
  15.6767015  55.8568008  19.5209397  15.8210390  56.4369217  18.8852507
  16.0242663  56.2344305  20.2259251  15.7494476  55.9988712  19.5308392
  17.8486932  55.0558177  17.3034528  17.1010246  55.2489191  16.8982806
  18.0028457  54.2303396  17.0658650  17.7609360  54.9623288  17.2079934
  14.7494770  64.0470780  16.3870424  14.8984333  63.4873696  15.7343828
  15.5294772  64.1262782  16.7702942  14.8868863  63.9756346  16.3467373
  25.1071409  59.1872903   4.6589694  24.7278218  58.4010041   4.6518983
  24.4437655  59.7359760   4.5161338  24.9529884  59.1517727   4.6370491
  17.2748070  64.2185423  17.6654914  17.1991741  63.5494234  18.2205703
  17.2037929  64.9203211  18.1795581  17.2528677  64.2230330  17.8231763
  18.0888709  48.9508728  18.1929932  18.5461323  49.6832702  18.3202724
  18.1645038  48.5275193  18.9517188  18.1679679  48.9965966  18.3231009
  10.3321700  49.1974547  19.2819376   9.7963890  48.5854905  19.5980143
  10.3939465  49.7722683  19.9353042  10.2617333  49.1921475  19.4254803
  22.5616035  42.1298603  12.0623775  22.6799603  42.5875066  11.3291078
  22.3878211  41.3243864  11.7759993  22.5535206  42.0792375  11.9124709
  17.9318317  62.7386422   8.4978520  18.6968208  62.4696066   8.1761185
  17.8296407  62.2536432   9.2148583  18.0299813  62.6275987   8.5558348
  15.9671087  50.9410831  15.0371756  15.1767162  50.7602292  15.3589092
  16.3631710  50.1637784  15.0202051  15.9087963  50.7998292  15.0824304
  21.3514773  58.5753262  12.7631202  20.6759775  58.3438494  13.2644589
  21.3607149  57.9674445  12.1373307  21.2533278  58.4512187  12.7447354
  18.4808917  53.4171091  19.5195255  18.4168059  54.2781047  19.3915392
  18.6206105  53.1003084  18.7190806  18.4924387  53.4971257  19.3823468
  23.3531508  61.4318394   4.9941380  23.4351345  62.2385380   4.6702831
  23.8381250  61.4514353   5.7182153  23.4368666  61.5539056   5.0528279
  17.1628011  56.1103230  13.6611458  16.7390260  56.3107729  12.9250476
  16.9872866  55.2632078  13.7735758  17.0738892  56.0152011  13.5685148
  16.6639705  67.6253743  16.1232915  17.1535635  66.9264532  15.9408580
  16.0923937  67.3277613  16.7108973  16.6524235  67.4779967  16.1833956
  12.4510456  56.6055281   9.0939430  12.6075075  56.5402084   9.9495422
  12.7911049  57.3803834   8.8818110  12.5243691  56.7104479   9.1894025
  18.9889601  55.9813165   7.9632794  19.5305146  55.4783546   8.4271414
  19.3036160  55.9278360   7.1522279  19.1153998  55.8992586   7.9116606
  22.8606708  60.1915812  25.0759706  23.6741573  59.9200961  25.2364838
  22.7001675  59.8923352  24.2719902  22.9576657  60.1070738  24.9805112
  20.1378870  50.8749469  18.0155094  20.3520840  50.2360384  17.4618448
  19.5212769  51.3195293  17.5862956  20.0784199  50.8459613  17.8705525
  21.5483538  63.7968218   9.4609315  21.1563330  63.4934933   8.7432181
  21.7036610  64.6337308   9.2714269  21.5137128  63.8752054   9.3265812
   9.0244718  53.7890232   9.4100198   9.4043682  54.2074777   8.7460465
   8.4500082  54.3703688   9.7169041   8.9956043  53.9368091   9.3576939
  22.3017958  52.4838535  18.9538401  21.4894640  52.1764425  19.0351574
  22.7607893  52.0037535  19.5181113  22.2498343  52.3675027  19.0492995
  21.7123213  60.3618207   9.4015346  21.3537868  60.5332849  10.1779378
  21.2261924  60.8231412   8.8443344  21.5881910  60.4557178   9.4340615
  19.5293599  43.9849405  13.0042437  18.6587157  43.9588126  12.9575746
  19.7833940  43.8126597  12.1868283  19.4387159  43.9559549  12.8762574
  19.3971466  53.8898606  23.7367104  19.8671097  54.5140722  24.1234978
  19.4433346  53.2215582  24.2960318  19.4739342  53.8833286  23.8767175
  16.5542739  45.9955634  14.4615907  16.0381228  45.3035825  14.5867486
  15.9936668  46.6626411  14.4078506  16.3949253  45.9918891  14.4721973
  18.6234973  46.5348594  16.2908760  18.2366726  46.5597625  17.0722290
  18.1367910  45.9690272  15.8383276  18.4947482  46.4544344  16.3396664
  22.8727952  61.2522103  20.3482546  23.5107673  60.7582298  20.0145002
  22.2302044  61.1799503  19.7634773  22.8722179  61.1681111  20.2124901
  24.5984952  53.1011249  14.9148462  24.1712560  53.0137597  14.1596562
  23.9611005  53.2089024  15.5003306  24.4414560  53.1043908  14.8893904
  18.2892114  43.4215579  18.5819020  18.9185232  43.9575879  18.3040090
  18.4577977  43.3292938  19.4332585  18.4069909  43.4876941  18.6667548
  18.0906029  48.2086774  20.8545431  18.9179459  47.9371923  20.9104046
  18.1113875  49.0047615  21.2109249  18.2158879  48.2866528  20.9160614
  22.9282209  61.9441911  16.9887903  23.7174587  61.5930976  17.1089985
  23.1025807  62.7578299  16.7264537  23.0702490  62.0127768  16.9675771
  12.6675519  55.3550637  14.0415692  11.8263526  55.2554511  14.2494586
  12.8765527  56.1246117  14.3930013  12.5740212  55.4542680  14.1243007
  10.1451086  52.9770174  11.8700443   9.7507784  53.0513185  11.0950552
   9.5891203  53.3628120  12.4208804  10.0053899  53.0451948  11.8368102
  21.7816033  45.9551468  11.5504322  21.9865626  45.8873775  12.3961319
  21.4542457  46.7610289  11.4825499  21.7631281  46.0637408  11.6663977
  16.4792184  53.2832036  13.2913290  16.1755322  52.7288024  13.8923697
  15.7771605  53.4624246  12.8041324  16.3308394  53.2276818  13.3082995
  15.5358281  50.5932556   7.8557991  15.8118015  49.8751468   7.4435559
  16.1356950  51.1917475   7.6479097  15.6651546  50.5752926   7.7638753
  14.5410535  60.4981756  17.9985387  14.4330890  60.5083819  18.8647445
  14.7506317  61.3236537  17.8090341  14.5560646  60.6222831  18.0989479
  25.0349721  46.5083232  11.0307087  24.4224034  46.9953634  11.4160819
  25.1313896  45.8326723  11.5744738  24.9587618  46.4801541  11.1685945
  19.0368802  48.2646073   6.1304586  19.4912548  48.4356633   6.8552431
  19.5108847  47.6514184   5.7302362  19.1737122  48.1996958   6.1778348
  12.5584327  57.7494399  15.4607325  11.9672260  58.3903897  15.4310340
  13.3205351  58.1732016  15.4338624  12.5832588  57.9070237  15.4522472
  12.9544950  48.9096397  16.1275343  13.4146431  48.9835326  16.8650466
  13.0001057  49.7077651  15.7775164  13.0295505  49.0390544  16.1848099
  14.6028300  49.5763092  20.6947370  14.2113865  48.9296439  21.1303147
  14.7714162  50.1674527  21.3141625  14.5699210  49.5677359  20.8510076
  28.6774749  57.5800169  16.4584603  28.7357872  58.0286817  17.2044580
  28.0441216  57.9898981  16.0214683  28.5926044  57.7073903  16.5037151
  22.3173843  63.2003710  12.8939349  22.1193532  63.6894525  12.1995561
  21.6961554  63.4044952  13.4723483  22.1961408  63.3020249  12.8762573
  16.3781822  54.9688607   7.2349594  17.1223867  55.3562884   7.4732544
  16.5242518  54.1246033   7.3990081  16.5092407  54.9019080   7.2943563
  18.2961397  46.7638866  12.2681455  17.4497442  46.9361674  12.1422805
  18.2932530  45.9588210  12.6047283  18.1708547  46.6699895  12.2992582
  19.3659698  50.5414081  13.1343513  18.8919652  50.0155843  13.6448824
  19.7377833  49.9943553  12.5658375  19.3509586  50.3830077  13.1258660
   9.7432728  52.5385587  18.5027059  10.6058341  52.4381297  18.4164389
   9.4124511  51.9580297  17.9412631   9.8217924  52.4377214  18.4072465
  25.6296428  55.6016456  14.5450294  25.3894651  54.7622871  14.5492720
  26.1088435  55.6816623  15.2691067  25.6648612  55.4897856  14.6525096
  21.2943197  51.4350635   6.1969267  20.7666216  51.5179379   5.5074976
  21.7538905  52.1768507   6.1933911  21.2845048  51.5571298   6.0943962
  27.6301615  52.3817913  12.4979553  27.3911385  52.3413748  11.6600337
  27.7935516  53.2289066  12.6245274  27.6191919  52.5009998  12.3933035
  24.2347645  56.7667863  18.4284598  24.9581844  56.3140389  18.2495618
  23.9697608  57.0472528  17.6456926  24.3028919  56.7418831  18.2863313
  13.1034514  51.3628036  15.1637477  12.4787584  51.3746428  14.5563430
  12.7680109  51.8388211  15.8128717  12.9620005  51.4346553  15.1694045
   9.8160189  59.4228496  16.6041241   9.2860114  58.7320935  16.6536216
  10.0885283  59.4138682  15.7753950   9.7784912  59.3195628  16.4888657
  20.8480280  60.0054199   5.3278924  21.5714479  60.4712312   5.1843497
  20.4080871  60.0727808   4.5776521  20.8895972  60.0838035   5.1963705
  20.0166435  56.8651741  16.5779613  19.4023428  56.3209791  16.8728248
  20.5333720  56.3515977  16.0985429  20.0022097  56.7088150  16.5503841
  19.2562732  57.9356011  14.3123911  18.8290340  57.3105730  13.8789347
  19.2487676  57.6530933  15.1382919  19.1921873  57.8008792  14.3703739
  12.3725259  52.9721184  17.3812345  12.5318746  52.2164508  17.7864067
  12.1918153  53.5212124  18.0353083  12.3690618  52.9414998  17.5375051
  20.3145562  45.1382420  17.9363135  19.8186123  45.3346094  17.2454702
  21.0714624  45.5375088  17.7651937  20.3532387  45.2260153  17.8083272
  17.5848442  48.8124766  14.5266445  17.6090929  48.2784878  13.8379225
  17.8359915  48.3042074  15.1892036  17.6258360  48.6585670  14.5231090
  13.8649764  47.5395584  13.9072190  13.9048135  48.0404790  14.6206897
  13.0399428  47.6305978  13.6378113  13.7489290  47.6277400  13.9722728
  15.2864127  54.0556094  16.2046089  14.4556057  54.2229912  15.9981337
  15.2315644  53.6792044  16.9894974  15.1553542  54.0245825  16.2894617
  13.0947910  47.5464987  21.8402499  13.7200614  47.0027119  22.1131932
  12.6398390  47.0659904  21.2710290  13.1196171  47.3954468  21.7964093
  13.6600171  52.3311685   6.7336206  13.8003132  52.8284149   7.4364848
  14.1582704  51.6297980   6.8750420  13.7541252  52.3013664   6.8587785
  26.6682959  55.7294274  16.9315147  27.2600799  56.3691524  16.9633346
  27.1041954  55.0317310  17.2207214  26.8201390  55.7212624  16.9795980
  15.2679376  49.1292772   4.0374225  15.5895217  48.6495854   3.3833488
  15.5306320  49.9392418   3.8465037  15.3545402  49.1782670   3.9129717
  18.4976349  60.1511646  17.5573041  17.9901440  60.7047493  18.0013672
  18.2002995  60.2119936  16.7391816  18.3781234  60.2417957  17.5021498
  20.6638531  48.5164966  16.3997704  21.0893603  48.0637492  15.7881231
  20.0495524  47.9625036  16.6762492  20.6367177  48.3678942  16.3502730
  19.1032754  44.9880065   9.8088281  18.4601072  44.8377712  10.3773420
  18.7632161  44.7422411   9.0437386  18.9577831  44.9292188   9.7791297
  23.6932101  52.9439492   9.2318290  23.0223290  53.4869194   9.1031356
  24.3871851  53.4134348   8.9899985  23.6960968  53.0937763   9.1773818
  17.7418834  65.0836204  14.4630048  17.5184489  64.3255033  14.8314075
  17.2528678  65.1134225  13.7410488  17.6362283  64.9758429  14.4106789
  23.8560228  49.3995376  12.1408663  24.2087838  48.9725099  12.8154462
  22.9975030  49.3146219  12.2709740  23.7809673  49.3240117  12.2603674
  12.5543913  52.0302896  10.1991510  11.8355902  52.4467028  10.4664373
  12.9256275  52.5957134   9.6483148  12.5035845  52.1752177  10.1574317
  21.8543494  52.6630744  16.0893505  21.8341421  52.4814040  16.9428284
  21.9022695  53.5342763  16.0653089  21.8578135  52.7647283  16.2116800
  19.7989824  59.2517936  22.0141982  19.7585679  58.6067613  21.4287138
  20.6113142  59.1954554  22.3267394  19.9132977  59.1476903  21.9738931
  16.3897291  65.3036662  11.9167133  15.9757690  64.6410793  11.5270975
  17.0744666  65.4514521  11.3962827  16.4295663  65.2277321  11.7823630
  19.7562585  64.4626748  12.6690749  19.3578869  64.5729018  11.9011570
  19.1413805  64.6708814  13.2517309  19.6061475  64.5100316  12.6422049
  18.3290487  51.0700895   5.5364889  17.7355327  51.3917892   4.9849456
  18.3665765  50.2241991   5.3285995  18.2464877  50.9925224   5.4247660
  25.2884288  44.5213788  13.0692976  24.7815153  43.8142927  13.0014153
  26.0851722  44.1906977  13.1994052  25.3311527  44.3686939  13.0791971
  21.2048304  51.0280400   8.9666639  20.9761997  51.0513101   8.1244998
  21.4646380  50.2037867   9.0861650  21.2094492  50.9096480   8.8591837
  15.4867532  52.8814873  18.5691740  14.9746435  52.2736056  18.9276771
  15.3147029  53.5971466  19.0365715  15.3857169  52.8978172  18.6907963
  10.3333247  51.3252448  21.2194101  10.1635837  51.9853823  20.6742308
   9.8899197  51.5359010  21.9406591  10.2432581  51.4538430  21.2455731
  14.2593066  49.5656946  10.2620835  14.7350433  49.9274026   9.6271016
  13.7581666  50.2213414  10.5420978  14.2558425  49.7151135  10.2097576
  27.4904428  59.0378714   6.0533840  27.8738034  59.7870070   6.2831937
  26.6948541  59.2844534   5.7945829  27.4298210  59.1848408   6.0491414
  19.3636603  50.8039118  21.0093995  19.9208033  50.5752927  20.3772461
  19.0397668  51.5644783  20.7329208  19.3983013  50.8822954  20.8750492
   7.2335312  54.2299314  16.4782591   6.6862031  53.5599959  16.5963460
   8.0227690  53.8629162  16.5426059   7.2687495  54.0764300  16.5051292
  17.0819720  53.8906771  21.9746002  17.8331047  54.2058448  22.2885556
  17.2742297  53.6885942  21.1479924  17.2211134  53.9074153  21.8989398
  16.3019720  51.7098146   3.6294219  16.6818684  51.7277775   2.8445334
  15.5612316  52.1552135   3.5085066  16.2488557  51.7779921   3.4957787
  23.9305010  50.0180337   9.2169798  23.9299237  49.8628994  10.0754074
  23.7261190  50.8643324   9.1611183  23.9004788  50.1200958   9.3357737
   5.9922281  53.4420122  13.6328614   5.8144042  52.9896731  14.3583530
   5.7041303  54.2446283  13.8167092   5.9235234  53.4942679  13.7672117
  21.6545862  54.6977839  12.8706005  22.1499528  53.9800834  12.8310025
  20.8445638  54.3948637  12.7560492  21.6089756  54.5475485  12.8479730
  23.7197681  57.4481527  15.5583133  24.1452753  56.9255948  15.0053558
  23.3554601  58.0462364  15.0371756  23.7284284  57.4591754  15.3992143
  13.3551761  65.7445744  14.3180479  13.6698320  66.5582132  14.3258261
  13.7645174  65.3595963  14.9862638  13.4619859  65.8074446  14.4184571
  20.3076281  61.1615791  11.8884291  20.7787459  61.8756053  12.0574276
  20.6436459  60.5614541  12.4244160  20.4271396  61.1787255  11.9916667
  22.3953265  62.7717104  24.0676363  22.5050231  61.9825665  24.4233110
  22.7244162  62.6823040  23.2650701  22.4605671  62.6422957  24.0018754
  17.2245775  45.9343261  18.8442386  17.3573681  45.1374255  19.1723361
  17.6090928  46.4609664  19.4240661  17.3002104  45.8943178  18.9785889
  20.9450227  60.9533725  18.6511983  20.3971173  60.3291609  18.3832049
  21.4063256  61.1427997  17.9356063  20.9317436  60.8892775  18.5062415
  20.2978131  42.8573588  15.4423479  19.4924094  42.7471317  15.7591317
  20.1684866  42.9586043  14.5853345  20.1598264  42.8557258  15.3631519
  23.7544091  49.0219079  16.0363176  23.1707080  49.5228286  15.6240743
  24.0748385  48.5148636  15.4027499  23.7157267  49.0210914  15.8821683
  16.2938890  47.9359674   6.3121851  17.1154585  48.1057987   6.0703545
  15.8308541  48.0906935   5.5888148  16.3470053  47.9841407   6.1693495
  14.8834222  45.9302436  17.0920279  15.4278635  45.5893563  17.6824621
  14.9371158  46.7887898  17.2341564  14.9723342  46.0057696  17.2002153
  10.6964781  59.6918852  13.9659087  11.3009638  59.6514687  13.3372908
  10.4892094  60.5390004  13.9963143  10.7553678  59.8106855  13.8775204
  20.5108553  61.9584798  15.1821325  21.3306927  61.8147764  15.4437620
  20.2302631  62.5830997  15.7237763  20.5905297  62.0295150  15.3009264
  36.9822204  69.6149649   8.1464201  36.9516208  70.4694286   8.3182470
  37.5803552  69.3144942   8.7050345  37.0659361  69.6966146   8.2539003
  30.1821888  68.7025300  12.9017131  29.3259784  68.8633799  12.9526248
  30.2289542  67.8317364  12.9222192  30.0621000  68.5976102  12.9123197
  33.4915605  74.9711826  22.5077588  34.1982372  74.4763857  22.6364522
  33.6803540  75.4120907  21.7780246  33.6243511  74.9630176  22.4186633
  33.0273709  70.7617344  15.5448783  33.5729669  71.4402431  15.6042753
  32.9690586  70.6204805  14.6850365  33.0989624  70.8409346  15.4260844
  21.6402916  66.4412428  13.4553777  21.0207948  65.8505075  13.2863792
  21.5386780  67.0323863  12.8218100  21.5340592  66.4416510  13.3358766
  28.7370812  68.1811969   7.7886240  29.4350976  68.3600097   8.2807703
  29.0523144  67.6582309   7.1656629  28.8866149  68.1305741   7.7688250
  21.3672049  69.9864709  15.6997346  21.2430746  70.5727155  16.3347165
  22.0190334  69.4924905  16.0009621  21.4445698  70.0003514  15.8383275
  26.3930390  73.1626426  14.9784857  27.0379393  72.6698869  14.6595805
  26.6332167  73.3051213  15.8050935  26.5240975  73.1103868  15.0534390
  28.9316481  76.0081332  14.6291750  29.2139724  75.2132738  14.4078505
  29.6602642  76.4861920  14.6496811  29.0806045  75.9615929  14.5994765
  26.9097675  63.5504366  11.8707515  26.5801005  64.0015510  11.2011213
  26.2342677  63.4720529  12.4180521  26.7608112  63.6055501  11.8530738
  34.1174083  59.5389889  10.1157125  33.8027524  60.2293368  10.5477548
  33.6001025  59.4834671   9.4142626  33.9938553  59.6324777  10.0754074
  25.1153629  61.6116654   7.3530462  25.8699597  61.9794971   7.1147513
  24.9381164  61.9856209   8.1209642  25.2008108  61.7214842   7.4315351
  38.4088528  67.7611095  15.3978002  37.5716949  67.8313282  15.6325596
  38.3776759  67.7635590  14.5252304  38.2806810  67.7721322  15.3037550
  24.8053257  69.9044131  21.1126370  24.9773761  69.7950025  21.9611652
  25.3422615  70.5498536  20.8757563  24.9098261  69.9836132  21.2031467
  23.4710694  64.0186973   4.0508575  23.2886267  64.2358854   3.2249568
  24.3336307  64.1325986   4.1067190  23.5715283  64.0676871   3.9363062
  29.1510413  61.0213384   7.0857599  29.8796574  60.8429339   6.6395755
  29.2405306  61.8631464   7.2964777  29.2717075  61.1197262   7.0511117
  33.1318714  71.9566771  10.9889893  33.8876229  72.3898286  11.0278802
  33.2381038  71.3071541  11.5624529  33.2588884  71.9244255  11.0787919
  36.1698885  75.7840049  11.7392296  35.7334117  75.7876791  12.4951268
  35.8361800  76.4645548  11.3071874  36.0561505  75.8852504  11.7873129
  30.7427959  77.8248382  23.0635446  31.5268375  77.9379229  23.4291189
  30.5424553  76.9989519  23.2594132  30.8293984  77.7195101  23.1469832
  19.1114974  72.4976062  15.9479290  18.8453389  71.6815178  16.1070281
  19.1253538  72.5429217  15.0774806  19.0739696  72.3832966  15.8432772
  36.0896368  62.8253877  13.9821724  36.7322276  62.8951981  14.5683639
  36.3419389  62.1583099  13.4801266  36.2218500  62.7380225  13.9949003
  23.8613580  66.0354440  18.5946298  23.1685377  65.5651420  18.8407030
  24.4773908  65.8092744  19.1688005  23.8498110  65.9321572  18.7155451
  39.3043231  72.5020969  10.6311933  39.9659665  71.9411637  10.5307842
  38.6634643  72.0072999  10.9564624  39.3072099  72.3457378  10.6644274
  19.5208388  73.2834841  13.2291035  19.3383961  73.2581727  12.3763327
  20.2558057  73.7533779  13.2679943  19.6022452  73.3496203  13.1088953
  22.5854139  70.0019844  19.7373143  23.3094112  69.9872875  20.2238038
  22.6870276  70.7115199  19.2395111  22.7072348  70.1044547  19.7351930
  29.9599089  73.4818928  24.6022090  29.1672070  73.7962440  24.7874710
  30.0748016  73.6970397  23.7642875  29.8594499  73.5602765  24.5060425
  32.6330408  70.2052920   8.8917106  32.7277262  70.9442214   9.3456732
  32.0089251  69.7770395   9.3251671  32.5539438  70.2514240   9.0225254
  30.8882882  73.3839132  19.5407387  31.4621743  72.7466376  19.6955951
  30.8097685  73.3843215  18.6717045  30.9616116  73.2904244  19.4353798
  19.4879298  70.1628342  13.3790101  20.0652801  70.0264792  14.0182346
  18.7893360  69.7064126  13.6335686  19.4700319  70.0750608  13.5112391
  26.2446600  71.8162397  11.5928584  25.9865844  70.9834132  11.5659884
  26.2995083  72.0420010  10.7521085  26.2146378  71.7260169  11.4648721
  31.3247650  63.9190848  11.6932677  30.6203977  63.4300034  11.8516596
  31.3732625  63.9313322  10.8221121  31.2277702  63.8480496  11.5872017
  25.2181312  69.3700160  12.0793479  24.6430904  69.5292328  12.7157440
  24.8416989  68.7335569  11.6161930  25.0784125  69.2997973  12.1048038
  28.8854601  67.8423509  16.9385858  28.4969034  67.4177727  16.2838049
  28.2209299  68.0905659  17.4462884  28.7301529  67.8162230  16.9173725
  38.5277870  67.5998514   9.7133688  38.2714435  66.7878455   9.5231570
  39.3707184  67.6076081   9.4863875  38.6143896  67.4810511   9.6518505
  32.7080963  61.5398138  14.4509842  33.0891474  60.8576309  14.8377716
  31.9044247  61.2507740  14.2685506  32.6457424  61.3965186  14.4813898
  36.2103029  74.7548110  19.5492240  35.9741667  73.9236175  19.4304301
  36.8546258  74.7033717  20.1347084  36.2697700  74.6245798  19.6178134
  25.8601447  75.5443631  10.2634977  26.4975394  75.3055379  10.8086770
  26.2856519  75.7480790   9.5288137  26.0177614  75.5394641  10.2352134
  26.6672803  64.0452336  24.3172450  26.3526244  64.8151899  24.0542013
  26.3462735  63.4822592  23.7324677  26.5731722  64.0762605  24.1913800
  37.2339450  74.5392559  15.6120535  36.9285267  75.2720615  15.9733850
  36.5145666  74.1330488  15.3313321  37.0826792  74.5874292  15.6233672
  28.2422919  76.0216054  11.9428763  28.3161928  75.8591226  12.7970613
  29.0592426  76.2106243  11.6989245  28.3739278  76.0252796  12.0326788
  42.9341242  71.1785559  14.9388879  42.8665742  71.1981518  14.0691465
  42.9196905  72.0215887  15.1644549  42.9219999  71.3059294  14.8441356
  24.2204700  62.4342858   9.9318647  23.3527125  62.5065457   9.9976256
  24.5079904  63.2364937  10.1206622  24.1344448  62.5637005   9.9693413
  33.3437589  62.5820717  18.2629968  34.0891181  62.3930527  17.8493394
  32.9274893  63.1078955  17.7043825  33.3922563  62.6322862  18.1194542
  40.7199859  69.9529946  13.2135473  41.2707781  69.3198015  13.4532565
  40.7043975  70.4845338  13.9050978  40.7985056  69.9378894  13.3514332
  27.3722250  73.7868543  17.7595367  26.8733944  74.4984310  17.8380255
  28.1822475  74.1069209  17.7213529  27.4178357  73.9395391  17.7651935
  23.6350368  73.0491496  12.0058088  23.3463617  72.4228967  12.5403815
  24.5033716  72.9911783  12.0722768  23.7210620  72.9479040  12.0949042
  34.4228266  68.1926279  12.3240069  34.0793032  67.4716614  12.6747319
  34.5221308  67.9840130  11.4818428  34.3870309  68.0550482  12.2511750
  26.2989308  66.6449587  23.0557665  25.4889084  66.9507367  22.9447507
  26.7763995  67.3655170  23.1710249  26.2492787  66.7964188  23.0564736
  25.1580868  75.8595308  13.3040568  24.6361621  75.9995600  13.9892433
  25.5454888  75.1005972  13.4942685  25.1384569  75.7680832  13.4341645
  22.1472052  65.9101117   7.3735523  21.8596848  65.5402387   6.6367470
  22.8342520  66.3795972   7.1119228  22.2060949  65.9248086   7.2250599
  26.5847194  72.8899327   8.7022059  26.3889976  73.4974062   8.1082362
  26.8081539  72.1967271   8.2213733  26.5881835  72.8776853   8.5438140
  24.9825724  69.7754065   8.8202927  25.7048375  69.9395223   8.3606733
  24.5033716  70.4963730   8.7142267  25.0189454  69.9052295   8.7368541
  32.9419231  66.1117864  14.1999612  32.1030332  66.1379143  13.9637876
  33.0123598  66.7588599  14.7804959  32.8287625  66.2113990  14.2508729
  22.6333340  72.1812138  17.9257067  23.1454437  72.4596391  17.2765827
  22.3469683  72.9201432  18.2919880  22.6668203  72.3314491  17.8846945
  31.3888509  63.0103241   8.9327228  32.0914862  62.8110989   8.4547187
  31.1232698  62.2379183   9.2396072  31.4535142  62.8666207   8.9072670
  36.8176755  71.3185851  11.4860854  36.7310729  71.4741277  12.3395633
  36.3627235  71.9623926  11.1120259  36.7380012  71.4361606  11.5567961
  19.7200247  66.6882329   8.2220804  19.8216383  67.4908491   8.5501779
  20.5156133  66.4869665   7.9243884  19.8528152  66.7768228   8.2256159
  26.1517066  64.2738526  17.9858109  25.9600263  64.2893661  18.8357532
  27.0015662  64.4702200  17.9624764  26.2492788  64.3052877  18.1081404
  20.5363979  66.8029508  15.9641925  20.3949470  65.9513448  16.0886433
  20.8204542  66.8458168  15.1404131  20.5571825  66.6829258  15.8609549
  30.6902571  68.6396598  10.1086414  30.4437285  68.5592349  10.9423203
  31.0187694  67.8550066   9.9148941  30.7023815  68.5122863  10.2033937
  34.5850620  75.3479957  13.8973195  34.4464979  76.0461003  14.4021937
  33.8050618  75.1928614  13.5409377  34.4493847  75.4280124  13.9199469
  32.9228705  71.6476333  20.1495577  32.9176743  70.7756149  20.1538003
  33.6289699  71.8464502  19.6765032  33.0273709  71.5480207  20.0802612
  26.6499598  71.3753316  19.5209397  26.7942974  71.9554525  18.8852507
  26.9975247  71.7529613  20.2259251  26.7227060  71.5174020  19.5308392
  28.8219516  70.5743485  17.3034528  28.0742830  70.7674499  16.8982806
  28.9761041  69.7488704  17.0658650  28.7341943  70.4808596  17.2079934
  29.0621293  64.4694035  18.1929932  29.5193907  65.2018010  18.3202724
  29.1377621  64.0460501  18.9517188  29.1412263  64.5151274  18.3231009
  33.5348619  57.6483911  12.0623775  33.6532187  58.1060374  11.3291078
  33.3610794  56.8429172  11.7759993  33.5267790  57.5977683  11.9124709
  26.9403671  66.4596139  15.0371756  26.1499745  66.2787600  15.3589092
  27.3364293  65.6823092  15.0202051  26.8820547  66.3183600  15.0824304
  32.3247357  74.0938570  12.7631202  31.6492359  73.8623802  13.2644589
  32.3339733  73.4859752  12.1373307  32.2265861  73.9697495  12.7447354
  29.4541501  68.9356399  19.5195255  29.3900642  69.7966355  19.3915392
  29.5938689  68.6188392  18.7190806  29.4656971  69.0156565  19.3823468
  28.1360595  71.6288538  13.6611458  27.7122844  71.8293037  12.9250476
  27.9605450  70.7817386  13.7735758  28.0471475  71.5337319  13.5685148
  23.4243040  72.1240589   9.0939430  23.5807659  72.0587392   9.9495422
  23.7643633  72.8989142   8.8818110  23.4976275  72.2289787   9.1894025
  29.9622184  71.4998473   7.9632794  30.5037730  70.9968854   8.4271414
  30.2768743  71.4463668   7.1522279  30.0886581  71.4177894   7.9116606
  33.8339292  75.7101120  25.0759706  34.6474157  75.4386269  25.2364838
  33.6734258  75.4108660  24.2719902  33.9309240  75.6256046  24.9805112
  31.1111454  66.3934777  18.0155094  31.3253423  65.7545692  17.4618448
  30.4945353  66.8380601  17.5862956  31.0516783  66.3644921  17.8705525
  19.9977301  69.3075540   9.4100198  20.3776266  69.7260085   8.7460465
  19.4232666  69.8888995   9.7169041  19.9688626  69.4553399   9.3576939
  33.2750542  68.0023843  18.9538401  32.4627223  67.6949733  19.0351574
  33.7340476  67.5222843  19.5181113  33.2230926  67.8860335  19.0492995
  30.5026182  59.5034713  13.0042437  29.6319740  59.4773434  12.9575746
  30.7566524  59.3311905  12.1868283  30.4119742  59.4744857  12.8762574
  30.3704049  69.4083914  23.7367104  30.8403680  70.0326030  24.1234978
  30.4165929  68.7400890  24.2960318  30.4471925  69.4018594  23.8767175
  27.5275323  61.5140941  14.4615907  27.0113811  60.8221133  14.5867486
  26.9669252  62.1811719  14.4078506  27.3681836  61.5104199  14.4721973
  29.5967556  62.0533902  16.2908760  29.2099309  62.0782933  17.0722290
  29.1100494  61.4875580  15.8383276  29.4680065  61.9729652  16.3396664
  33.8460536  76.7707410  20.3482546  34.4840256  76.2767606  20.0145002
  33.2034627  76.6984811  19.7634773  33.8454762  76.6866419  20.2124901
  35.5717536  68.6196556  14.9148462  35.1445144  68.5322905  14.1596562
  34.9343589  68.7274332  15.5003306  35.4147143  68.6229216  14.8893904
  29.2624698  58.9400887  18.5819020  29.8917816  59.4761187  18.3040090
  29.4310561  58.8478246  19.4332585  29.3802493  59.0062249  18.6667548
  29.0638613  63.7272082  20.8545431  29.8912042  63.4557231  20.9104046
  29.0846459  64.5232923  21.2109249  29.1891463  63.8051836  20.9160614
  33.9014792  77.4627219  16.9887903  34.6907171  77.1116283  17.1089985
  34.0758390  78.2763607  16.7264537  34.0435074  77.5313076  16.9675771
  23.6408103  70.8735945  14.0415692  22.7996109  70.7739819  14.2494586
  23.8498111  71.6431425  14.3930013  23.5472795  70.9727988  14.1243007
  21.1183670  68.4955481  11.8700443  20.7240367  68.5698493  11.0950552
  20.5623787  68.8813428  12.4208804  20.9786482  68.5637256  11.8368102
  32.7548617  61.4736775  11.5504322  32.9598210  61.4059083  12.3961319
  32.4275040  62.2795597  11.4825499  32.7363864  61.5822716  11.6663977
  27.4524768  68.8017344  13.2913290  27.1487905  68.2473332  13.8923697
  26.7504188  68.9809554  12.8041324  27.3040977  68.7462126  13.3082995
  26.5090865  66.1117863   7.8557991  26.7850599  65.3936776   7.4435559
  27.1089534  66.7102783   7.6479097  26.6384129  66.0938234   7.7638753
  36.0082304  62.0268540  11.0307087  35.3956618  62.5138942  11.4160819
  36.1046479  61.3512031  11.5744738  35.9320202  61.9986848  11.1685945
  30.0101385  63.7831381   6.1304586  30.4645132  63.9541941   6.8552431
  30.4841431  63.1699492   5.7302362  30.1469705  63.7182266   6.1778348
  23.5316911  73.2679707  15.4607325  22.9404844  73.9089205  15.4310340
  24.2937934  73.6917324  15.4338624  23.5565171  73.4255545  15.4522472
  23.9277533  64.4281705  16.1275343  24.3879015  64.5020634  16.8650466
  23.9733640  65.2262959  15.7775164  24.0028089  64.5575852  16.1848099
  25.5760883  65.0948399  20.6947370  25.1846448  64.4481747  21.1303147
  25.7446746  65.6859835  21.3141625  25.5431794  65.0862667  20.8510076
  39.6507332  73.0985476  16.4584603  39.7090456  73.5472125  17.2044580
  39.0173800  73.5084289  16.0214683  39.5658627  73.2259211  16.5037151
  27.3514405  70.4873915   7.2349594  28.0956450  70.8748192   7.4732544
  27.4975101  69.6431341   7.3990081  27.4824990  70.4204388   7.2943563
  29.2693981  62.2824174  12.2681455  28.4230026  62.4546982  12.1422805
  29.2665113  61.4773518  12.6047283  29.1441131  62.1885203  12.2992582
  30.3392281  66.0599389  13.1343513  29.8652235  65.5341151  13.6448824
  30.7110417  65.5128861  12.5658375  30.3242170  65.9015385  13.1258660
  20.7165311  68.0570895  18.5027059  21.5790924  67.9566604  18.4164389
  20.3857094  67.4765605  17.9412631  20.7950508  67.9562522  18.4072465
  36.6029012  71.1201764  14.5450294  36.3627235  70.2808179  14.5492720
  37.0821019  71.2001931  15.2691067  36.6381195  71.0083164  14.6525096
  32.2675781  66.9535943   6.1969267  31.7398799  67.0364687   5.5074976
  32.7271489  67.6953815   6.1933911  32.2577631  67.0756606   6.0943962
  38.6034199  67.9003221  12.4979553  38.3643969  67.8599056  11.6600337
  38.7668100  68.7474373  12.6245274  38.5924502  68.0195306  12.3933035
  35.2080229  72.2853171  18.4284598  35.9314428  71.8325697  18.2495618
  34.9430191  72.5657836  17.6456926  35.2761502  72.2604139  18.2863313
  24.0767097  66.8813344  15.1637477  23.4520167  66.8931736  14.5563430
  23.7412692  67.3573519  15.8128717  23.9352589  66.9531861  15.1694045
  30.9899018  72.3837049  16.5779613  30.3756011  71.8395099  16.8728248
  31.5066303  71.8701285  16.0985429  30.9754681  72.2273458  16.5503841
  30.2295315  73.4541319  14.3123911  29.8022924  72.8291038  13.8789347
  30.2220260  73.1716241  15.1382919  30.1654457  73.3194100  14.3703739
  23.3457843  68.4906492  17.3812345  23.5051329  67.7349816  17.7864067
  23.1650736  69.0397432  18.0353083  23.3423202  68.4600306  17.5375051
  31.2878146  60.6567728  17.9363135  30.7918707  60.8531402  17.2454702
  32.0447208  61.0560396  17.7651937  31.3264970  60.7445461  17.8083272
  28.5581025  64.3310074  14.5266445  28.5823512  63.7970186  13.8379225
  28.8092499  63.8227382  15.1892036  28.5990944  64.1770977  14.5231090
  24.8382347  63.0580892  13.9072190  24.8780719  63.5590098  14.6206897
  24.0132012  63.1491285  13.6378113  24.7221873  63.1462708  13.9722728
  27.0211960  72.6241632  22.0092484  26.1707591  72.7613346  22.1450129
  27.1840088  71.8905410  22.4540186  26.9195824  72.5355733  22.0948084
  26.2596711  69.5741402  16.2046089  25.4288640  69.7415220  15.9981337
  26.2048228  69.1977352  16.9894974  26.1286126  69.5431133  16.2894617
  24.0680494  63.0650295  21.8402499  24.6933197  62.5212427  22.1131932
  23.6130974  62.5845212  21.2710290  24.0928755  62.9139776  21.7964093
  24.6332755  67.8496993   6.7336206  24.7735716  68.3469457   7.4364848
  25.1315287  67.1483288   6.8750420  24.7273836  67.8198972   6.8587785
  37.6415543  71.2479582  16.9315147  38.2333383  71.8876832  16.9633346
  38.0774537  70.5502618  17.2207214  37.7933974  71.2397932  16.9795980
  26.2411960  64.6478080   4.0374225  26.5627801  64.1681162   3.3833488
  26.5038904  65.4577726   3.8465037  26.3277985  64.6967977   3.9129717
  29.4708933  75.6696954  17.5573041  28.9634024  76.2232801  18.0013672
  29.1735579  75.7305244  16.7391816  29.3513818  75.7603265  17.5021498
  31.6371115  64.0350274  16.3997704  32.0626186  63.5822800  15.7881231
  31.0228108  63.4810344  16.6762492  31.6099760  63.8864250  16.3502730
  30.0765338  60.5065373   9.8088281  29.4333656  60.3563020  10.3773420
  29.7364745  60.2607719   9.0437386  29.9310415  60.4477496   9.7791297
  34.6664684  68.4624800   9.2318290  33.9955874  69.0054502   9.1031356
  35.3604434  68.9319655   8.9899985  34.6693552  68.6123071   9.1773818
  34.8292812  64.9180684  12.1408663  35.1820422  64.4910407  12.8154462
  33.9707613  64.8331527  12.2709740  34.7542256  64.8425424  12.2603674
  23.5276497  67.5488203  10.1991510  22.8088486  67.9652336  10.4664373
  23.8988859  68.1142442   9.6483148  23.4768428  67.6937485  10.1574317
  32.8276077  68.1816052  16.0893505  32.8074005  67.9999348  16.9428284
  32.8755278  69.0528071  16.0653089  32.8310718  68.2832591  16.2116800
  30.7722407  74.7703244  22.0141982  30.7318262  74.1252921  21.4287138
  31.5845726  74.7139862  22.3267394  30.8865561  74.6662211  21.9738931
  29.3023071  66.5886203   5.5364889  28.7087910  66.9103200   4.9849456
  29.3398349  65.7427299   5.3285995  29.2197460  66.5110532   5.4247660
  36.2616872  60.0399096  13.0692976  35.7547736  59.3328235  13.0014153
  37.0584305  59.7092284  13.1994052  36.3044111  59.8872247  13.0791971
  32.1780888  66.5465708   8.9666639  31.9494581  66.5698409   8.1244998
  32.4378964  65.7223175   9.0861650  32.1827076  66.4281788   8.8591837
  26.4600116  68.4000181  18.5691740  25.9479019  67.7921364  18.9276771
  26.2879612  69.1156773  19.0365715  26.3589753  68.4163480  18.6907963
  21.3065831  66.8437756  21.2194101  21.1368421  67.5039131  20.6742308
  20.8631781  67.0544317  21.9406591  21.2165164  66.9723738  21.2455731
  25.2325650  65.0842254  10.2620835  25.7083016  65.4459334   9.6271016
  24.7314250  65.7398722  10.5420978  25.2291009  65.2336443  10.2097576
  30.3369186  66.3224426  21.0093995  30.8940616  66.0938235  20.3772461
  30.0130251  67.0830091  20.7329208  30.3715597  66.4008262  20.8750492
  18.2067895  69.7484622  16.4782591  17.6594615  69.0785267  16.5963460
  18.9960273  69.3814470  16.5426059  18.2420079  69.5949608  16.5051292
  28.0552304  69.4092079  21.9746002  28.8063631  69.7243756  22.2885556
  28.2474880  69.2071250  21.1479924  28.1943718  69.4259461  21.8989398
  27.2752303  67.2283454   3.6294219  27.6551268  67.2463083   2.8445334
  26.5344899  67.6737443   3.5085066  27.2221141  67.2965229   3.4957787
  34.9037594  65.5365645   9.2169798  34.9031820  65.3814302  10.0754074
  34.6993774  66.3828632   9.1611183  34.8737372  65.6386266   9.3357737
  16.9654865  68.9605430  13.6328614  16.7876626  68.5082039  14.3583530
  16.6773887  69.7631591  13.8167092  16.8967818  69.0127987  13.7672117
  32.6278446  70.2163147  12.8706005  33.1232111  69.4986142  12.8310025
  31.8178222  69.9133945  12.7560492  32.5822339  70.0660793  12.8479730
  34.6930265  72.9666834  15.5583133  35.1185336  72.4441256  15.0053558
  34.3287185  73.5647672  15.0371756  34.7016867  72.9777061  15.3992143
  31.2808864  76.6801099  11.8884291  31.7520042  77.3941361  12.0574276
  31.6169043  76.0799849  12.4244160  31.4003979  76.6972563  11.9916667
  33.3685849  78.2902412  24.0676363  33.4782814  77.5010973  24.4233110
  33.6976745  78.2008348  23.2650701  33.4338254  78.1608265  24.0018754
  28.1978359  61.4528569  18.8442386  28.3306265  60.6559563  19.1723361
  28.5823512  61.9794972  19.4240661  28.2734688  61.4128486  18.9785889
  31.9182810  76.4719033  18.6511983  31.3703756  75.8476917  18.3832049
  32.3795839  76.6613305  17.9356063  31.9050020  76.4078083  18.5062415
  31.2710714  58.3758895  15.4423479  30.4656678  58.2656625  15.7591317
  31.1417450  58.4771351  14.5853345  31.1330847  58.3742566  15.3631519
  34.7276675  64.5404387  16.0363176  34.1439664  65.0413594  15.6240743
  35.0480969  64.0333944  15.4027499  34.6889850  64.5396222  15.8821683
  27.2671474  63.4544982   6.3121851  28.0887168  63.6243295   6.0703545
  26.8041125  63.6092243   5.5888148  27.3202636  63.5026715   6.1693495
  25.8566806  61.4487744  17.0920279  26.4011219  61.1078871  17.6824621
  25.9103742  62.3073206  17.2341564  25.9455925  61.5243004  17.2002153
  31.4841137  77.4770106  15.1821325  32.3039511  77.3333072  15.4437620
  31.2035214  78.1016304  15.7237763  31.5637880  77.5480458  15.3009264
  37.6405386  79.5637644  24.3172450  37.3258828  80.3337207  24.0542013
  37.3195319  79.0007900  23.7324677  37.5464306  79.5947913  24.1913800
  44.3170172  78.1006025  18.2629968  45.0623764  77.9115835  17.8493394
  43.9007477  78.6264263  17.7043825  44.3655146  78.1508170  18.1194542
  37.1249649  79.7923834  17.9858109  36.9332846  79.8078968  18.8357532
  37.9748245  79.9887508  17.9624764  37.2225371  79.8238185  18.1081404
  40.0353876  79.9879343  18.1929932  40.4926490  80.7203318  18.3202724
  40.1110205  79.5645809  18.9517188  40.1144846  80.0336581  18.3231009
  38.5007906  77.0326249  14.4615907  37.9846395  76.3406441  14.5867486
  37.9401835  77.6997026  14.4078506  38.3414420  77.0289507  14.4721973
  40.5700140  77.5719209  16.2908760  40.1831893  77.5968241  17.0722290
  40.0833077  77.0060888  15.8383276  40.4412649  77.4914960  16.3396664
  40.2357282  74.4586195  18.5819020  40.8650400  74.9946495  18.3040090
  40.4043144  74.3663554  19.4332585  40.3535076  74.5247557  18.6667548
  40.0371196  79.2457390  20.8545431  40.8644626  78.9742539  20.9104046
  40.0579043  80.0418231  21.2109249  40.1624047  79.3237144  20.9160614
  42.2610729  76.1753036  17.9363135  41.7651290  76.3716710  17.2454702
  43.0179791  76.5745704  17.7651937  42.2997554  76.2630769  17.8083272
  35.8114931  78.5766200  13.9072190  35.8513303  79.0775406  14.6206897
  34.9864596  78.6676593  13.6378113  35.6954457  78.6648016  13.9722728
  35.0413078  78.5835602  21.8402499  35.6665781  78.0397735  22.1131932
  34.5863558  78.1030520  21.2710290  35.0661338  78.4325084  21.7964093
  42.6103698  79.5535581  16.3997704  43.0358770  79.1008108  15.7881231
  41.9960692  78.9995652  16.6762492  42.5832344  79.4049558  16.3502730
  39.1710943  76.9713877  18.8442386  39.3038848  76.1744871  19.1723361
  39.5556095  77.4980280  19.4240661  39.2467271  76.9313794  18.9785889
  42.2443298  73.8944203  15.4423479  41.4389262  73.7841933  15.7591317
  42.1150033  73.9956659  14.5853345  42.1063431  73.8927873  15.3631519
  36.8299389  76.9673052  17.0920279  37.3743802  76.6264179  17.6824621
  36.8836325  77.8258514  17.2341564  36.9188509  77.0428312  17.2002153
  22.2133845  36.3904649   9.4417634  22.9200613  35.8956680   9.5704569
  22.4021781  36.8313731   8.7120292  22.3461751  36.3823000   9.3526680
  19.3526140  39.8132186   7.3331710  19.4409485  39.6258326   8.1809920
  19.7815852  39.1669615   6.9336556  19.4288242  39.6895193   7.4003461
  16.9196599  39.0963346   6.3149372  16.3567434  38.6835956   6.8389033
  17.6817623  39.0216251   6.7342515  16.9491048  39.0240746   6.4542372
  13.5271497  31.3236954   8.0466417  13.6992001  31.2142848   8.8951699
  14.0640855  31.9691359   7.8097609  13.6316501  31.4028956   8.1371514
  19.4646199  39.2441205   9.9975493  20.2486616  39.3572053  10.3631235
  19.2642793  38.4182342  10.1934179  19.5512224  39.1387924  10.0809879
  19.6216592  41.1551307   3.6441949  18.8231838  40.9150807   3.9015817
  20.0702604  41.2065700   4.3908996  19.5691203  41.1273698   3.7926873
  18.6817329  34.9011752  11.5362137  17.8890310  35.2155264  11.7214757
  18.7966256  35.1163220  10.6982922  18.5812740  34.9795588  11.4400472
  19.6101122  34.8031956   6.4747434  20.1839984  34.1659200   6.6295998
  19.5315926  34.8036038   5.6057091  19.6834357  34.7097067   6.3693845
  24.9321270  36.1740933   6.4832287  24.6959907  35.3428998   6.3644348
  25.5764499  36.1226540   7.0687131  24.9915940  36.0438621   6.5518181
  15.3891043  25.4645159  11.2512497  15.0744484  26.2344722  10.9882060
  15.0680976  24.9015415  10.6664724  15.2949962  25.4955428  11.1253847
  25.9557690  35.9585382   2.5460581  25.6503507  36.6913439   2.9073897
  25.2363906  35.5523311   2.2653368  25.8045033  36.0067115   2.5573719
  31.6559483  32.5978383   1.8728926  31.5883983  32.6174342   1.0031512
  31.6415145  33.4408710   2.0984596  31.6438239  32.7252117   1.7781403
  16.0940491  35.2061366   4.6935414  15.5952184  35.9177134   4.7720302
  16.9040715  35.5262033   4.6553576  16.1396597  35.3588215   4.6991982
  15.0207549  28.0642410   9.9897712  14.2107324  28.3700190   9.8787554
  15.4982235  28.7847993  10.1050296  14.9711027  28.2157012   9.9904783
  23.3068860  36.7672780   0.8313242  23.1683219  37.4653826   1.3361984
  22.5268858  36.6121437   0.4749423  23.1712087  36.8472947   0.8539516
  21.6446945  33.0669156   7.0835623  21.6394984  32.1948972   7.0878050
  22.3507939  33.2657325   6.6105079  21.7491949  32.9673030   7.0142659
  15.3717839  32.7946140   6.4549444  15.5161214  33.3747348   5.8192554
  15.7193487  33.1722436   7.1599298  15.4445300  32.9366844   6.4648438
  14.4445594  40.9848911   3.3210470  14.5935157  40.4251827   2.6683875
  15.2245596  41.0640913   3.7042989  14.5819687  40.9134477   3.2807420
  16.9698894  41.1563554   4.5994961  16.8942565  40.4872365   5.1545749
  16.8988753  41.8581342   5.1135627  16.9479501  41.1608462   4.7571809
  22.5557532  37.1293943  12.0099753  23.3692397  36.8579092  12.1704885
  22.3952498  36.8301483  11.2059949  22.6527481  37.0448869  11.9145159
  21.9968782  29.4216666   5.8878448  21.1845464  29.1142556   5.9691621
  22.4558717  28.9415666   6.4521160  21.9449167  29.3053158   5.9833042
  19.0922290  30.8276737  10.6707150  19.5621921  31.4518854  11.0575024
  19.1384170  30.1593713  11.2300365  19.1690165  30.8211418  10.8107222
  22.5678776  38.1900234   7.2822593  23.2058497  37.6960429   6.9485049
  21.9252868  38.1177634   6.6974820  22.5673003  38.1059242   7.1464948
  22.6233033  38.8820042   3.9227950  23.4125411  38.5309107   4.0430032
  22.7976631  39.6956430   3.6604584  22.7653314  38.9505899   3.9015818
  14.2361359  37.4359888   4.9325434  14.1281714  37.4461950   5.7987492
  14.4457141  38.2614668   4.7430388  14.2511470  37.5600962   5.0329526
  28.3725573  34.5178300   3.3924650  28.4308696  34.9664949   4.1384626
  27.7392040  34.9277113   2.9554730  28.2876868  34.6452034   3.4377198
  22.0124667  40.1381842  -0.1720604  21.8144356  40.6272656  -0.8664392
  21.3912378  40.3423083   0.4063530  21.8912232  40.2398380  -0.1897381
  23.9298469  33.7045994   5.3624645  24.6532668  33.2518520   5.1835664
  23.6648432  33.9850660   4.5796972  23.9979742  33.6796962   5.2203360
  15.7430201  34.0434455   8.9432531  14.8925831  34.1806169   9.0790176
  15.9058328  33.3098233   9.3880233  15.6414064  33.9548556   9.0288130
  26.3633783  32.6672405   3.8655194  26.9551623  33.3069655   3.8973392
  26.7992778  31.9695442   4.1547261  26.5152214  32.6590755   3.9136027
  18.1927173  37.0889777   4.4913088  17.6852264  37.6425624   4.9353719
  17.8953819  37.1498067   3.6731863  18.0732058  37.1796088   4.4361545
  17.4369658  42.0214335   1.3970095  17.2135313  41.2633165   1.7654121
  16.9479502  42.0512357   0.6750535  17.3313107  41.9136560   1.3446836
  19.4940648  36.1896068   8.9482029  19.4536503  35.5445745   8.3627185
  20.3063966  36.1332685   9.2607441  19.6083801  36.0855034   8.9078978
  19.0587427  27.7417249   7.9434042  19.6158857  27.5131058   7.3112507
  18.7348492  28.5022914   7.6669254  19.0933837  27.8201086   7.8090539
  16.7770544  30.8284902   8.9086049  17.5281871  31.1436579   9.2225603
  16.9693120  30.6264073   8.0819971  16.9161958  30.8452284   8.8329445
  23.4148505  34.3859658   2.4923180  23.8403577  33.8634080   1.9393605
  23.0505425  34.9840495   1.9711803  23.4235108  34.3969885   2.3332190
  13.0502585  42.6823875   1.2520526  13.3649144  43.4960264   1.2598307
  13.4595998  42.2974094   1.9202685  13.1570683  42.7452578   1.3524617
  22.0904089  39.7095235  11.0016410  22.2001055  38.9203796  11.3573157
  22.4194986  39.6201172  10.1990748  22.1556495  39.5801088  10.9358800
  20.6401051  37.8911856   5.5852030  20.0921997  37.2669740   5.3172096
  21.1014080  38.0806128   4.8696110  20.6268260  37.8270906   5.4402461
  20.2059377  38.8962929   2.1161372  21.0257751  38.7525895   2.3777667
  19.9253455  39.5209128   2.6577809  20.2856120  38.9673281   2.2349311
  36.6773027  46.5527780  -4.9195752  36.6467032  47.4072417  -4.7477483
  37.2754376  46.2523073  -4.3609609  36.7610185  46.6344277  -4.8120950
  29.8772712  45.6403432  -0.1642822  29.0210608  45.8011930  -0.1133705
  29.9240366  44.7695495  -0.1437761  29.7571824  45.5354233  -0.1536756
  33.1866429  51.9089957   9.4417634  33.8933196  51.4141988   9.5704569
  33.3754364  52.3499039   8.7120292  33.3194334  51.9008308   9.3526680
  32.7224533  47.6995475   2.4788830  33.2680493  48.3780562   2.5382800
  32.6641410  47.5582936   1.6190411  32.7940448  47.7787477   2.3600890
  25.8398608  55.1884542  -2.1342818  25.9408971  54.3784896  -1.8245690
  25.2440353  55.0941488  -2.7643139  25.7671147  55.0549570  -2.1816579
  25.6799348  60.1062131  -0.7327962  26.3236803  60.5475295  -0.3431803
  26.0055603  59.3015557  -0.8197703  25.8231176  60.0527325  -0.6882484
  21.3353740  43.3790559   0.3893824  20.7158772  42.7883206   0.2203838
  21.2337604  43.9701994  -0.2441853  21.2291415  43.3794641   0.2698813
  28.4321636  45.1190101  -5.2773713  29.1301800  45.2978228  -4.7852250
  28.7473968  44.5960440  -5.9003324  28.5816973  45.0683873  -5.2971703
  21.0622873  46.9242840   2.6337393  20.9381570  47.5105286   3.2687212
  21.7141157  46.4303036   2.9349668  21.1396522  46.9381645   2.7723322
  28.6209571  51.5060546  -5.2893922  29.0603206  50.8977646  -4.8439149
  28.4714234  51.1267919  -6.0608457  28.6631037  51.3599017  -5.3374754
  26.0881214  50.1004557   1.9124904  26.7330217  49.6077001   1.5935852
  26.3282991  50.2429344   2.7390982  26.2191799  50.0482000   1.9874437
  28.6267305  52.9459463   1.5631796  28.9090548  52.1510869   1.3418552
  29.3553466  53.4240051   1.5836857  28.7756869  52.8994060   1.5334812
  26.6048499  40.4882497  -1.1952439  26.2751829  40.9393641  -1.8648740
  25.9293501  40.4098661  -0.6479432  26.4558935  40.5433632  -1.2129215
  33.8124907  36.4768020  -2.9502828  33.4978348  37.1671499  -2.5182406
  33.2951849  36.4212802  -3.6517327  33.6889377  36.5702909  -2.9905879
  38.6085394  52.0518825  -1.4632373  37.7783097  52.2629469  -1.2998956
  38.5594646  51.2255880  -1.7390089  38.4792129  51.9608432  -1.4795007
  26.6695131  54.8822680   1.3715537  26.1522073  54.5230095   0.7676845
  27.3669522  54.3584854   1.3821603  26.6960712  54.7520368   1.2845795
  30.3258723  55.3317494   7.3331710  30.4142069  55.1443634   8.1809920
  30.7548436  54.6854923   6.9336556  30.4020826  55.2080501   7.4003461
  27.8929183  54.6148654   6.3149372  27.3300018  54.2021263   6.8389033
  28.6550206  54.5401559   6.7342515  27.9223632  54.5426054   6.4542372
  23.4525174  56.6046675  -1.0813998  24.1545754  56.0898664  -1.0241241
  23.3722658  56.9320826  -0.2767123  23.5448935  56.5760901  -0.9541206
  38.1039352  44.6989226   2.3318048  37.2667773  44.7691413   2.5665643
  38.0727583  44.7013721   1.4592351  37.9757634  44.7099453   2.2377596
  22.7775950  52.7953027  -1.5728390  23.6164849  53.0275960  -1.5254628
  22.8087719  51.9257338  -1.6421355  22.9057667  52.7009973  -1.5763745
  23.4028653  53.2153902   2.7284916  23.9426878  53.0725033   3.3988288
  22.7198599  53.6150653   3.0968942  23.3820807  53.2533573   2.8819337
  32.8269538  48.8944903  -2.0770060  33.5827053  49.3276417  -2.0381151
  32.9331862  48.2449672  -1.5035424  32.9539708  48.8622386  -1.9872034
  35.8649709  52.7218180  -1.3267657  35.4284941  52.7254922  -0.5708686
  35.5312624  53.4023679  -1.7588080  35.7512329  52.8230636  -1.2786825
  30.4378782  54.7626513   9.9975493  31.2219199  54.8757360  10.3631235
  30.2375377  53.9367650  10.1934179  30.5244808  54.6573232  10.0809879
  18.8065798  49.4354193   2.8819337  18.5404213  48.6193309   3.0410327
  18.8204362  49.4807348   2.0114853  18.7690520  49.3211098   2.7772819
  35.7847192  39.7632008   0.9161771  36.4273100  39.8330112   1.5023686
  36.0370212  39.0961231   0.4141313  35.9169324  39.6758356   0.9289050
  23.5564404  42.9732571   5.5286345  22.8636201  42.5029551   5.7747076
  24.1724732  42.7470876   6.1028052  23.5448934  42.8699703   5.6495497
  30.5949176  56.6736615   3.6441949  29.7964422  56.4336115   3.9015817
  31.0435187  56.7251008   4.3908996  30.5423787  56.6459006   3.7926873
  38.9994055  49.4399100  -2.4348020  39.6610489  48.8789768  -2.5352111
  38.3585467  48.9451131  -2.1095329  39.0022923  49.2835509  -2.4015680
  19.2159212  50.2212972   0.1631081  19.0334785  50.1959858  -0.6896626
  19.9508881  50.6911910   0.2019990  19.2973275  50.2874334   0.0429000
  35.2858886  50.4564482  -2.6936031  35.5214475  50.6009681  -3.5209180
  35.4348449  51.2206890  -2.3004517  35.3424689  50.5903537  -2.7572427
  22.2804963  46.9397975   6.6713190  23.0044936  46.9251006   7.1578085
  22.3821100  47.6493330   6.1735158  22.4023172  47.0422678   6.6691977
  29.6549913  50.4197060  11.5362137  28.8622893  50.7340572  11.7214757
  29.7698840  50.6348528  10.6982922  29.5545323  50.4980896  11.4400472
  32.3281232  47.1431051  -4.1742847  32.4228086  47.8820345  -3.7203222
  31.7040075  46.7148526  -3.7408283  32.2490262  47.1892371  -4.0434700
  30.5833705  50.3217263   6.4747434  31.1572567  49.6844508   6.6295998
  30.5048509  50.3221346   5.6057091  30.6566940  50.2282375   6.3693845
  19.1830122  47.1006473   0.3130148  19.7603625  46.9642924   0.9522393
  18.4844184  46.6442257   0.5675732  19.1651143  47.0128739   0.4452438
  25.9397424  48.7540529  -1.4731369  25.6816668  47.9212263  -1.5000069
  25.9945907  48.9798142  -2.3138868  25.9097202  48.6638300  -1.6011232
  31.0198474  40.8568979  -1.3727276  30.3154801  40.3678165  -1.2143357
  31.0683449  40.8691454  -2.2438832  30.9228526  40.7858627  -1.4787936
  24.9132136  46.3078291  -0.9866474  24.3381728  46.4670459  -0.3502513
  24.5367813  45.6713700  -1.4498024  24.7734949  46.2376104  -0.9611916
  28.5805425  44.7801640   3.8725904  28.1919858  44.3555858   3.2178096
  27.9160123  45.0283790   4.3802931  28.4252353  44.7540361   3.8513772
  38.2228694  44.5376645  -3.3526266  37.9665259  43.7256586  -3.5428383
  39.0658008  44.5454212  -3.5796078  38.3094719  44.4188642  -3.4141449
  32.4031786  38.4776269   1.3849889  32.7842298  37.7954440   1.7717763
  31.5995071  38.1885871   1.2025553  32.3408248  38.3343318   1.4153944
  35.9053853  51.6926241   6.4832287  35.6692491  50.8614306   6.3644348
  36.5497082  51.6411848   7.0687131  35.9648524  51.5623929   6.5518181
  25.5552271  52.4821762  -2.8024977  26.1926218  52.2433510  -2.2573183
  25.9807343  52.6858921  -3.5371816  25.7128438  52.4772773  -2.8307819
  20.2464914  54.7210099   1.0809327  20.2869059  54.9924950   0.2529107
  20.8059438  55.2452007   1.4967115  20.3348260  54.8385854   1.0201215
  26.3623627  40.9830467  11.2512497  26.0477068  41.7530030  10.9882060
  26.0413559  40.4200723  10.6664724  26.2682546  41.0140736  11.1253847
  36.9290274  51.4770690   2.5460581  36.6236091  52.2098747   2.9073897
  36.2096490  51.0708619   2.2653368  36.7777616  51.5252423   2.5573719
  27.9373743  52.9594185  -1.1231190  28.0112752  52.7969357  -0.2689340
  28.7543250  53.1484375  -1.3670709  28.0690102  52.9630927  -1.0333165
  42.6292066  48.1163690   1.8728926  42.5616566  48.1359650   1.0031512
  42.6147729  48.9594018   2.0984596  42.6170823  48.2437425   1.7781403
  33.0388413  39.5198848   5.1970015  33.7842005  39.3308659   4.7833441
  32.6225717  40.0457086   4.6383871  33.0873387  39.5700994   5.0534588
  40.4150683  46.8908077   0.1475520  40.9658605  46.2576146   0.3872612
  40.3994799  47.4223469   0.8391024  40.4935880  46.8757025   0.2854378
  27.0673074  50.7246674   4.6935414  26.5684768  51.4362442   4.7720302
  27.8773299  51.0447341   4.6553576  27.1129181  50.8773523   4.6991982
  23.3301192  49.9869627  -1.0601866  23.0414440  49.3607098  -0.5256138
  24.1984540  49.9289914  -0.9937185  23.4161444  49.8857171  -0.9710911
  34.1179090  45.1304410  -0.7419884  33.7743856  44.4094746  -0.3912634
  34.2172132  44.9218262  -1.5841525  34.0821132  44.9928614  -0.8148204
  25.9940132  43.5827718   9.9897712  25.1839908  43.8885498   9.8787554
  26.4714819  44.3033301  10.1050296  25.9443611  43.7342320   9.9904783
  24.8531692  52.7973439   0.2380615  24.3312445  52.9373731   0.9232480
  25.2405712  52.0384104   0.4282732  24.8335393  52.7058963   0.3681691
  26.2798017  49.8277458  -4.3637894  26.0840800  50.4352193  -4.9577591
  26.5032363  49.1345402  -4.8446220  26.2832658  49.8154984  -4.5221813
  24.6776547  46.7132196  -4.2457026  25.3999199  46.8773354  -4.7053220
  24.1984540  47.4341861  -4.3517686  24.7140278  46.8430426  -4.3291412
  32.6370055  43.0495995   1.1339659  31.7981156  43.0757274   0.8977922
  32.7074422  43.6966731   1.7145006  32.5238449  43.1492121   1.1848776
  22.3284164  49.1190269   4.8597114  22.8405261  49.3974522   4.2105874
  22.0420507  49.8579563   5.2259927  22.3619027  49.2692622   4.8186992
  31.0839333  39.9481372  -4.1332725  31.7865686  39.7489120  -4.6112767
  30.8183522  39.1757314  -3.8263881  31.1485966  39.8044338  -4.1587283
  36.5127579  48.2563982  -1.5799099  36.4261553  48.4119408  -0.7264320
  36.0578059  48.9002057  -1.9539694  36.4330836  48.3739737  -1.5091992
  25.8467890  41.2116657   4.9198156  25.6551087  41.2271792   5.7697579
  26.6966486  41.4080332   4.8964811  25.9443611  41.2431009   5.0421450
  20.2314803  43.7407639   2.8981972  20.0900294  42.8891579   3.0226480
  20.5155366  43.7836299   2.0744178  20.2522649  43.6207389   2.7949596
  30.3853395  45.5774729  -2.9573540  30.1388109  45.4970480  -2.1236751
  30.7138518  44.7928197  -3.1511012  30.3974639  45.4500994  -2.8626016
  34.2801444  52.2858088   0.8313242  34.1415803  52.9839134   1.3361984
  33.5001442  52.1306745   0.4749423  34.1444671  52.3658255   0.8539516
  32.6179529  48.5854464   7.0835623  32.6127567  47.7134280   7.0878050
  33.3240523  48.7842633   6.6105079  32.7224533  48.4858338   7.0142659
  26.3450422  48.3131448   6.4549444  26.4893798  48.8932656   5.8192554
  26.6926071  48.6907744   7.1599298  26.4177884  48.4552152   6.4648438
  28.5170340  47.5121616   4.2374575  27.7693654  47.7052630   3.8322853
  28.6711865  46.6866835   3.9998696  28.4292767  47.4186727   4.1419981
  25.4178177  56.5034219   3.3210470  25.5667741  55.9437135   2.6683875
  26.1978179  56.5826221   3.7042989  25.5552271  56.4319785   3.2807420
  27.9431478  56.6748862   4.5994961  27.8675149  56.0057673   5.1545749
  27.8721337  57.3766650   5.1135627  27.9212085  56.6793770   4.7571809
  28.7572117  41.4072167   5.1269979  29.2144731  42.1396141   5.2542771
  28.8328445  40.9838632   5.8857235  28.8363086  41.4529405   5.2571055
  21.0005108  41.6537986   6.2159423  20.4647297  41.0418345   6.5320190
  21.0622873  42.2286122   6.8693089  20.9300740  41.6484914   6.3594849
  33.2299443  34.5862042  -1.0036178  33.3483011  35.0438505  -1.7368875
  33.0561618  33.7807303  -1.2899961  33.2218614  34.5355814  -1.1535245
  26.6354495  43.3974271   1.9711803  25.8450569  43.2165731   2.2929139
  27.0315117  42.6201223   1.9542097  26.5771371  43.2561732   2.0164351
  32.0198181  51.0316701  -0.3028751  31.3443183  50.8001933   0.1984636
  32.0290557  50.4237884  -0.9286646  31.9216685  50.9075626  -0.3212599
  29.1492325  45.8734530   6.4535302  29.0851466  46.7344486   6.3255439
  29.2889513  45.5566523   5.6530853  29.1607795  45.9534696   6.3163515
  27.8311419  48.5666669   0.5951505  27.4073668  48.7671168  -0.1409477
  27.6556274  47.7195517   0.7075805  27.7422299  48.4715451   0.5025195
  27.3323112  60.0817182   3.0572962  27.8219042  59.3827971   2.8748627
  26.7607344  59.7841052   3.6449019  27.3207642  59.9343406   3.1174003
  23.1193864  49.0618720  -3.9720523  23.2758483  48.9965523  -3.1164531
  23.4594457  49.8367273  -4.1841843  23.1927099  49.1667919  -3.8765929
  29.6573008  48.4376604  -5.1027160  30.1988554  47.9346985  -4.6388539
  29.9719567  48.3841799  -5.9137674  29.7837405  48.3556025  -5.1543347
  33.5290116  52.6479251  12.0099753  34.3424981  52.3764400  12.1704885
  33.3685082  52.3486791  11.2059949  33.6260064  52.5634177  11.9145159
  30.8062278  43.3312909   4.9495141  31.0204247  42.6923823   4.3958495
  30.1896177  43.7758732   4.5203003  30.7467607  43.3023052   4.8045572
  19.6928125  46.2453671  -3.6559756  20.0727090  46.6638216  -4.3199488
  19.1183490  46.8267127  -3.3490912  19.6639450  46.3931530  -3.7083015
  32.9701366  44.9401974   5.8878448  32.1578047  44.6327864   5.9691621
  33.4291300  44.4600974   6.4521160  32.9181750  44.8238466   5.9833042
  30.1977006  36.4412844  -0.0617516  29.3270564  36.4151565  -0.1084207
  30.4517348  36.2690036  -0.8791671  30.1070566  36.4122988  -0.1897380
  30.0654873  46.3462045  10.6707150  30.5354504  46.9704162  11.0575024
  30.1116753  45.6779021  11.2300365  30.1422749  46.3396725  10.8107222
  27.2226147  38.4519073   1.3955954  26.7064635  37.7599264   1.5207533
  26.6620076  39.1189850   1.3418553  27.0632660  38.4482330   1.4062020
  29.2918380  38.9912033   3.2248807  28.9050133  39.0161064   4.0062337
  28.8051318  38.4253711   2.7723323  29.1630889  38.9107784   3.2736710
  33.5411360  53.7085542   7.2822593  34.1791080  53.2145737   6.9485049
  32.8985451  53.6362942   6.6974820  33.5405586  53.6244550   7.1464948
  35.2668360  45.5574688   1.8488509  34.8395968  45.4701036   1.0936608
  34.6294413  45.6652463   2.4343353  35.1097967  45.5607347   1.8233950
  28.9575522  35.8779018   5.5159067  29.5868640  36.4139318   5.2380137
  29.1261385  35.7856377   6.3672632  29.0753317  35.9440380   5.6007595
  28.7589437  40.6650213   7.7885478  29.5862866  40.3935362   7.8444093
  28.7797283  41.4611055   8.1449296  28.8842287  40.7429967   7.8500661
  33.5965616  54.4005350   3.9227950  34.3857994  54.0494415   4.0430032
  33.7709214  55.2141738   3.6604584  33.7385898  54.4691207   3.9015818
  23.3358927  47.8114076   0.9755739  22.4946933  47.7117950   1.1834633
  23.5448935  48.5809556   1.3270059  23.2423619  47.9106119   1.0583054
  20.8134494  45.4333613  -1.1959511  20.4191191  45.5076624  -1.9709401
  20.2574611  45.8191559  -0.6451149  20.6737306  45.5015387  -1.2291851
  32.4499440  38.4114907  -1.5155632  32.6549034  38.3437215  -0.6698634
  32.1225864  39.2173728  -1.5834454  32.4314688  38.5200847  -1.3995976
  27.1475592  45.7395475   0.2253336  26.8438729  45.1851463   0.8263744
  26.4455012  45.9187685  -0.2618629  26.9991801  45.6840257   0.2423042
  25.2093943  52.9545196   4.9325434  25.1014297  52.9647258   5.7987492
  25.4189724  53.7799976   4.7430388  25.2244054  53.0786270   5.0329526
  35.7033128  38.9646671  -2.0352866  35.0907442  39.4517073  -1.6499134
  35.7997303  38.2890162  -1.4915215  35.6271026  38.9364980  -1.8974008
  23.2267735  50.2057838   2.3947372  22.6355668  50.8467336   2.3650387
  23.9888758  50.6295455   2.3678671  23.2515995  50.3633676   2.3862519
  23.6228357  41.3659836   3.0615389  24.0829839  41.4398765   3.7990513
  23.6684464  42.1641090   2.7115211  23.6978913  41.4953983   3.1188146
  25.2711707  42.0326531   7.6287416  24.8797272  41.3859878   8.0643194
  25.4397570  42.6237966   8.2481672  25.2382617  42.0240798   7.7850122
  39.3458156  50.0363608   3.3924650  39.4041280  50.4850256   4.1384626
  38.7124624  50.4462420   2.9554730  39.2609451  50.1637342   3.4377198
  32.9857251  55.6567150  -0.1720604  32.7876939  56.1457964  -0.8664392
  32.3644962  55.8608391   0.4063530  32.8644815  55.7583688  -0.1897381
  27.0465229  47.4252046  -5.8310360  27.7907274  47.8126323  -5.5927410
  27.1925925  46.5809472  -5.6669872  27.1775814  47.3582519  -5.7716390
  28.9644805  39.2202305  -0.7978498  28.1180850  39.3925113  -0.9237148
  28.9615937  38.4151649  -0.4612670  28.8391955  39.1263334  -0.7667371
  30.0343105  42.9977520   0.0683560  29.5603059  42.4719282   0.5788871
  30.4061241  42.4506993  -0.5001579  30.0192994  42.8393516   0.0598707
  20.4116135  44.9949026   5.4367106  21.2741748  44.8944736   5.3504435
  20.0807918  44.4143736   4.8752678  20.4901332  44.8940653   5.3412511
  36.2979836  48.0579895   1.4790340  36.0578058  47.2186311   1.4832767
  36.7771843  48.1380062   2.2031114  36.3332019  47.9461295   1.5865143
  38.2985023  44.8381353  -0.5680401  38.0594793  44.7977187  -1.4059616
  38.4618924  45.6852505  -0.4414679  38.2875326  44.9573438  -0.6726919
  34.9031053  49.2231302   5.3624645  35.6265252  48.7703828   5.1835664
  34.6381015  49.5035968   4.5796972  34.9712326  49.1982270   5.2203360
  23.7717921  43.8191475   2.0977524  23.1470991  43.8309867   1.4903476
  23.4363516  44.2951651   2.7468764  23.6303413  43.8909992   2.1034092
  20.4843597  51.8791936   3.5381288  19.9543521  51.1884374   3.5876263
  20.7568690  51.8702121   2.7093997  20.4468319  51.7759067   3.4228704
  30.6849842  49.3215180   3.5119660  30.0706835  48.7773230   3.8068295
  31.2017127  48.8079417   3.0325476  30.6705505  49.1651589   3.4843888
  29.9246139  50.3919450   1.2463958  29.4973747  49.7669169   0.8129394
  29.9171084  50.1094372   2.0722965  29.8605281  50.2572231   1.3043786
  23.0408667  45.4284623   4.3152392  23.2002153  44.6727947   4.7204114
  22.8601560  45.9775563   4.9693130  23.0374025  45.3978437   4.4715098
  30.9828970  37.5945859   4.8703182  30.4869531  37.7909533   4.1794748
  31.7398032  37.9938527   4.6991983  31.0215794  37.6823593   4.7423318
  28.2531849  41.2688205   1.4606492  28.2774336  40.7348317   0.7719272
  28.5043323  40.7605514   2.1232083  28.2941768  41.1149109   1.4571137
  24.5333171  39.9959023   0.8412237  24.5731543  40.4968230   1.5546944
  23.7082836  40.0869417   0.5718160  24.4172697  40.0840839   0.9062775
  26.7162784  49.5619763   8.9432531  25.8658415  49.6991477   9.0790176
  26.8790912  48.8283541   9.3880233  26.6146648  49.4733864   9.0288130
  25.9547535  46.5119533   3.1386136  25.1239464  46.6793351   2.9321384
  25.8999052  46.1355484   3.9235021  25.8236950  46.4809264   3.2234664
  23.7631318  40.0028426   8.7742546  24.3884021  39.4590558   9.0471979
  23.3081798  39.5223343   8.2050337  23.7879579  39.8517907   8.7304140
  37.3366367  48.1857713   3.8655194  37.9284207  48.8254963   3.8973392
  37.7725361  47.4880749   4.1547261  37.4884798  48.1776063   3.9136027
  29.1659757  52.6075085   4.4913088  28.6584848  53.1610932   4.9353719
  28.8686403  52.6683375   3.6731863  29.0464642  52.6981396   4.4361545
  31.3321939  40.9728405   3.3337751  31.7577010  40.5200931   2.7221278
  30.7178932  40.4188475   3.6102539  31.3050584  40.8242381   3.2842776
  34.3615508  45.4002931  -3.8341663  33.6906698  45.9432634  -3.9628598
  35.0555258  45.8697787  -4.0759968  34.3644376  45.5501203  -3.8886135
  28.4102242  57.5399643   1.3970095  28.1867896  56.7818473   1.7654121
  27.9212085  57.5697665   0.6750535  28.3045691  57.4321868   1.3446836
  34.5243636  41.8558815  -0.9251290  34.8771246  41.4288538  -0.2505491
  33.6658437  41.7709659  -0.7950214  34.4493080  41.7803556  -0.8056280
  23.2227321  44.4866335  -2.8668443  22.5039310  44.9030467  -2.5995580
  23.5939683  45.0520573  -3.4176805  23.1719252  44.6315616  -2.9085636
  32.5226901  45.1194184   3.0233552  32.5024829  44.9377479   3.8768331
  32.5706102  45.9906202   2.9993136  32.5261542  45.2210722   3.1456847
  30.4673231  51.7081376   8.9482029  30.4269086  51.0631053   8.3627185
  31.2796549  51.6517993   9.2607441  30.5816385  51.6040342   8.9078978
  27.0580699  57.7600101  -1.1492820  26.6441097  57.0974232  -1.5388979
  27.7428073  57.9077960  -1.6697126  27.0979070  57.6840760  -1.2836323
  30.4245993  56.9190187  -0.3969204  30.0262276  57.0292457  -1.1648383
  29.8097212  57.1272253   0.1857356  30.2744882  56.9663755  -0.4237904
  35.9567696  36.9777227   0.0033023  35.4498560  36.2706366  -0.0645800
  36.7535129  36.6470416   0.1334099  35.9994935  36.8250378   0.0132017
  31.8731712  43.4843839  -4.0993314  31.6445405  43.5076541  -4.9414956
  32.1329788  42.6601306  -3.9798303  31.8777900  43.3659919  -4.2068116
  26.1550940  45.3378312   5.5031786  25.6429843  44.7299495   5.8616818
  25.9830436  46.0534905   5.9705762  26.0540577  45.3541611   5.6248010
  21.0016655  43.7815887   8.1534148  20.8319245  44.4417262   7.6082355
  20.5582605  43.9922449   8.8746637  20.9115988  43.9101870   8.1795778
  24.9276474  42.0220385  -2.8039118  25.4033840  42.3837465  -3.4388937
  24.4265074  42.6776853  -2.5238975  24.9241833  42.1714574  -2.8562377
  30.0320010  43.2602557   7.9434042  30.5891440  43.0316366   7.3112507
  29.7081075  44.0208222   7.6669254  30.0666420  43.3386393   7.8090539
  17.9018719  46.6862753   3.4122638  17.3545439  46.0163399   3.5303506
  18.6911097  46.3192601   3.4766105  17.9370903  46.5327739   3.4391339
  27.7503128  46.3470210   8.9086049  28.5014455  46.6621887   9.2225603
  27.9425704  46.1449381   8.0819971  27.8894542  46.3637592   8.8329445
  34.5988418  42.4743776  -3.8490155  34.5982644  42.3192433  -2.9905879
  34.3944598  43.3206763  -3.9048770  34.5688196  42.5764397  -3.7302216
  16.6605689  45.8983561   0.5668661  16.4827450  45.4460170   1.2923577
  16.3724711  46.7009722   0.7507139  16.5918642  45.9506119   0.7012164
  32.3229270  47.1541278  -0.1953949  32.8182935  46.4364273  -0.2349928
  31.5129045  46.8512076  -0.3099462  32.2773163  47.0038924  -0.2180223
  34.3881089  49.9044966   2.4923180  34.8136160  49.3819387   1.9393605
  34.0238008  50.5025803   1.9711803  34.3967691  49.9155193   2.3332190
  24.0235168  58.2009183   1.2520526  24.3381727  59.0145572   1.2598307
  24.4328582  57.8159402   1.9202685  24.1303266  58.2637886   1.3524617
  30.9759688  53.6179230  -1.1775662  31.4470866  54.3319493  -1.0085677
  31.3119867  53.0177980  -0.6415793  31.0954803  53.6350694  -1.0743286
  33.0636673  55.2280543  11.0016410  33.1733638  54.4389104  11.3573157
  33.3927569  55.1386479  10.1990748  33.1289078  55.0986396  10.9358800
  27.8929183  38.3906700   5.7782432  28.0257089  37.5937694   6.1063408
  28.2774336  38.9173103   6.3580708  27.9685512  38.3506617   5.9125935
  31.6133634  53.4097164   5.5852030  31.0654580  52.7855048   5.3172096
  32.0746663  53.5991436   4.8696110  31.6000844  53.3456214   5.4402461
  30.9661538  35.3137027   2.3763526  30.1607502  35.2034756   2.6931364
  30.8368274  35.4149482   1.5193392  30.8281671  35.3120697   2.2971566
  34.4227499  41.4782519   2.9703223  33.8390488  41.9791725   2.5580790
  34.7431793  40.9712075   2.3367546  34.3840674  41.4774354   2.8161730
  25.5517630  38.3865876   4.0260326  26.0962043  38.0457002   4.6164668
  25.6054566  39.2451337   4.1681611  25.6406749  38.4621135   4.1342200
  21.3648189  52.1482292   0.8999134  21.9693046  52.1078126   0.2712955
  21.1575501  52.9953444   0.9303190  21.4237086  52.2670294   0.8115251
  31.1791961  54.4148237   2.1161372  31.9990334  54.2711203   2.3777667
  30.8986038  55.0394436   2.6577809  31.2588704  54.4858589   2.2349311
  32.0355457  62.4428148   2.6337393  31.9114153  63.0290594   3.2687212
  32.6873741  61.9488344   2.9349668  32.1129106  62.4566953   2.7723322
  35.4736665  62.3607570   8.0466417  35.6457168  62.2513464   8.8951699
  36.0106022  63.0061975   7.8097609  35.5781669  62.4399571   8.1371514
  41.4111366  70.2811821   9.9975493  42.1951783  70.3942668  10.3631235
  41.2107961  69.4552958  10.1934179  41.4977391  70.1758540  10.0809879
  34.5296988  58.4917879   5.5286345  33.8368785  58.0214859   5.7747076
  35.1457315  58.2656184   6.1028052  34.5181518  58.3885011   5.6495497
  33.2537547  62.4583283   6.6713190  33.9777519  62.4436314   7.1578085
  33.3553683  63.1678638   6.1735158  33.3755756  62.5607986   6.6691977
  40.6282496  65.9382368  11.5362137  39.8355477  66.2525879  11.7214757
  40.7431423  66.1533836  10.6982922  40.5277907  66.0166204  11.4400472
  39.5538008  60.2986948   3.8725904  39.1652441  59.8741166   3.2178096
  38.8892707  60.5469098   4.3802931  39.3984936  60.2725669   3.8513772
  43.3764370  53.9961577   1.3849889  43.7574882  53.3139748   1.7717763
  42.5727654  53.7071179   1.2025553  43.3140832  53.8528625   1.4153944
  37.3356210  56.5015775  11.2512497  37.0209651  57.2715338  10.9882060
  37.0146143  55.9386031  10.6664724  37.2415130  56.5326044  11.1253847
  44.0120996  55.0384156   5.1970015  44.7574588  54.8493966   4.7833441
  43.5958301  55.5642394   4.6383871  44.0605970  55.0886301   5.0534588
  36.9672716  59.1013026   9.9897712  36.1572492  59.4070806   9.8787554
  37.4447403  59.8218609  10.1050296  36.9176195  59.2527627   9.9904783
  33.3016748  64.6375577   4.8597114  33.8137845  64.9159830   4.2105874
  33.0153090  65.3764871   5.2259927  33.3351611  64.7877930   4.8186992
  36.8200473  56.7301965   4.9198156  36.6283670  56.7457100   5.7697579
  37.6699069  56.9265640   4.8964811  36.9176195  56.7616316   5.0421450
  31.2047386  59.2592947   2.8981972  31.0632878  58.4076887   3.0226480
  31.4887950  59.3021607   2.0744178  31.2255232  59.1392697   2.7949596
  37.3183006  63.8316755   6.4549444  37.4626382  64.4117964   5.8192554
  37.6658654  64.2093052   7.1599298  37.3910467  63.9737460   6.4648438
  39.7304700  56.9257475   5.1269979  40.1877314  57.6581449   5.2542771
  39.8061029  56.5023940   5.8857235  39.8095670  56.9714713   5.2571055
  31.9737691  57.1723294   6.2159423  31.4379881  56.5603652   6.5320190
  32.0355456  57.7471430   6.8693089  31.9033324  57.1670222   6.3594849
  37.6087078  58.9159579   1.9711803  36.8183153  58.7351039   2.2929139
  38.0047701  58.1386531   1.9542097  37.5503954  58.7747039   2.0164351
  40.1224908  61.3919838   6.4535302  40.0584050  62.2529794   6.3255439
  40.2622096  61.0751831   5.6530853  40.1340378  61.4720004   6.3163515
  44.5022699  68.1664559  12.0099753  45.3157565  67.8949708  12.1704885
  44.3417666  67.8672099  11.2059949  44.5992648  68.0819485  11.9145159
  41.7794861  58.8498216   4.9495141  41.9936831  58.2109131   4.3958495
  41.1628760  59.2944040   4.5203003  41.7200190  58.8208360   4.8045572
  43.9433949  60.4587282   5.8878448  43.1310631  60.1513172   5.9691621
  44.4023884  59.9786282   6.4521160  43.8914334  60.3423774   5.9833042
  41.0387457  61.8647353  10.6707150  41.5087088  62.4889470  11.0575024
  41.0849337  61.1964329  11.2300365  41.1155333  61.8582033  10.8107222
  38.1958730  53.9704381   1.3955954  37.6797219  53.2784572   1.5207533
  37.6352659  54.6375158   1.3418553  38.0365244  53.9667638   1.4062020
  40.2650964  54.5097341   3.2248807  39.8782717  54.5346372   4.0062337
  39.7783901  53.9439019   2.7723323  40.1363473  54.4293091   3.2736710
  39.9308106  51.3964326   5.5159067  40.5601224  51.9324626   5.2380137
  40.0993968  51.3041685   6.3672632  40.0485900  51.4625688   5.6007595
  39.7322020  56.1835521   7.7885478  40.5595450  55.9120670   7.8444093
  39.7529867  56.9796363   8.1449296  39.8574871  56.2615275   7.8500661
  34.5960941  56.8845144   3.0615389  35.0562423  56.9584073   3.7990513
  34.6417048  57.6826398   2.7115211  34.6711496  57.0139291   3.1188146
  36.2444291  57.5511839   7.6287416  35.8529856  56.9045186   8.0643194
  36.4130153  58.1423274   8.2481672  36.2115201  57.5426106   7.7850122
  31.3848719  60.5134334   5.4367106  32.2474332  60.4130044   5.3504435
  31.0540502  59.9329044   4.8752678  31.4633915  60.4125961   5.3412511
  34.7450505  59.3376783   2.0977524  34.1203575  59.3495175   1.4903476
  34.4096100  59.8136958   2.7468764  34.6035997  59.4095300   2.1034092
  34.0141250  60.9469931   4.3152392  34.1734737  60.1913255   4.7204114
  33.8334144  61.4960871   4.9693130  34.0106609  60.9163745   4.4715098
  41.9561553  53.1131167   4.8703182  41.4602114  53.3094841   4.1794748
  42.7130615  53.5123835   4.6991983  41.9948378  53.2008901   4.7423318
  35.5065755  55.5144331   0.8412237  35.5464127  56.0153537   1.5546944
  34.6815420  55.6054725   0.5718160  35.3905281  55.6026147   0.9062775
  37.6895368  65.0805071   8.9432531  36.8390998  65.2176785   9.0790176
  37.8523496  64.3468849   9.3880233  37.5879231  64.9919172   9.0288130
  34.7363902  55.5213734   8.7742546  35.3616605  54.9775866   9.0471979
  34.2814381  55.0408651   8.2050337  34.7612162  55.3703215   8.7304140
  42.3054522  56.4913713   3.3337751  42.7309594  56.0386239   2.7221278
  41.6911515  55.9373783   3.6102539  42.2783168  56.3427689   3.2842776
  41.4405815  67.2266683   8.9482029  41.4001670  66.5816360   8.3627185
  42.2529133  67.1703301   9.2607441  41.5548968  67.1225650   8.9078978
  37.1283524  60.8563620   5.5031786  36.6162427  60.2484803   5.8616818
  36.9563020  61.5720213   5.9705762  37.0273161  60.8726919   5.6248010
  31.9749238  59.3001195   8.1534148  31.8051828  59.9602570   7.6082355
  31.5315188  59.5107757   8.8746637  31.8848572  59.4287177   8.1795778
  41.0052594  58.7787865   7.9434042  41.5624024  58.5501674   7.3112507
  40.6813659  59.5393530   7.6669254  41.0399004  58.8571701   7.8090539
  28.8751303  62.2048061   3.4122638  28.3278022  61.5348706   3.5303506
  29.6643681  61.8377909   3.4766105  28.9103486  62.0513047   3.4391339
  38.7235711  61.8655518   8.9086049  39.4747038  62.1807195   9.2225603
  38.9158288  61.6634689   8.0819971  38.8627125  61.8822900   8.8329445
  27.6338272  61.4168869   0.5668661  27.4560033  60.9645478   1.2923577
  27.3457294  62.2195030   0.7507139  27.5651225  61.4691427   0.7012164
  38.8661767  53.9092008   5.7782432  38.9989672  53.1123002   6.1063408
  39.2506919  54.4358411   6.3580708  38.9418095  53.8691925   5.9125935
  41.9394122  50.8322335   2.3763526  41.1340085  50.7220064   2.6931364
  41.8100857  50.9334790   1.5193392  41.8014255  50.8306005   2.2971566
  36.5250213  53.9051183   4.0260326  37.0694626  53.5642310   4.6164668
  36.5787149  54.7636645   4.1681611  36.6139333  53.9806443   4.1342200
  35.1687488  39.2985701  -5.0193536  35.3407992  39.1891595  -4.1708255
  35.7056846  39.9440106  -5.2562344  35.2732492  39.3777703  -4.9288439
  41.1062190  47.2189952  -3.0684460  41.8902607  47.3320800  -2.7028718
  40.9058785  46.3931089  -2.8725774  41.1928215  47.1136671  -2.9850074
  40.3233320  42.8760499  -1.5297816  39.5306301  43.1904011  -1.3445196
  40.4382247  43.0911967  -2.3677032  40.2228731  42.9544335  -1.6259481
  37.0307034  33.4393906  -1.8147456  36.7160475  34.2093469  -2.0777893
  36.7096967  32.8764162  -2.3995229  36.9365953  33.4704175  -1.9406106
  36.6623540  36.0391157  -3.0762241  35.8523316  36.3448937  -3.1872399
  37.1398226  36.7596740  -2.9609657  36.6127019  36.1905759  -3.0755170
  37.0133830  40.7694887  -6.6110510  37.1577205  41.3496095  -7.2467400
  37.3609478  41.1471183  -5.9060655  37.0861291  40.9115591  -6.6011515
  39.8175732  38.3297969  -6.6124651  39.7534874  39.1907925  -6.7404515
  39.9572920  38.0129962  -7.4129100  39.8291202  38.4098135  -6.7496439
  44.1973523  45.1042690  -1.0560201  45.0108388  44.8327839  -0.8955068
  44.0368490  44.8050230  -1.8600005  44.2943472  45.0197617  -1.1514795
  43.6384773  37.3965413  -7.1781505  42.8261455  37.0891303  -7.0968332
  44.0974708  36.9164413  -6.6138793  43.5865158  37.2801905  -7.0826911
  40.7338281  38.8025484  -2.3952803  41.2037912  39.4267601  -2.0084929
  40.7800161  38.1342460  -1.8359588  40.8106157  38.7960165  -2.2552731
  37.3846192  42.0183202  -4.1227422  36.5341822  42.1554916  -3.9869777
  37.5474319  41.2846980  -3.6779720  37.2830055  41.9297303  -4.0371823
  41.1356639  44.1644815  -4.1177924  41.0952494  43.5194492  -4.7032768
  41.9479957  44.1081432  -3.8052512  41.2499792  44.0603782  -4.1580975
  40.7003418  35.7165996  -5.1225911  41.2574848  35.4879805  -5.7547446
  40.3764483  36.4771661  -5.3990699  40.7349828  35.7949833  -5.2569414
  38.4186535  38.8033649  -4.1573904  39.1697862  39.1185326  -3.8434350
  38.6109112  38.6012820  -4.9839982  38.5577949  38.8201031  -4.2330508
  79.2107608  79.2107608  79.2107608 109.4712190 109.4712190 109.4712190
