default_name
 44008
  38.4799594  30.1778138  23.9401393  38.9671395  30.6213354  24.7056751
  38.1967601  30.8882736  23.2804837  39.0212815  29.3847751  23.6268351
  37.1877183  29.5933307  24.4792287  36.3463362  30.0540797  23.9616519
  37.1146953  28.0776957  24.2787308  37.0333618  27.9017208  23.2061093
  38.0537652  27.6622954  24.6443675  35.9334319  27.3951143  25.0031757
  36.1965490  27.3740500  26.0607326  35.0705940  28.0448837  24.8568455
  35.5024003  25.6674955  24.4436364  34.5870954  26.0172857  22.9343651
  35.2288559  26.5541525  22.2357833  34.2609619  25.0810560  22.4813622
  33.7162415  26.6288331  23.1704255  37.0512624  29.8834662  25.9975730
  35.9455678  30.0944875  26.4997020  37.8502183  32.3555227  27.5309531
  38.6338392  31.9632230  28.0330873  37.5290507  33.7753492  27.7391646
  37.6793317  34.0452128  28.7844820  38.4596989  34.6606308  26.8577524
  38.4976208  34.2554575  25.8465671  38.0716654  35.6787387  26.8263463
  39.7280739  34.6691799  27.3967559  40.3025714  35.2144934  26.8543671
  36.1129702  34.1261464  27.3361880  35.6913633  35.2837219  27.4312122
  35.3916275  33.1443261  26.7809090  35.7314035  32.1935288  26.8061294
  34.0918363  33.4004652  26.1584657  33.9269060  34.4746579  26.0747565
  34.0404319  32.7796003  24.7397588  34.7880896  33.3227440  24.1617431
  34.3612144  31.7457161  24.8673601  32.6799484  32.8107608  23.9863533
  32.7819116  32.1807880  23.1027026  31.9306881  32.3829350  24.6524414
  32.2486140  34.1992348  23.5683218  33.0313552  35.1493711  23.7556913
  31.1186730  34.3068190  23.0527726  33.0085296  32.7254621  27.0305320
  32.9199944  31.4630169  27.0943640  32.2353144  33.5236142  27.7469992
  32.4317089  34.5109386  27.8289698  31.0644845  32.9689498  28.4948186
  31.4102699  32.2564573  29.2437418  30.2894040  34.0988327  29.2089943
  29.9898002  34.7951907  28.4257814  29.4009100  33.6727870  29.6750023
  31.1187237  34.8476859  30.2727733  31.9812371  35.3132128  29.7958497
  30.2393054  35.9510795  30.9513128  29.3767808  35.4862356  31.4288798
  30.8299521  36.4767168  31.7016079  29.8980646  36.6595564  30.1965176
  31.6516078  33.8866809  31.3267087  32.2874823  33.1404309  30.8503959
  32.2323878  34.4408841  32.0640381  30.8169801  33.3897785  31.8212627
  30.0935861  32.2048638  27.5894044  29.8054677  32.6432995  26.4726990
  29.5996189  31.0680529  28.1031420  30.0281819  30.6643137  28.9237684
  28.4660795  30.3483624  27.4764498  28.5926569  30.3210696  26.3941687
  28.3294680  28.8885117  27.9981385  27.5432994  28.3864498  27.4342475
  29.6689676  28.1095678  27.8278938  30.4555639  28.6108078  28.3919189
  29.5479763  27.0921021  28.1996786  29.9413223  28.0803549  26.7728725
  27.9465614  28.8835127  29.3788139  27.8665441  27.9773116  29.6854036
  27.1624059  31.0926777  27.7242920  27.0981809  31.9616256  28.6173540
  26.1250986  30.8183023  26.9069881  26.0543448  30.0601482  25.6375267
  25.8910103  29.0025907  25.8448773  26.9831407  30.1813479  25.0800791
  24.8629572  30.7115103  24.9341057  24.4087824  30.0251124  24.2194853
  25.1652724  31.6235198  24.4193772  23.9120314  31.0259352  26.0870806
  23.3440671  30.1508369  26.4028632  23.2242316  31.8316542  25.8304720
  24.8513855  31.4780373  27.2216847  25.0067562  32.5533498  27.1341571
  24.3267957  31.1475324  28.6376981  23.8203827  32.0569567  29.2964412
  24.5402113  29.9264439  29.1453649  24.9528778  29.2006807  28.5769694
  24.1405610  29.5918946  30.5239785  23.0976137  29.8752173  30.6657122
  24.2875582  28.1053832  30.8300187  25.2496808  27.7781832  30.4358619
  24.2799620  27.9865010  31.9134897  23.1658216  27.2546316  30.2137998
  22.2303655  27.4872965  30.7226120  23.0987517  27.5653383  29.1711771
  23.4211198  25.7495770  30.2809906  24.2621027  25.3022144  31.0954692
  22.7354326  24.9982312  29.5249525  24.9504313  30.3749804  31.5617027
  24.4152489  30.8318152  32.5864909  26.2508479  30.5107725  31.3133134
  26.7033878  30.0855987  30.5167368  27.0682549  31.2686044  32.2473677
  26.8925080  30.9088392  33.2611632  28.5629880  31.1127723  31.9229694
  28.6766344  31.2859537  30.8528330  29.0915810  31.8902849  32.4744796
  29.1488249  29.7427821  32.2836133  29.2654783  29.6788801  33.3654679
  28.4464800  28.9794655  31.9487125  30.5100113  29.5175229  31.6079442
  30.8893967  30.2956663  30.6943334  31.2140155  28.5831062  31.9841533
  26.6439149  32.7459937  32.1731417  26.5319335  33.3925423  33.2055839
  26.3831668  33.2929085  30.9799893  26.3907692  32.7575295  30.1235952
  26.0491581  34.7168727  30.9056570  26.8642796  35.2706676  31.3714761
  25.8362195  35.2613881  29.4759259  25.0389516  34.6719849  29.0230828
  25.5117898  36.2975640  29.5717640  27.0356806  35.1998308  28.6246417
  27.8196838  35.8176185  29.0625664  27.3797449  34.1674550  28.5620160
  26.7040772  35.7167006  27.2121270  25.8170879  35.2275444  26.8095415
  26.5552506  36.7964909  27.2103610  27.8437175  35.3997397  26.3540240
  27.8251912  34.5122675  25.8722053  28.8926519  36.2003744  26.1714374
  28.9523009  37.4222089  26.7696192  28.1929918  37.7293802  27.3605469
  29.7555832  38.0158054  26.6196849  29.8879432  35.7719748  25.3829820
  29.8270881  34.8629833  24.9469415  30.6944018  36.3600374  25.2283678
  24.7686577  35.0021570  31.6248319  24.6482979  36.0389570  32.2706378
  23.7979125  34.0856144  31.5185053  23.9004846  33.2847231  30.9117504
  22.5304401  34.2689362  32.2113190  22.1179540  35.2505483  31.9780980
  21.5276384  33.1999882  31.7712814  21.2971979  33.3140876  30.7120469
  21.9365762  32.2052738  31.9485184  20.3464967  33.3658891  32.5308223
  19.7025313  32.7034859  32.2698044  22.6806716  34.2658279  33.7337167
  22.1162103  35.1180682  34.4346189  23.4192005  33.2908916  34.2268883
  23.7396318  32.5683758  33.5980847  23.7503880  33.1775513  35.6188682
  22.8429050  33.1121482  36.2191149  24.5609682  31.9389430  35.8408209
  23.9117930  31.0928863  35.6153016  25.3821445  31.9671940  35.1246007
  25.1120291  31.7899101  37.2264970  25.9763843  31.1287192  37.1647104
  25.4350572  32.7803507  37.5470895  24.1218873  31.2335021  38.2280914
  22.9488873  30.9125553  37.8606814  24.5524087  31.1181454  39.4004950
  24.5195686  34.3873245  36.1727275  24.3180863  34.7100775  37.3378272
  25.3960477  34.9957782  35.3610148  25.5135279  34.6363168  34.4244865
  26.2670878  36.0959837  35.7996979  26.3306787  36.0955213  36.8878409
  27.6995000  35.9474833  35.2188812  27.4826646  35.8831997  34.1526030
  28.3460356  36.8047173  35.4066087  28.4136087  34.6517346  35.6794178
  27.7085873  33.8238906  35.6037863  29.6431220  34.3531774  34.8223910
  30.3488554  35.1804258  34.8978848  30.1183694  33.4375628  35.1743718
  29.3403594  34.2282907  33.7827572  28.7112793  34.6497026  37.1817520
  27.7775835  34.7341501  37.7377917  29.2118274  33.7199773  37.4522404
  29.3565805  35.4935324  37.4259579  25.7692507  37.5136742  35.5025498
  26.4398830  38.4831846  35.9064123  24.6034605  37.6281485  34.8606940
  24.0614470  36.7971683  34.6715048  24.0625093  38.9194311  34.4392027
  24.6555669  39.3433116  33.6288279  22.6333291  38.7007443  33.9367756
  22.5913424  37.7248783  33.4530175  21.9676173  38.7067915  34.7998464
  22.2013794  39.7595278  32.9648255  22.0265495  40.7046195  33.4789627
  22.9559173  39.9015601  32.1911321  20.9032501  39.2814775  32.3261257
  21.1139244  38.9202353  31.3195377  20.4905680  38.4690170  32.9242067
  19.8883175  40.4304570  32.2549434  18.9927611  40.0623881  31.7543391
  19.6385805  40.7269887  33.2736679  20.4253508  41.6094517  31.5109390
  20.6564225  41.3349940  30.5668105  19.7277144  42.3394413  31.4881642
  21.2549548  41.9509295  31.9748885  24.0167494  39.9019092  35.6111122
  24.4889844  41.0391504  35.5203457  23.4536649  39.4255949  36.7410071
  22.9491563  38.5506524  36.7477808  23.3510830  40.2978547  37.9186772
  23.0506366  41.2924843  37.5892183  22.3227409  39.7893338  38.9573195
  22.5516205  38.7556778  39.2166814  22.3987385  40.4123597  39.8484778
  20.8950973  39.8553919  38.4386452  20.5901732  40.5842529  37.4905419
  19.9884977  39.0655477  39.0619985  19.0254097  39.0702137  38.7577954
  20.2795999  38.4754350  39.8282409  24.6741427  40.6752226  38.5382057
  24.8418240  41.8330230  38.9266671  25.6127154  39.7279227  38.6428625
  25.3914199  38.7647632  38.4344123  26.9509402  40.0401256  39.1242695
  26.8818333  40.5123757  40.1042202  27.8086913  38.7739510  39.2495372
  27.9289824  38.3109347  38.2701265  28.7885224  39.0299920  39.6526179
  27.1594430  37.8646495  40.1261400  27.6890931  37.0684841  40.2109406
  27.6820742  41.0472677  38.2542191  28.4357865  41.8566438  38.7421096
  27.4678416  40.9656630  36.9436764  26.9136427  40.2173485  36.5525392
  28.1201302  41.8884862  36.0316770  29.1790984  42.0010635  36.2640816
  27.9621177  41.3838025  34.5748827  26.9471622  41.0076235  34.4466056
  28.2315471  42.5452615  33.5280323  29.2465372  42.9216578  33.6553966
  28.1125410  42.1578955  32.5161599  27.5209207  43.3552665  33.6923524
  28.9276989  40.1992109  34.3503706  29.9389050  40.6060763  34.3455290
  28.8117533  39.5254937  35.1993472  28.6806977  39.4251315  33.0446292
  28.7969308  40.0981318  32.1951233  29.4000699  38.6103009  32.9630574
  27.6697776  39.0175510  33.0489407  27.5774248  43.3190536  36.2339185
  28.3589675  44.2947255  36.2751904  26.2639042  43.4207684  36.4206820
  25.6785526  42.6045816  36.3143713  25.6130536  44.7196060  36.6774200
  25.9348922  45.4390349  35.9244651  24.0679656  44.5598511  36.5841975
  23.7294980  43.8492285  37.3382235  23.5913867  45.5250688  36.7554507
  23.7991998  44.1931941  35.5935276  26.0769394  45.2778665  38.0266732
  26.3534548  46.4834098  38.1745878  26.2533973  44.3880133  39.0077608
  26.1871541  43.3932105  38.8462721  26.5342601  44.8483942  40.3525234
  25.8847835  45.6843484  40.6122540  26.2755087  43.6893208  41.3533163
  25.2285155  43.4006827  41.2606206  26.9098079  42.8526213  41.0605734
  26.5747223  44.0733545  42.8159278  27.6176172  44.3843195  42.8773443
  25.9295264  44.9170542  43.0608608  26.3207785  42.9241518  43.8160451
  26.1522403  41.7412323  43.3860470  26.3051232  43.2138926  45.0440774
  28.0004936  45.3190071  40.4772624  28.2515552  46.3792650  41.0641204
  28.9504588  44.4961107  39.9776180  28.6667060  43.7081457  39.4130874
  30.3984197  44.6740228  40.2621926  30.5419185  45.4404315  41.0238520
  30.9840649  43.3609447  40.7750535  30.6582005  42.5202223  40.1626014
  32.0727286  43.4144496  40.7680783  30.5814642  43.0494022  42.1757347
  31.0710461  43.8200511  43.2451864  31.7535541  44.6459047  43.0445661
  30.6898222  43.5343744  44.5527441  31.0713942  44.1409980  45.3740305
  29.8261225  42.4801949  44.8120845  29.5320992  42.2602780  45.8383821
  29.3344044  41.7029524  43.7643114  28.6662623  40.8645672  43.9612797
  29.7087606  42.0097298  42.4408606  29.3096476  41.4249399  41.6121088
  31.2284848  45.1335528  39.0891512  32.3136968  45.6940053  39.2716174
  30.7102842  44.9493417  37.8908911  29.7591255  44.6319791  37.7697402
  31.5598717  45.1131055  36.6785267  32.5271677  45.5428703  36.9387955
  31.7905734  43.7235719  36.0530596  30.8629497  43.2586704  35.7191732
  32.4681029  43.8307123  35.2059617  32.4416632  42.7519046  37.0063982
  33.7540294  42.8737592  37.3987162  34.0533438  41.8946966  38.2555905
  35.0320794  41.8610286  38.7341738  33.0050453  41.0886463  38.3606189
  32.9575552  40.2315783  38.8928585  31.9670959  41.6170904  37.6118672
  30.9978926  41.1186062  37.5957530  31.0030053  46.0751180  35.6699545
  31.4388645  46.0649099  34.4749853  30.1347320  46.9753989  36.1230899
  29.8290352  46.9691185  37.0856955  29.5828833  48.0341182  35.2058230
  30.0459642  47.8888240  34.2298389  28.0411609  47.8831871  35.0523277
  27.5722542  48.1119202  36.0093585  27.4802624  48.8548944  33.9480071
  27.9483967  48.6264461  32.9905306  26.4011443  48.7261684  33.8641460
  27.7023402  49.8858191  34.2236453  27.7792896  46.5532428  34.6120521
  26.8327564  46.4310245  34.5084284  29.9113696  49.3696523  35.8228701
  29.8900718  49.4933839  37.0261012  30.1740713  50.3864102  35.0015199
  29.9735956  50.3325022  34.0130854  30.7507087  51.6315067  35.5287449
  30.6732672  51.6490508  36.6158484  32.2419777  51.7271492  35.1386009
  32.3966370  51.7181290  34.0596670  32.5685640  52.6848225  35.5439445
  33.0431422  50.6134234  35.7711577  33.4961222  50.7357795  37.0743523
  33.2970492  51.6668059  37.6050680  34.1846067  49.7152843  37.7032661
  34.5746676  49.8379524  38.7136655  34.4244671  48.5208279  36.9957748
  35.0939079  47.5136824  37.6486911  35.3331127  47.7446499  38.5492658
  33.9581923  48.3514503  35.7132253  34.1318686  47.4187806  35.1765092
  33.2500205  49.3984050  35.0939712  32.8589285  49.2696147  34.0847338
  30.0682889  52.8450910  34.9754407  29.7238852  52.8771723  33.7853181
  29.9122332  53.8379662  35.8400398  29.9990170  53.6934921  36.8358787
  29.6112554  55.1869469  35.3581692  28.9260020  55.1321375  34.5122834
  28.9622794  56.0126927  36.4559962  28.1440942  55.4205484  36.8659198
  29.7150685  56.1744905  37.2275077  28.4246982  57.3621772  35.9778111
  28.0253633  57.2668775  34.9680832  27.6276918  57.6673223  36.6558741
  29.4924770  58.4310203  35.9758046  30.3271380  58.4998464  36.8890926
  29.4929966  59.2618537  34.9358986  30.1839140  59.9964886  34.8807066
  28.8024728  59.1538411  34.2067817  30.9505004  55.7618549  34.9648122
  31.8853788  55.8060329  35.7989235  31.0790728  56.1513057  33.6997177
  30.3171719  56.0476368  33.0448442  32.3530555  56.6821988  33.2054026
  33.0892385  56.6454911  34.0083885  32.8856107  55.8801152  32.0170865
  32.0840827  55.9945515  31.2873218  33.7870931  56.3670985  31.6452308
  33.1663178  54.3827665  32.2400111  32.3219499  53.9512911  32.7775728
  33.3583697  53.6503572  30.9343918  34.2029126  54.0809982  30.3964379
  33.5542427  52.5967718  31.1336215  32.4568496  53.7436074  30.3288621
  34.3653579  54.1833394  33.1561413  34.1671329  54.6490918  34.1214811
  34.5421004  53.1170560  33.2972195  35.2467182  54.6408541  32.7067156
  32.2140194  58.1432893  32.8169949  31.3268676  58.5316919  32.0632960
  33.1150839  58.9301220  33.3698402  33.5603996  58.6433540  34.2298155
  33.3898684  60.2451775  32.8674533  32.4694277  60.7426210  32.5617769
  34.0445038  61.0688722  33.9888616  34.9480766  60.5526905  34.3132253
  34.3110228  62.0411809  33.5745146  33.1032067  61.2649830  35.1957814
  31.8547378  61.2369352  35.0227131  33.6110489  61.4409749  36.3319840
  34.2183169  60.2438780  31.5515987  34.8568984  59.2256056  31.1770362
  34.1811447  61.3847280  30.8090191  33.2395770  62.5176318  30.9732176
  33.5543693  63.1250108  31.8218028  32.2385428  62.1277231  31.1576104
  33.3350682  63.2536341  29.6721134  33.1790614  64.3200380  29.8350355
  32.5840559  62.8791962  28.9764998  34.7322234  62.9708639  29.1625819
  35.4950119  63.6026469  29.6176674  34.7818280  63.0663288  28.0779043
  34.9558331  61.5034181  29.5715056  34.4949607  60.8223489  28.8560760
  36.4608580  61.1838572  29.6887146  37.0510946  60.7407067  28.7301592
  37.1082100  61.3842870  30.8203573  36.7181966  61.7543824  31.6753534
  38.5438739  61.0216160  30.8028979  38.9111738  61.3119813  29.8185819
  39.0159670  61.6427822  31.5640681  38.9115318  59.5451877  31.0606348
  40.0843394  59.2419869  31.2375432  37.9386433  58.6367541  31.0782503
  36.9709301  58.8826075  30.9259788  38.2492410  57.2684948  31.5408131
  39.3000310  57.0499245  31.3506378  37.9836941  57.1205922  33.0334629
  38.2023938  56.0953750  33.3321255  38.6349390  57.8039996  33.5783799
  36.6452827  57.4171075  33.3270263  36.4952765  57.3191552  34.2701611
  37.6087233  56.1661374  30.7099109  36.8101163  56.4254772  29.8107760
  38.0188298  54.9171472  30.9632803  38.6562543  54.7214882  31.7219020
  37.5676712  53.8101876  30.1411498  36.5563681  54.0169274  29.7909730
  38.4803332  53.5893810  28.9128723  38.0786021  52.7824982  28.2999682
  38.5261896  54.5047853  28.3229297  40.2252880  53.1310014  29.2805687
  40.6169228  53.0461335  28.0123739  37.5698904  52.5553178  31.0265677
  38.1927043  52.5559157  32.0968580  36.8595564  51.5391738  30.5765631
  36.3336346  51.6223114  29.7183127  36.7388558  50.2877474  31.3540001
  37.6461420  50.1409891  31.9399975  35.5306095  50.3269303  32.3161635
  35.5469426  49.4221271  32.9237520  35.6346024  51.1992113  32.9614629
  34.2841400  50.4035106  31.6048750  33.5582882  50.4259930  32.2327551
  36.6538172  49.0936534  30.4401922  36.3113076  49.2121960  29.2301484
  36.9545313  47.9194692  31.0036169  37.2178260  47.8793770  31.9778694
  36.8172813  46.6447133  30.2597285  36.0714323  46.7593595  29.4731761
  38.1487737  46.2390186  29.6169418  38.9299490  46.4566040  30.3453105
  38.1017024  45.1635767  29.4457424  38.4459757  46.9049855  28.3860498
  39.2911760  46.5964873  28.0512885  36.4923491  45.5764391  31.2872908
  36.8831245  45.7133216  32.4577693  35.7953324  44.5433351  30.8189557
  35.4452143  44.6041811  29.8735381  35.4740846  43.3679145  31.5935674
  35.8985559  43.4502897  32.5941360  33.9405851  43.2256175  31.7179728
  33.7385391  43.9719607  32.4862491  33.4604187  43.5248125  30.7862955
  33.3858085  41.8695284  32.1654359  33.7386147  41.0940910  31.4854906
  33.8747943  41.5463317  33.6302236  33.5219575  42.3211418  34.3108662
  33.4766375  40.5807355  33.9419863  34.9640975  41.5135124  33.6512434
  31.8495376  41.7823961  32.0118627  31.5795983  41.9279263  30.9658927
  31.5058580  40.8021823  32.3422662  31.3787450  42.5555757  32.6190254
  36.0941096  42.1200153  30.9232884  35.9519760  41.9381522  29.6985886
  36.7446386  41.2635098  31.7242249  36.9092240  41.4917859  32.6942254
  37.2684611  39.9763358  31.2061484  36.9489925  39.8306748  30.1742463
  38.8025502  39.9800376  31.2487010  39.0893877  40.1923706  32.2786224
  39.2770918  39.0542364  30.9234279  39.3805525  41.0754754  30.4087758
  39.4376722  40.9855959  29.0388240  39.8927796  42.1324977  28.5499277
  39.9849669  42.2783961  27.4736777  40.1665436  42.9377224  29.5597794
  40.5544685  43.8679094  29.4937001  39.8358861  42.3023201  30.7342130
  39.9683674  42.8147180  31.6871025  36.7608824  38.7688901  31.9942205
  36.5877452  38.8880522  33.1810536  36.4786572  37.6570334  31.2813491
  36.5773911  37.6679921  30.2762466  36.0347783  36.4083576  31.9262484
  35.8529229  36.5346504  32.9935244  34.7465485  35.9002184  31.2662259
  34.9155262  35.7601698  30.1985495  34.4578373  34.9500420  31.7155707
  33.9496569  36.6288827  31.4149249  37.1151180  35.3825307  31.7606875
  37.8577395  35.3620478  30.7557006  37.2004576  34.4727015  32.7266285
  36.6571972  34.5137266  33.5770897  38.1218987  33.3888209  32.5611497
  38.2932246  33.1905461  31.5031168  39.4823703  33.7730758  33.2233622
  39.9143718  34.5809426  32.6327480  39.2638281  34.1349268  34.2280528
  40.5065911  32.5781758  33.3069558  41.2957645  32.8508933  34.0076207
  39.9857810  31.6935638  33.6734532  41.1323928  32.2519816  31.9834383
  41.6592275  33.1432310  31.2730583  41.0898449  30.9551572  31.6028479
  41.4957736  30.6773504  30.7207217  40.6523297  30.2701764  32.2024171
  37.5374552  32.1400993  33.2160787  37.3175631  32.1418623  34.4183205
  37.3492020  31.0696805  32.4259405  37.5342587  31.1537366  31.4366034
  36.8632969  29.7661306  32.9425292  36.1047098  29.9286796  33.7081810
  36.2352079  28.9331385  31.7898183  35.6150912  29.6022973  31.1933444
  37.0482356  28.5473625  31.1747876  35.3501889  27.7215150  32.3191640
  36.0206154  26.9730678  32.7416047  34.6914029  28.1007242  33.1003832
  34.5033033  27.0796759  31.1989278  35.1617512  26.6799020  30.4277428
  33.8999760  26.2727848  31.6148874  33.6143036  28.0617806  30.5908425
  32.7506573  28.2621718  31.0746378  33.8430205  28.6612347  29.4268896
  34.9470704  28.3723100  28.7310589  35.6060378  27.6976432  29.0925649
  35.1173099  28.8299786  27.8469449  32.9944626  29.5808304  29.0044359
  32.1884842  29.8159071  29.5658966  33.1554207  30.0447693  28.1218534
  38.0512587  29.0330875  33.5457180  39.1652399  29.0328381  32.9685588
  37.8387479  28.4221027  34.7186932  36.9298742  28.4779632  35.1556458
  38.8844723  27.6754430  35.3970425  39.7044819  27.4890810  34.7035350
  39.4230280  28.4482063  36.6445758  38.6135144  28.5704172  37.3641956
  40.5689132  27.6755231  37.2942965  41.3790503  27.5533110  36.5753788
  40.9333989  28.2261384  38.1615183  40.2133212  26.6948385  37.6103837
  39.9027218  29.8500519  36.1700035  40.5913437  29.7128560  35.3362901
  39.0330735  30.4142949  35.8331933  40.6325830  30.6474633  37.3331762
  41.5026636  30.0840204  37.6702098  40.9523999  31.6210535  36.9617753
  39.9443936  30.7854573  38.1671143  38.2906384  26.3421219  35.8400169
  37.2353106  26.2963925  36.4987832  38.9952782  25.2622972  35.4802735
  39.8447901  25.3809163  34.9470210  38.5147428  23.8884386  35.7360925
  37.4297529  23.8857475  35.8404426  38.8994301  22.9660866  34.5595911
  39.9559590  23.1816878  34.4003366  38.7615057  21.8907008  34.6719404
  38.1847548  23.3618266  33.2976402  36.8340649  23.1653567  33.1454739
  36.4295554  23.6957411  31.9992298  35.3876269  23.6317787  31.6855536
  37.4781745  24.2476941  31.4152616  37.4793462  24.7227886  30.5239795
  38.5815631  24.0735120  32.2179217  39.5443417  24.4874423  31.9182213
  39.0738085  23.4611545  37.0906049  39.9487941  22.6123429  37.1796501
  38.5748068  24.1292673  38.1219145  37.8950386  24.8505719  37.9276614
  38.9919333  23.9236893  39.5119754  39.1251747  22.8608208  39.7136096
  40.2914388  24.6389220  39.8099162  40.1711049  25.7057374  39.6214363
  40.5612789  24.4832003  40.8544435  41.0794837  24.2438468  39.1688234
  37.8694765  24.4076745  40.4163453  37.0121094  25.1670205  39.9714988
  37.8324379  23.9300683  41.6916466  38.7873840  22.9901104  42.3309043
  39.6176463  23.5376619  42.7769447  39.1722426  22.2825195  41.5965352
  37.9145651  22.3311349  43.3571003  38.5102071  21.9033405  44.1635131
  37.2997303  21.5515608  42.9072739  37.0323312  23.5115847  43.8655210
  37.6583392  24.0777227  44.5552316  36.0890010  23.2634657  44.3520029
  36.7669173  24.3417613  42.5991975  35.8002306  24.1824648  42.1214530
  36.9287925  25.8200650  42.9368656  38.0736581  26.2899896  43.0634021
  35.8001242  26.5209177  43.1230463  34.4067437  26.1153616  42.8405288
  34.2136890  25.1424102  43.2924089  34.2596344  26.0503128  41.7624627
  33.6089841  27.1910055  43.4519728  33.4226220  26.9656239  44.5020068
  32.6583549  27.2930234  42.9285248  34.4566356  28.4523270  43.2940013
  34.2540371  29.1149858  44.1353908  34.2696700  28.9834217  42.3606836
  35.9096855  27.9795660  43.3430245  36.4998136  28.4061899  42.5319516
  36.5756049  28.3010138  44.6801055  37.2291197  29.3399071  44.7917403
  36.4479516  27.4106264  45.6873869  35.8049059  26.6324191  45.6560050
  37.1512837  27.6745019  46.9335629  36.9449088  28.6958450  47.2535111
  36.7007269  26.6942729  48.0678749  37.2610965  26.9493082  48.9673426
  35.6376440  26.8584305  48.2439632  36.9425934  25.1978756  47.7130543
  37.8412255  25.1755892  47.0965606  37.1303264  24.6687078  48.6473117
  35.7791093  24.5097999  46.9547802  34.9734063  25.1898952  46.2732860
  35.6698906  23.2483960  47.0657408  38.6553260  27.6831703  46.7075816
  39.3804724  28.4840278  47.3339872  39.1622146  26.8069660  45.8433848
  38.5997685  26.0784104  45.4274997  40.5917903  26.8382024  45.5386037
  41.1685038  26.8745143  46.4628234  40.9930280  25.5840709  44.7612393
  40.7087653  24.7791002  45.4389680  40.3335703  25.5775568  43.8933838
  42.4253250  25.3808768  44.3085733  42.5898544  26.0100983  43.4338669
  43.4569474  25.7376734  45.4000331  43.2933327  25.1084988  46.2749436
  44.4638999  25.5718538  45.0170823  43.3430963  26.7849686  45.6798742
  42.5787339  23.9148733  43.9134108  41.8872551  23.6820353  43.1036312
  43.6008169  23.7325581  43.5814335  42.3578587  23.2814318  44.7725178
  41.0111630  28.1104040  44.7566460  42.0205107  28.7666362  45.0807485
  40.2525779  28.4499562  43.7245404  39.4972452  27.8660552  43.3949476
  40.5482712  29.7053776  42.9836904  41.5416954  29.6872598  42.5354949
  39.5064021  29.9468041  41.8665172  38.5060330  29.8702443  42.2925447
  39.6947201  31.3489763  41.2430757  40.6947692  31.4261384  40.8164038
  38.9529966  31.5011517  40.4589906  39.5693544  32.1096191  42.0136648
  39.5964581  28.8518476  40.7652296  39.4094659  27.8737489  41.2084665
  38.8516864  29.0491588  39.9942024  40.5914167  28.8643085  40.3202544
  40.5767397  30.8998616  43.9550542  41.5014486  31.7440773  43.9159728
  39.5555642  30.9827289  44.7996201  38.7721303  30.3565166  44.6805031
  39.4372744  32.0766484  45.7973423  39.5002527  33.0392350  45.2898386
  38.0786789  32.0020330  46.5566090  37.2224058  32.1203146  45.8926022
  38.0137313  31.0397994  47.0645346  37.9482918  33.0624291  47.6223300
  37.8855743  32.8583362  48.9721099  37.9000978  31.8187804  49.2995431
  37.8154466  34.0491570  49.6457248  37.7718211  34.1593383  50.6487484
  37.8210070  35.0744166  48.7292005  37.7597601  36.4453346  48.9460265
  37.6997128  36.8081633  49.9721104  37.7794493  37.2796277  47.8192495
  37.7373590  38.3613140  47.9468545  37.8542249  36.7384098  46.4934777
  37.8614074  37.3844244  45.6155751  37.9210715  35.3417625  46.2899050
  37.9529216  34.9608032  45.2691424  37.9113662  34.4950997  47.4328162
  40.6659602  32.1671893  46.7544931  41.1840409  33.2391998  47.0523049
  41.1110761  31.0019337  47.2518314  40.6093477  30.1480756  47.0536035
  42.2892250  30.9303556  48.1258168  42.1088710  31.4604412  49.0610071
  42.5751813  29.4453745  48.4468917  43.0876560  29.3759140  49.4063937
  41.6331283  28.8994934  48.4983699  43.4007920  28.8772013  47.4224854
  43.5752392  27.9555213  47.6266278  43.5258287  31.5863781  47.4944636
  44.3993883  32.0791852  48.1960987  43.6067345  31.6245703  46.1563528
  42.8896434  31.1972361  45.5877887  44.7246448  32.2579637  45.4894918
  45.6405364  32.2422580  46.0802499  44.9904005  31.5906557  44.0964452
  44.0633857  31.6037050  43.5232318  46.0905576  32.3419466  43.3132228
  47.0180662  32.3289202  43.8856377  46.2506198  31.8537878  42.3518791
  45.7800610  33.3737907  43.1489400  45.3142786  30.0988016  44.2924053
  46.3700034  30.0383882  44.5567842  44.7098764  29.7534249  45.1311617
  45.0387727  29.2023128  43.0513355  45.6432102  29.5468155  42.2122449
  45.2967017  28.1692074  43.2842841  43.9830829  29.2618542  42.7866209
  44.4714753  33.7588891  45.2705532  45.3400912  34.6146412  45.5677597
  43.3115458  34.0477900  44.6818200  42.7077265  33.2866492  44.4058376
  42.8794075  35.4463972  44.3676281  43.5616643  35.9947582  43.7180705
  41.4936614  35.4237876  43.7145750  40.9210494  34.6242077  44.1845608
  40.7174779  36.7792847  43.8628585  41.2892933  37.5793183  43.3926729
  39.7443192  36.6961364  43.3789691  40.5788390  37.0054073  44.9200952
  41.6566408  35.0089617  42.2668764  42.1073296  34.0175608  42.2209883
  40.6803318  34.9864449  41.7827138  42.2997100  35.7239498  41.7536953
  42.8515654  36.3301853  45.6342648  43.1257567  37.5422183  45.5688734
  42.5253695  35.7398210  46.7791069  42.2548449  34.7669217  46.7986720
  42.3803435  36.5378925  48.0273149  41.9341940  37.5056820  47.7983317
  41.4764681  35.8057379  49.0274089  41.1538524  36.5074943  49.7965358
  40.6041773  35.4173770  48.5016859  42.2430728  34.6369706  49.6859477
  42.5340396  33.9234565  48.9150152  43.1358245  35.0276843  50.1742501
  41.3464841  33.9255115  50.7383063  40.4438382  33.5429908  50.2618537
  41.8921068  33.1007732  51.1967842  40.9589445  34.8713359  51.7860020
  40.0744823  35.3410936  51.6550297  41.6725083  35.1557031  52.8670830
  42.8565173  34.5575885  53.0689182  43.2029496  33.8899018  52.3949158
  43.3959360  34.7777760  53.8939300  41.1966872  36.0303683  53.7463276
  40.3010657  36.4682440  53.5843794  41.7327113  36.2535143  54.5727553
  43.6879146  36.9939669  48.6844784  43.6844767  37.8776585  49.5520344
  44.7929446  36.3701692  48.2821202  44.6963847  35.6341052  47.5972952
  46.1160547  36.6291748  48.8364079  46.0587396  36.7485434  49.9183345
  47.0325588  35.4471326  48.5234201  46.9941636  35.2586761  47.4505225
  48.0494106  35.7173858  48.8081579  46.6149079  34.1983148  49.2699909
  45.5503783  34.0188322  49.1194465  47.1825068  33.3433532  48.9026025
  46.8903973  34.3897501  50.7471974  46.4304803  35.3125371  51.1008066
  46.4981328  33.5473626  51.3169440  48.3360849  34.4720068  50.9664738
  48.9321726  34.2489300  50.1822445  48.9038939  34.8227042  52.1141642
  48.1395621  35.1435283  53.1579433  47.1337044  35.1181195  53.0701665
  48.5697518  35.4105723  54.0318563  50.2336312  34.8461706  52.2198570
  50.8048083  34.5966592  51.4251238  50.6630321  35.1133375  53.0941198
  46.6897275  37.9638357  48.3109912  47.5872717  37.9984898  47.4629561
  46.1936615  39.0438520  48.8921886  45.4452646  38.9444178  49.5630942
  46.6273334  40.3977594  48.5294596  46.4734083  40.5760274  47.4652102
  45.8034718  41.4126517  49.3182985  44.7429907  41.3023207  49.0917899
  45.9644421  41.2591409  50.3853613  46.1587634  42.8494944  49.0307778
  45.6962873  43.4645240  47.8620826  45.0798254  42.9020867  47.1608416
  46.0273786  44.8147672  47.5891524  45.6609933  45.2842272  46.6762067
  46.8139870  45.5404395  48.4765783  47.0752176  46.5763461  48.2603467
  47.2686072  44.9373371  49.6466970  47.8808937  45.4952884  50.3551431
  46.9273184  43.5796516  49.9144676  47.2744157  43.1008407  50.8300895
  48.1348790  40.6067287  48.7400470  48.7743929  41.3038190  47.9678313
  48.7272723  39.9316705  49.7356551  48.1757725  39.3861641  50.3824705
  50.1677136  40.0328855  49.9666388  50.4894385  41.0635164  49.8169989
  50.5302262  39.6057982  51.4114443  51.6191317  39.6129744  51.4597412
  50.1303855  40.3192448  52.1320145  50.0198765  38.2181484  51.7391027
  48.8842070  37.8377623  51.3121328  50.7299234  37.5146635  52.4757407
  51.0509634  39.2565757  49.0112755  52.2659841  39.4559213  49.0334125
  50.4762154  38.3855730  48.1889975  49.4708843  38.2888349  48.1818849
  51.2595941  37.5619101  47.2653905  52.2825233  37.9323976  47.1986516
  51.2939470  36.1165063  47.7834104  50.2623966  35.7941484  47.9251437
  51.7632404  35.5033059  47.0140931  52.0481104  35.9637964  49.0745515
  51.9074840  36.8521709  49.6902753  51.6839656  35.0883446  49.6122176
  53.5407692  35.7884081  48.7634669  53.8301373  36.5011142  47.9911878
  54.1182764  35.9791945  49.6680029  53.8202564  34.3477779  48.2670351
  54.1156795  33.7613886  49.1370773  52.8829087  33.9592323  47.8689011
  54.8911295  34.2539170  47.2114163  55.7598862  34.6135049  47.5802769
  55.0139640  33.2884642  46.9413928  54.6173835  34.7968639  46.4049607
  50.6885776  37.5088501  45.8534603  50.4200884  36.4317816  45.3499071
  50.4827016  38.6744946  45.2155049  50.9799794  39.9967021  45.6267129
  51.9949009  39.9023429  46.0128876  50.3331404  40.4060884  46.4026647
  50.9184993  40.7962651  44.3429889  51.9048442  40.7880847  43.8791398
  50.6391436  41.8220528  44.5834496  49.9280064  40.1780571  43.4889621
  50.2026878  40.3179281  42.4434550  48.9259037  40.5726980  43.6567371
  49.9695107  38.6731306  43.8469074  48.9851941  38.2055214  43.8705852
  50.8654401  37.9272537  42.8491404  50.3678997  37.3956695  41.8647635
  52.1606676  37.8664577  43.1093031  52.5396649  38.3749143  43.8953898
  53.0959612  37.2433084  42.1687496  52.8954965  37.5996531  41.1583380
  54.5574934  37.6007021  42.5389582  55.1900546  37.2994550  41.7039638
  54.6092934  38.6825514  42.6615104  55.0449161  36.9182227  43.8203707
  54.5239686  35.9641403  43.9006289  56.1165458  36.7400788  43.7310585
  54.7895944  37.7189696  45.0865702  53.7689051  38.3920038  45.2454076
  55.7462457  37.6546440  46.0015945  55.6456891  38.1615042  46.8693978
  56.5714121  37.0990595  45.8268731  52.8327971  35.7237262  41.9888618
  53.3047995  35.1131933  41.0131363  52.0218854  35.1213432  42.8614683
  51.6283151  35.5975683  43.6604749  51.6863017  33.6953227  42.6599098
  52.6105807  33.1178703  42.6410374  50.7742984  33.1089651  43.7029940
  50.5194667  32.0913860  43.4068625  51.4302202  33.0876484  45.0602140
  51.6849385  34.1049934  45.3572448  50.7434996  32.6579320  45.7894997
  52.3371459  32.4845865  45.0165941  49.5710768  33.8934777  43.7476231
  48.9774952  33.5315765  44.4096569  50.9885082  33.5096570  41.3095534
  51.0906929  32.4336643  40.7211198  50.3292340  34.5480431  40.7916876
  50.0806440  35.3430895  41.3628300  49.7944359  34.4799206  39.4114962
  50.3361959  33.7216250  38.8461795  48.3197726  34.1175598  39.4199654
  48.0468299  33.7419058  38.4338186  48.2300784  33.3146483  40.1516677
  47.4082009  35.2353054  39.7952077  46.7620890  35.9686708  38.8133321
  46.9503004  35.7319243  37.7661325  45.9033725  36.9716505  39.1401480
  45.3795976  37.5261848  38.3615253  45.6847227  37.2829005  40.4916290
  44.8525966  38.3162073  40.8157587  44.4785095  38.7520239  40.0465238
  46.3030651  36.5724682  41.4955029  46.1355317  36.8162387  42.5446020
  47.1406148  35.5442606  41.1571752  47.6140864  34.9478693  41.9370740
  50.0136952  35.6821398  38.4536546  49.7827597  35.5846333  37.2256114
  50.4495220  36.7993009  38.9841846  50.5176526  36.9285201  39.9835643
  50.7760171  37.9159861  38.1244165  50.2618217  37.8287918  37.1672857
  50.3208383  39.2129851  38.8097280  51.0012912  39.3888160  39.6428946
  50.4279485  40.0141984  38.0785066  48.8860813  39.1829797  39.3235657
  48.1894867  39.0215847  38.5008820  48.7624461  38.3926779  40.0639976
  48.6003339  40.5481917  39.9775885  49.1162799  40.5430589  40.9377303
  49.0492920  41.2999761  39.3284689  47.1711066  40.8685411  40.1877587
  46.5874197  40.5609639  39.3201145  46.7995807  40.3560931  41.0751508
  47.0360236  42.4271287  40.3860270  47.3798359  42.9021500  39.5636843
  46.0652585  42.6651417  40.5311650  47.5764639  42.7122810  41.1902107
  52.2665875  37.9474953  37.7928851  53.1237437  38.3952726  38.6449936
  52.5879044  37.6311254  36.5317493  51.8778668  37.5573883  35.8172504
  53.9909852  37.3065197  36.1665912  54.4919003  36.8597448  37.0254134
  54.0556209  36.3062010  34.9778765  53.2442452  36.4067882  34.2570083
  55.0037982  36.5344851  34.4911053  54.1094559  34.8547090  35.3650057
  54.9105715  34.3728174  36.3815347  54.7873421  33.0583673  36.4585128
  55.3266965  32.4931758  37.2186144  53.9573826  32.6618783  35.5087167
  53.6655059  31.7114511  35.3309638  53.5461184  33.7638415  34.7878854
  52.8859478  33.6383438  33.9296742  54.8802689  38.5220944  35.8082052
  56.1102752  38.3386408  35.5173595  54.2676862  39.7173757  35.8322682
  53.2725114  39.7575956  35.9999253  54.9912293  40.9734786  35.6548063
  55.8104567  40.8414784  34.9480238  54.0387228  42.0378866  35.1060429
  53.1016395  42.1332418  35.6545696  54.5764344  42.9854532  35.1389628
  53.6672767  41.7973037  33.6459482  54.6781406  41.8279884  32.6508047
  55.7060526  42.0482940  32.9388362  54.3632296  41.5769094  31.3005216
  55.1317435  41.6411357  30.5302217  53.0598175  41.2450949  30.9549655
  52.8225373  41.0377941  29.9114980  52.0374806  41.1739429  31.9462650
  51.0160458  40.9118109  31.6704791  52.3561337  41.4456048  33.2908608
  51.5837616  41.3828010  34.0574095  55.5276846  41.4705735  36.9953743
  56.1179123  42.5235762  37.0448667  55.2438453  40.7506599  38.0867664
  54.6599999  39.9280290  38.0367439  55.7257287  41.1870367  39.4115157
  56.0461182  42.2287820  39.4262315  54.6321905  40.9670579  40.4911325
  54.2863348  39.9353445  40.4274791  55.1978219  41.2520423  41.9687366
  55.5434628  42.2837710  42.0333039  54.4057038  41.0883773  42.6993961
  56.0283539  40.5774794  42.1767770  53.4222818  41.8320898  40.1326277
  53.7578357  42.8688034  40.1596333  53.1384906  41.5690263  39.1136283
  52.2021648  41.6609331  41.0677479  52.4850793  41.9242776  42.0869186
  51.3946359  42.3132336  40.7353319  51.8657355  40.6244992  41.0409154
  57.0063889  40.4712503  39.8133907  57.0559299  39.2215586  39.9078542
  58.0241630  41.2508989  40.1341149  57.9496988  42.2538326  40.0409567
  59.2739529  40.6978272  40.5962307  59.4800857  39.7508014  40.0974818
  60.3936829  41.6681717  40.2752695  60.3604904  41.8846684  39.2075023
  60.2199225  42.5859057  40.8371163  61.7939317  41.0901865  40.6447656
  61.8381830  41.0495992  41.7331108  61.8305324  40.0779252  40.2421622
  62.9880703  41.8947600  40.1142851  63.8887706  41.3734001  40.4383557
  62.9264795  41.8706060  39.0262949  63.0405483  43.3215021  40.5808976
  62.2374891  43.8618266  40.0796532  62.8628843  43.3231785  41.6563193
  64.3657553  43.9986731  40.2865921  64.5303701  43.9976084  39.2900980
  64.3391683  44.9508310  40.6224321  65.1099727  43.4984002  40.7513143
  59.2274855  40.4279082  42.1123351  59.6457097  39.3649467  42.5792305
  58.7208180  41.3854681  42.8686327  58.4544015  42.2738733  42.4688105
  58.5788149  41.2024963  44.3372809  58.3424668  40.1632128  44.5655976
  59.9098685  41.5748661  45.0427984  59.8590524  41.2679226  46.0874527
  60.7326016  41.0553142  44.5515998  60.1281898  42.9917632  44.9708312
  60.9533121  43.2110848  45.4097745  57.4271144  42.0559027  44.8462538
  56.9523706  42.9909401  44.1803962  56.9386484  41.7360223  46.0410452
  57.3049906  40.9732010  46.5924039  55.8440688  42.5088179  46.5824697
  55.8523584  43.5181552  46.1710471  54.5177983  41.8397641  46.2107376
  54.3607952  41.8560878  45.1322281  54.4865977  40.8098850  46.5663718
  53.0812654  42.6664291  46.9398001  52.1712277  41.8465808  46.4215546
  56.0195365  42.5379926  48.0944779  56.3182852  41.5053685  48.6917239
  55.9235253  43.6996745  48.6895627  55.9179526  44.5883100  48.2095676
  56.0001883  43.7009879  50.1482570  55.8782754  42.6867911  50.5285743
  57.3427028  44.2268335  50.5977358  57.5253464  43.9183682  51.6270996
  58.1233589  43.8219753  49.9537126  57.3531810  45.6279102  50.5207729
  58.2080171  45.9577268  50.8072623  54.8231077  44.4208700  50.7978469
  54.2388094  45.3743073  50.2428957  54.4648549  43.9234211  51.9826901
  54.9402437  43.1012404  52.3263813  53.4254617  44.5002290  52.7946405
  53.0823242  45.4318010  52.3446077  52.2383142  43.5277977  52.8762515
  52.5876353  42.5519019  53.2134479  51.2647579  44.0408872  53.8133717
  50.9146054  45.0166259  53.4765806  50.4208461  43.3537009  53.8741043
  51.7236185  44.1398086  54.7971212  51.5528873  43.3758475  51.5055396
  52.2701550  42.9907171  50.7807613  50.7164164  42.6823357  51.5918969
  51.1862774  44.3467932  51.1724292  54.0053867  44.7604252  54.2012570
  55.0952273  44.3107245  54.5218466  53.2534243  45.4648840  55.0248172
  52.4784272  45.9781305  54.6297767  53.5299941  45.6140019  56.4775886
  54.4171583  46.2236516  56.6489540  52.3279635  46.3129220  57.1096260
  51.4276115  45.8378118  56.7200933  52.3839047  46.1561016  58.1868344
  52.2805672  47.8163907  56.8142680  52.9228523  48.0387472  55.9621364
  51.2488211  48.0648351  56.5655220  52.7237982  48.6377053  58.0084537
  52.0218780  49.6296917  58.3534653  53.7657121  48.2660857  58.6136771
  53.8540149  44.3177038  57.2507418  53.1573798  43.3011811  57.0895368
  50.6968660  42.1898668  59.9113700  50.9946087  41.4250995  60.5000801
  49.2718586  42.5459806  59.8999773  48.8751891  42.4510018  60.9107847
  49.0353170  43.9939306  59.4102286  49.5143096  44.1226732  58.4396150
  47.9681700  44.1958152  59.3178162  49.6037315  45.0687222  60.3214504
  49.8667893  44.8117522  61.6775157  49.6591547  43.8227807  62.0860779
  50.3974839  45.8255025  62.5119770  50.6049973  45.6118141  63.5604884
  50.6575905  47.1097172  61.9888919  51.0654218  47.8896144  62.6319580
  50.3903619  47.3823481  60.6380554  50.5877518  48.3695617  60.2202676
  49.8583769  46.3579698  59.8152723  49.6376531  46.5602558  58.7671972
  48.4845880  41.5780766  59.0167215  48.9990710  41.1229412  57.9863973
  47.2483494  41.2600869  59.4177386  46.9311407  41.4897039  60.3487349
  46.3468105  40.5018987  58.5429100  46.8963609  39.7148031  58.0266019
  45.1929628  39.8584059  59.3349008  45.5989625  39.1595016  60.0661985
  44.6277661  40.6350472  59.8501493  44.2812429  39.1192201  58.3849159
  43.8744683  39.8176048  57.6535513  44.8456631  38.3420582  57.8696021
  43.1373986  38.4813091  59.1700384  42.0943966  39.1698753  59.3301156
  43.3175440  37.3115362  59.6022180  45.8385005  41.4691635  57.4548288
  45.5539899  42.6380985  57.7307579  45.7466538  41.0006925  56.2164120
  46.0622399  40.0755666  55.9621548  45.3742057  41.9207000  55.1500862
  45.8528001  42.8847434  55.3223270  45.8149672  41.3900474  53.7633083
  45.4778332  40.3556107  53.6971224  45.2967992  41.9891361  53.0145128
  47.3863142  41.4543944  53.5005577  47.8342214  40.8365590  54.2788633
  47.5359394  40.9807221  52.5303263  48.1968311  43.1068617  53.4985347
  49.0214702  43.2195799  55.1253380  49.7476998  42.4125000  55.2218341
  49.5320460  44.1789834  55.2087533  48.2772519  43.1345871  55.9171818
  43.8851044  42.2888908  55.2808946  43.0013752  41.4178972  55.3328447
  43.6346742  43.5904835  55.4180921  44.4119777  44.2334451  55.3681033
  42.2989726  44.1357647  55.6310255  41.5009012  43.4114167  55.4682330
  42.1924753  44.6694865  57.0700340  42.3024602  43.8440341  57.7733339
  42.9796398  45.4028010  57.2453110  40.8313836  45.3280191  57.2684995
  40.7208467  46.1539172  56.5658084  40.0436665  44.5951510  57.0938342
  40.7258200  45.8570638  58.6948912  40.8358066  45.0316125  59.3981920
  41.5129836  46.5903792  58.8701663  39.4149285  46.5044426  58.9248160
  38.7520881  46.5344542  58.1633429  39.0698723  47.0484945  60.0883641
  39.8881895  47.0481542  61.1368189  40.8021156  46.6251261  61.0600963
  39.5919313  47.4709233  62.0049185  37.8655064  47.6044344  60.1849784
  37.2465133  47.6029929  59.3868896  37.5754403  48.0255026  61.0559904
  42.0964554  45.2866151  54.6143382  43.0719264  45.8612259  54.1428377
  40.8452135  45.6065516  54.2851505  40.0994762  44.9488472  54.4623511
  40.5376747  46.8189789  53.4992288  40.9382540  46.7498475  52.4878653
  38.9927100  47.1025499  53.4097606  38.5920639  47.0870015  54.4233385
  38.6726409  48.4484375  52.7557303  39.0725984  48.4645661  51.7418887
  37.5922366  48.5887114  52.7218170  39.1247773  49.2520903  53.3369502
  38.2839542  45.9794364  52.6529580  38.4401990  45.0347200  53.1737273
  37.2163193  46.1929061  52.6011305  38.6892187  45.9086556  51.6435762
  41.3451812  48.0160912  53.9913401  41.3684996  48.3478562  55.2137145
  42.0266450  48.6527575  53.0359574  42.0232160  48.2498868  52.1097918
  42.7734789  49.8920196  53.2503436  42.6455565  50.5524149  52.3926647
  42.4103740  50.3902694  54.1492325  44.2511735  49.5820365  53.4195748
  45.0597364  50.5028063  53.3660858  44.6373437  48.3125409  53.6381939
  43.9705433  47.5636700  53.7593093  46.0839533  47.9767509  53.6547138
  46.5815611  48.5923970  54.4040238  46.3284468  46.5261692  53.9835035
  45.7043449  45.8754085  53.3710441  47.3765877  46.2635886  53.8401438
  45.9346105  46.1142649  55.7283020  46.2572796  44.8267937  55.6434456
  46.6765415  48.2075234  52.2630866  45.9507088  48.1344837  51.2530069
  47.9768957  48.4454194  52.2167908  48.5267690  48.5494621  53.0575725
  48.6384482  48.6835053  50.9091424  47.9605936  48.4715259  50.0822947
  49.1556727  50.1583837  50.7680662  49.7199723  50.2345381  49.8386218
  47.9864711  51.1865017  50.7506946  47.4219547  51.1112562  51.6800810
  48.3896317  52.1943471  50.6516580  47.3281634  50.9746560  49.9081669
  50.0601535  50.4393817  51.8470536  50.3817685  51.3404929  51.7685510
  49.7740220  47.6829036  50.6466800  50.3548863  47.0753964  51.6013620
  50.1128896  47.4734428  49.3642979  49.5818614  47.8743025  48.6044164
  51.2654357  46.6259538  49.0366017  51.7985870  46.3602982  49.9494412
  50.8103147  45.3441314  48.3475776  51.7000558  44.7292687  48.2119165
  50.1262565  44.8458743  49.0345304  50.1178244  45.5464179  46.9940539
  49.2928600  46.2493150  47.1101150  50.8347464  45.9438483  46.2756014
  49.5661114  44.1755646  46.4764721  50.3925472  43.5247767  46.1908534
  48.9765794  43.6925809  47.2557527  48.7093350  44.3903855  45.3033894
  48.8102396  45.2664122  44.8109517  47.7997622  43.5121601  44.8644914
  47.6237091  42.3402721  45.4968637  48.1814473  42.1196669  46.3094900
  46.9343942  41.6850305  45.1568592  47.0604052  43.7961534  43.7584298
  47.2006544  44.6699344  43.2716681  46.3745545  43.1319439  43.4289860
  52.2184552  47.3890313  48.1230851  51.7466516  48.2505481  47.3483418
  53.5216782  47.1335460  48.2377757  53.8758559  46.5442468  48.9776297
  54.4732707  47.7608430  47.3448170  53.9581305  48.5229941  46.7601328
  55.6361906  48.4241044  48.1006545  56.0588251  47.6181360  48.7005664
  56.3885799  48.7888151  47.4013717  55.1986464  49.5632288  49.0160412
  54.3067221  50.3688404  48.6904017  55.8360116  49.6931382  50.0764931
  54.9945272  46.7478663  46.3578201  55.7532581  45.8675435  46.7015355
  54.6407641  46.9408094  45.0875109  54.1234104  47.7662565  44.8208996
  55.0063631  45.9774523  44.0375330  55.2925981  44.9955983  44.4145363
  53.8070028  45.8040600  43.0554892  53.4261120  46.7956022  42.8108150
  54.2106582  45.0709406  41.7532530  54.5912413  44.0790760  41.9971015
  53.3400530  44.9760547  41.1042971  54.9853203  45.6407330  41.2400894
  52.5970092  45.0745922  43.7297222  52.2537529  45.6547858  44.5862574
  51.7847576  44.9754838  43.0096357  52.9088467  44.0848825  44.0633881
  56.2083887  46.5540306  43.2916111  56.2518557  47.7900572  43.0332336
  57.1803156  45.7005238  42.9820658  57.1687403  44.7700917  43.3748273
  58.2885742  46.0675788  42.1015493  58.2051532  47.1055713  41.7795064
  59.6810293  45.8340639  42.7311020  59.7273688  44.8170617  43.1205368
  60.8154606  46.0367924  41.6564031  60.7700481  47.0537794  41.2668189
  61.7883600  45.8682344  42.1180911  60.6738117  45.3287981  40.8398378
  59.8919596  46.7436213  43.9685380  60.0530943  47.7533215  43.5908584
  58.9645198  46.7138802  44.5404386  61.0904658  46.3346240  44.8947719
  62.0183784  46.3645825  44.3236498  61.1570397  47.0295994  45.7318360
  60.9298047  45.3251397  45.2732283  58.1154691  45.1963605  40.8408458
  57.9479627  43.9882229  40.9333876  58.0900443  45.8250130  39.6686190
  58.1215511  46.8278020  39.5523397  57.8260111  44.9966168  38.4886456
  57.3639955  44.0512726  38.7731893  56.9364950  45.6811872  37.4300728
  56.8339625  45.0368483  36.5569097  55.5115848  45.9405549  38.0632934
  55.6132603  46.5852426  38.9363001  54.8691564  46.4245690  37.3276870
  55.0683654  44.9909577  38.3631656  57.5677011  46.9272770  36.9421538
  58.5331093  46.6943695  36.4928842  56.9236396  47.3936510  36.1966474
  57.7120191  47.6130916  37.7769780  59.1143653  44.4496710  37.8611963
  60.2086389  44.9156023  38.1599579  58.9490236  43.4824843  36.9809515
  58.0288541  43.1067141  36.8015518  60.0738620  42.9204604  36.2588596
  60.8993241  42.7005022  36.9358602  59.6875026  41.6206590  35.4649088
  60.5584967  41.2540646  34.9216979  59.2020442  40.5321717  36.4580506
  58.3307292  40.8978871  37.0013397  58.9340521  39.6305596  35.9072544
  59.9997832  40.3022132  37.1643301  58.6167629  41.8970329  34.3760934
  57.7191072  42.2775871  34.8634264  59.0061781  42.6516002  33.6926583
  58.2489813  40.5418596  33.5388550  57.8590402  39.7869394  34.2216003
  57.4962344  40.7728682  32.7851267  59.1461122  40.1609511  33.0508338
  60.6161726  43.9344100  35.2724974  59.9210343  44.9089066  34.9395665
  61.8296815  43.6947796  34.8028277  62.3686348  42.9040182  35.1258217
  62.4455592  44.6063224  33.8118029  62.4235472  45.6308671  34.1831826
  63.9029265  44.2066253  33.5647264  64.3434918  44.9156527  32.8638115
  64.4406151  44.2510372  34.5118370  63.9946530  42.8869439  33.0271204
  64.9170901  42.6636584  32.8827135  61.7311536  44.6361318  32.4674097
  61.0332496  43.6779532  32.0927677  61.9613094  45.7191436  31.7163745
  62.4472612  46.5252018  32.0827353  61.5059176  45.7564538  30.3279634
  62.2617653  46.2874378  29.7493017  61.4379550  44.7265513  29.9775617
  60.1678339  46.4335379  30.1287375  59.7197592  46.6091944  28.9738211
  59.5192409  46.8268661  31.2318517  59.9327976  46.6948154  32.1437908
  58.1923775  47.4374958  31.1539803  57.7216244  47.2062130  30.1984705
  57.3067191  46.8729211  32.2913006  57.8876365  46.9904792  33.2060762
  56.4544599  47.5521020  32.3129249  56.8057244  45.4282373  32.1867778
  57.6409233  44.7639575  31.9647958  56.1599359  45.0151661  33.5470536
  55.3243111  45.6787522  33.7695026  55.8004042  43.9882155  33.4821678
  56.9036367  45.0897629  34.3404292  55.7741199  45.2873698  31.1478027
  56.1878888  45.5786349  30.1823705  55.4427033  44.2499671  31.1024150
  54.9262125  45.9289699  31.3875974  58.2767759  48.9647635  31.2797502
  59.3057555  49.4841459  31.7601176  57.1971965  49.6770953  30.9009747
  56.0403512  49.1804470  30.1300328  55.5570746  48.3693644  30.6747244
  56.3754542  48.8161781  29.1588927  55.1225076  50.4621069  30.0091352
  54.4128843  50.5057919  30.8353467  54.5792804  50.4574212  29.0641571
  56.0980464  51.6057653  30.0619415  55.5552572  52.4745011  30.4344693
  56.5848828  51.8586151  29.1200514  57.1369790  51.1693572  31.0818340
  58.1225840  51.5950038  30.8934032  56.6996352  51.5061385  32.5186147
  55.8217235  52.3581963  32.7521991  57.3880345  50.8624155  33.4696027
  58.1456392  50.2470826  33.2097956  57.0509662  50.9877197  34.8895836
  56.9826499  52.0359855  35.1803944  55.7342538  50.3153232  35.1956808
  55.7901064  49.2626844  34.9183144  55.5221509  50.3989041  36.2615733
  54.9385617  50.7982582  34.6284531  58.1672570  50.3746855  35.6940859
  58.8871764  49.5042846  35.2094497  58.3143320  50.8679894  36.9245554
  57.8131238  51.7042906  37.1881647  59.2250211  50.2760770  37.8919406
  59.7130179  49.4126076  37.4398578  60.3222289  51.2843170  38.3521540
  59.8662023  52.1353566  38.8579906  60.9611742  50.7459426  39.0521553
  61.1884752  51.8059543  37.1998151  61.4944475  53.0066206  37.1352974
  61.6173670  50.9242867  36.3387257  62.1915604  51.2193358  35.5619711
  61.3731308  49.9509496  36.4530253  58.5223426  49.7399322  39.1229632
  58.9034339  48.6961074  39.6214962  57.5332406  50.4772933  39.6175062
  57.1587361  51.2479120  39.0827235  56.9167219  50.1656351  40.9211457
  57.1065800  49.1205824  41.1659268  57.4917072  51.0488410  42.0492079
  56.9679386  50.8028496  42.9729260  59.0049137  50.8320006  42.2437640
  59.5294332  51.0782506  41.3205415  59.3641688  51.4745427  43.0476138
  59.1930061  49.7896097  42.5009471  57.2743277  52.4302420  41.7226218
  57.6302540  52.9840730  42.4213263  55.4437110  50.4690582  40.8418535
  55.0027100  51.2927672  40.0136708  54.6762850  49.8968913  41.7504460
  55.0571762  49.1734638  42.3434670  53.2904288  50.2406406  41.9006463
  53.1360805  51.2732352  41.5875580  52.3884572  49.3201474  41.0359612
  52.6316566  49.4741873  39.9846644  52.5827438  48.2818797  41.3049465
  50.9779383  49.6244302  41.2584952  50.4364398  49.0461984  40.7162524
  52.8959456  50.1328005  43.3808289  53.3208603  49.1900684  44.0651758
  52.1242931  51.1086307  43.8683550  51.8553436  51.8883488  43.2854269
  51.5826088  51.0406347  45.2399175  52.0695525  50.2238424  45.7726795
  51.8222009  52.3573240  46.0251423  51.2513484  53.1624403  45.5625242
  51.3632041  52.1796088  47.5099589  51.9339791  51.3749162  47.9734082
  51.5335609  53.1069174  48.0569292  50.3017828  51.9329806  47.5356466
  53.2175452  52.6533453  45.9809301  53.3875624  53.4664181  46.4621859
  50.1112522  50.8768702  45.1228496  49.4443440  51.6763071  44.4476466
  49.5843148  49.8495791  45.7839078  50.1557056  49.3248864  46.4306763
  48.2067949  49.4407775  45.5964372  47.6575103  50.1884482  45.0242709
  48.1884369  48.1269879  44.8248532  48.7101204  47.3532142  45.3880760
  47.1607731  47.8126253  44.6426909  48.9114189  48.3541773  43.4620987
  48.2930601  49.0666780  42.9161353  49.8687028  48.8156558  43.7044709
  49.1478314  47.1143962  42.5948081  48.9167119  45.9479128  43.0297507
  49.5854272  47.3736911  41.4435553  47.4782832  49.2518080  46.9365056
  48.0645820  48.7485346  47.9118940  46.2274971  49.6686113  46.9467624
  45.8493011  50.0567190  46.0944482  45.3487709  49.6129059  48.1480675
  45.9374668  49.3945858  49.0390628  44.6596625  50.9696637  48.3364053
  45.4525828  51.6790421  48.5733841  44.2239815  51.2221171  47.3696843
  43.5624911  51.0364457  49.4309230  42.8613421  50.2193306  49.2611768
  44.0411006  50.9080574  50.4017738  42.7915263  52.3989964  49.4056092
  43.4972086  53.2289582  49.3699002  42.1354393  52.4429490  48.5362891
  41.9681137  52.5291271  50.6280177  42.3975361  53.0378767  51.3875370
  40.7337077  52.0567755  50.7968753  40.1125342  51.3653530  49.8449261
  40.5798127  51.1880816  48.9672441  39.1765545  51.0209194  50.0043222
  40.0994795  52.2680186  51.9706623  40.5639450  52.7798319  52.7071533
  39.1636671  51.9131966  52.1065122  44.2923068  48.5196725  47.9911776
  43.5954648  48.4281023  46.9788258  44.1962236  47.6471057  48.9861400
  44.8956870  47.6179082  49.7141495  43.1241561  46.6633400  49.0194588
  43.0242255  46.1587252  48.0584817  43.4829490  45.6047044  50.1020573
  44.4069498  45.1249607  49.7793071  43.6572860  46.1349548  51.0382951
  42.3969393  44.5354490  50.3131797  41.4741023  45.0388667  50.6013519
  42.1535984  43.7101043  49.0497287  43.0759352  43.2059860  48.7611833
  41.3796249  42.9675076  49.2436765  41.8314734  44.3674663  48.2421328
  42.9152744  43.6256290  51.4726302  43.0580421  44.2266388  52.3706859
  42.1857626  42.8410077  51.6733365  43.8641712  43.1735650  51.1839573
  41.7406769  47.3120895  49.2925055  41.5730419  47.9461241  50.3277893
  40.8052979  47.2481870  48.3413143  40.9844217  46.6638064  47.5372538
  39.5179032  47.9717372  48.4090182  39.6324959  48.8607460  49.0292045
  39.0502549  48.4075428  47.0036017  39.1485112  47.5134499  46.3879371
  38.0085269  48.7281561  47.0140835  39.9159655  49.5170577  46.4273197
  40.4812847  50.3264883  47.2287418  39.9867718  49.6528883  45.1679602
  38.4062345  47.1068564  48.9916020  37.5032216  47.5935926  49.7141293
  38.4807078  45.8161469  48.7145377  39.1983825  45.4476587  48.1068709
  37.4430617  44.8587847  49.2630943  37.1796837  45.1014600  50.2925796
  36.1449626  44.8438607  48.3809628  35.6671853  45.8198708  48.4660137
  36.4428925  44.5534531  46.9256827  36.9202932  43.5773333  46.8397787
  35.5131141  44.5539252  46.3568130  37.1101292  45.3196661  46.5309524
  35.1188477  43.8524735  48.9052228  35.5422022  42.8576613  48.7665854
  35.0030964  44.0522891  49.9704809  33.8171147  43.9209969  48.2543083
  33.9320040  43.7208163  47.1890253  33.1512237  43.1780672  48.6933344
  33.3928991  44.9154456  48.3929190  38.0423276  43.4889371  49.3454279
  38.8114612  43.1260272  48.4447283  37.7401153  42.7362429  50.4428910
  37.2345417  43.1357320  51.2206462  38.1767549  41.3537599  50.5421672
  38.3456880  40.9618040  49.5392059  39.4974095  41.2134790  51.3613250
  40.1742147  41.9556270  50.9379453  39.2540745  41.4880592  52.3877235
  40.1752114  39.8365835  51.3474483  39.4564641  39.0990563  51.7045992
  40.6592676  39.4409365  49.9247667  41.3784421  40.1777998  49.5671085
  41.1327684  38.4598330  49.9612843  39.8066025  39.4072671  49.2465860
  41.3975805  39.8311705  52.3023767  41.0678691  40.0558353  53.3167314
  41.8696824  38.8488948  52.2835172  42.1153692  40.5849725  51.9788634
  37.0291527  40.5826652  51.1957718  37.0172031  40.3701541  52.4389460
  36.0431915  40.2113124  50.3897348  36.1432934  40.3180948  49.3903968
  34.8025877  39.6575886  50.9019831  34.6649923  39.9731066  51.9362050
  33.6014927  40.1329568  50.0818491  33.7081686  41.2170402  50.0433441
  33.6484152  39.7276447  49.0710967  32.2541705  39.7755534  50.7121629
  32.1437885  38.6721100  51.3020778  31.2747639  40.5742700  50.5557992
  34.9231721  38.1449039  50.8256644  34.6343283  37.5558956  49.7917077
  35.3065359  37.5219882  51.9378524  35.6440466  38.0330137  52.7409954
  35.4076288  36.0565978  51.9520010  35.9367926  35.7255950  51.0584004
  36.1740984  35.5454093  53.1998098  35.7693980  36.0696145  54.0655613
  35.9921607  34.4759143  53.3055409  37.6538367  35.7951656  53.1098025
  38.2555810  35.5764413  52.0336824  38.2535996  36.2030956  54.1236109
  34.0885272  35.3045465  51.7848515  34.1021665  34.0927873  51.4216938
  32.9534526  35.9583716  52.0065618  32.9314788  36.9279432  52.2886032
  31.6980745  35.2514013  51.8843124  31.8395349  34.2088696  52.1692962
  30.6286672  35.8635505  52.7873625  30.9994237  35.7675060  53.8078596
  30.5709619  36.9187024  52.5201089  29.2380053  35.2368237  52.6897968
  28.5712693  35.7774923  53.3615418  28.9097161  35.3796629  51.6602715
  29.2068774  33.7235140  53.0374816  30.1044978  33.2300441  53.7900545
  28.2690757  33.0737476  52.5665276  31.2108819  35.2576235  50.4607554
  30.7522287  34.2251156  49.9344421  31.3295679  36.3914414  49.8082911
  31.7041173  37.2166780  50.2541573  30.8354008  36.5081258  48.4273774
  30.0739982  35.7532755  48.2309944  30.2236579  37.8713464  48.2319668
  31.0197529  38.6073533  48.3443323  29.8321963  37.9126312  47.2155253
  29.0793284  38.1860098  49.2421939  28.4230743  37.3178058  49.3026353
  29.5232018  38.3740545  50.2198020  28.2778007  39.3944985  48.8118668
  27.6489569  39.7079472  49.6451761  28.9702091  40.1971036  48.5579080
  27.4170412  39.1264291  47.6452649  26.9701620  38.2223544  47.5900624
  27.1858587  40.0141311  46.6696165  27.7902630  41.1942734  46.7015153
  28.4196892  41.4155261  47.4597830  27.6183161  41.8662850  45.9673938
  26.3630160  39.7365963  45.6419345  25.9029334  38.8386639  45.5956594
  26.2091455  40.4274479  44.9214162  31.9375242  36.2393841  47.3614563
  31.6081123  36.0706632  46.1817131  33.1870088  36.1566736  47.8077838
  33.3251150  36.3331347  48.7926125  34.3763294  35.8883145  46.9697738
  35.2616788  35.8842283  47.6055717  34.2866779  34.5287532  46.2388246
  33.3516386  34.5010983  45.6793284  35.1257638  34.4552586  45.5469912
  34.3289201  33.3673696  47.2074079  35.2768835  33.3806575  47.7452645
  33.5074030  33.4601574  47.9177613  34.1968574  32.0656363  46.4526424
  33.2520053  32.0565296  45.9092544  35.0221697  31.9710548  45.7469418
  34.2251130  30.9183573  47.3649547  34.8975759  30.9204205  48.1185386
  33.4329920  29.8556892  47.2221900  32.5086529  29.8099110  46.2517212
  32.4076424  30.5894876  45.6175625  31.9176965  28.9960660  46.1593822
  33.5341557  28.8514535  48.0759614  34.2081342  28.8969383  48.8268170
  32.9370008  28.0433728  47.9734411  34.5088752  37.0287655  45.9933189
  34.4548172  36.8375045  44.7503603  34.6692311  38.2165230  46.5778668
  34.7043360  38.2754176  47.5855366  34.8648372  39.4589080  45.7943130
  35.0249179  39.2808226  44.7309415  33.6861495  40.4185566  45.9568552
  33.5601489  40.6604822  47.0121727  33.9576021  41.7308292  45.1503216
  34.0832596  41.4897448  44.0947699  33.1148531  42.4118301  45.2691166
  34.8641438  42.2067507  45.5241965  32.3703548  39.7428131  45.5634089
  32.2032882  38.8735975  46.1995340  31.5479918  40.4472438  45.6882929
  32.4214250  39.4256869  44.5218122  36.0941155  40.1401392  46.3731204
  36.2280693  40.3235322  47.6108108  37.0226771  40.5409722  45.4844786
  37.0032752  40.1976818  44.5348078  38.1476471  41.3332384  45.8997746
  37.8593536  41.8704757  46.8033022  39.4588295  40.4987346  46.2038307
  39.1928151  39.6522049  46.8368584  40.1106057  39.9822220  44.8999915
  40.3773345  40.8282614  44.2666095  41.0081995  39.4133457  45.1424871
  39.4063245  39.3404898  44.3705877  40.4222624  41.3024003  46.8839546
  41.2083808  40.7799701  47.0591256  38.3904404  42.4582578  44.8784716
  37.7344150  42.5126070  43.8403031  39.2555555  43.3903555  45.2226791
  39.7910627  43.3390713  46.0774898  39.4601312  44.5613415  44.3330936
  39.7870855  44.2370974  43.3451332  38.5380425  45.1350766  44.2399280
  40.5226789  45.4374497  44.9370771  40.7539003  45.4092582  46.1675562
  41.2306315  46.1886752  44.0988121  41.0767138  46.1186421  43.1030691
  42.2577363  47.0994114  44.5746328  42.0127677  47.4319211  45.5833582
  43.6499449  46.4002232  44.6051610  44.3832584  47.0075760  45.1357014
  43.5446408  45.4381779  45.1066388  44.2312585  46.1148656  43.2405074
  45.1663402  46.9971809  42.6788538  45.4557093  47.8819720  43.2458725
  45.7305792  46.7582228  41.4058328  46.4594172  47.4411764  40.9694037
  45.3291474  45.5999059  40.6934233  45.7354606  45.4100099  39.6999703
  44.3991950  44.6859158  41.2698891  44.0955703  43.7841939  40.7380903
  43.8691463  44.9634056  42.5513561  43.1660635  44.2696110  43.0122504
  42.3384136  48.3273328  43.6973978  41.8121634  48.3331277  42.5535984
  43.0030788  49.3495404  44.2484894  43.3799103  49.2736151  45.1824770
  43.2192538  50.5940199  43.5131283  42.7960353  50.5300506  42.5106847
  42.5191276  51.7338828  44.2700153  42.6995785  51.6088609  45.3376792
  42.9390010  52.6840602  43.9399102  41.1119120  51.7229115  44.0205345
  40.6959416  52.4416624  44.5021626  44.7105552  50.8599992  43.4493528
  45.4204641  50.6873608  44.4497029  45.1932555  51.3661408  42.3031264
  44.6064217  51.4834836  41.4895195  46.5732044  51.7195816  42.1993492
  47.1022864  51.0413642  42.8688210  47.0767437  51.5042296  40.7356785
  46.4629998  52.0926113  40.0536039  48.5077433  51.9368055  40.6193931
  49.1222177  51.3485096  41.3008840  48.8521116  51.7838942  39.5965885
  48.5906108  52.9929095  40.8760572  47.0567819  49.9959981  40.4273858
  47.7682058  49.4945257  41.0835124  46.0545290  49.6123312  40.6181431
  47.4665817  49.7090118  38.8456921  48.4689655  50.0920146  38.6542880
  47.4451320  48.6363690  38.6531396  46.7552894  50.2098224  38.1889184
  46.6855848  53.1719119  42.6283062  46.1140118  54.0580227  41.9454987
  47.3400235  53.4082792  43.7522499  47.7767635  52.6505740  44.2574631
  47.3550891  54.7618399  44.3621168  46.6090119  55.3947713  43.8816318
  47.0748369  54.6953067  45.8687946  47.0329435  55.7025366  46.2833223
  45.7046438  53.9851188  46.0903186  45.7459190  52.9775984  45.6764351
  45.4916063  53.9303553  47.1578938  44.9171264  54.5501950  45.5917162
  48.1592809  53.9596173  46.6365891  48.1337324  52.9125925  46.3346168
  49.1202456  54.3935610  46.3602938  47.9609097  54.0638353  48.2469998
  47.0002970  53.6296417  48.5241260  48.7624474  53.5212213  48.7482049
  47.9868080  55.1106111  48.5498028  48.6279361  55.5539487  44.1119104
  48.6914776  56.7304120  44.4612362  49.6491675  54.8798254  43.5872732
  49.5617240  53.8852875  43.4344749  50.8838598  55.5181905  43.2260710
  50.6662839  56.3194990  42.5199091  51.3326089  55.9393334  44.1257166
  51.8667047  54.5521890  42.5895475  51.5178660  53.4218774  42.2031743
  53.0916619  55.0335938  42.4472373  53.2951168  55.9831238  42.7249027
  54.1847968  54.2199604  41.8894670  54.9839852  54.1435487  42.6267311
  53.8062572  53.2238543  41.6601641  54.7387263  54.8389650  40.6255360
  54.1727829  55.8015236  40.0961562  55.8371090  54.2597943  40.1322149
  56.2709969  53.4866815  40.6160922  56.4774309  54.7629607  38.9022233
  56.2541139  55.8219847  38.7730064  57.9837954  54.5916513  38.9880360
  58.1884998  53.5338140  39.1528862  58.4075600  54.8984843  38.0318053
  58.6246434  55.4263606  40.1293337  58.4878716  56.4813960  39.8920688
  58.0579794  55.1799977  41.0272738  60.1085733  55.1467485  40.3707364
  60.8132683  54.5658888  39.5187147  60.5955071  55.5517974  41.4498619
  55.9163120  54.0315512  37.6971961  56.4093944  52.9740226  37.3522641
  54.8609332  54.5859051  37.1023109  54.5215265  55.4633944  37.4696187
  54.1809291  54.0103237  35.9425594  54.9257669  53.7684586  35.1843924
  53.3959105  52.7258575  36.2909579  52.8627905  52.2928470  35.4445631
  54.1189013  52.0045265  36.6718331  52.3959866  52.9286615  37.3620245
  51.1468299  53.4803689  37.1361029  50.5121474  53.5811367  38.3015221
  49.4903825  53.9584289  38.3433089  51.3240269  53.1650274  39.2604245
  51.1249427  53.1705907  40.2505934  52.4907870  52.7199921  38.6956736
  53.2734056  52.2954756  39.3244781  53.1972649  55.0673677  35.4493295
  53.0122327  56.1193491  36.0950409  52.5346883  54.7955299  34.3339074
  52.7158429  53.9447750  33.8205864  51.6676997  55.8047147  33.7215587
  51.8994670  56.7896478  34.1268857  51.8877429  55.8371828  32.1694338
  51.5070881  54.9066451  31.7483627  51.3265955  56.6770762  31.7598086
  53.3169227  55.9851150  31.8246409  53.7288537  56.8330869  32.3717765
  53.8475231  55.0767856  32.1101280  53.4830074  56.2231743  30.3020071
  54.5482275  56.3429483  30.1043729  53.1169086  55.3330704  29.7903567
  52.7743760  57.3909435  29.7764687  52.9841536  58.2712919  30.2248875
  51.8924548  57.3794497  28.7872565  51.5175154  56.2417859  28.2039500
  51.9090394  55.3647401  28.5163595  50.8434829  56.2616215  27.4520282
  51.3644275  58.5424864  28.3468987  51.6442712  59.4141532  28.7734951
  50.6922407  58.5349958  27.5931034  50.1678460  55.7893144  34.0418065
  49.4190989  56.6749412  33.5802005  49.6950534  54.8262164  34.8389403
  50.3368422  54.1532974  35.2331313  48.2634181  54.6583638  35.1031656
  47.7075549  54.9849685  34.2242773  47.8776575  53.2008946  35.4157299
  48.4316510  53.0233352  36.3375016  46.8087034  53.1229955  35.6141458
  48.2839187  52.1462472  34.3589217  49.3447424  52.2592505  34.1353502
  48.0147523  50.6983680  34.8952690  46.9539850  50.5844500  35.1186389
  48.3064648  49.9699931  34.1386485  48.5963469  50.5322906  35.8020580
  47.6119510  52.3990232  33.0187636  47.8995998  53.3825643  32.6472742
  47.9242339  51.6362119  32.3055318  46.5295728  52.3597770  33.1413043
  47.7579976  55.5339065  36.2212430  48.3269150  55.5716973  37.3048692
  46.6760372  56.2281571  35.9639557  46.2910000  56.2893801  35.0322383
  46.0812164  57.0455778  37.0117237  46.5865379  56.8112913  37.9486651
  46.2009324  58.6377801  36.7433995  45.7484905  59.1634195  37.5842918
  47.6442664  59.0722401  36.5943985  48.0972742  58.5473310  35.7533551
  47.6841984  60.1467200  36.4155196  48.1914822  58.8357657  37.5069418
  45.5160377  58.9458638  35.5583283  45.5796167  59.8884561  35.3878061
  44.6473104  56.6332775  37.2525781  43.8700302  56.3421774  36.3139188
  44.3046545  56.5751524  38.5312952  45.0205816  56.7158379  39.2296901
  42.9724317  56.1647893  38.9763598  42.9746963  55.9702703  40.0488599
  41.9534850  57.3040238  38.6794787  42.0265671  57.5233470  37.6142766
  40.9282512  57.0252981  38.9230104  42.3147897  58.5595230  39.4604843
  42.7128362  59.6090502  38.8761509  42.2579980  58.4590787  40.7711508
  42.4861707  59.2574886  41.3461104  41.9864927  57.5840309  41.1962121
  42.5123885  54.8246677  38.4381335  41.3100524  54.6159916  38.1834432
  43.4740326  53.9073303  38.3291623  44.4406948  54.1600930  38.4767243
  43.1592332  52.5028515  38.0203752  42.4877430  52.4423649  37.1639049
  44.4711783  51.7508143  37.6756519  44.9801839  52.3008499  36.8841512
  45.0972849  51.7361853  38.5677710  44.2130052  50.3318472  37.2177053
  44.1018147  50.0211340  35.8419121  44.2165589  50.8190957  35.1082975
  43.8432436  48.6853368  35.4091766  43.7796360  48.4473710  34.3473724
  43.7205490  47.6666851  36.3643267  43.4617971  46.3399639  35.9578133
  43.3882830  46.2471254  35.0051453  43.8053271  47.9681854  37.7432028
  43.6579873  47.1769726  38.4783039  44.0774593  49.2775145  38.1669639
  44.1868909  49.4948217  39.2294621  42.5163797  51.8051806  39.2384244
  43.0313676  51.8696934  40.3583072  41.3975295  51.1285541  38.9901853
  40.9890580  51.1440272  38.0665993  40.7129644  50.3576315  40.0445661
  41.4249418  50.0814814  40.8223376  39.5800880  51.2051093  40.6867176
  40.0361189  52.1268063  41.0481172  38.8679231  51.4387225  39.8952973
  38.8645809  50.5232596  41.8187426  38.5061600  49.5578796  41.4614236
  39.5787030  50.3684105  42.6275402  37.6495059  51.3700992  42.3477040
  37.9646195  52.4049763  42.4812401  36.8393627  51.3285864  41.6196627
  37.1435502  50.7878064  43.7359763  38.0413242  50.6329453  44.3344080
  36.5407806  51.5778483  44.1838622  36.3353168  49.4969734  43.6899961
  36.8938282  48.7646648  43.2754013  36.0732414  49.2302731  44.6282324
  35.5031594  49.6403785  43.1358768  40.1534761  49.1187957  39.4007706
  39.5129347  49.2097048  38.3482625  40.3590734  47.9518097  40.0245442
  40.9656194  47.8698765  40.8279670  39.7851244  46.7303278  39.4618210
  39.0485824  47.0105570  38.7087760  40.8493307  45.7999738  38.7971983
  40.3390507  44.9702318  38.3080747  41.4061515  46.3717667  38.0548349
  41.7401651  45.2970677  39.7676953  42.3869674  44.7280597  39.3440485
  38.9824668  45.9728184  40.5157025  39.2181539  46.1274411  41.7417048
  38.0585155  45.1469611  40.0335628  37.8668009  45.1055995  39.0427883
  37.2936231  44.2849526  40.9203045  37.7322418  44.2123859  41.9155165
  35.8456499  44.8292922  41.0547254  35.4988242  45.0747892  40.0509613
  34.8514948  43.8270356  41.7171680  35.1974331  43.5814070  42.7212070
  33.8620793  44.2806803  41.7751679  34.7990774  42.9174502  41.1188300
  35.8543584  46.1187561  41.8448066  36.4701084  46.8565294  41.3303705
  34.8359533  46.4963875  41.9361578  36.2633031  45.9340701  42.8381626
  37.3093257  42.8889998  40.2741442  37.0938180  42.7474881  39.0798578
  37.5350213  41.8680768  41.1056812  37.5942452  42.0535360  42.0967396
  37.6276330  40.4922517  40.6569971  37.4726343  40.4188400  39.5805747
  39.0145225  39.9435448  40.9891528  39.2003886  40.0696367  42.0557618
  39.1057656  38.3913376  40.6121099  38.9204562  38.2644931  39.5454935
  40.0998112  38.0157673  40.8548428  38.3592768  37.8347725  41.1787583
  39.9677381  40.6913666  40.2523003  40.8494298  40.3641015  40.4449596
  36.5787373  39.6538896  41.4712819  36.5779973  39.6989979  42.7259694
  35.7205135  38.9247344  40.7811960  35.7342208  38.9791888  39.7727585
  34.6861237  38.1204298  41.4147748  34.8522722  38.1289061  42.4920037
  33.2837884  38.6379184  41.1353054  32.5649077  37.9896777  41.6363991
  33.1174993  40.0740008  41.6440454  33.8357849  40.7229601  41.1430291
  32.1060045  40.4203443  41.4318578  33.2922746  40.1015203  42.7195903
  33.0110286  38.6345755  39.7213429  32.1227999  38.9640088  39.5660247
  34.8174279  36.6755154  41.0061351  35.1446320  36.3911581  39.8534775
  34.5811936  35.7643738  41.9618083  34.3324370  36.0558453  42.8962942
  34.7574368  34.3006861  41.6978373  35.0952218  34.1180376  40.6777196
  35.7967901  33.7079180  42.6757493  35.4391139  33.8717122  43.6922818
  36.0121529  32.2239734  42.4489578  36.3702989  32.0594196  41.4327126
  36.7504476  31.8508033  43.1587221  35.0707198  31.6936089  42.5922015
  37.1338390  34.4457526  42.5201654  36.9932874  35.5039213  42.7406795
  37.8641763  34.0250002  43.2113054  37.4948227  34.3330104  41.4978735
  33.4072833  33.5778847  41.7977500  32.6755338  33.7674368  42.7984471
  33.0521564  32.8036717  40.7745061  33.7090510  32.6559156  40.0216735
  31.7344035  32.1862912  40.6736362  31.1486195  32.3726071  41.5737710
  31.0002792  32.8055902  39.4726449  31.5687166  32.5394297  38.5815014
  29.9646617  32.4882526  39.3506071  30.9849560  34.2932186  39.5396754
  30.0164916  34.9818137  40.2560290  29.2389368  34.5576963  40.7414491
  30.2837215  36.2815335  40.1951721  29.6360880  37.0015515  40.6954159
  31.3877684  36.4552159  39.4701075  31.8568635  35.2299715  39.0633128
  32.7707851  35.1649185  38.4728751  31.7724988  30.6885157  40.5138294
  32.5189229  30.1552028  39.6735542  30.9579597  30.0016415  41.3325185
  30.4824463  30.5064188  42.0668115  30.7219559  28.5291279  41.2165358
  31.6508238  28.0101492  40.9799669  30.1932474  28.0016371  42.5567763
  30.8823039  28.3342215  43.3331060  29.2150376  28.4531282  42.7221895
  30.0686189  26.5062343  42.6058410  29.3004027  26.1738560  41.9076508
  31.0208389  26.0447958  42.3442048  29.6841089  26.1038286  44.0022105
  30.3489040  26.5908465  44.7156248  28.6561420  26.4093791  44.1972041
  29.7841101  24.6615538  44.1805342  30.6521117  24.3077202  44.5566649
  28.8220193  23.7980615  43.8910444  27.6650111  24.2188862  43.3855314
  27.5180713  25.2044695  43.2208064  26.9392299  23.5507277  43.1689544
  29.0239955  22.5001911  44.1043327  29.9054320  22.1850522  44.4836178
  28.2949330  21.8362055  43.8859528  29.7182655  28.1350800  40.1466663
  28.6350052  28.7659889  39.9893196  30.0815999  27.1000638  39.3775956
  31.0353958  26.7698950  39.4144916  29.1590994  26.4509688  38.4480836
  28.1460216  26.8077021  38.6338628  29.5262208  26.7590292  37.0016084
  30.5935929  26.6556935  36.8063195  28.9716820  26.0778096  36.3562197
  29.1453939  28.1529377  36.5842561  27.9165381  28.3883026  36.0046917
  27.2382009  27.5525719  35.8328992  27.5373135  29.6831063  35.6383558
  26.5771977  29.8742240  35.1590307  28.4227973  30.7540857  35.8993588
  28.1199019  31.7720200  35.6540751  29.6732936  30.5167608  36.4651448
  30.3812088  31.3315041  36.6172946  30.0113854  29.2310556  36.8345310
  30.9635103  29.0386210  37.3290278  29.1696267  24.9380677  38.6822314
  30.2057622  24.3747280  38.9926258  28.0099338  24.3165084  38.5438171
  27.1722582  24.8456252  38.3477707  27.8958906  22.8602519  38.6850800
  28.8465481  22.3974650  38.4201689  27.5400325  22.4605237  40.1201910
  28.3728449  22.7791099  40.7471086  26.6473621  23.0258014  40.3879609
  27.2738670  20.9220963  40.3422358  26.3113989  20.6720603  39.8958749
  28.0648553  20.3753404  39.8289185  27.2648875  20.5319849  41.8359023
  27.0449989  21.4254779  42.6947977  27.4679081  19.3245964  42.1559704
  26.8265739  22.3828763  37.7439726  25.7524327  22.9939424  37.6605997
  27.1303229  21.3105378  37.0269177  28.0339429  20.8817305  37.1672547
  26.2359478  20.7323024  36.0213999  25.2089079  20.7375125  36.3864492
  26.3011805  21.5584529  34.7252668  26.0674042  22.5824405  35.0166382
  27.3378023  21.5034952  34.3928593  25.3826176  21.1323502  33.5915319
  25.6359241  20.1195041  33.2783556  24.3474079  21.1587048  33.9317499
  25.5552827  22.0886498  32.4110728  25.2188424  23.0751676  32.7299606
  26.6169953  22.1285598  32.1676125  24.7695579  21.6581959  31.1821322
  25.1897396  20.7304638  30.7937238  23.7280481  21.4964387  31.4599649
  24.8457420  22.7201067  30.1284000  25.8107124  22.8698435  29.8705035
  24.3218272  22.4267091  29.3162847  24.4560521  23.5797325  30.4879612
  26.7299587  19.2987621  35.8303389  27.8912593  19.0852986  35.4735922
  25.8477841  18.3229159  36.1006134  24.8786059  18.5940830  36.1858267
  26.1958295  16.8979819  36.2858196  25.2743034  16.3169362  36.2501166
  27.1620962  16.3512879  35.2247454  28.0675424  16.9548041  35.2882637
  27.3896770  15.3244552  35.5109649  26.6345056  16.3749323  33.7919432
  25.6167009  15.9850326  33.8043064  26.6222426  17.4104400  33.4518365
  27.4942638  15.5320069  32.8358686  28.7517825  15.4908874  33.0160070
  26.9006900  14.9166533  31.9039635  26.8414367  16.7710517  37.6399762
  26.3998832  17.3873817  38.6136383  27.8923829  15.9721434  37.7164710
  28.1269121  15.3082939  36.9923169  28.6872476  15.9798972  38.9211204
  28.1390315  16.4974920  39.7083013  28.9902806  14.5443017  39.3940091
  28.0545991  14.0204591  39.5894273  29.5469678  14.0161163  38.6199163
  29.8194417  14.5513832  40.6703037  30.1587411  15.6132130  41.1878311
  30.1456755  13.3604860  41.1778066  30.6950750  13.3087992  42.0237312
  29.8415950  12.5166453  40.7135127  29.9687310  16.7929318  38.6725020
  30.9868822  16.5710779  39.3458911  29.9100051  17.7516181  37.7334999
  29.1136219  17.8131778  37.1153708  31.1171866  18.5364472  37.4010801
  31.9409556  18.2085393  38.0350991  31.5287529  18.3618335  35.9328954
  32.6122758  18.4804744  35.9341978  31.2772760  17.3277932  35.6970561
  30.9194125  19.2827969  34.8866476  29.9333259  18.9209254  34.5954724
  30.8324083  20.2950615  35.2814295  31.8594904  19.2896622  33.6407374
  31.9118990  18.2968081  33.1939789  31.5059959  20.0039256  32.8971186
  33.2100232  19.6853907  34.0697898  33.6883385  19.0524890  34.6948893
  33.8334514  20.8082418  33.6990277  33.2356543  21.6337358  32.8335652
  32.3224401  21.4031399  32.4689210  33.7000445  22.4841088  32.5484211
  35.0539049  21.0952558  34.1925358  35.4947284  20.4599441  34.8422693
  35.5224004  21.9444124  33.9105008  31.0702514  20.0023863  37.9031694
  30.1133652  20.7142381  37.6814580  32.1028451  20.3980965  38.6346267
  32.9037479  19.7920433  38.7411791  32.1317081  21.7057017  39.2869991
  31.1987005  22.2625677  39.2004171  32.4822702  21.5238856  40.7681399
  33.3841441  20.9166720  40.8456993  32.7216664  22.8805127  41.4368403
  31.8200133  23.4881566  41.3600858  32.9691289  22.7296121  42.4875982
  33.5465028  23.3908047  40.9395011  31.3762965  20.6893567  41.4720553
  30.4864458  21.3145974  41.5451342  31.1623085  19.8259276  40.8421355
  31.7943663  20.1977069  42.9151069  32.0080762  21.0606548  43.5457803
  30.9797658  19.6209915  43.3531989  32.6839409  19.5719865  42.8427816
  33.2138782  22.5409920  38.5935629  34.3232883  22.0712457  38.4497139
  32.9064951  23.7608122  38.1476578  31.9609696  24.1095431  38.0808181
  34.0033211  24.6032702  37.6232626  34.9536409  24.2554868  38.0282789
  34.0697778  24.5373124  36.0875562  34.9855975  24.9945830  35.7130204
  34.0555067  23.4810281  35.8189307  32.9241951  25.1891615  35.3427145
  32.9213567  26.4465890  34.7625999  33.8245245  27.0425180  34.8939640
  31.7254840  26.6811557  34.1174497  31.4765681  27.5283532  33.6271469
  30.9228036  25.5875847  34.2680475  29.6153545  25.3652577  33.8089828
  29.1212452  26.1496550  33.2356805  29.0334668  24.1512875  34.1180220
  28.0196032  23.9380099  33.7793581  29.7220488  23.1780436  34.8636761
  29.2475560  22.2264857  35.1034544  31.0242907  23.3941017  35.3184297
  31.5216933  22.5905854  35.8616175  31.6410263  24.6232486  35.0380138
  33.8204677  26.0359016  38.1516930  32.8572757  26.3314423  38.8985658
  34.7721103  26.8947720  37.8019900  35.5184250  26.5924214  37.1923198
  34.7618320  28.2829290  38.2455626  33.8728839  28.4877818  38.8421410
  36.0060331  28.5571410  39.1073290  36.8905574  28.3296298  38.5123872
  36.0653515  29.9711206  39.5619694  35.1813209  30.1992548  40.1574056
  36.9592385  30.1214796  40.1673266  36.0990523  30.6309562  38.6950312
  36.0103347  27.7112029  40.2835310  36.7928325  27.8963274  40.8079606
  34.8104842  29.2285752  37.0172149  35.4552382  28.9298573  36.0050025
  34.1261314  30.3654818  37.1504542  33.4267059  30.4488731  37.8742975
  34.3241856  31.5039843  36.2357233  35.0964052  31.2436338  35.5118492
  33.0424064  31.8773503  35.4737149  32.2354662  32.0192433  36.1926120
  33.2465152  33.2015272  34.6460838  34.0530457  33.0602463  33.9266054
  32.3257691  33.4447603  34.1158340  33.5022057  34.0173967  35.3221614
  32.6654466  30.7317923  34.4972384  32.4973539  29.8139726  35.0606689
  31.7565072  30.9979291  33.9577016  33.4773149  30.5776464  33.7864573
  34.8150707  32.6518038  37.1012273  34.2481843  32.9631007  38.1778479
  35.9184923  33.2445949  36.6735118  36.4548978  32.8678979  35.9050928
  36.3723980  34.4616345  37.2895722  35.8863389  34.6056117  38.2545159
  37.8833898  34.4286170  37.5045784  38.3657815  34.2101678  36.5518573
  38.4133654  35.8127518  38.0585619  37.9317341  36.0316760  39.0115595
  39.4925743  35.7582489  38.2015236  38.1813956  36.6031934  37.3447736
  38.2576661  33.3056129  38.5073586  37.9326286  32.3427320  38.1132609
  39.3379121  33.2923716  38.6522473  37.7657944  33.4915892  39.4621234
  36.0260177  35.6370874  36.3412891  36.2576555  35.5389784  35.1042120
  35.5194620  36.7248301  36.9192823  35.3027942  36.7138474  37.9057071
  35.3000889  37.9890701  36.1619128  35.5219947  37.8224481  35.1078283
  33.8663722  38.4642462  36.2857433  33.7507114  38.5993510  37.3611356
  33.7537767  39.4258882  35.7850768  32.8026852  37.5008910  35.7784586
  32.9473133  36.5309343  36.2542396  31.3790878  38.0347072  36.1116786
  31.2335402  39.0044906  35.6358269  30.6315434  37.3330933  35.7415218
  31.2738182  38.1409012  37.1913738  32.9994787  37.2498568  34.2542427
  33.9859747  36.8199724  34.0806789  32.2350349  36.5595966  33.8974963
  32.9153702  38.1940379  33.7161473  36.1947244  39.0366907  36.7772992
  36.2411808  39.1493875  37.9980118  36.9230487  39.7934794  35.9388127
  36.9557016  39.5792400  34.9523369  37.7292886  40.9008870  36.4316074
  37.4094725  41.1503334  37.4433353  39.2346377  40.5548896  36.4609130
  39.3828394  39.7147556  37.1393748  39.5427890  40.2680325  35.4554997
  40.0623615  41.7273553  36.9247787  40.0910212  42.4816468  36.1384431
  39.5600095  42.1361243  37.8015053  41.4926220  41.3243369  37.2977241
  41.6466644  40.2654775  37.8866160  42.4495219  42.0379667  36.9800605
  37.4542499  42.0925122  35.5434311  37.5032769  41.9677528  34.3093612
  37.0913954  43.2285433  36.1487954  36.8589349  43.2711378  37.1307562
  36.9577558  44.4577508  35.3446124  37.3099115  44.2841161  34.3277857
  35.4794236  44.8766427  35.2877843  35.3916450  45.7485430  34.6395682
  34.9023660  44.0527749  34.8678479  34.9836734  45.1920792  36.5684429
  34.0612272  45.4490334  36.5001235  37.8332892  45.5593227  35.9329181
  38.2328826  45.4796948  37.0904921  38.1122298  46.6026462  35.1549219
  37.8235359  46.6220538  34.1872553  38.8213511  47.7591860  35.6877790
  38.7091161  47.7606446  36.7719839  40.3515215  47.7653816  35.3422100
  40.7567126  48.6833907  35.7678607  40.8289536  46.9057751  35.8125666
  40.6236803  47.7384622  33.8320504  40.6386989  48.9304143  33.0736688
  40.4904796  49.8808077  33.5863901  40.8348278  48.9067641  31.7185537
  40.8043725  49.8367529  31.1508432  41.0234348  47.7124953  31.0694494
  41.2407010  47.7404497  29.7084028  41.2365009  48.6294328  29.3460616
  41.0414624  46.5101044  31.7787393  41.2207682  45.5633052  31.2693072
  40.8272463  46.5307118  33.1501517  40.8154577  45.5979527  33.7139970
  38.2194551  49.0194883  35.0771397  37.5332769  48.9497572  34.0319804
  38.5196930  50.1332918  35.7438510  38.8402423  50.0624603  36.6990109
  38.3365837  51.4685147  35.1700036  38.1722410  51.4273424  34.0932513
  37.1334102  52.2256579  35.8319535  36.2153631  51.6670732  35.6495478
  37.3604457  52.3585561  37.3509765  38.2781349  52.9174675  37.5341855
  36.5187225  52.8858669  37.7999151  37.4452335  51.3664302  37.7943711
  36.9322308  53.6297396  35.1631011  36.7270001  53.5004975  34.1004258
  36.0931100  54.1407601  35.6351541  37.8365545  54.2252714  35.2881667
  39.6466284  52.1913557  35.3506711  40.3645560  51.9648464  36.3359338
  40.0149537  53.0488821  34.3888005  39.4458380  53.2110509  33.5703215
  41.2828467  53.7762860  34.5093646  41.4907893  54.1635652  35.5067983
  42.4882232  52.8621604  34.0621255  42.5197264  51.9866548  34.7106597
  42.3329203  52.4084511  32.5907959  42.3018042  53.2834573  31.9415680
  43.1790233  51.7801275  32.3125517  41.4083861  51.8417397  32.4804490
  43.8191628  53.5186822  34.3047136  43.9317878  53.7309012  35.3679073
  44.6182468  52.8516502  33.9812439  43.8735622  54.4500583  33.7410824
  41.1883855  55.0109294  33.6075061  40.4232628  55.0085277  32.6542027
  41.9544743  56.0345450  33.9373168  42.4875190  56.0063901  34.7947374
  42.0937900  57.2049938  33.0728275  41.1109586  57.5712737  32.7762118
  42.8245141  58.3188848  33.8216092  43.8167198  57.9413472  34.0687781
  42.9175757  59.1661989  33.1422725  42.1198462  58.7650824  35.0953442
  40.9035144  58.5255491  35.2390029  42.8362303  59.3735122  35.9474328
  42.9355470  56.8964518  31.8195503  43.8613687  56.0852245  31.8440346
  42.6703365  57.5751247  30.6990609  41.8702586  58.1853046  30.6115673
  43.5766452  57.4548794  29.5611717  43.8880974  56.4159577  29.4528279
  42.8840451  57.9074712  28.2404539  42.3943127  58.8578460  28.4527020
  43.6762237  58.0631217  27.5081110  41.8557265  56.9168571  27.6783601
  41.7856115  57.1367115  26.6130673  42.2923171  55.9277428  27.8167204
  40.1962017  56.9413615  28.4015877  39.5367587  58.4890631  27.6624377
  39.5419449  58.4042865  26.5757524  38.5161176  58.6516006  28.0088104
  40.1604897  59.3306778  27.9636777  44.7513099  58.3702138  29.8546249
  44.5187402  59.5746843  30.1342103  46.0010104  57.8454214  29.7997454
  46.4344462  56.4412529  29.6556094  46.0055827  56.0188526  28.7468991
  46.0973815  55.8654395  30.5175405  47.9378192  56.5516810  29.5898108
  48.2367012  56.4152671  28.5505034  48.3581800  55.7495954  30.1964876
  48.3524790  57.8690313  30.0999867  49.1246722  58.2386837  29.4253211
  48.7394578  57.8502860  31.1188074  47.1240971  58.7711628  30.0262404
  46.9291771  59.3390347  30.9359799  47.2941498  59.7414130  28.8430322
  46.7403800  59.5087263  27.7654159  48.0639609  60.7947208  29.0780825
  48.5511555  60.8438655  29.9614429  48.2259084  61.9237761  28.1177111
  47.2595453  62.3706103  27.8840862  49.1232844  62.9993161  28.7608643
  48.6886464  63.2032646  29.7394317  50.1008561  62.5342096  28.8878662
  49.2833126  64.3438251  27.9699007  49.1873066  64.1432783  26.9028184
  48.4767209  65.0038762  28.2890271  50.6465615  65.0243050  28.2462544
  51.0364494  65.2022223  29.4312021  51.3444437  65.3642675  27.2675639
  48.8357503  61.3808313  26.8530876  49.8092210  60.6349524  26.9147361
  48.2452492  61.7088119  25.6934716  47.4250095  62.2977227  25.6713285
  48.7763478  61.2205332  24.4333335  48.5643307  61.9761943  23.6769446
  49.8550518  61.1195100  24.5528805  48.2053832  59.8959174  23.9791667
  48.4790600  59.4674711  22.8715116  47.3946586  59.2395519  24.8133694
  47.1780256  59.6153861  25.7254648  46.8524437  57.9372395  24.4574320
  47.2008437  57.6444893  23.4669705  47.3148811  56.8866513  25.4685527
  47.0955751  57.2705474  26.4648598  46.7842098  55.9466953  25.3169914
  48.7643940  56.6307570  25.3704897  49.5094234  57.0458803  26.2412881
  49.2016564  55.9705719  24.2776625  50.1866004  55.7744106  24.1703970
  48.5419753  55.6756444  23.5720143  45.3393900  57.9224037  24.3678524
  44.6269936  58.5785476  25.1563525  44.8478852  57.1410344  23.4211581
  45.4857412  56.6522306  22.8093494  43.4423157  56.9759196  23.2078029
  42.9166237  57.9186791  23.3593006  43.2168845  56.5188782  21.7763848
  42.1451167  56.4935986  21.5794736  43.6932445  57.2293053  21.1007558
  43.7744086  55.2082271  21.5651177  43.6217893  54.9382197  20.6566007
  42.8108892  55.9578893  24.1664754  43.5518614  55.2212404  24.8873094
  41.4698181  55.9042066  24.1692101  40.9183307  56.6213653  23.7201617
  40.7584314  54.7957480  24.8570134  41.0136964  54.8472730  25.9154482
  39.2353864  54.8256581  24.7195384  38.9866892  54.8729194  23.6593425
  38.8335331  53.9064854  25.1458428  38.6385867  56.0066624  25.4258682
  39.0114009  55.9943999  26.4500558  39.0163029  56.8910994  24.9128371
  37.1229228  56.0400463  25.4405098  36.4718528  54.9558294  25.4537620
  36.5940844  57.1863064  25.4523333  41.2237053  53.4563477  24.3241560
  41.5105933  52.5508308  25.1088108  41.3158510  53.3327781  22.9998566
  41.0005650  54.0583459  22.3719669  41.7913915  52.0770267  22.4241218
  41.1632632  51.2509006  22.7573930  41.7342377  52.1496849  20.8839377
  42.1058472  53.1380492  20.6134907  42.3897565  51.3877167  20.4622748
  40.2940882  51.9647767  20.3203576  39.3721430  51.4377565  21.0228758
  40.0963708  52.3283873  19.1148892  43.1989886  51.6898358  22.9025606
  43.4516481  50.4888599  23.2447390  44.1159007  52.6578695  22.9266639
  43.8710204  53.6154372  22.7188248  45.4971261  52.3673709  23.3675642
  45.9499828  51.6573506  22.6755446  46.3507150  53.6130672  23.4083906
  45.7543862  54.3581237  23.9350613  47.2558290  53.4037043  23.9785098
  46.7357827  54.1551749  22.0100068  46.6472814  53.4136690  20.9892176
  47.1672960  55.3425400  22.0198701  45.4507733  51.8781077  24.8162736
  46.1745743  50.9199685  25.1984274  44.6150032  52.5557736  25.6111561
  44.0090119  53.2696186  25.2326073  44.6046078  52.3268080  27.0941904
  45.6371741  52.3471068  27.4427505  43.8309367  53.4712054  27.7788307
  42.7812416  53.4284296  27.4882954  43.9478797  53.3175130  29.3198641
  44.9973306  53.3606581  29.6112243  43.4022045  54.1247280  29.8084761
  43.5262958  52.3591320  29.6229703  44.4789942  54.7206587  27.3992755
  44.0201278  55.4568854  27.8103864  44.0125539  50.9939426  27.4188363
  44.6232954  50.1920511  28.2120744  42.8600109  50.7165304  26.8073029
  42.3014076  51.4288361  26.3593271  42.2964378  49.3681992  26.9340053
  42.2395953  49.1081895  27.9910120  40.8902630  49.2624047  26.3263828
  40.9431081  49.6059907  25.2933023  40.5932917  48.2138094  26.3452503
  39.8461481  50.1089472  27.0995134  39.7642887  49.6860424  28.1007883
  40.2375622  51.1241152  27.1653230  38.4513307  50.1373536  26.4375114
  37.8328880  50.8955938  26.9178232  38.5532123  50.3703102  25.3775818
  37.7964946  48.8530663  26.5692570  38.2300371  48.1848567  27.1902531
  36.6821936  48.4999750  25.9352909  36.0902801  49.3383075  25.0846458
  36.4904674  50.2506956  24.9188206  35.2443033  49.0572953  24.6098248
  36.1549019  47.3007935  26.1561849  36.6027048  46.6668778  26.8025002
  35.3086445  47.0285282  25.6767908  43.2263240  48.2807369  26.4033008
  43.3210639  47.2105926  27.0018296  43.9223175  48.5099483  25.2954375
  43.8439713  49.3654241  24.7642856  44.8195989  47.4623036  24.7977099
  44.2488150  46.5456592  24.6491568  45.4789255  47.8550590  23.4589744
  45.8488884  48.8752354  23.5612815  46.3184064  47.1794218  23.2950042
  44.5248270  47.7773261  22.2716894  43.9488795  46.8519902  22.2834688
  43.8439286  48.6282505  22.2515125  45.5672656  47.8122069  20.7869436
  47.2332403  48.1241354  21.4636733  47.5046681  47.3198451  22.1474446
  47.9552262  48.1661723  20.6481551  47.2362456  49.0729555  22.0001735
  45.9302152  47.1276885  25.7796993  46.2860001  45.9613571  25.9483297
  46.5450700  48.1721258  26.3396094  46.2929944  49.1026754  26.0385535
  47.6040260  48.0291120  27.3510283  48.4361337  47.4625879  26.9330017
  48.1316475  49.4313831  27.8053999  48.5676345  49.9121809  26.9297014
  47.3548302  50.0724206  28.2222042  49.2328033  49.3481269  28.8489781
  50.5522112  49.2161653  28.4620235  50.7851283  49.2127299  27.3972053
  51.5929151  49.0869918  29.4155174  52.6285423  48.9949367  29.0882517
  51.2924026  49.0780403  30.7578576  52.0924616  48.9999500  31.4940011
  49.9567394  49.1693640  31.1799309  49.7184381  49.1218502  32.2425010
  48.9244905  49.3222741  30.2322755  47.8906961  49.4204572  30.5635291
  47.0656841  47.2412685  28.5799957  47.5964931  46.1660141  28.9120781
  46.0015923  47.7452783  29.2242338  45.5854853  48.6216080  28.9431635
  45.4723057  47.0717211  30.4363598  46.3062319  46.9534844  31.1282315
  44.3725978  47.9410293  31.1243074  43.5269225  48.0607162  30.4471011
  44.0389068  47.4493327  32.0380825  44.7832308  48.9207146  31.3686361
  44.9409623  45.6552316  30.1178042  45.1704296  44.6892874  30.9253806
  44.2623062  45.5034538  28.9768860  44.0623864  46.2973872  28.3854460
  43.7434141  44.1623376  28.5633787  43.0761498  43.7753290  29.3334968
  42.9585046  44.2595675  27.2316218  43.5768593  44.8061206  26.5195710
  42.8155173  43.2381900  26.8788574  41.6028732  44.9472664  27.3601159
  41.1306663  45.3081981  28.4724180  41.0189244  45.1292398  26.2601570
  44.8558136  43.1172770  28.3937891  44.7198053  41.9339944  28.8382530
  45.9932556  43.5267783  27.8097041  46.0821213  44.4609034  27.4360565
  47.1141419  42.6164750  27.6607648  46.8332036  41.7596823  27.0483277
  48.2986158  43.3421299  26.9816120  48.5444768  44.2244827  27.5724640
  49.5408213  42.4332034  26.8738763  49.2958473  41.5508017  26.2827294
  50.3509060  42.9798690  26.3911563  49.8544754  42.1259412  27.8715293
  47.8582181  43.7307789  25.6791209  48.5696762  44.1867878  25.2236173
  47.5343046  42.0704341  29.0182406  47.7345410  40.8286489  29.1889564
  47.6507274  42.9680087  30.0031281  47.5122537  43.9550684  29.8399177
  48.0881398  42.5307444  31.3585780  48.9493655  41.8682076  31.2723541
  48.4791373  43.7478922  32.2819616  47.6550725  44.4613459  32.2815664
  48.7685064  43.2797606  33.7611385  49.5928167  42.5665902  33.7623938
  49.0349507  44.1433248  34.3705355  47.8778855  42.8055926  34.1735227
  49.7106671  44.4251778  31.7134982  49.4969684  44.7828282  30.7062638
  49.9873113  45.2681249  32.3467499  50.5343960  43.7122084  31.6781968
  47.0114223  41.6679114  32.0332879  47.3179595  40.5652057  32.5708688
  45.7804760  42.1827497  32.0776700  45.5834021  43.0901280  31.6802712
  44.6937798  41.4825928  32.8053036  45.0409055  41.2914658  33.8207214
  43.3779447  42.3359790  32.8772207  43.0724251  42.6141329  31.8685644
  42.2511723  41.5078271  33.5485055  42.5557946  41.2296794  34.5574357
  41.3401541  42.1043880  33.5960587  42.0646553  40.6066377  32.9644074
  43.6151574  43.6010752  33.7324561  44.4071365  44.2005204  33.2835278
  42.6973736  44.1873970  33.7771695  43.9085179  43.3088921  34.7407563
  44.4234320  40.1100172  32.1851177  44.2723242  39.0927745  32.8965062
  44.4372833  40.0289078  30.8618662  44.5918105  40.8148955  30.2466881
  44.1222657  38.7276051  30.2620471  43.2199543  38.3293765  30.7261024
  43.8848713  38.8395301  28.7293767  44.7359898  39.3797312  28.3147932
  43.8729032  37.8235132  28.3348310  42.5808907  39.5576650  28.3364814
  41.7556110  38.9867492  28.7620040  42.6077505  40.5488825  28.7891055
  42.3741326  39.6976509  26.7686826  42.0827631  38.7234072  26.3761882
  41.5711187  40.4138656  26.5946004  43.6330784  40.1694480  26.0662460
  43.7495169  41.2352418  26.2627817  44.4787268  39.6278465  26.4900925
  43.5820302  39.9348306  24.5709441  42.7987550  40.4369533  24.1779398
  44.4387248  40.2638240  24.1491175  43.4745676  38.9472560  24.3886061
  45.2093949  37.6810543  30.5436030  44.8898953  36.5059187  30.7501707
  46.4836591  38.0906656  30.5099229  46.7285384  39.0397165  30.2661281
  47.5469903  37.1675574  30.8137633  47.4799470  36.2863994  30.1756686
  48.8989637  37.8534356  30.5633070  48.7880248  38.2396249  29.5500699
  49.0436514  38.6839149  31.2542988  50.1273390  36.9107558  30.6248122
  50.1578430  36.4524688  31.6133178  50.0595044  35.8185826  29.5596464
  50.0294377  36.2761210  28.5707817  50.9391566  35.1795970  29.6371714
  49.1614300  35.2193568  29.7096176  51.4174119  37.7268169  30.5288931
  51.4645389  38.4318254  31.3588578  52.2759627  37.0566997  30.5728793
  51.4323989  38.2743109  29.5864894  47.4345590  36.7342256  32.2897178
  47.6599199  35.5499765  32.6361390  47.1378966  37.6878091  33.1634764
  46.9651454  38.6408533  32.8771843  47.0669296  37.3604187  34.6261972
  48.0118678  36.9299957  34.9577496  46.7974976  38.6229171  35.4335325
  45.9977536  39.1641766  34.9280160  46.4769604  38.3602280  36.4416745
  48.0397890  39.5516411  35.5335112  49.1316686  39.1537160  35.2426099
  47.8243140  40.7775925  35.9880690  48.5956773  41.4239210  36.0738474
  46.8897128  41.0600073  36.2466484  45.9410739  36.3440232  34.8524231
  46.1058674  35.3991470  35.6541300  44.7887281  36.5563319  34.1977344
  44.6090846  37.3914956  33.6589125  43.6805161  35.5832028  34.3793989
  43.5636935  35.4074492  35.4487737  42.3262365  36.0431202  33.8050326
  42.5205343  36.2758460  32.7580434  41.5982804  35.2342743  33.8678681
  41.7650591  37.2986440  34.5170108  42.5183523  38.0852122  34.5612883
  40.5748138  37.7816461  33.6991145  39.8208471  36.9957282  33.6547743
  40.1474689  38.6684022  34.1672391  40.9029537  38.0270248  32.6890581
  41.3841416  36.9790884  35.9815561  42.2673012  36.6364422  36.5207428
  40.9926551  37.8768913  36.4598755  40.6236349  36.1984033  35.9976593
  44.0635171  34.2151863  33.8184292  43.6967814  33.1483468  34.4051952
  44.7987702  34.2052881  32.6995534  45.0242378  35.0571458  32.2059928
  45.2426689  32.9188468  32.1178243  44.3824947  32.2591404  32.0038645
  45.8917048  33.1177036  30.7459466  46.4383970  34.0606478  30.7550517
  46.5869438  32.2969292  30.5696739  44.8688423  33.1459692  29.6573775
  44.6987096  32.1024245  29.3924808  43.9302387  33.5957854  29.9810913
  45.3667347  33.8924224  28.4135883  46.5662110  34.2169766  28.2998018
  44.4357417  34.2415278  27.5301408  44.7010094  34.7356375  26.6901467
  43.4677968  34.0109081  27.7033414  46.2037121  32.2292348  33.0773847
  46.1202216  30.9881201  33.2741323  47.0843523  33.0006776  33.7174079
  47.1873514  33.9812854  33.4985502  48.0341820  32.3911860  34.6827957
  48.4210084  31.4633830  34.2613149  49.2299907  33.3286920  34.9991913
  49.8029111  33.4825552  34.0847585  48.8397267  34.2847827  35.3480247
  50.1544915  32.7144696  36.0941402  49.5124315  32.4035804  36.9182808
  50.6320565  31.8381845  35.6557816  51.2410649  33.6837022  36.6236885
  51.9408942  33.8626929  35.8074163  50.7426134  34.6170349  36.8854816
  52.0246262  33.1379866  37.8764723  51.3167761  33.0783146  38.7032057
  52.3787231  32.1372342  37.6290674  53.2228307  34.0203560  38.2880110
  52.8948784  34.9476003  38.5177173  53.6783524  33.6152393  39.0932939
  53.8790659  34.0754305  37.5222295  47.3021906  31.9427425  35.9578550
  47.5911189  30.8683927  36.5091061  46.3010352  32.6946699  36.3959043
  46.1132332  33.6067115  36.0047396  45.4562386  32.2242979  37.5173760
  46.0703854  32.1047582  38.4099191  44.3369803  33.2253143  37.8235491
  44.8892951  34.1075337  38.1471796  43.7747265  33.4605520  36.9198711
  43.3613873  32.7923173  38.9377802  42.8422869  31.8893627  38.6163639
  44.1315866  32.5046051  40.2859408  44.6505925  33.4072939  40.6082521
  43.4200000  32.2014141  41.0539385  44.8565712  31.7062251  40.1275518
  42.2587400  33.8331011  39.1113199  41.7070786  33.9379571  38.1770960
  41.5781767  33.5140014  39.9006931  42.7023244  34.7917393  39.3802897
  44.8592508  30.8463054  37.1757380  44.8491351  29.9457222  38.0326800
  44.3216612  30.7076681  35.9754518  44.2544815  31.4793334  35.3272861
  43.7261175  29.4250209  35.5924715  42.9386919  29.2045736  36.3132094
  43.1081383  29.5036582  34.2074361  43.8858254  29.7148565  33.4734756
  42.6311035  28.5534440  33.9673718  42.3633161  30.2991948  34.1859704
  44.7539804  28.2675332  35.6594801  44.4416807  27.1756717  36.1999469
  45.9575957  28.5154832  35.1264662  46.1135705  29.3909635  34.6476077
  47.0442396  27.5023141  35.1137255  46.7112301  26.5880351  34.6225048
  48.2639549  28.0674987  34.3360977  48.5151660  29.0387405  34.7623400
  49.5137195  27.1223875  34.4165920  49.2633988  26.1510329  33.9900837
  50.3392795  27.5623998  33.8571825  49.8079619  26.9961980  35.4585124
  47.8508273  28.2098119  32.9663979  48.5790768  28.5585037  32.4471030
  47.4028860  27.0558869  36.5208082  47.4385650  25.8352740  36.8156594
  47.6308042  28.0401658  37.3959500  47.5649059  28.9989380  37.0852851
  48.0398521  27.7887196  38.7555340  48.8824372  27.1057844  38.8639276
  48.3765774  29.1130694  39.4927853  47.5791100  29.8267470  39.2858812
  48.5117499  28.9148552  41.0459220  49.3093906  28.2016072  41.2536419
  48.7476325  29.8698499  41.5154376  47.5721114  28.5354331  41.4474440
  49.6020410  29.7677969  38.8698120  49.4042618  29.9855150  37.8202481
  49.8264854  30.6952225  39.3966955  50.4538707  29.0920030  38.9459008
  46.9548845  27.0125324  39.4932871  47.2606238  25.9542428  40.1249774
  45.7000003  27.4788612  39.4179202  45.5050299  28.3468584  38.9397290
  44.5983506  26.8109952  40.1275623  44.9286024  26.7246060  41.1627289
  43.3092403  27.6393645  40.0922370  42.9611549  27.7270141  39.0630362
  42.5442892  27.1478075  40.6933375  43.5042200  28.6332056  40.4951786
  44.3438859  25.3711927  39.6047379  44.1000307  24.4392171  40.3971786
  44.4200163  25.2059285  38.2885051  44.5329088  26.0110884  37.6892788
  44.2052905  23.8902821  37.6584563  43.2915316  23.4438919  38.0507314
  44.0723180  24.0217334  36.1387393  44.8439852  24.6937888  35.7632788
  44.1895286  23.0410704  35.6775866  42.6901737  24.5870084  35.7923013
  41.9505984  23.8198201  36.0215422  42.5491637  25.4376604  36.4590895
  42.5262771  25.0234616  34.4027131  43.4998240  24.8724019  33.6320275
  41.4224611  25.4980036  34.0392213  45.3188958  22.9018764  38.0927871
  45.0433147  21.7461523  38.4514316  46.5538854  23.3659941  38.1274924
  46.7891982  24.2731883  37.7510273  47.6326963  22.5254743  38.6291143
  47.5980205  21.5824408  38.0836012  48.9588296  23.1732172  38.3806578
  49.0122044  24.1144762  38.9277251  49.7561111  22.5113251  38.7188017
  49.0753672  23.3662721  37.3142395  47.4452254  22.1896752  40.1227728
  47.6535367  21.0368435  40.5389740  47.0679573  23.1793850  40.9374415
  47.0476911  24.1360451  40.6141923  46.7660879  22.9163899  42.3432561
  47.6232372  22.4242257  42.8027869  46.4658511  24.1916354  43.1161447
  45.7452227  24.7760277  42.5440611  46.0285109  23.9146443  44.0753680
  47.6965093  25.0069344  43.3470945  48.3757037  24.4492022  43.9918663
  48.1804091  25.1979630  42.3892578  47.2924545  26.5793776  44.1310003
  46.8124571  26.1043092  45.8051975  47.6462188  25.5997309  46.2933994
  46.5444482  26.9950214  46.3734436  45.9564741  25.4309260  45.7610430
  45.6235968  21.9322952  42.5189456  45.6891526  21.0933941  43.4242004
  44.6182145  22.0071019  41.6426697  44.6217127  22.7549272  40.9638145
  43.4607400  21.1177654  41.6870679  43.0656619  21.1853324  42.7006986
  42.3726652  21.5667282  40.7066524  42.7503104  21.4959557  39.6866154
  41.4980634  20.9253074  40.8150557  42.0943134  22.5988305  40.9196887
  43.8408565  19.6397484  41.4389202  43.2621181  18.7481302  42.0661625
  44.7813001  19.3960802  40.5302026  45.1351190  20.1589150  39.9707434
  45.2868353  18.0187204  40.2502544  44.4220012  17.3609874  40.1633722
  46.0570448  17.9950454  38.9213019  45.4099372  18.3503106  38.1193433
  46.9311019  18.6420239  38.9957542  46.5048672  16.5690381  38.6186752
  47.1524294  16.2132272  39.4200258  45.6312657  15.9215135  38.5436121
  47.2694651  16.5455351  37.2994093  46.6223590  16.9008019  36.4974504
  48.1435226  17.1925124  37.3738635  47.7208282  15.1745164  36.9723310
  47.4950309  14.4270945  37.6130147  48.4101998  14.8817185  35.8732693
  48.7450176  15.8111456  34.9827848  48.4735679  16.7721501  35.1340645
  49.2691869  15.5516757  34.1593641  48.7655891  13.6150363  35.6780371
  48.5097315  12.9116877  36.3562242  49.2896971  13.3622888  34.8524898
  46.1770848  17.4706488  41.3915165  46.2716763  16.2476552  41.6001145
  46.8336124  18.3789396  42.1208714  46.6933054  19.3516569  41.8879889
  47.8659544  18.0408415  43.1166452  48.3964290  17.1362132  42.8194187
  48.8861899  19.2024953  43.2175697  49.7837765  18.9241000  42.6653617
  48.4380669  20.0847651  42.7605294  49.2850115  19.5464280  44.6624848
  49.7023801  18.6793644  45.4291623  49.1583208  20.8345295  45.0286813
  49.4059989  21.1164770  45.9663705  48.8160923  21.5139151  44.3642902
  47.3185283  17.6045139  44.4833225  46.2186580  18.0026725  44.8939489
  47.9277201  16.7842115  45.1662785  52.5281438  45.2154434  33.9390734
  52.5556315  46.2136850  35.1239177  52.4587338  45.4421865  36.4470227
  51.0708377  44.8022583  36.6425049  49.8996356  45.8049077  36.4741454
  48.5045527  45.1974356  36.6116280  48.2605567  44.1248202  37.4885933
  46.9785635  43.5925747  37.6500901  45.9190090  44.1400936  36.9419139
  44.6519048  43.6518571  37.0634166  46.1229745  45.2131152  36.0864983
  47.4071762  45.7618801  35.9245237  47.5609876  46.9166161  34.9647035
  48.9025288  47.6348216  35.0679083  50.0354479  46.6104113  35.1462128
  51.4200667  47.2599919  35.1039530  51.7788971  48.1558061  33.9234414
  53.3194672  48.1892146  33.9221591  53.7817131  47.1340223  34.9490203
  54.1073049  47.7897139  36.1707746  44.6682220  42.9115918  37.6917246
  54.8628061  48.3759915  35.9962507  51.6316114  44.5892977  33.9292614
  52.5766919  45.7123410  32.9653502  53.3901343  44.5398379  33.9958424
  53.2322415  44.6657295  36.4965961  52.6410010  46.1114260  37.2968045
  50.9438419  43.9602721  35.9504845  51.0572992  44.3699351  37.6498357
  49.9821345  46.5197367  37.3066972  49.0646074  43.6861308  38.0722586
  46.8313391  42.7612368  38.3314066  45.2760108  45.6265568  35.5449879
  47.4429960  46.5249437  33.9458828  46.7592154  47.6465965  35.1302814
  49.0192089  48.2912012  34.1989016  48.9154551  48.2786418  35.9576214
  49.9254282  45.9307600  34.2913422  51.5032723  47.8912977  36.0030585
  51.4036959  47.7457930  32.9777632  51.3619673  49.1624017  34.0335721
  53.6828178  47.9384415  32.9194032  53.6839764  49.1919666  34.1712261
  54.6730042  46.5960610  34.6113523  38.9488506  61.7096652  35.3160571
  32.5339118  58.7417001  26.7968345  44.1890004  15.3997543  46.2498290
  53.3082611  48.8321453  52.4303892  21.5084626  28.7722716  40.6468248
   6.2198447  67.1706303  35.8473570   8.4642631  40.1490150  60.7761861
  70.8356355  32.6503349  59.6720197  64.6377313  32.5574020  54.9592633
  19.7082085  50.7388280  76.7093129  60.8857471  22.1742711   8.3375495
  54.9177682  75.8427092  55.8362620  58.9001771  33.8955319  21.8242734
  38.3004998  44.8401328  -0.5660425  60.6200133  33.5722631  44.6198715
  21.7508107  10.0934907  28.8063219  27.4725533  14.9787424  27.2477822
   6.8593052  13.5872159  30.2800426  11.7703232  43.7782344  48.9152109
  19.3285549  44.8321200  36.2162803  62.2126513  69.0530878  46.2004416
  68.2164266  70.6547095  48.6858117  36.9910354   4.8810404  55.6324289
  47.1137239  23.1433888   4.3014941  42.5624717  26.4105999   6.4914038
  27.3413563  54.4106131  80.5899150  24.6283108  31.6427732  61.7518070
  60.0856726  12.7151773  59.4132187  29.1040068  44.6473552  73.9409900
  65.5172509  32.2833154  24.6165618  12.4783074  37.1575639  12.3260045
  23.7554474  36.4535073  53.6442309  44.2373656  73.5712157  47.1204637
  61.2770380  32.0923630  35.4522321  37.9974961   9.3148135  46.3325604
  11.2457414  64.0772888  15.1933987  39.0296797  63.9293111  27.0026026
  39.9207265  36.7648531  70.0249565  30.4805624  42.9464850  60.7563109
  21.1940502  71.4227969  55.8732179  21.4301098  50.8721534  35.3741161
   4.7432406  33.2969757  56.8503293  34.2821419  52.2878064   0.8333217
  36.3114379  48.8038793  16.6625039  63.9199948  17.5963907  65.0531024
  34.2620398  19.1282860  55.4811079  50.4439230   8.7331236  70.6632875
  28.8874577  67.8443485  16.9405833  15.9385067  48.0339034  11.8727490
  30.3087273  35.9265034   8.4975419  64.8739165  33.9118222  72.6417722
  21.7022996  19.8452142  66.5417484  34.8713879  67.8788572  65.1369137
  30.8560694  78.2380497  46.8066184  48.8731057   9.8769272  28.8959381
  20.8891326  48.3606100  42.8072226  13.9153188  53.0419931  30.4703305
  41.1973240  14.6578592  23.7235622  12.5589071  21.0928607  27.2387763
  37.2081817   1.7832081  33.6286037   4.7818464  18.4769136  48.4491173
  44.7171999  38.3040570  85.7212789  44.1883471  38.5200204  86.3810095
  45.2397019  38.9976709  85.6413758  44.7160452  38.4383707  85.8068388
  36.6071607  42.2003787  84.5220257  36.0228822  42.7053819  84.9286121
  36.2041702  41.9746174  83.7816849  36.4610911  42.2412035  84.4725282
  41.0648821  38.4469439  82.9989177  41.3044825  38.6547423  82.1864520
  41.3864662  37.6426948  83.1078122  41.1485979  38.3583540  82.8949730
  34.2758203  36.0607327  82.0549301  33.5616381  35.7745506  82.4671734
  34.7602172  36.4003952  82.6955689  34.2417567  36.0688976  82.2104936
  41.4505521  44.5637281  82.4311110  41.8656670  44.2322304  81.7395605
  40.6197451  44.3306183  82.3031246  41.3893530  44.4808537  82.3101957
  44.1438911  40.8147840  81.6172311  44.0619074  40.8850027  82.4827298
  44.7818632  41.3777584  81.4256052  44.2258749  40.9086811  81.7162260
  41.2479022  40.8368294  84.6280917  42.0619660  41.1283187  84.5163689
  41.1838163  40.1828157  84.0539210  41.3581761  40.7833489  84.5269755
  37.7589745  39.5292102  84.0928119  38.1434898  39.3099808  84.8444664
  37.5101365  40.3555047  84.2229195  37.7791818  39.6190248  84.2229195
  42.6855044  44.0530094  79.9696723  43.4528029  44.1130219  79.5602574
  42.2386353  43.4810536  79.4853041  42.7328471  43.9766670  79.8374433
  38.7329644  40.3248861  81.4333833  39.0222169  41.1013743  81.7077407
  38.8201443  39.8137592  82.1348332  38.7883901  40.3640779  81.5776331
  43.5261263  35.7182124  85.6887520  42.9984282  35.8010868  84.9993229
  43.9856971  36.4599995  85.6852164  43.5163114  35.8402786  85.5862215
  35.5194328  33.9884643  80.7128415  35.1707133  34.6404369  81.1759964
  35.0390774  33.9741756  79.9852286  35.3964572  34.0827697  80.6739506
  35.9218459  37.4810285  83.5547036  36.5563539  38.0770710  83.4896498
  36.0044070  37.1813742  84.3692906  36.0275010  37.5251193  83.6650123
  40.5608553  35.3532384  85.0283142  39.9673393  35.6749380  84.4767709
  40.5983831  34.5073479  84.8204248  40.4782943  35.2756712  84.9165913
  38.5337786  35.9929635  83.1212472  38.9136751  36.0109264  82.3363587
  37.7930382  36.4383623  83.0003319  38.4806623  36.0611409  82.9876040
  39.3322540  42.8307141  84.5121262  38.5233862  42.5073814  84.4654572
  39.8397449  42.1240363  84.4449511  39.2872207  42.6788457  84.4951556
  47.9358510  15.3173961  74.5722501  47.9052514  16.1718598  74.7440770
  48.5339859  15.0169254  75.1308644  48.0195668  15.3990458  74.6797303
  35.5199335  23.9412330  75.0912663  34.7682234  23.5627868  74.8628708
  35.9685346  23.9730764  74.3431473  35.4749001  23.8897937  74.9470165
  40.9724294  24.3637699  70.5198210  40.6375663  25.0414621  70.0842432
  41.4851165  23.9743011  69.9315082  40.9989875  24.4062278  70.3685001
  40.5128586  26.3151968  76.4609321  40.8967965  26.8838867  75.9214097
  40.4487727  25.5901478  75.9815138  40.5602013  26.2927432  76.3103184
  45.7575084  17.8926263  72.8440811  45.6414610  18.6433949  73.2732949
  46.5530971  17.6350216  73.0936898  45.8579674  17.9661110  72.9444902
  36.9384830  28.8708311  78.7590291  37.5822286  29.3121475  79.1486450
  37.2641086  28.0661737  78.6720550  37.0816659  28.8173506  78.8035769
  37.6405410  21.8820286  74.1310153  37.9621251  22.4225493  73.5271461
  38.2877506  21.3117058  74.2632443  37.7831465  21.8779461  74.0617188
  39.8795053  20.2706726  74.2024331  40.3188689  19.6623827  74.6479104
  39.7299716  19.8914099  73.4309796  39.9216519  20.1245197  74.1543499
  43.4804390  18.6233907  71.1555100  43.3955685  19.4794874  71.3004669
  43.9688773  18.3478231  71.8237260  43.5393287  18.7091229  71.2757182
  44.4122823  15.2418702  72.6552836  43.8834295  15.4578335  73.3150142
  44.9347843  15.9354840  72.5753805  44.4111276  15.3761838  72.7408435
  49.8670876  20.8165006  78.0285880  49.0368579  21.0275650  78.1919297
  49.8180128  19.9902061  77.7528164  49.7377612  20.7254612  78.0123246
  36.3022431  19.1381918  71.4560304  35.7179646  19.6431950  71.8626167
  35.8992526  18.9124305  70.7156896  36.1561735  19.1790167  71.4065329
  40.7599645  15.3847570  69.9329224  40.9995649  15.5925554  69.1204567
  41.0815486  14.5805079  70.0418169  40.8436803  15.2961672  69.8289777
  47.1235191  21.4864360  78.1650596  46.6870423  21.4901103  78.9209567
  46.7898107  22.1669859  77.7330173  47.0097811  21.5876816  78.2131428
  50.2579538  18.2045280  77.0570233  50.9195972  17.6435949  76.9566142
  49.6170950  17.7097311  77.3822924  50.2608405  18.0481689  77.0902573
  41.1456345  21.5015412  69.3651156  41.5607494  21.1700436  68.6735652
  40.3148275  21.2684314  69.2371293  41.0844354  21.4186668  69.2442004
  46.5444368  19.2210663  76.7982222  46.7799957  19.3655862  75.9709073
  46.6933932  19.9853071  77.1913736  46.6010172  19.3549717  76.7345826
  48.3734825  18.0612329  74.6351826  48.7043042  18.5939969  74.0291921
  48.9467913  18.1151216  75.2913777  48.5068504  18.1481898  74.6429607
  43.8389735  17.7525971  68.5512358  43.7569898  17.8228158  69.4167345
  44.4769456  18.3155715  68.3596098  43.9209573  17.8464942  68.6502307
  40.9429846  17.7746425  71.5620964  41.7570484  18.0661318  71.4503736
  40.8788987  17.1206288  70.9879257  41.0532585  17.7211620  71.4609802
  37.4540569  16.4670233  71.0268166  37.8385722  16.2477939  71.7784711
  37.2052189  17.2933178  71.1569242  37.4742641  16.5568379  71.1569242
  37.7363812  24.6875109  73.1000536  38.0262110  24.2964090  72.3759763
  38.4667292  24.8691814  73.5405811  37.8870696  24.6568922  73.0583343
  35.6769727  26.6642491  76.1660686  35.4570023  26.3739846  76.9587353
  35.4564249  26.0057446  75.6378598  35.6117321  26.5242199  76.2049594
  37.8437683  28.0371881  74.9491378  38.4961741  27.5048323  75.1782404
  37.1463292  27.6840533  75.3359252  37.8368401  27.9061404  75.0403546
  45.8377601  20.3576295  74.2922357  46.4035634  21.0169505  74.2080900
  45.1905505  20.7025993  74.7638760  45.8256358  20.5058236  74.3495114
  42.3084179  23.3015079  73.7159437  42.0670855  22.5682940  73.3086502
  42.4885512  23.8501936  73.0625770  42.2991803  23.2737470  73.5589660
  47.0340299  20.4082523  71.0847994  46.6547108  19.6219661  71.0777283
  46.3706544  20.9569380  70.9419638  46.8798774  20.3727347  71.0628791
  39.8587207  23.9596042  74.9236820  40.6237098  23.6905685  74.6019484
  39.7565297  23.4746052  75.6406883  39.9568703  23.8485606  74.9816648
  42.3805868  20.9908225  66.9036769  43.1478853  21.0508350  66.4942621
  41.9337177  20.4188667  66.4193088  42.4279295  20.9144801  66.7714480
  45.2800398  22.6528014  71.4199680  45.3620235  23.4595000  71.0961131
  45.7650140  22.6723973  72.1440453  45.3637556  22.7748676  71.4786578
  40.9158491  17.2022785  74.3891093  41.4574036  16.6993166  74.8529714
  41.2305050  17.1487979  73.5780579  41.0422888  17.1202206  74.3374905
  39.0844940  22.5940136  71.6731121  39.1537761  21.7354675  71.8124122
  39.8633396  22.8112017  71.3450146  39.2097791  22.4993000  71.6448279
  43.4752428  25.0177837  75.8867615  43.0832220  24.7144553  75.1690481
  43.6305500  25.8546927  75.6972569  43.4406018  25.0961674  75.7524112
  43.6392103  21.5827826  75.8273645  43.2806758  21.7542469  76.6037678
  43.1530814  22.0441032  75.2701644  43.5150800  21.6766797  75.8598914
  38.4280468  17.2626992  68.3673880  38.7172993  18.0391874  68.6417454
  38.5152267  16.7515723  69.0688379  38.4834724  17.3018910  68.5116378
  44.2442733  24.4213330  79.3197649  44.0462422  24.9104145  78.6253860
  43.6230444  24.6254572  79.8981783  44.1230298  24.5229868  79.3020872
  43.2212087  12.6560255  72.6227567  42.6935106  12.7388999  71.9333275
  43.6807795  13.3978126  72.6192211  43.2113938  12.7780917  72.5202262
  35.2145152  10.9262774  67.6468462  34.8657957  11.5782500  68.1100011
  34.7341598  10.9119888  66.9192333  35.0915396  11.0205828  67.6079553
  42.7749170  21.2263818  71.7537224  43.4983369  21.6921931  71.6101797
  42.3349761  21.2937428  71.0034821  42.8164862  21.3047655  71.6222005
  43.0353019  25.2884523  71.9135285  42.3182329  25.1145386  71.4482522
  43.6859757  25.0537096  71.3810771  43.0254870  25.2280316  71.7664503
  38.3166181  26.5246282  78.3425433  37.9026580  25.8620412  77.9529274
  39.0013555  26.6724141  77.8221127  38.3564553  26.4486940  78.2081930
  41.6831475  25.6836367  79.0949049  41.2847759  25.7938638  78.3269870
  41.0682695  25.8918434  79.6775609  41.5330365  25.7309935  79.0680349
  49.4173318  20.2588334  72.4792140  49.8006924  21.0079690  72.7090237
  48.6217431  20.5054154  72.2204129  49.3567100  20.4058028  72.4749713
  38.2288610  12.9307766  70.0552519  38.6087574  12.9487395  69.2703634
  37.4881206  13.3761755  69.9343366  38.1757447  12.9989540  69.9216087
  39.0273364  19.7685272  71.4461309  38.2184686  19.4451946  71.3994618
  39.5348273  19.0618494  71.3789558  38.9823030  19.6166588  71.4291603
  58.9091094  30.8359269  74.5722501  58.8785098  31.6903906  74.7440770
  59.5072442  30.5354562  75.1308644  58.9928251  30.9175766  74.6797303
  52.1090778  29.9234920  79.3275431  51.2528674  30.0843418  79.3784548
  52.1558432  29.0526984  79.3480492  51.9889890  29.8185722  79.3381497
  46.4931918  39.4597638  75.0912663  45.7414818  39.0813176  74.8628708
  46.9417930  39.4916072  74.3431473  46.4481585  39.4083245  74.9470165
  51.9456878  39.8823007  70.5198210  51.6108246  40.5599929  70.0842432
  52.4583748  39.4928319  69.9315082  51.9722459  39.9247586  70.3685001
  51.4861169  41.8337276  76.4609321  51.8700549  42.4024175  75.9214097
  51.4220310  41.1086786  75.9815138  51.5334596  41.8112740  76.3103184
  54.9542599  31.9826964  81.9707083  55.4998559  32.6612051  82.0301053
  54.8959476  31.8414425  81.1108664  55.0258514  32.0618966  81.8519143
  48.0716674  39.4716030  77.3575435  48.1727037  38.6616384  77.6672563
  47.4758420  39.3772976  76.7275114  47.9989213  39.3381058  77.3101674
  56.7307668  33.4111571  72.8440811  56.6147194  34.1619257  73.2732949
  57.5263555  33.1535524  73.0936898  56.8312257  33.4846418  72.9444902
  47.9117414  44.3893619  78.7590291  48.5554869  44.8306783  79.1486450
  48.2373669  43.5847045  78.6720550  48.0549243  44.3358814  78.8035769
  41.2681719  35.4936317  76.9827769  41.0331903  34.6603969  76.8760038
  41.4067359  35.7740982  76.1688970  41.2537381  35.4119820  76.8470124
  43.5671806  27.6622047  79.8812077  42.9476838  27.0714694  79.7122091
  43.4655670  28.2533482  79.2476400  43.4609482  27.6626130  79.7617066
  48.6137994  37.4005594  74.1310153  48.9353835  37.9410801  73.5271461
  49.2610090  36.8302365  74.2632443  48.7564049  37.3964769  74.0617188
  50.6639702  29.4021589  74.2144540  51.3619866  29.5809717  74.7066003
  50.9792034  28.8791928  73.5914929  50.8135039  29.3515361  74.1946550
  43.2940939  31.2074329  82.1255646  43.1699636  31.7936774  82.7605464
  43.9459224  30.7134525  82.4267921  43.3714588  31.2213133  82.2641575
  50.8527637  35.7892034  74.2024331  51.2921272  35.1809135  74.6479104
  50.7032300  35.4099407  73.4309796  50.8949103  35.6430505  74.1543499
  48.3199280  34.3836046  81.4043157  48.9648283  33.8908489  81.0854105
  48.5601057  34.5260832  82.2309235  48.4509865  34.3313488  81.4792690
  50.8585371  37.2290952  81.0550049  51.1408614  36.4342357  80.8336805
  51.5871532  37.7071539  81.0755110  51.0074935  37.1825549  81.0253064
  48.8366565  24.7713986  78.2965814  48.5069895  25.2225129  77.6269513
  48.1611567  24.6930149  78.8438821  48.6877002  24.8265121  78.2789038
  54.4536974  34.1419215  71.1555100  54.3688269  34.9980182  71.3004669
  54.9421357  33.8663539  71.8237260  54.5125871  34.2276537  71.2757182
  56.0442973  20.7599509  76.5415425  55.7296414  21.4502987  76.9735847
  55.5269915  20.7044291  75.8400926  55.9207443  20.8534397  76.5012374
  55.3855407  30.7604010  72.6552836  54.8566878  30.9763643  73.3150142
  55.9080427  31.4540148  72.5753805  55.3843860  30.8947146  72.7408435
  60.8403460  36.3350314  78.0285880  60.0101163  36.5460958  78.1919297
  60.7912712  35.5087369  77.7528164  60.7110195  36.2439920  78.0123246
  47.2755015  34.6567226  71.4560304  46.6912230  35.1617258  71.8626167
  46.8725110  34.4309613  70.7156896  47.1294318  34.6975475  71.4065329
  42.8299043  40.3721987  78.2583975  42.3466621  41.0972477  78.2343559
  43.6422361  40.6698117  78.3694133  42.8789791  40.5224341  78.2711254
  48.9013197  39.1654168  80.8633790  48.3840139  38.8061583  80.2595098
  49.5987589  38.6416343  80.8739856  48.9278778  39.0351856  80.7764048
  51.7332229  30.9032878  69.9329224  51.9728233  31.1110862  69.1204567
  52.0548070  30.0990387  70.0418169  51.8169387  30.8146980  69.8289777
  47.0422519  22.8326274  73.7788762  47.7968487  23.2004591  73.5405812
  46.8650054  23.2065828  74.5467942  47.1276998  22.9424462  73.8573651
  45.6843240  40.8878163  78.4104255  46.3863820  40.3730152  78.4677012
  45.6040724  41.2152315  79.2151130  45.7767001  40.8592390  78.5377047
  45.3979584  25.2396593  70.4766875  45.2155157  25.4568474  69.6507868
  46.2605197  25.3535606  70.5325490  45.4984173  25.2886491  70.3621362
  45.0094016  37.0784515  77.9189863  45.8482915  37.3107448  77.9663625
  45.0405785  36.2088827  77.8496898  45.1375733  36.9841462  77.9154508
  45.6346719  37.4985391  82.2203169  46.1744944  37.3556522  82.8906541
  44.9516665  37.8982141  82.5887195  45.6138873  37.5365061  82.3737590
  51.0779303  22.2423004  73.5115899  51.8065464  22.0638959  73.0654055
  51.1674196  23.0841084  73.7223077  51.1985965  22.3406882  73.4769417
  55.0587604  33.1776391  77.4148193  55.8145119  33.6107905  77.4537102
  55.1649928  32.5281161  77.9882829  55.1857774  33.1453875  77.5046218
  58.0967775  37.0049668  78.1650596  57.6603007  37.0086411  78.9209567
  57.7630690  37.6855167  77.7330173  57.9830395  37.1062124  78.2131428
  41.0383864  33.7185681  82.3737590  40.7722279  32.9024798  82.5328580
  41.0522428  33.7638837  81.5033106  41.0008586  33.6042586  82.2691072
  44.9441611  28.5170766  68.9889348  44.2299788  28.2308945  69.4011781
  45.4285580  28.8567392  69.6295736  44.9100974  28.5252415  69.1444983
  61.2312121  33.7230588  77.0570233  61.8928555  33.1621257  76.9566142
  60.5903533  33.2282619  77.3822924  61.2340989  33.5666997  77.0902573
  52.1188929  37.0200720  69.3651156  52.5340077  36.6885744  68.6735652
  51.2880858  36.7869622  69.2371293  52.0576938  36.9371976  69.2442004
  41.4477278  34.5044461  79.6549334  41.2652851  34.4791347  78.8021627
  42.1826947  34.9743399  79.6938243  41.5291342  34.5705823  79.5347253
  57.5176952  34.7395971  76.7982222  57.7532541  34.8841170  75.9709073
  57.6666515  35.5038379  77.1913736  57.5742755  34.8735025  76.7345826
  59.3467409  33.5797637  74.6351826  59.6775626  34.1125277  74.0291921
  59.9200497  33.6336524  75.2913777  59.4801088  33.6667205  74.6429607
  54.5599298  31.4262539  75.3175406  54.6546152  32.1651833  75.7715031
  53.9358141  30.9980015  75.7509970  54.4808328  31.4723860  75.4483553
  41.4148188  31.3837961  79.8048401  41.9921691  31.2474412  80.4440646
  40.7162250  30.9273746  80.0593985  41.3969209  31.2960228  79.9370691
  54.8122319  33.2711279  68.5512358  54.7302482  33.3413466  69.4167345
  55.4502039  33.8341023  68.3596098  54.8942156  33.3650250  68.6502307
  48.1715490  33.0372017  78.0186884  47.9134734  32.2043752  77.9918184
  48.2263973  33.2629630  77.1779384  48.1415268  32.9469788  77.8907021
  53.2516540  25.1400468  78.1190977  52.5472867  24.6509653  78.2774896
  53.3001515  25.1522942  77.2479421  53.1546592  25.0690116  78.0130317
  47.1450202  30.5909780  78.5051779  46.5699794  30.7501948  79.1415740
  46.7685879  29.9545189  78.0420229  47.0053015  30.5207592  78.5306337
  50.8123491  29.0633129  83.3644157  50.4237924  28.6387347  82.7096349
  50.1478189  29.3115278  83.8721184  50.6570419  29.0371850  83.3432025
  60.4546760  28.8208133  76.1391987  60.1983325  28.0088075  75.9489870
  61.2976074  28.8285701  75.9122175  60.5412785  28.7020131  76.0776804
  36.8907021  30.2349854  76.5196219  36.9767273  29.8581723  77.3009749
  37.5182819  29.8610300  76.0416178  36.9963572  30.1235336  76.5641697
  51.9162429  33.2931733  71.5620964  52.7303068  33.5846626  71.4503736
  51.8521570  32.6391596  70.9879257  52.0265168  33.2396928  71.4609802
  47.7870337  36.7653251  76.6893276  48.4244284  36.5264998  77.2345070
  48.2125409  36.9690410  75.9546437  47.9446504  36.7604261  76.6610434
  42.4782980  39.0041587  80.5727580  42.5187125  39.2756438  79.7447360
  43.0377504  39.5283495  80.9885368  42.5666326  39.1217342  80.5119468
  48.4273152  31.9855541  71.0268166  48.8118305  31.7663247  71.7784711
  48.1784773  32.8118486  71.1569242  48.4475225  32.0753687  71.1569242
  50.1691809  37.2425673  78.3687063  50.2430818  37.0800845  79.2228913
  50.9861316  37.4315863  78.1247544  50.3008168  37.2462416  78.4585088
  43.9297566  37.5883536  75.3981506  43.1035684  37.8345273  75.2715785
  43.9909557  37.5095617  76.2643564  43.8171733  37.6128485  75.5070451
  46.1473590  23.6552477  76.3576946  45.2796015  23.7275077  76.4234556
  46.4348794  24.4574556  76.5464921  46.0613338  23.7846624  76.3951713
  48.7096395  40.2060417  73.1000536  48.9994694  39.8149398  72.3759763
  49.4399876  40.3877121  73.5405811  48.8603279  40.1754230  73.0583343
  49.2991140  35.0078162  84.1853666  48.8002834  35.7193930  84.2638555
  50.1091365  35.3278829  84.1471829  49.3447247  35.1605011  84.1910235
  46.6502311  42.1827799  76.1660686  46.4302606  41.8925154  76.9587353
  46.4296833  41.5242754  75.6378598  46.5849905  42.0427507  76.2049594
  45.5619258  34.2701115  78.4316387  45.2732507  33.6438587  78.9662115
  46.4302606  34.2121403  78.4981068  45.6479510  34.1688660  78.5207342
  56.3497156  29.4135899  78.7498369  56.0061922  28.6926234  79.1005619
  56.4490198  29.2049750  77.9076728  56.3139199  29.2760102  78.6770049
  48.8170266  43.5557189  74.9491378  49.4694324  43.0233631  75.1782404
  48.1195875  43.2025841  75.3359252  48.8100984  43.4246712  75.0403546
  45.7651531  35.9096367  74.3558752  46.5197499  36.2909406  74.5694215
  45.1722144  36.3607510  74.8105449  45.7888245  36.0325194  74.4541631
  56.8110185  35.8761603  74.2922357  57.3768217  36.5354813  74.2080900
  56.1638088  36.2211301  74.7638760  56.7988941  36.0243544  74.3495114
  47.0849758  37.0804928  79.7298868  46.5630511  37.2205220  80.4150733
  47.4723778  36.3215592  79.9200985  47.0653459  36.9890452  79.8599944
  44.0740942  27.1310737  73.7993823  43.7865738  26.7612007  73.0625770
  44.7611410  27.6005592  73.5377527  44.1329839  27.1457706  73.6508898
  53.2816763  38.8200387  73.7159437  53.0403439  38.0868248  73.3086502
  53.4618096  39.3687244  73.0625770  53.2724387  38.7922778  73.5589660
  48.5116083  34.1108947  75.1280359  48.3158866  34.7183681  74.5340662
  48.7350429  33.4176891  74.6472033  48.5150725  34.0986472  74.9696440
  46.9094614  30.9963685  75.2461227  47.6317265  31.1604843  74.7865033
  46.4302606  31.7173350  75.1400567  46.9458344  31.1261914  75.1626841
  54.8688121  27.3327484  80.6257912  54.0299222  27.3588762  80.3896175
  54.9392488  27.9798219  81.2063259  54.7556515  27.4323609  80.6767029
  44.5602230  33.4021757  84.3515367  45.0723327  33.6806010  83.7024127
  44.2738573  34.1411051  84.7178180  44.5937093  33.5524111  84.3105245
  53.3157399  24.2312861  75.3585528  54.0183752  24.0320609  74.8805486
  53.0501588  23.4588803  75.6654372  53.3804032  24.0875827  75.3330970
  58.7445645  32.5395470  77.9119154  58.6579619  32.6950896  78.7653933
  58.2896125  33.1833546  77.5378559  58.6648902  32.6571225  77.9826261
  41.6469137  27.9091949  74.6479104  41.7485273  28.7118110  74.9760079
  42.4425023  27.7079285  74.3502184  41.7797042  27.9977848  74.6514459
  52.6171461  29.8606217  76.5344713  52.3706175  29.7801968  77.3681502
  52.9456584  29.0759685  76.3407241  52.6292705  29.7332483  76.6292237
  56.5119510  36.5689577  80.3231495  56.3733869  37.2670623  80.8280237
  55.7319508  36.4138233  79.9667676  56.3762737  36.6489743  80.3457769
  48.5768488  32.5962936  85.9467697  48.7211864  33.1764144  85.3110807
  48.9244137  32.9739233  86.6517551  48.6495950  32.7383640  85.9566691
  50.7488406  31.7953104  83.7292828  50.0011720  31.9884119  83.3241106
  50.9029931  30.9698324  83.4916949  50.6610833  31.7018216  83.6338234
  47.6496243  40.7865708  82.8128723  47.7985807  40.2268624  82.1602128
  48.4296245  40.8657710  83.1961242  47.7870337  40.7151273  82.7725672
  58.0072883  35.9267831  71.0847994  57.6279691  35.1404969  71.0777283
  57.3439128  36.4754688  70.9419638  57.8531357  35.8912655  71.0628791
  50.8319791  39.4781350  74.9236820  51.5969682  39.2090993  74.6019484
  50.7297881  38.9931360  75.6406883  50.9301286  39.3670914  74.9816648
  48.8672561  27.6805759  81.4630056  48.0768635  27.4997219  81.7847392
  49.2633183  26.9032712  81.4460350  48.8089437  27.5393220  81.5082604
  53.3538451  36.5093533  66.9036769  54.1211436  36.5693658  66.4942621
  52.9069760  35.9373975  66.4193088  53.4011879  36.4330109  66.7714480
  54.2516247  35.3148189  79.1889502  53.5761249  35.0833421  79.6902889
  54.2608623  34.7069372  78.5631607  54.1534751  35.1907114  79.1705654
  51.3810391  30.1566018  85.9453555  51.3169532  31.0175975  85.8173691
  51.5207579  29.8398011  85.1449106  51.3925861  30.2366185  85.8081768
  56.2532981  38.1713322  71.4199680  56.3352819  38.9780308  71.0961131
  56.7382724  38.1909281  72.1440453  56.3370139  38.2933984  71.4786578
  50.0629485  32.8498158  80.0869758  49.6391734  33.0502657  79.3508776
  49.8874340  32.0027006  80.1994058  49.9740365  32.7546939  79.9943448
  45.3511930  33.3450209  75.5197730  45.5076549  33.2797012  76.3753722
  45.6912523  34.1198762  75.3076410  45.4245165  33.4499407  75.6152324
  51.8891074  32.7208093  74.3891093  52.4306620  32.2178474  74.8529714
  52.2037633  32.6673287  73.5780579  52.0155471  32.6387513  74.3374905
  50.0577524  38.1125444  71.6731121  50.1270344  37.2539983  71.8124122
  50.8365979  38.3297325  71.3450146  50.1830374  38.0178308  71.6448279
  53.0380344  27.6144397  84.4413394  53.2522313  26.9755311  83.8876748
  52.4214243  28.0590221  84.0121256  52.9785673  27.5854541  84.2963825
  54.4485012  40.5363145  75.8867615  54.0564803  40.2329861  75.1690481
  54.6038084  41.3732235  75.6972569  54.4138601  40.6146982  75.7524112
  41.9246191  30.5285159  75.8358497  42.3045156  30.9469704  75.1718765
  41.3501556  31.1098615  76.1427341  41.8957516  30.6763018  75.7835238
  54.6124686  37.1013134  75.8273645  54.2539341  37.2727777  76.6037678
  54.1263397  37.5626340  75.2701644  54.4883383  37.1952105  75.8598914
  52.4295072  20.7244333  79.4300737  51.5588630  20.6983054  79.3834046
  52.6835414  20.5521525  78.6126582  52.3388632  20.6954476  79.3020873
  49.4013052  32.7812300  68.3673880  49.6905577  33.5577182  68.6417454
  49.4884851  32.2701031  69.0688379  49.4567308  32.8204218  68.5116378
  49.4544213  22.7350561  80.8874207  48.9382701  22.0430753  81.0125786
  48.8938142  23.4021338  80.8336806  49.2950726  22.7313819  80.8980273
  57.4986426  29.8406176  81.3406762  57.0714034  29.7532525  80.5854861
  56.8612479  29.9483952  81.9261606  57.3416033  29.8438836  81.3152203
  45.5676993  32.0945564  80.4673992  44.7264999  31.9949438  80.6752886
  45.7767001  32.8641044  80.8188312  45.4741685  32.1937608  80.5501307
  43.0452560  29.7165101  78.2958742  42.6509257  29.7908113  77.5208852
  42.4892677  30.1023048  78.8467104  42.9055372  29.7846876  78.2626402
  54.6817506  22.6946395  77.9762621  54.8867100  22.6268703  78.8219619
  54.3543930  23.5005216  77.9083799  54.6632754  22.8032336  78.0922276
  49.3793658  30.0226963  79.7171589  49.0756795  29.4682952  80.3181997
  48.6773078  30.2019173  79.2299624  49.2309867  29.9671746  79.7341295
  48.4359755  27.3327483  74.2816291  48.7119489  26.6146396  73.8693859
  49.0358424  27.9312403  74.0737397  48.5653019  27.3147854  74.1897052
  47.4412009  37.2376684  84.4243687  47.3332364  37.2478746  85.2905745
  47.6507790  38.0631465  84.2348641  47.4562120  37.3617759  84.5247779
  57.9351194  23.2478159  77.4565387  57.3225508  23.7348562  77.8419119
  58.0315369  22.5721650  78.0003038  57.8589092  23.2196468  77.5944245
  51.9370275  25.0041001  72.5562886  52.3914022  25.1751561  73.2810731
  52.4110321  24.3909111  72.1560662  52.0738595  24.9391886  72.6036648
  45.4585801  34.4889327  81.8865625  44.8673734  35.1298825  81.8568640
  46.2206824  34.9126944  81.8596924  45.4834061  34.6465165  81.8780772
  55.2175317  39.9398638  79.3197649  55.0195006  40.4289453  78.6253860
  54.5963028  40.1439880  79.8981783  55.0962881  40.0415176  79.3020872
  49.2783295  31.7083535  73.6607893  50.0225340  32.0957811  73.8990843
  49.4243991  30.8640960  73.8248381  49.4093880  31.6414008  73.7201863
  51.1962871  23.5033794  78.6939755  50.3498916  23.6756602  78.5681105
  51.1934003  22.6983138  79.0305583  51.0710021  23.4094823  78.7250882
  52.2661171  27.2809008  79.5601813  51.7921125  26.7550770  80.0707124
  52.6379307  26.7338481  78.9916674  52.2511060  27.1225005  79.5516960
  58.5297902  32.3411384  80.9708593  58.2896125  31.5017799  80.9751020
  59.0089909  32.4211551  81.6949367  58.5650085  32.2292784  81.0783396
  54.1944671  28.1745563  72.6227567  53.6667689  28.2574307  71.9333275
  54.6540379  28.9163434  72.6192211  54.1846521  28.2966225  72.5202262
  60.5303089  29.1212841  78.9237852  60.2912859  29.0808675  78.0858637
  60.6936990  29.9683993  79.0503573  60.5193392  29.2404926  78.8191334
  46.0035987  28.1022964  81.5895777  45.3789057  28.1141356  80.9821729
  45.6681582  28.5783139  82.2387017  45.8621479  28.1741481  81.5952345
  46.1877736  26.4448082  67.6468462  45.8390540  27.0967808  68.1100011
  45.7074182  26.4305195  66.9192333  46.0647980  26.5391136  67.6079553
  42.7161663  36.1623424  83.0299541  42.1861587  35.4715863  83.0794516
  42.9886756  36.1533609  82.2012250  42.6786385  36.0590556  82.9146957
  53.7481753  36.7449126  71.7537224  54.4715952  37.2107239  71.6101797
  53.3082344  36.8122736  71.0034821  53.7897445  36.8232963  71.6222005
  52.9167908  33.6046669  83.0037913  52.3024901  33.0604719  83.2986548
  53.4335193  33.0910905  82.5243729  52.9023571  33.4483078  82.9762141
  52.1564205  34.6750939  80.7382211  51.7291814  34.0500657  80.3047647
  52.1489150  34.3925861  81.5641218  52.0923347  34.5403719  80.7962039
  50.4849915  25.5519693  80.9524745  50.5092402  25.0179806  80.2637525
  50.7361389  25.0437002  81.6150336  50.5259834  25.3980597  80.9489390
  37.9957505  32.8351188  80.3867889  37.8900954  32.7898033  79.5219973
  37.2457725  33.1804969  80.6682174  37.8693108  32.8792096  80.3005219
  46.7651237  24.2790511  80.3330490  46.8049609  24.7799718  81.0465197
  45.9400902  24.3700905  80.0636413  46.6490763  24.3672328  80.3981028
  48.1865601  30.7951021  82.6304389  47.3557530  30.9624839  82.4239637
  48.1317118  30.4186972  83.4153274  48.0555016  30.7640753  82.7152917
  46.5601645  29.0706613  73.1594506  46.7004606  29.5679077  73.8623148
  47.0584177  28.3692907  73.3008720  46.6542726  29.0408592  73.2846085
  46.5901867  29.9373724  70.4887083  47.2246946  30.5334149  70.4236545
  46.6727478  29.6377181  71.3032953  46.6958418  29.9814632  70.5990170
  48.1680850  25.8687699  70.4632525  48.4896691  25.3890782  69.8091787
  48.4307794  26.6787345  70.2723337  48.2546875  25.9177597  70.3388017
  53.5640005  25.2559893  82.8256004  53.9895076  24.8032420  82.2139531
  52.9496998  24.7019964  83.1020792  53.5368650  25.1073869  82.7761029
  43.0954855  32.1341565  73.7576629  43.6047084  32.7306072  74.1387935
  43.5689127  31.8667538  73.0753049  43.2398231  32.1827380  73.7131152
  54.0085603  40.8069831  71.9135285  53.2914913  40.6330694  71.4482522
  54.6592341  40.5722404  71.3810771  53.9987453  40.7465624  71.7664503
  52.0034228  21.7274993  76.2346581  51.3602546  21.5772639  76.8031720
  51.6633635  21.4817338  75.4695686  51.8579305  21.6687115  76.2049596
  56.5933574  29.6834420  75.6576590  55.9224764  30.2264122  75.5289655
  57.2873324  30.1529275  75.4158285  56.5962442  29.8332691  75.6032118
  50.6420308  41.8231132  80.8888348  50.4185962  41.0649961  81.2572374
  50.1530151  41.8529153  80.1668788  50.5363757  41.7153356  80.8365089
  56.7561702  26.1390303  78.5666963  57.1089312  25.7120026  79.2412762
  55.8976503  26.0541147  78.6968039  56.6811146  26.0635044  78.6861973
  45.4545387  28.7697823  76.6249810  44.7357376  29.1861956  76.8922673
  45.8257749  29.3352062  76.0741448  45.4037318  28.9147105  76.5832616
  54.7544967  29.4025672  82.5151805  54.7342895  29.2208967  83.3686584
  54.8024168  30.2737691  82.4911389  54.7579608  29.5042210  82.6375100
  49.2898765  42.0431590  78.3425433  48.8759163  41.3805720  77.9529274
  49.9746139  42.1909449  77.8221127  49.3297137  41.9672248  78.2081930
  52.6564059  41.2021675  79.0949049  52.2580342  41.3123946  78.3269870
  52.0415279  41.4103742  79.6775609  52.5062948  41.2495243  79.0680349
  51.2291961  27.8095823  71.9623189  50.6356800  28.1312820  71.4107756
  51.2667239  26.9636918  71.7544295  51.1466350  27.7320151  71.8505960
  54.1049778  27.7675328  75.3924939  53.8763471  27.7908029  74.5503297
  54.3647854  26.9432795  75.5119950  54.1095966  27.6491407  75.2850137
  47.1594540  26.3051874  76.6879135  47.6351906  26.6668954  76.0529316
  46.6583140  26.9608341  76.9679278  47.1559899  26.4546063  76.6355876
  60.3905902  35.7773642  72.4792140  60.7739507  36.5264998  72.7090237
  59.5950015  36.0239462  72.2204129  60.3299684  35.9243336  72.4749713
  49.2021193  28.4493074  70.0552519  49.5820158  28.4672703  69.2703634
  48.4613789  28.8947062  69.9343366  49.1490031  28.5174848  69.9216087
  56.8306484  26.7575265  75.6428098  56.8300710  26.6023921  76.5012374
  56.6262664  27.6038252  75.5869483  56.8006262  26.8595886  75.7616037
  38.8923755  30.1815049  80.0586914  38.7145516  29.7291658  80.7841830
  38.6042777  30.9841211  80.2425392  38.8236708  30.2337607  80.1930417
  54.5547336  31.4372767  79.2964304  55.0501001  30.7195762  79.2568325
  53.7447112  31.1343564  79.1818791  54.5091229  31.2870413  79.2738030
  50.0005947  35.2870580  71.4461309  49.1917270  34.9637253  71.3994618
  50.5080856  34.5803802  71.3789558  49.9555614  35.1351896  71.4291603
  40.6296225  32.7142773  77.1708673  39.7641744  32.7028463  77.0591444
  40.7295040  32.5272996  78.0179812  40.5170392  32.6848834  77.2797618
  56.6199155  34.1876454  81.9841433  57.0454226  33.6650876  81.4311858
  56.2556074  34.7857292  81.4630056  56.6285757  34.1986681  81.8250443
  46.2553234  42.4840672  80.7438779  46.5699793  43.2977060  80.7516560
  46.6646648  42.0990890  81.4120938  46.3621332  42.5469374  80.8442870
  53.2077754  37.9010718  78.3142591  53.6788932  38.6150981  78.4832576
  53.5437933  37.3009469  78.8502460  53.3272869  37.9182183  78.4174967
  49.1940364  24.6754602  72.7380150  50.0156058  24.8452915  72.4961845
  48.7310015  24.8301863  72.0146448  49.2471526  24.7236335  72.5951795
  43.5966255  36.4313780  80.3917387  44.2011112  36.3909614  79.7631208
  43.3893567  37.2784932  80.4221443  43.6555152  36.5501783  80.3033504
  53.4110027  38.6979725  81.6079624  54.2308401  38.5542691  81.8695920
  53.1304104  39.3225924  82.1496062  53.4906770  38.7690077  81.7267564
  38.8317537  35.4148398  80.2616310  38.7341815  34.6044669  80.5706367
  39.6146407  35.3940191  79.8762578  38.9333673  35.2915488  80.2503173
  61.6372285  44.9206897  74.2144540  62.3352450  45.0995024  74.7066003
  61.9524618  44.3977236  73.5914929  61.7867622  44.8700669  74.1946550
  59.8099149  40.2899294  78.2965814  59.4802479  40.7410437  77.6269513
  59.1344151  40.2115457  78.8438821  59.6609585  40.3450429  78.2789038
  67.0175557  36.2784816  76.5415425  66.7028998  36.9688295  76.9735847
  66.5002498  36.2229599  75.8400926  66.8940027  36.3719705  76.5012374
  58.2487598  50.1752534  71.4560304  57.6644813  50.6802566  71.8626167
  57.8457693  49.9494921  70.7156896  58.1026902  50.2160783  71.4065329
  62.7064813  46.4218186  69.9329224  62.9460816  46.6296170  69.1204567
  63.0280654  45.6175695  70.0418169  62.7901970  46.3332288  69.8289777
  58.0155103  38.3511582  73.7788762  58.7701071  38.7189899  73.5405812
  57.8382637  38.7251136  74.5467942  58.1009581  38.4609770  73.8573651
  56.3712167  40.7581901  70.4766875  56.1887741  40.9753782  69.6507868
  57.2337781  40.8720914  70.5325490  56.4716757  40.8071799  70.3621362
  62.0511887  37.7608312  73.5115899  62.7798047  37.5824267  73.0654055
  62.1406780  38.6026391  73.7223077  62.1718549  37.8592190  73.4769417
  55.9174195  44.0356074  68.9889348  55.2032372  43.7494253  69.4011781
  56.4018163  44.3752699  69.6295736  55.8833558  44.0437723  69.1444983
  63.0921512  52.5386028  69.3651156  63.5072661  52.2071051  68.6735652
  62.2613442  52.3054930  69.2371293  63.0309521  52.4557284  69.2442004
  65.7854903  48.7896587  68.5512358  65.7035065  48.8598774  69.4167345
  66.4234623  49.3526331  68.3596098  65.8674740  48.8835558  68.6502307
  47.8639605  45.7535162  76.5196219  47.9499857  45.3767031  77.3009749
  48.4915402  45.3795608  76.0416178  47.9696156  45.6420644  76.5641697
  62.8895013  48.8117041  71.5620964  63.7035652  49.1031934  71.4503736
  62.8254154  48.1576904  70.9879257  62.9997752  48.7582236  71.4609802
  59.4005736  47.5040849  71.0268166  59.7850889  47.2848555  71.7784711
  59.1517356  48.3303794  71.1569242  59.4207809  47.5938995  71.1569242
  57.1206173  39.1737785  76.3576946  56.2528599  39.2460385  76.4234556
  57.4081378  39.9759864  76.5464921  57.0345922  39.3031932  76.3951713
  55.0473526  42.6496045  73.7993823  54.7598321  42.2797315  73.0625770
  55.7343994  43.1190900  73.5377527  55.1062423  42.6643014  73.6508898
  57.8827197  46.5148993  75.2461227  58.6049849  46.6790151  74.7865033
  57.4035190  47.2358658  75.1400567  57.9190928  46.6447222  75.1626841
  64.2889983  39.7498169  75.3585528  64.9916336  39.5505917  74.8805486
  64.0234172  38.9774111  75.6654372  64.3536615  39.6061135  75.3330970
  52.6201720  43.4277257  74.6479104  52.7217857  44.2303418  74.9760079
  53.4157607  43.2264593  74.3502184  52.7529626  43.5163156  74.6514459
  64.3271035  52.0278841  66.9036769  65.0944020  52.0878966  66.4942621
  63.8802344  51.4559283  66.4193088  64.3744462  51.9515417  66.7714480
  52.8978775  46.0470467  75.8358497  53.2777740  46.4655012  75.1718765
  52.3234140  46.6283923  76.1427341  52.8690100  46.1948326  75.7835238
  63.4027656  36.2429641  79.4300737  62.5321214  36.2168362  79.3834046
  63.6567997  36.0706833  78.6126582  63.3121216  36.2139784  79.3020873
  60.3745635  48.2997608  68.3673880  60.6638160  49.0762490  68.6417454
  60.4617434  47.7886339  69.0688379  60.4299892  48.3389526  68.5116378
  59.4092338  42.8512791  74.2816291  59.6852073  42.1331704  73.8693859
  60.0091008  43.4497711  74.0737397  59.5385603  42.8333162  74.1897052
  62.9102859  40.5226309  72.5562886  63.3646605  40.6936869  73.2810731
  63.3842905  39.9094419  72.1560662  63.0471179  40.4577194  72.6036648
  60.2515879  47.2268843  73.6607893  60.9957924  47.6143119  73.8990843
  60.3976575  46.3826268  73.8248381  60.3826464  47.1599316  73.7201863
  62.1695454  39.0219102  78.6939755  61.3231499  39.1941910  78.5681105
  62.1666587  38.2168445  79.0305583  62.0442604  38.9280131  78.7250882
  65.1677254  43.6930871  72.6227567  64.6400273  43.7759615  71.9333275
  65.6272962  44.4348742  72.6192211  65.1579105  43.8151533  72.5202262
  57.1610319  41.9633390  67.6468462  56.8123124  42.6153116  68.1100011
  56.6806765  41.9490503  66.9192333  57.0380563  42.0576444  67.6079553
  57.5334228  44.5891921  73.1594506  57.6737189  45.0864385  73.8623148
  58.0316761  43.8878215  73.3008720  57.6275309  44.5593900  73.2846085
  57.5634451  45.4559032  70.4887083  58.1979530  46.0519457  70.4236545
  57.6460061  45.1562489  71.3032953  57.6691002  45.4999940  70.5990170
  59.1413433  41.3873007  70.4632525  59.4629274  40.9076090  69.8091787
  59.4040377  42.1972653  70.2723337  59.2279459  41.4362905  70.3388017
  54.0687438  47.6526873  73.7576629  54.5779668  48.2491380  74.1387935
  54.5421711  47.3852846  73.0753049  54.2130814  47.7012688  73.7131152
  62.9766811  37.2460301  76.2346581  62.3335129  37.0957947  76.8031720
  62.6366218  37.0002646  75.4695686  62.8311889  37.1872423  76.2049596
  56.4277970  44.2883131  76.6249810  55.7089959  44.7047264  76.8922673
  56.7990332  44.8537370  76.0741448  56.3769902  44.4332413  76.5832616
  62.2024545  43.3281131  71.9623189  61.6089384  43.6498127  71.4107756
  62.2399822  42.4822226  71.7544295  62.1198934  43.2505459  71.8505960
  58.1327124  41.8237182  76.6879135  58.6084490  42.1854262  76.0529316
  57.6315723  42.4793649  76.9679278  58.1292483  41.9731371  76.6355876
  60.1753777  43.9678382  70.0552519  60.5552742  43.9858011  69.2703634
  59.4346373  44.4132370  69.9343366  60.1222615  44.0360156  69.9216087
  60.9738531  50.8055888  71.4461309  60.1649854  50.4822561  71.3994618
  61.4813440  50.0989110  71.3789558  60.9288198  50.6537204  71.4291603
  60.1672947  40.1939910  72.7380150  60.9888642  40.3638223  72.4961845
  59.7042598  40.3487171  72.0146448  60.2204110  40.2421643  72.5951795
  35.2150158   0.8790461  62.0252710  34.4633058   0.5005999  61.7968755
  35.6636170   0.9108895  61.2771520  35.1699825   0.8276068  61.8810212
  40.6675118   1.3015831  57.4538257  40.3326487   1.9792752  57.0182479
  41.1801989   0.9121142  56.8655128  40.6940699   1.3440409  57.3025048
  40.2079410   3.2530099  63.3949368  40.5918789   3.8216998  62.8554144
  40.1438551   2.5279610  62.9155184  40.2552837   3.2305563  63.2443231
  36.6335654   5.8086442  65.6930338  37.2773110   6.2499607  66.0826497
  36.9591910   5.0039869  65.6060597  36.7767483   5.7551637  65.7375815
  37.3356234  -1.1801583  61.0650200  37.6572075  -0.6396375  60.4611508
  37.9828330  -1.7504811  61.1972490  37.4782289  -1.1842408  60.9957235
  37.4314635   1.6253240  60.0340583  37.7212934   1.2342221  59.3099809
  38.1618116   1.8069945  60.4745858  37.5821520   1.5947054  59.9923390
  35.3720551   3.6020622  63.1000733  35.1520846   3.3117977  63.8927400
  35.1515073   2.9435577  62.5718645  35.3068145   3.4620331  63.1389641
  37.5388507   4.9750012  61.8831425  38.1912565   4.4426454  62.1122451
  36.8414116   4.6218664  62.2699299  37.5319225   4.8439535  61.9743593
  42.0035003   0.2393210  60.6499483  41.7621679  -0.4938929  60.2426548
  42.1836336   0.7880067  59.9965817  41.9942627   0.2115602  60.4929706
  39.5538031   0.8974173  61.8576867  40.3187922   0.6283817  61.5359531
  39.4516121   0.4124183  62.5746930  39.6519527   0.7863738  61.9156695
  38.7795764  -0.4681733  58.6071168  38.8488585  -1.3267194  58.7464169
  39.5584220  -0.2509852  58.2790193  38.9048614  -0.5628869  58.5788326
  43.1703252   1.9555969  62.8207662  42.7783044   1.6522684  62.1030528
  43.3256324   2.7925059  62.6312615  43.1356842   2.0339805  62.6864159
  43.9393557   1.3591461  66.2537696  43.7413246   1.8482276  65.5593907
  43.3181268   1.5632703  66.8321829  43.8181122   1.4608000  66.2360919
  42.7303843   2.2262655  58.8475331  42.0133153   2.0523517  58.3822569
  43.3810581   1.9915227  58.3150818  42.7205694   2.1658447  58.7004549
  38.0117005   3.4624413  65.2765480  37.5977404   2.7998543  64.8869321
  38.6964379   3.6102272  64.7561174  38.0515377   3.3865071  65.1421977
  41.3782299   2.6214498  66.0289096  40.9798583   2.7316769  65.2609916
  40.7633519   2.8296565  66.6115656  41.2281189   2.6688066  66.0020395
  58.6041917   7.7737400  61.5062548  58.5735922   8.6282037  61.6780817
  59.2023266   7.4732693  62.0648691  58.6879075   7.8553897  61.6137350
  51.8041602   6.8613051  66.2615478  50.9479498   7.0221549  66.3124595
  51.8509256   5.9905115  66.2820539  51.6840714   6.7563853  66.2721544
  46.1882742  16.3975769  62.0252710  45.4365642  16.0191307  61.7968755
  46.6368754  16.4294203  61.2771520  46.1432409  16.3461376  61.8810212
  51.6407702  16.8201139  57.4538257  51.3059070  17.4978060  57.0182479
  52.1534572  16.4306450  56.8655128  51.6673283  16.8625717  57.3025048
  51.1811993  18.7715407  63.3949368  51.5651373  19.3402306  62.8554144
  51.1171134  18.0464918  62.9155184  51.2285420  18.7490871  63.2443231
  54.6493423   8.9205095  68.9047130  55.1949383   9.5990182  68.9641099
  54.5910300   8.7792556  68.0448711  54.7209338   8.9997097  68.7859190
  47.7667498  16.4094161  64.2915482  47.8677861  15.5994515  64.6012610
  47.1709243  16.3151108  63.6615161  47.6940037  16.2759189  64.2441721
  56.4258492  10.3489702  59.7780857  56.3098018  11.0997388  60.2072996
  57.2214379  10.0913656  60.0276945  56.5263081  10.4224549  59.8784949
  47.6068238  21.3271750  65.6930338  48.2505693  21.7684914  66.0826497
  47.9324493  20.5225177  65.6060597  47.7500066  21.2736945  65.7375815
  40.9632542  12.4314448  63.9167816  40.7282727  11.5982100  63.8100085
  41.1018183  12.7119114  63.1029017  40.9488205  12.3497951  63.7810171
  43.2622630   4.6000178  66.8152123  42.6427662   4.0092826  66.6462138
  43.1606494   5.1911614  66.1816447  43.1560305   4.6004261  66.6957113
  48.3088818  14.3383725  61.0650200  48.6304659  14.8788933  60.4611508
  48.9560914  13.7680497  61.1972490  48.4514873  14.3342900  60.9957235
  50.3590526   6.3399720  61.1484587  51.0570690   6.5187848  61.6406050
  50.6742858   5.8170060  60.5254976  50.5085863   6.2893492  61.1286597
  42.9891763   8.1452460  69.0595692  42.8650460   8.7314906  69.6945511
  43.6410047   7.6512656  69.3607967  43.0665412   8.1591265  69.1981622
  50.5478461  12.7270165  61.1364378  50.9872096  12.1187266  61.5819151
  50.3983124  12.3477539  60.3649843  50.5899927  12.5808636  61.0883545
  48.0150104  11.3214177  68.3383204  48.6599106  10.8286620  68.0194152
  48.2551881  11.4638964  69.1649282  48.1460689  11.2691619  68.4132737
  50.5536195  14.1669083  67.9890096  50.8359438  13.3720489  67.7676852
  51.2822356  14.6449670  68.0095157  50.7025759  14.1203680  67.9593111
  48.5317389   1.7092117  65.2305861  48.2020719   2.1603260  64.5609560
  47.8562391   1.6308280  65.7778868  48.3827825   1.7643252  65.2129085
  54.1487798  11.0797347  58.0895147  54.0639093  11.9358313  58.2344716
  54.6372181  10.8041671  58.7577306  54.2076695  11.1654668  58.2097229
  55.0806231   7.6982141  59.5892882  54.5517702   7.9141774  60.2490189
  55.6031251   8.3918279  59.5093852  55.0794684   7.8325278  59.6748482
  60.5354284  13.2728445  64.9625927  59.7051987  13.4839089  65.1259343
  60.4863536  12.4465500  64.6868210  60.4061019  13.1818051  64.9463292
  46.9705839  11.5945357  58.3900350  46.3863054  12.0995389  58.7966214
  46.5675934  11.3687744  57.6496942  46.8245142  11.6353606  58.3405376
  42.5249867  17.3100119  65.1924022  42.0417445  18.0350608  65.1683606
  43.3373185  17.6076249  65.3034180  42.5740615  17.4602472  65.2051301
  48.5964021  16.1032299  67.7973836  48.0790963  15.7439714  67.1935144
  49.2938412  15.5794474  67.8079903  48.6229602  15.9729987  67.7104095
  52.2527613  16.5527113  73.7590009  52.3410959  16.3653254  74.6068220
  52.6817326  15.9064543  73.3594856  52.3289716  16.4290121  73.8261761
  49.8198073  15.8358273  72.7407672  49.2568908  15.4230883  73.2647333
  50.5819096  15.7611179  73.1600815  49.8492522  15.7635674  72.8800672
  51.4283053   7.8411010  56.8669271  51.6679057   8.0488993  56.0544614
  51.7498894   7.0368518  56.9758216  51.5120211   7.7525111  56.7629824
  45.3794064  17.8256295  65.3444302  46.0814644  17.3108284  65.4017058
  45.2991547  18.1530446  66.1491177  45.4717825  17.7970521  65.4717094
  45.0930408   2.1774724  57.4106922  44.9105981   2.3946605  56.5847915
  45.9556021   2.2913737  57.4665536  45.1934997   2.2264622  57.2961409
  44.7044840  14.0162646  64.8529910  45.5433739  14.2485579  64.9003671
  44.7356609  13.1466958  64.7836945  44.8326557  13.9219593  64.8494554
  45.3297543  14.4363522  69.1543215  45.8695768  14.2934653  69.8246588
  44.6467489  14.8360272  69.5227242  45.3089697  14.4743193  69.3077637
  54.7538428  10.1154522  64.3488240  55.5095943  10.5486037  64.3877148
  54.8600752   9.4659292  64.9222876  54.8808598  10.0832006  64.4386265
  57.7918599  13.9427800  65.0990643  57.3553831  13.9464542  65.8549614
  57.4581514  14.6233299  64.6670220  57.6781219  14.0440255  65.1471475
  52.3647672  15.9836132  76.4233793  53.1488089  16.0966980  76.7889535
  52.1644267  15.1577269  76.6192479  52.4513698  15.8782852  76.5068179
  40.7334688  10.6563812  69.3077637  40.4673103   9.8402929  69.4668627
  40.7473252  10.7016968  68.4373152  40.6959410  10.5420717  69.2031119
  44.6392435   5.4548897  55.9229395  43.9250612   5.1687076  56.3351827
  45.1236404   5.7945523  56.5635782  44.6051798   5.4630547  56.0785030
  52.5218066  17.8946234  70.0700249  51.7233312  17.6545735  70.3274117
  52.9704077  17.9460627  70.8167296  52.4692677  17.8668626  70.2185173
  60.9262945  10.6608719  63.9910280  61.5879379  10.0999388  63.8906188
  60.2854357  10.1660750  64.3162971  60.9291813  10.5045128  64.0242620
  51.8139753  13.9578851  56.2991203  52.2290901  13.6263875  55.6075699
  50.9831682  13.7247753  56.1711340  51.7527762  13.8750107  56.1782051
  41.1428102  11.4422592  66.5889381  40.9603675  11.4169478  65.7361673
  41.8777770  11.9121530  66.6278290  41.2242165  11.5083954  66.4687300
  57.2127776  11.6774102  63.7322269  57.4483365  11.8219301  62.9049119
  57.3617339  12.4416510  64.1253782  57.2693579  11.8113156  63.6685873
  59.0418232  10.5175768  61.5691872  59.3726450  11.0503408  60.9631967
  59.6151321  10.5714656  62.2253823  59.1751912  10.6045337  61.5769654
  54.2550122   8.3640671  62.2515453  54.3496976   9.1029965  62.7055078
  53.6308965   7.9358146  62.6850017  54.1759152   8.4101991  62.3823600
  52.5102595  11.5426883  72.9005733  53.0841457  10.9054127  73.0554297
  52.4317399  11.5430966  72.0315391  52.5835830  11.4491995  72.7952144
  41.1099012   8.3216093  66.7388448  41.6872515   8.1852543  67.3780693
  40.4113074   7.8651877  66.9934032  41.0920033   8.2338359  66.8710737
  54.5073143  10.2089410  55.4852405  54.4253305  10.2791597  56.3507392
  55.1452863  10.7719154  55.2936145  54.5892980  10.3028381  55.5842354
  47.8666314   9.9750148  64.9526931  47.6085558   9.1421883  64.9258230
  47.9214797  10.2007761  64.1119431  47.8366092   9.8847920  64.8247068
  46.8401026   7.5287911  65.4391826  46.2650617   7.6880079  66.0755787
  46.4636703   6.8923320  64.9760276  46.7003839   7.4585724  65.4646384
  50.5074315   6.0011260  70.2984204  50.1188748   5.5765478  69.6436395
  49.8429013   6.2493410  70.8061231  50.3521243   5.9749981  70.2772072
  36.5857845   7.1727985  63.4536266  36.6718097   6.7959854  64.2349796
  37.2133643   6.7988431  62.9756225  36.6914396   7.0613468  63.4981744
  51.6113253  10.2309865  58.4961011  52.4253892  10.5224757  58.3843782
  51.5472394   9.5769727  57.9219304  51.7215992  10.1775059  58.3949848
  47.4821161  13.7031382  63.6233323  48.1195108  13.4643130  64.1685117
  47.9076233  13.9068541  62.8886484  47.6397328  13.6982392  63.5950480
  42.1733804  15.9419719  67.5067627  42.2137949  16.2134570  66.6787407
  42.7328328  16.4661627  67.9225415  42.2617150  16.0595474  67.4459515
  48.1223976   8.9233672  57.9608213  48.5069129   8.7041379  58.7124758
  47.8735597   9.7496617  58.0909289  48.1426049   9.0131818  58.0909289
  58.8559164  12.6980309  68.9718881  58.5504981  13.4308366  69.3332197
  58.1365380  12.2918239  68.6911667  58.7046506  12.7462042  68.9832018
  49.8642633  14.1803805  65.3027109  49.9381642  14.0178977  66.1568959
  50.6812140  14.3693994  65.0587591  49.9958992  14.1840547  65.3925135
  43.6248390  14.5261667  62.3321553  42.7986508  14.7723405  62.2055832
  43.6860381  14.4473748  63.1983611  43.5122557  14.5506616  62.4410497
  45.8424414   0.5930608  63.2916993  44.9746839   0.6653208  63.3574602
  46.1299618   1.3952687  63.4804968  45.7564162   0.7224756  63.3291760
  48.4047219  17.1438548  60.0340583  48.6945517  16.7527529  59.3099809
  49.1350700  17.3255253  60.4745858  48.5554103  17.1132361  59.9923390
  48.9941964  11.9456294  71.1193713  48.4953658  12.6572061  71.1978602
  49.8042189  12.2656960  71.0811876  49.0398071  12.0983142  71.1250282
  46.3453135  19.1205930  63.1000733  46.1253430  18.8303285  63.8927400
  46.1247657  18.4620885  62.5718645  46.2800729  18.9805639  63.1389641
  45.2570082  11.2079247  65.3656434  44.9683330  10.5816718  65.9002162
  46.1253430  11.1499534  65.4321115  45.3430334  11.1066791  65.4547389
  56.0447980   6.3514030  65.6838416  55.7012745   5.6304365  66.0345666
  56.1441022   6.1427881  64.8416774  56.0090022   6.2138233  65.6110096
  48.5121090  20.4935320  61.8831425  49.1645148  19.9611762  62.1122451
  47.8146699  20.1403972  62.2699299  48.5051808  20.3624843  61.9743593
  45.4602355  12.8474498  61.2898799  46.2148323  13.2287537  61.5034262
  44.8672968  13.2985641  61.7445496  45.4839069  12.9703325  61.3881678
  56.5061009  12.8139734  61.2262404  57.0719041  13.4732944  61.1420947
  55.8588912  13.1589432  61.6978806  56.4939765  12.9621675  61.2835161
  46.7800582  14.0183059  66.6638915  46.2581335  14.1583351  67.3490779
  47.1674602  13.2593723  66.8541032  46.7604283  13.9268583  66.7939991
  43.7691766   4.0688868  60.7333869  43.4816562   3.6990138  59.9965817
  44.4562234   4.5383723  60.4717574  43.8280663   4.0835837  60.5848945
  52.9767587  15.7578518  60.6499483  52.7354263  15.0246379  60.2426548
  53.1568920  16.3065375  59.9965817  52.9675211  15.7300909  60.4929706
  48.2066907  11.0487078  62.0620406  48.0109690  11.6561813  61.4680709
  48.4301253  10.3555022  61.5812080  48.2101548  11.0364604  61.9036487
  46.6045437   7.9341816  62.1801274  47.3268089   8.0982974  61.7205080
  46.1253430   8.6551481  62.0740614  46.6409168   8.0640046  62.0966888
  54.5638945   4.2705615  67.5597959  53.7250046   4.2966894  67.3236222
  54.6343312   4.9176350  68.1403306  54.4507339   4.3701741  67.6107076
  44.2553054  10.3399888  71.2855414  44.7674151  10.6184142  70.6364174
  43.9689397  11.0789182  71.6518227  44.2887917  10.4902242  71.2445292
  58.4396469   9.4773602  64.8459201  58.3530443   9.6329028  65.6993980
  57.9846949  10.1211677  64.4718606  58.3599725   9.5949357  64.9166308
  41.3419960   4.8470080  61.5819150  41.4436097   5.6496242  61.9100126
  42.1375847   4.6457416  61.2842231  41.4747866   4.9355979  61.5854506
  52.3122285   6.7984349  63.4684760  52.0656999   6.7180100  64.3021549
  52.6407408   6.0137816  63.2747288  52.3243528   6.6710614  63.5632283
  56.2070334  13.5067708  67.2571542  56.0684693  14.2048754  67.7620284
  55.4270332  13.3516364  66.9007723  56.0713561  13.5867875  67.2797816
  48.2719312   9.5341067  72.8807743  48.4162688  10.1142275  72.2450853
  48.6194961   9.9117364  73.5857598  48.3446774   9.6761771  72.8906738
  47.3447067  17.7243839  69.7468770  47.4936631  17.1646755  69.0942175
  48.1247069  17.8035841  70.1301289  47.4821161  17.6529405  69.7065719
  57.7023707  12.8645962  58.0188041  57.3230515  12.0783100  58.0117330
  57.0389952  13.4132819  57.8759685  57.5482181  12.8290786  57.9968838
  49.8700368  17.8958482  71.0253261  49.7944039  17.2267293  71.5804049
  49.7990227  18.5976270  71.5393927  49.8480975  17.9003389  71.1830109
  50.5270615  16.4159481  61.8576867  51.2920506  16.1469125  61.5359531
  50.4248705  15.9309491  62.5746930  50.6252110  16.3049045  61.9156695
  48.5623384   4.6183890  68.3970103  47.7719459   4.4375350  68.7187438
  48.9584007   3.8410843  68.3800397  48.5040261   4.4771351  68.4422651
  53.0489275  13.4471665  53.8376816  53.8162260  13.5071790  53.4282668
  52.6020584  12.8752106  53.3533135  53.0962703  13.3708240  53.7054527
  53.9467071  12.2526320  66.1229549  53.2712073  12.0211553  66.6242936
  53.9559447  11.6447503  65.4971654  53.8485575  12.1285246  66.1045701
  51.0761215   7.0944149  72.8793602  51.0120356   7.9554106  72.7513738
  51.2158403   6.7776143  72.0789153  51.0876685   7.1744316  72.7421814
  55.9483805  15.1091453  58.3539727  56.0303643  15.9158439  58.0301177
  56.4333548  15.1287412  59.0780500  56.0320963  15.2312115  58.4126625
  49.7580309   9.7876289  67.0209804  49.3342558   9.9880788  66.2848823
  49.5825164   8.9405137  67.1334104  49.6691189   9.6925070  66.9283495
  49.2592002  21.3026802  69.4831262  49.7487932  20.6037591  69.3006926
  48.6876234  21.0050672  70.0707319  49.2476532  21.1553025  69.5432303
  45.0462754  10.2828340  62.4537777  45.2027373  10.2175143  63.3093769
  45.3863347  11.0576893  62.2416457  45.1195988  10.3877538  62.5492371
  51.5841898   9.6586224  61.3231140  52.1257444   9.1556605  61.7869761
  51.8988457   9.6051418  60.5120625  51.7106295   9.5765645  61.2714952
  49.7528348  15.0503575  58.6071168  49.8221168  14.1918114  58.7464169
  50.5316803  15.2675456  58.2790193  49.8781198  14.9556439  58.5788326
  52.7331168   4.5522528  71.3753441  52.9473137   3.9133442  70.8216795
  52.1165067   4.9968352  70.9461302  52.6736497   4.5232672  71.2303872
  54.1435836  17.4741277  62.8207662  53.7515627  17.1707992  62.1030528
  54.2988908  18.3110367  62.6312615  54.1089425  17.5525113  62.6864159
  41.6197015   7.4663291  62.7698544  41.9995980   7.8847836  62.1058812
  41.0452380   8.0476746  63.0767388  41.5908340   7.6141149  62.7175285
  54.3075510  14.0391265  62.7613692  53.9490165  14.2105908  63.5377725
  53.8214221  14.5004471  62.2041691  54.1834207  14.1330236  62.7938961
  49.0963876   9.7190431  55.3013927  49.3856401  10.4955313  55.5757501
  49.1835675   9.2079162  56.0028426  49.1518132   9.7582349  55.4456424
  55.4680250  14.9295161  73.7080893  56.1059970  14.4355357  73.3743349
  54.8254341  14.8572562  73.1233120  55.4674476  14.8454170  73.5723248
  57.1937250   6.7784307  68.2746809  56.7664858   6.6910656  67.5194908
  56.5563303   6.8862083  68.8601653  57.0366857   6.7816967  68.2492250
  55.5234506  15.6214970  70.3486250  56.3126884  15.2704034  70.4688331
  55.6978104  16.4351358  70.0862884  55.6654788  15.6900827  70.3274118
  45.2627817   9.0323695  67.4014039  44.4215823   8.9327570  67.6092932
  45.4717825   9.8019176  67.7528359  45.1692509   9.1315739  67.4841354
  42.7403384   6.6543232  65.2298789  42.3460081   6.7286244  64.4548899
  42.1843500   7.0401179  65.7807151  42.6006196   6.7225007  65.1966449
  49.0744482   6.9605095  66.6511636  48.7707619   6.4061083  67.2522044
  48.3723902   7.1397305  66.1639670  48.9260691   6.9049877  66.6681342
  48.1310579   4.2705614  61.2156338  48.4070313   3.5524527  60.8033906
  48.7309248   4.8690534  61.0077444  48.2603843   4.2525985  61.1237099
  47.1362833  14.1754815  71.3583734  47.0283187  14.1856877  72.2245792
  47.3458614  15.0009596  71.1688688  47.1512944  14.2995890  71.4587826
  45.1536625  11.4267458  68.8205672  44.5624558  12.0676956  68.7908687
  45.9157648  11.8505075  68.7936971  45.1784885  11.5843296  68.8120819
  54.9126141  16.8776769  66.2537696  54.7145829  17.3667584  65.5593907
  54.2913852  17.0818011  66.8321829  54.7913705  16.9793308  66.2360919
  48.9734119   8.6461666  60.5947940  49.7176164   9.0335942  60.8330890
  49.1194815   7.8019091  60.7588428  49.1044704   8.5792139  60.6541910
  51.9611995   4.2187139  66.4941860  51.4871949   3.6928901  67.0047171
  52.3330131   3.6716612  65.9256721  51.9461884   4.0603136  66.4857007
  58.2248726   9.2789515  67.9048640  57.9846948   8.4395930  67.9091067
  58.7040733   9.3589682  68.6289414  58.2600909   9.1670915  68.0123442
  53.8895495   5.1123694  59.5567613  53.3618513   5.1952438  58.8673322
  54.3491203   5.8541565  59.5532258  53.8797345   5.2344356  59.4542309
  60.2253913   6.0590972  65.8577899  59.9863683   6.0186806  65.0198684
  60.3887814   6.9062124  65.9843620  60.2144216   6.1783057  65.7531381
  56.8299943  10.4440922  71.7882944  57.5534142   9.9913448  71.6093964
  56.5649905  10.7245587  71.0055272  56.8981216  10.4191890  71.6461660
  45.6986811   5.0401095  68.5235824  45.0739881   5.0519487  67.9161776
  45.3632406   5.5161270  69.1727064  45.5572303   5.1119612  68.5292392
  45.8828560   3.3826214  54.5808509  45.5341364   4.0345939  55.0440058
  45.4025006   3.3683327  53.8532380  45.7598804   3.4769267  54.5419600
  42.4112487  13.1001555  69.9639588  41.8812411  12.4093994  70.0134563
  42.6837580  13.0911741  69.1352296  42.3737209  12.9968687  69.8487004
  53.4432577  13.6827258  58.6877270  54.1666776  14.1485371  58.5441844
  53.0033168  13.7500867  57.9374867  53.4848269  13.7611094  58.5562052
  52.6118732  10.5424800  69.9377959  51.9975725   9.9982850  70.2326595
  53.1286017  10.0289036  69.4583776  52.5974395  10.3861209  69.9102188
  51.8515029  11.6129070  67.6722258  51.4242637  10.9878788  67.2387693
  51.8439974  11.3303992  68.4981265  51.7874171  11.4781850  67.7302086
  37.6908329   9.7729319  67.3207936  37.5851778   9.7276164  66.4560020
  36.9408549  10.1183100  67.6022221  37.5643932   9.8170228  67.2345266
  46.4602061   1.2168643  67.2670536  46.5000433   1.7177849  67.9805244
  45.6351726   1.3079036  66.9976459  46.3441587   1.3050459  67.3321075
  47.8816425   7.7329152  69.5644435  47.0508354   7.9002970  69.3579683
  47.8267942   7.3565103  70.3493321  47.7505840   7.7018884  69.6492963
  46.2552469   6.0084744  60.0934553  46.3955430   6.5057208  60.7963194
  46.7535001   5.3071038  60.2348767  46.3493549   5.9786723  60.2186132
  46.2852691   6.8751855  57.4227130  46.9197770   7.4712280  57.3576592
  46.3678302   6.5755313  58.2373000  46.3909242   6.9192763  57.5330216
  47.8631674   2.8065830  57.3972572  48.1847515   2.3268913  56.7431834
  48.1258618   3.6165476  57.2063384  47.9497699   2.8555728  57.2728064
  51.0928647  13.8284705  70.9171388  50.5853738  14.3820552  71.3612018
  50.7955293  13.8892995  70.0990163  50.9733531  13.9191016  70.8619845
  42.7905679   9.0719696  60.6916676  43.2997908   9.6684203  61.0727981
  43.2639951   8.8045669  60.0093096  42.9349054   9.1205511  60.6471199
  53.7036427  17.7447962  58.8475331  52.9865737  17.5708825  58.3822569
  54.3543164  17.5100535  58.3150818  53.6938277  17.6843755  58.7004549
  56.2884398   6.6212551  62.5916637  55.6175588   7.1642253  62.4629702
  56.9824148   7.0907406  62.3498331  56.2913266   6.7710822  62.5372164
  50.3371132  18.7609263  67.8228395  50.1136786  18.0028092  68.1912421
  49.8480975  18.7907284  67.1008835  50.2314581  18.6531488  67.7705136
  45.1496211   5.7075954  63.5589856  44.4308200   6.1240087  63.8262720
  45.5208573   6.2730193  63.0081494  45.0988142   5.8525236  63.5172663
  54.4495791   6.3403803  69.4491852  54.4293719   6.1587098  70.3026631
  54.4974992   7.2115822  69.4251436  54.4530432   6.4420341  69.5715147
  52.3942121  12.9290995  75.3740329  52.3537976  12.2840672  74.7885484
  53.2065439  12.8727613  75.6865741  52.5085275  12.8249962  75.3337278
  48.9849589  18.9809721  65.2765480  48.5709987  18.3183851  64.8869321
  49.6696963  19.1287580  64.7561174  49.0247960  18.9050379  65.1421977
  52.3514883  18.1399806  66.0289096  51.9531166  18.2502077  65.2609916
  51.7366102  18.3481873  66.6115656  52.2013772  18.1873374  66.0020395
  50.9242785   4.7473954  58.8963236  50.3307624   5.0690951  58.3447803
  50.9618063   3.9015050  58.6884342  50.8417174   4.6698282  58.7846007
  53.8000601   4.7053459  62.3264986  53.5714294   4.7286160  61.4843344
  54.0598678   3.8810926  62.4459997  53.8046790   4.5869539  62.2190184
  46.8545364   3.2430005  63.6219182  47.3302730   3.6047085  62.9869363
  46.3533964   3.8986473  63.9019324  46.8510723   3.3924194  63.5695923
  48.8972017   5.3871205  56.9892566  49.2770982   5.4050834  56.2043680
  48.1564613   5.8325194  56.8683413  48.8440855   5.4552979  56.8556134
  38.5874579   7.1193180  66.9926961  38.4096340   6.6669789  67.7181876
  38.2993601   7.9219342  67.1765438  38.5187532   7.1715738  67.1270464
  54.2498160   8.3750898  66.2304351  54.7451825   7.6573893  66.1908371
  53.4397935   8.0721695  66.1158838  54.2042053   8.2248544  66.2078077
  49.6956771  12.2248711  58.3801356  48.8868094  11.9015385  58.3334665
  50.2031680  11.5181933  58.3129604  49.6506438  12.0730027  58.3631650
  40.3247048   9.6520904  64.1048720  39.4592568   9.6406595  63.9931491
  40.4245864   9.4651127  64.9519859  40.2121215   9.6226965  64.2137664
  56.3149979  11.1254585  68.9181480  56.7405050  10.6029007  68.3651905
  55.9506898  11.7235423  68.3970103  56.3236581  11.1364812  68.7590490
  45.9504058  19.4218803  67.6778825  46.2650617  20.2355191  67.6856607
  46.3597472  19.0369021  68.3460985  46.0572156  19.4847505  67.7782917
  52.9028578  14.8388850  65.2482637  53.3739756  15.5529112  65.4172623
  53.2388757  14.2387600  65.7842507  53.0223693  14.8560314  65.3515013
  53.5402524  14.6306784  72.0110330  52.9923470  14.0064667  71.7430395
  54.0015553  14.8201056  71.2954409  53.5269734  14.5665834  71.8660761
  43.2917079  13.3691911  67.3257434  43.8961936  13.3287745  66.6971255
  43.0844391  14.2163063  67.3561490  43.3505976  13.4879914  67.2373550
  53.1060851  15.6357856  68.5419671  53.9259224  15.4920822  68.8035966
  52.8254928  16.2604055  69.0836109  53.1857594  15.7068208  68.6607611
  38.5268361  12.3526529  67.1956357  38.4292639  11.5422800  67.5046414
  39.3097230  12.3318322  66.8102625  38.6284497  12.2293619  67.1843220
  69.5774501  23.2922708  61.5062548  69.5468505  24.1467345  61.6780817
  70.1755850  22.9918001  62.0648691  69.6611659  23.3739205  61.6137350
  62.7774186  22.3798359  66.2615478  61.9212081  22.5406857  66.3124595
  62.8241840  21.5090423  66.2820539  62.6573297  22.2749161  66.2721544
  57.1615326  31.9161077  62.0252710  56.4098225  31.5376615  61.7968755
  57.6101337  31.9479511  61.2771520  57.1164992  31.8646684  61.8810212
  62.6140285  32.3386447  57.4538257  62.2791654  33.0163368  57.0182479
  63.1267156  31.9491758  56.8655128  62.6405867  32.3811025  57.3025048
  62.1544577  34.2900715  63.3949368  62.5383956  34.8587614  62.8554144
  62.0903718  33.5650226  62.9155184  62.2018004  34.2676179  63.2443231
  65.6226007  24.4390403  68.9047130  66.1681967  25.1175490  68.9641099
  65.5642883  24.2977864  68.0448711  65.6941921  24.5182405  68.7859190
  58.7400082  31.9279469  64.2915482  58.8410445  31.1179823  64.6012610
  58.1441827  31.8336416  63.6615161  58.6672620  31.7944497  64.2441721
  67.3991076  25.8675010  59.7780857  67.2830601  26.6182696  60.2072996
  68.1946962  25.6098963  60.0276945  67.4995665  25.9409857  59.8784949
  58.5800821  36.8457058  65.6930338  59.2238277  37.2870222  66.0826497
  58.9057077  36.0410485  65.6060597  58.7232650  36.7922253  65.7375815
  51.9365126  27.9499756  63.9167816  51.7015310  27.1167408  63.8100085
  52.0750767  28.2304421  63.1029017  51.9220789  27.8683259  63.7810171
  54.2355214  20.1185486  66.8152123  53.6160245  19.5278134  66.6462138
  54.1339077  20.7096922  66.1816447  54.1292889  20.1189569  66.6957113
  59.2821401  29.8569033  61.0650200  59.6037242  30.3974241  60.4611508
  59.9293498  29.2865805  61.1972490  59.4247456  29.8528208  60.9957235
  61.3323109  21.8585028  61.1484587  62.0303274  22.0373156  61.6406050
  61.6475442  21.3355367  60.5254976  61.4818446  21.8078800  61.1286597
  53.9624347  23.6637768  69.0595692  53.8383043  24.2500214  69.6945511
  54.6142631  23.1697964  69.3607967  54.0397996  23.6776572  69.1981622
  61.5211045  28.2455473  61.1364378  61.9604680  27.6372574  61.5819151
  61.3715707  27.8662846  60.3649843  61.5632510  28.0993944  61.0883545
  58.9882688  26.8399485  68.3383204  59.6331690  26.3471928  68.0194152
  59.2284465  26.9824272  69.1649282  59.1193273  26.7876927  68.4132737
  61.5268779  29.6854391  67.9890096  61.8092022  28.8905797  67.7676852
  62.2554939  30.1634978  68.0095157  61.6758343  29.6388988  67.9593111
  59.5049973  17.2277425  65.2305861  59.1753303  17.6788568  64.5609560
  58.8294975  17.1493588  65.7778868  59.3560409  17.2828560  65.2129085
  65.1220381  26.5982654  58.0895147  65.0371676  27.4543621  58.2344716
  65.6104764  26.3226979  58.7577306  65.1809278  26.6839976  58.2097229
  66.7126380  13.2162948  63.4755472  66.3979821  13.9066426  63.9075894
  66.1953322  13.1607730  62.7740973  66.5890851  13.3097836  63.4352421
  66.0538814  23.2167449  59.5892882  65.5250286  23.4327082  60.2490189
  66.5763834  23.9103587  59.5093852  66.0527267  23.3510586  59.6748482
  71.5086867  28.7913753  64.9625927  70.6784570  29.0024397  65.1259343
  71.4596120  27.9650808  64.6868210  71.3793603  28.7003359  64.9463292
  57.9438422  27.1130665  58.3900350  57.3595637  27.6180697  58.7966214
  57.5408517  26.8873052  57.6496942  57.7977726  27.1538914  58.3405376
  53.4982451  32.8285427  65.1924022  53.0150029  33.5535916  65.1683606
  54.3105769  33.1261557  65.3034180  53.5473198  32.9787780  65.2051301
  59.5696605  31.6217607  67.7973836  59.0523546  31.2625022  67.1935144
  60.2670996  31.0979782  67.8079903  59.5962186  31.4915295  67.7104095
  63.2260197  32.0712421  73.7590009  63.3143543  31.8838562  74.6068220
  63.6549909  31.4249851  73.3594856  63.3022299  31.9475429  73.8261761
  60.7930657  31.3543581  72.7407672  60.2301491  30.9416191  73.2647333
  61.5551680  31.2796487  73.1600815  60.8225105  31.2820982  72.8800672
  62.4015637  23.3596317  56.8669271  62.6411640  23.5674301  56.0544614
  62.7231478  22.5553826  56.9758216  62.4852794  23.2710419  56.7629824
  57.7105927  15.2889713  60.7128809  58.4651895  15.6568030  60.4745859
  57.5333461  15.6629268  61.4807989  57.7960405  15.3987901  60.7913697
  56.3526648  33.3441602  65.3444302  57.0547227  32.8293592  65.4017058
  56.2724131  33.6715754  66.1491177  56.4450408  33.3155829  65.4717094
  57.4005555  23.5817189  74.4724717  57.5726058  23.4723084  75.3209998
  57.9374912  24.2271595  74.2355909  57.5050559  23.6609191  74.5629814
  56.0662991  17.6960032  57.4106922  55.8838565  17.9131913  56.5847915
  56.9288604  17.8099045  57.4665536  56.1667581  17.7449930  57.2961409
  55.6777423  29.5347954  64.8529910  56.5166323  29.7670887  64.9003671
  55.7089193  28.6652266  64.7836945  55.8059141  29.4404901  64.8494554
  56.3030126  29.9548830  69.1543215  56.8428351  29.8119961  69.8246588
  55.6200073  30.3545580  69.5227242  56.2822280  29.9928501  69.3077637
  61.7462711  14.6986443  60.4455946  62.4748871  14.5202398  59.9994102
  61.8357604  15.5404523  60.6563124  61.8669373  14.7970321  60.4109463
  65.7271011  25.6339830  64.3488240  66.4828526  26.0671345  64.3877148
  65.8333336  24.9844600  64.9222876  65.8541182  25.6017314  64.4386265
  68.7651182  29.4613108  65.0990643  68.3286414  29.4649850  65.8549614
  68.4314098  30.1418606  64.6670220  68.6513802  29.5625563  65.1471475
  63.3380256  31.5021440  76.4233793  64.1220673  31.6152288  76.7889535
  63.1376851  30.6762577  76.6192479  63.4246281  31.3968160  76.5068179
  51.7067271  26.1749120  69.3077637  51.4405687  25.3588237  69.4668627
  51.7205836  26.2202276  68.4373152  51.6691994  26.0606025  69.2031119
  55.6125018  20.9734205  55.9229395  54.8983196  20.6872384  56.3351827
  56.0968987  21.3130831  56.5635782  55.5784382  20.9815855  56.0785030
  56.4565878  19.7127499  71.9544645  55.7637675  19.2424478  72.2005376
  57.0726205  19.4865803  72.5286352  56.4450408  19.6094631  72.0753797
  63.4950649  33.4131542  70.0700249  62.6965895  33.1731042  70.3274117
  63.9436661  33.4645935  70.8167296  63.4425261  33.3853934  70.2185173
  71.8995529  26.1794027  63.9910280  72.5611963  25.6184696  63.8906188
  71.2586941  25.6846058  64.3162971  71.9024396  26.0230436  64.0242620
  62.7872336  29.4764159  56.2991203  63.2023485  29.1449183  55.6075699
  61.9564266  29.2433061  56.1711340  62.7260345  29.3935415  56.1782051
  52.1160685  26.9607900  66.5889381  51.9336258  26.9354786  65.7361673
  52.8510354  27.4306838  66.6278290  52.1974749  27.0269262  66.4687300
  68.1860359  27.1959410  63.7322269  68.4215949  27.3404609  62.9049119
  68.3349923  27.9601818  64.1253782  68.2426163  27.3298464  63.6685873
  55.1806437  23.6792903  73.0971490  55.9046409  23.6645933  73.5836385
  55.2822573  24.3888258  72.5993458  55.3024646  23.7817606  73.0950277
  70.0150816  26.0361076  61.5691872  70.3459033  26.5688716  60.9631967
  70.5883904  26.0899964  62.2253823  70.1484495  26.1230645  61.5769654
  65.2282705  23.8825978  62.2515453  65.3229560  24.6215273  62.7055078
  64.6041549  23.4543454  62.6850017  65.1491735  23.9287299  62.3823600
  63.4835179  27.0612191  72.9005733  64.0574041  26.4239435  73.0554297
  63.4049983  27.0616273  72.0315391  63.5568414  26.9677302  72.7952144
  52.0831595  23.8401401  66.7388448  52.6605098  23.7037851  67.3780693
  51.3845657  23.3837185  66.9934032  52.0652617  23.7523667  66.8710737
  65.4805727  25.7274718  55.4852405  65.3985889  25.7976905  56.3507392
  66.1185447  26.2904462  55.2936145  65.5625564  25.8213689  55.5842354
  58.8398898  25.4935456  64.9526931  58.5818142  24.6607191  64.9258230
  58.8947380  25.7193069  64.1119431  58.8098676  25.4033227  64.8247068
  57.8133610  23.0473219  65.4391826  57.2383201  23.2065387  66.0755787
  57.4369286  22.4108628  64.9760276  57.6736422  22.9771032  65.4646384
  61.4806898  21.5196568  70.2984204  61.0921331  21.0950786  69.6436395
  60.8161597  21.7678718  70.8061231  61.3253826  21.4935289  70.2772072
  71.1230168  21.2771573  63.0732034  70.8666732  20.4651514  62.8829917
  71.9659482  21.2849140  62.8462221  71.2096193  21.1583570  63.0116851
  47.5590429  22.6913293  63.4536266  47.6450681  22.3145162  64.2349796
  48.1866226  22.3173739  62.9756225  47.6646980  22.5798776  63.4981744
  62.5845837  25.7495173  58.4961011  63.3986476  26.0410065  58.3843782
  62.5204978  25.0955035  57.9219304  62.6948576  25.6960367  58.3949848
  58.4553745  29.2216690  63.6233323  59.0927692  28.9828437  64.1685117
  58.8808817  29.4253849  62.8886484  58.6129911  29.2167700  63.5950480
  53.1466387  31.4605026  67.5067627  53.1870533  31.7319878  66.6787407
  53.7060911  31.9846935  67.9225415  53.2349733  31.5780782  67.4459515
  59.0956560  24.4418980  57.9608213  59.4801713  24.2226686  58.7124758
  58.8468180  25.2681925  58.0909289  59.1158633  24.5317126  58.0909289
  69.8291748  28.2165617  68.9718881  69.5237565  28.9493674  69.3332197
  69.1097963  27.8103547  68.6911667  69.6779090  28.2647350  68.9832018
  60.8375217  29.6989113  65.3027109  60.9114225  29.5364284  66.1568959
  61.6544723  29.8879302  65.0587591  60.9691576  29.7025855  65.3925135
  54.5980974  30.0446975  62.3321553  53.7719091  30.2908713  62.2055832
  54.6592965  29.9659056  63.1983611  54.4855141  30.0691924  62.4410497
  56.8156997  16.1115916  63.2916993  55.9479423  16.1838516  63.3574602
  57.1032202  16.9137995  63.4804968  56.7296745  16.2410064  63.3291760
  59.3779803  32.6623856  60.0340583  59.6678101  32.2712837  59.3099809
  60.1083283  32.8440561  60.4745858  59.5286687  32.6317669  59.9923390
  59.9674548  27.4641602  71.1193713  59.4686241  28.1757369  71.1978602
  60.7774772  27.7842268  71.0811876  60.0130655  27.6168450  71.1250282
  57.3185718  34.6391238  63.1000733  57.0986014  34.3488593  63.8927400
  57.0980240  33.9806193  62.5718645  57.2533312  34.4990946  63.1389641
  56.2302665  26.7264555  65.3656434  55.9415914  26.1002026  65.9002162
  57.0986013  26.6684842  65.4321115  56.3162917  26.6252099  65.4547389
  67.0180563  21.8699338  65.6838416  66.6745329  21.1489673  66.0345666
  67.1173606  21.6613189  64.8416774  66.9822606  21.7323541  65.6110096
  59.4853674  36.0120628  61.8831425  60.1377732  35.4797070  62.1122451
  58.7879283  35.6589280  62.2699299  59.4784392  35.8810151  61.9743593
  56.4334939  28.3659806  61.2898799  57.1880907  28.7472845  61.5034262
  55.8405551  28.8170949  61.7445496  56.4571652  28.4888633  61.3881678
  67.4793592  28.3325042  61.2262404  68.0451625  28.9918252  61.1420947
  66.8321496  28.6774740  61.6978806  67.4672349  28.4806983  61.2835161
  58.8941606  20.3222646  76.4156012  58.0841382  20.6280426  76.3045854
  59.3716293  21.0428228  76.5308596  58.8445085  20.4737247  76.4163083
  57.7533165  29.5368367  66.6638915  57.2313919  29.6768659  67.3490779
  58.1407186  28.7779031  66.8541032  57.7336866  29.4453891  66.7939991
  54.7424349  19.5874176  60.7333869  54.4549145  19.2175446  59.9965817
  55.4294818  20.0569031  60.4717574  54.8013247  19.6021145  60.5848945
  63.9500170  31.2763826  60.6499483  63.7086846  30.5431687  60.2426548
  64.1301503  31.8250683  59.9965817  63.9407794  31.2486217  60.4929706
  59.1799491  26.5672386  62.0620406  58.9842274  27.1747121  61.4680709
  59.4033837  25.8740330  61.5812080  59.1834132  26.5549912  61.9036487
  57.5778021  23.4527124  62.1801274  58.3000673  23.6168282  61.7205080
  57.0986014  24.1736789  62.0740614  57.6141752  23.5825353  62.0966888
  65.5371529  19.7890923  67.5597959  64.6982629  19.8152202  67.3236222
  65.6075896  20.4361658  68.1403306  65.4239922  19.8887049  67.6107076
  55.2285638  25.8585196  71.2855414  55.7406735  26.1369450  70.6364174
  54.9421980  26.5974490  71.6518227  55.2620501  26.0087550  71.2445292
  63.9840807  16.6876300  62.2925575  64.6867160  16.4884048  61.8145533
  63.7184996  15.9152242  62.5994418  64.0487439  16.5439266  62.2671016
  69.4129052  24.9958909  64.8459201  69.3263027  25.1514336  65.6993980
  68.9579532  25.6396985  64.4718606  69.3332309  25.1134665  64.9166308
  52.3152544  20.3655388  61.5819150  52.4168680  21.1681550  61.9100126
  53.1108431  20.1642724  61.2842231  52.4480450  20.4541287  61.5854506
  58.7469363  17.9511585  71.3456456  58.5552560  17.9666719  72.1955879
  59.5967959  18.1475259  71.3223110  58.8445085  17.9825936  71.4679750
  53.1316276  20.4802566  69.3240272  52.9901768  19.6286507  69.4484780
  53.4156840  20.5231227  68.5002478  53.1524122  20.3602316  69.2207896
  63.2854869  22.3169657  63.4684760  63.0389583  22.2365408  64.3021549
  63.6139992  21.5323124  63.2747288  63.2976112  22.1895922  63.5632283
  67.1802917  29.0253016  67.2571542  67.0417277  29.7234062  67.7620284
  66.4002915  28.8701672  66.9007723  67.0446144  29.1053183  67.2797816
  59.2451896  25.0526375  72.8807743  59.3895272  25.6327583  72.2450853
  59.5927544  25.4302672  73.5857598  59.3179357  25.1947079  72.8906738
  61.4171813  24.2516544  70.6632875  60.6695127  24.4447558  70.2581153
  61.5713338  23.4261763  70.4256996  61.3294241  24.1581655  70.5678281
  58.3179651  33.2429147  69.7468770  58.4669215  32.6832063  69.0942175
  59.0979653  33.3221149  70.1301289  58.4553744  33.1714712  69.7065719
  68.6756290  28.3831270  58.0188041  68.2963099  27.5968408  58.0117330
  68.0122536  28.9318127  57.8759685  68.5214765  28.3476094  57.9968838
  60.8432951  33.4143790  71.0253261  60.7676623  32.7452600  71.5804049
  60.7722811  34.1161578  71.5393927  60.8213558  33.4188697  71.1830109
  61.6573590  18.1467094  71.5528279  62.1146204  18.8791069  71.6801071
  61.7329919  17.7233560  72.3115534  61.7364560  18.1924332  71.6829355
  53.9006581  18.3932914  72.6417722  53.3648771  17.7813272  72.9578490
  53.9624346  18.9681050  73.2951389  53.8302214  18.3879842  72.7853149
  61.5003198  31.9344789  61.8576867  62.2653089  31.6654432  61.5359531
  61.3981288  31.4494799  62.5746930  61.5984694  31.8234353  61.9156695
  59.5355968  20.1369198  68.3970103  58.7452043  19.9560658  68.7187438
  59.9316591  19.3596151  68.3800397  59.4772844  19.9956659  68.4422651
  64.0221859  28.9656973  53.8376816  64.7894844  29.0257097  53.4282668
  63.5753168  28.3937414  53.3533135  64.0695286  28.8893548  53.7054527
  64.9199654  27.7711628  66.1229549  64.2444656  27.5396861  66.6242936
  64.9292030  27.1632811  65.4971654  64.8218159  27.6470554  66.1045701
  62.0493798  22.6129457  72.8793602  61.9852940  23.4739414  72.7513738
  62.1890986  22.2961451  72.0789153  62.0609268  22.6929624  72.7421814
  66.9216389  30.6276761  58.3539727  67.0036226  31.4343747  58.0301177
  67.4066131  30.6472720  59.0780500  67.0053547  30.7497423  58.4126625
  60.7312892  25.3061597  67.0209804  60.3075141  25.5066096  66.2848823
  60.5557747  24.4590445  67.1334104  60.6423773  25.2110378  66.9283495
  60.2324586  36.8212110  69.4831262  60.7220516  36.1222899  69.3006926
  59.6608818  36.5235980  70.0707319  60.2209116  36.6738333  69.5432303
  56.0195337  25.8013648  62.4537777  56.1759956  25.7360451  63.3093769
  56.3595930  26.5762201  62.2416457  56.0928572  25.9062846  62.5492371
  62.5574482  25.1771532  61.3231140  63.0990027  24.6741913  61.7869761
  62.8721041  25.1236726  60.5120625  62.6838879  25.0950953  61.2714952
  60.7260932  30.5688883  58.6071168  60.7953752  29.7103422  58.7464169
  61.5049387  30.7860764  58.2790193  60.8513782  30.4741747  58.5788326
  63.7063751  20.0707836  71.3753441  63.9205721  19.4318750  70.8216795
  63.0897650  20.5153660  70.9461302  63.6469080  20.0417980  71.2303872
  65.1168419  32.9926584  62.8207662  64.7248211  32.6893300  62.1030528
  65.2721491  33.8295674  62.6312615  65.0822009  33.0710421  62.6864159
  52.5929599  22.9848599  62.7698544  52.9728564  23.4033143  62.1058812
  52.0184964  23.5662054  63.0767388  52.5640924  23.1326457  62.7175285
  65.2808094  29.5576573  62.7613692  64.9222749  29.7291216  63.5377725
  64.7946805  30.0189779  62.2041691  65.1566791  29.6515544  62.7938961
  63.0978480  13.1807772  66.3640784  62.2272038  13.1546493  66.3174093
  63.3518821  13.0084964  65.5466629  63.0072040  13.1517916  66.2360920
  60.0696459  25.2375739  55.3013927  60.3588984  26.0140621  55.5757501
  60.1568258  24.7264470  56.0028426  60.1250716  25.2767657  55.4456424
  60.1227620  15.1914000  67.8214254  59.6066109  14.4994192  67.9465833
  59.5621549  15.8584777  67.7676853  59.9634134  15.1877258  67.8320320
  62.1919854  15.7306960  69.6507106  61.8051607  15.7555992  70.4320636
  61.7052791  15.1648639  69.1981623  62.0632363  15.6502711  69.6995010
  66.4412833  30.4480469  73.7080893  67.0792554  29.9540665  73.3743349
  65.7986925  30.3757870  73.1233120  66.4407060  30.3639478  73.5723248
  68.1669833  22.2969615  68.2746809  67.7397441  22.2095964  67.5194908
  67.5295886  22.4047391  68.8601653  68.0099441  22.3002275  68.2492250
  66.4967090  31.1400278  70.3486250  67.2859468  30.7889342  70.4688331
  66.6710688  31.9536666  70.0862884  66.6387371  31.2086135  70.3274118
  56.2360400  24.5509003  67.4014039  55.3948407  24.4512877  67.6092932
  56.4450408  25.3204484  67.7528359  56.1425093  24.6501047  67.4841354
  53.7135967  22.1728540  65.2298789  53.3192665  22.2471552  64.4548899
  53.1576084  22.5586487  65.7807151  53.5738780  22.2410315  65.1966449
  65.3500914  15.1509834  64.9102668  65.5550507  15.0832142  65.7559665
  65.0227338  15.9568656  64.8423846  65.3316162  15.2595775  65.0262323
  60.0477065  22.4790403  66.6511636  59.7440203  21.9246391  67.2522044
  59.3456486  22.6582612  66.1639670  59.8993275  22.4235185  66.6681342
  59.1043162  19.7890922  61.2156338  59.3802897  19.0709835  60.8033906
  59.7041832  20.3875842  61.0077444  59.2336427  19.7711293  61.1237099
  58.1095416  29.6940123  71.3583734  58.0015771  29.7042185  72.2245792
  58.3191198  30.5194904  71.1688688  58.1245527  29.8181198  71.4587826
  68.6034602  15.7041599  64.3905434  67.9908915  16.1912001  64.7759165
  68.6998777  15.0285089  64.9343085  68.5272499  15.6759907  64.5284292
  62.6053683  17.4604440  59.4902933  63.0597429  17.6315000  60.2150778
  63.0793728  16.8472550  59.0900709  62.7422003  17.3955325  59.5376695
  56.1269208  26.9452766  68.8205672  55.5357141  27.5862264  68.7908687
  56.8890232  27.3690383  68.7936971  56.1517469  27.1028604  68.8120819
  56.5229831  18.1054763  69.4873689  56.9831312  18.1793693  70.2248813
  56.5685938  18.9036017  69.1373510  56.5980386  18.2348910  69.5446446
  58.1713181  18.7721458  74.0545716  57.7798746  18.1254805  74.4901494
  58.3399043  19.3632894  74.6739972  58.1384091  18.7635726  74.2108422
  65.8858724  32.3962077  66.2537696  65.6878413  32.8852892  65.5593907
  65.2646435  32.6003319  66.8321829  65.7646289  32.4978615  66.2360919
  59.9466703  24.1646974  60.5947940  60.6908748  24.5521250  60.8330890
  60.0927399  23.3204399  60.7588428  60.0777288  24.0977447  60.6541910
  61.8646278  15.9597233  65.6279802  61.0182323  16.1320041  65.5021151
  61.8617411  15.1546577  65.9645630  61.7393428  15.8658262  65.6590929
  62.9344579  19.7372447  66.4941860  62.4604533  19.2114209  67.0047171
  63.3062714  19.1901920  65.9256721  62.9194468  19.5788444  66.4857007
  53.3117609  21.7343954  71.8625405  54.1743222  21.6339663  71.7762735
  52.9809392  21.1538663  71.3010978  53.3902805  21.6335581  71.7670811
  69.1981309  24.7974823  67.9048640  68.9579532  23.9581238  67.9091067
  69.6773316  24.8774990  68.6289414  69.2333493  24.6856223  68.0123442
  64.8628078  20.6309002  59.5567613  64.3351097  20.7137746  58.8673322
  65.3223786  21.3726873  59.5532258  64.8529929  20.7529664  59.4542309
  71.1986496  21.5776280  65.8577899  70.9596266  21.5372114  65.0198684
  71.3620397  22.4247432  65.9843620  71.1876800  21.6968365  65.7531381
  67.8032526  25.9626229  71.7882944  68.5266725  25.5098756  71.6093964
  67.5382489  26.2430895  71.0055272  67.8713800  25.9377198  71.6461660
  56.6719395  20.5586403  68.5235824  56.0472465  20.5704795  67.9161776
  56.3364990  21.0346578  69.1727064  56.5304887  20.6304920  68.5292392
  56.8561143  18.9011522  54.5808509  56.5073948  19.5531247  55.0440058
  56.3757589  18.8868635  53.8532380  56.7331387  18.9954575  54.5419600
  53.3845070  28.6186863  69.9639588  52.8544995  27.9279302  70.0134563
  53.6570164  28.6097048  69.1352296  53.3469793  28.5153995  69.8487004
  64.4165161  29.2012565  58.6877270  65.1399360  29.6670678  58.5441844
  63.9765752  29.2686175  57.9374867  64.4580853  29.2796402  58.5562052
  63.5851316  26.0610108  69.9377959  62.9708309  25.5168158  70.2326595
  64.1018601  25.5474344  69.4583776  63.5706978  25.9046517  69.9102188
  62.8247613  27.1314378  67.6722258  62.3975221  26.5064096  67.2387693
  62.8172557  26.8489300  68.4981265  62.7606754  26.9967158  67.7302086
  55.9410140  22.1679551  70.7410692  56.1003627  21.4122875  71.1462414
  55.7603034  22.7170490  71.3951430  55.9375499  22.1373365  70.8973398
  61.1533323  18.0083132  67.8864792  61.1775810  17.4743245  67.1977572
  61.4044796  17.5000441  68.5490383  61.1943241  17.8544036  67.8829437
  48.6640912  25.2914627  67.3207936  48.5584362  25.2461472  66.4560020
  47.9141132  25.6368408  67.6022221  48.5376515  25.3355535  67.2345266
  57.4334645  16.7353951  67.2670536  57.4733016  17.2363157  67.9805244
  56.6084310  16.8264344  66.9976459  57.3174171  16.8235767  67.3321075
  59.6164258  26.3014691  75.3690831  58.7659888  26.4386405  75.5048476
  59.7792385  25.5678469  75.8138533  59.5148121  26.2128792  75.4546430
  58.8549008  23.2514460  69.5644435  58.0240938  23.4188278  69.3579683
  58.8000525  22.8750411  70.3493321  58.7238423  23.2204192  69.6492963
  57.2285052  21.5270052  60.0934553  57.3688013  22.0242516  60.7963194
  57.7267585  20.8256346  60.2348767  57.3226133  21.4972031  60.2186132
  57.2585274  22.3937163  57.4227130  57.8930354  22.9897588  57.3576592
  57.3410885  22.0940621  58.2373000  57.3641825  22.4378071  57.5330216
  58.8364257  18.3251138  57.3972572  59.1580098  17.8454221  56.7431834
  59.0991201  19.1350784  57.2063384  58.9230283  18.3741036  57.2728064
  62.0661230  29.3470013  70.9171388  61.5586321  29.9005860  71.3612018
  61.7687876  29.4078303  70.0990163  61.9466115  29.4376324  70.8619845
  64.2323412  17.7123332  69.7596051  64.6578484  17.2595859  69.1479577
  63.6180405  17.1583403  70.0360838  64.2052058  17.5637309  69.7101076
  53.7638262  24.5905004  60.6916676  54.2730492  25.1869511  61.0727981
  54.2372535  24.3230977  60.0093096  53.9081638  24.6390819  60.6471199
  64.6769010  33.2633270  58.8475331  63.9598320  33.0894133  58.3822569
  65.3275748  33.0285843  58.3150818  64.6670861  33.2029063  58.7004549
  62.6717635  14.1838432  63.1686628  62.0285953  14.0336078  63.7371766
  62.3317042  13.9380777  62.4035733  62.5262713  14.1250555  63.1389643
  67.2616982  22.1397859  62.5916637  66.5908172  22.6827561  62.4629702
  67.9556732  22.6092714  62.3498331  67.2645849  22.2896130  62.5372164
  61.3103715  34.2794571  67.8228395  61.0869370  33.5213400  68.1912421
  60.8213559  34.3092592  67.1008835  61.2047164  34.1716795  67.7705136
  67.4245109  18.5953743  65.5007010  67.7772719  18.1683465  66.1752809
  66.5659911  18.5104586  65.6308086  67.3494554  18.5198483  65.6202020
  56.1228794  21.2261262  63.5589856  55.4040783  21.6425395  63.8262720
  56.4941156  21.7915501  63.0081494  56.0720726  21.3710544  63.5172663
  65.4228375  21.8589111  69.4491852  65.4026302  21.6772406  70.3026631
  65.4707576  22.7301130  69.4251436  65.4263016  21.9605649  69.5715147
  63.3674705  28.4476303  75.3740329  63.3270560  27.8025980  74.7885484
  64.1798023  28.3912921  75.6865741  63.4817858  28.3435270  75.3337278
  59.9582172  34.4995029  65.2765480  59.5442571  33.8369159  64.8869321
  60.6429547  34.6472888  64.7561174  59.9980544  34.4235687  65.1421977
  63.3247466  33.6585114  66.0289096  62.9263750  33.7687385  65.2609916
  62.7098686  33.8667181  66.6115656  63.1746356  33.7058682  66.0020395
  61.8975368  20.2659262  58.8963236  61.3040208  20.5876259  58.3447803
  61.9350646  19.4200358  58.6884342  61.8149758  20.1883590  58.7846007
  64.7733185  20.2238767  62.3264986  64.5446878  20.2471468  61.4843344
  65.0331261  19.3996234  62.4459997  64.7779373  20.1054847  62.2190184
  59.0552413  22.0773240  71.9290086  58.5431317  21.4694423  72.2875118
  58.8831910  22.7929832  72.3964062  58.9542051  22.0936539  72.0506310
  53.9018128  20.5210815  74.5792448  53.7320718  21.1812190  74.0340655
  53.4584078  20.7317376  75.3004937  53.8117462  20.6496797  74.6054077
  57.8277948  18.7615313  63.6219182  58.3035314  19.1232393  62.9869363
  57.3266547  19.4171781  63.9019324  57.8243307  18.9109502  63.5695923
  71.0589309  28.2337081  59.4132187  71.4422915  28.9828437  59.6430284
  70.2633422  28.4802901  59.1544176  70.9983091  28.3806775  59.4089760
  50.8020193  23.4257681  69.8380938  50.2546912  22.7558326  69.9561806
  51.5912571  23.0587528  69.9024405  50.8372376  23.2722667  69.8649638
  60.6504601  23.0865138  75.3344349  61.4015928  23.4016814  75.6483903
  60.8427178  22.8844309  74.5078271  60.7896015  23.1032519  75.2587745
  59.8704601  20.9056513  56.9892566  60.2503566  20.9236142  56.2043680
  59.1297197  21.3510502  56.8683413  59.8173438  20.9738287  56.8556134
  67.4989891  19.2138704  62.5768144  67.4984118  19.0587361  63.4352421
  67.2946071  20.0601691  62.5209530  67.4689669  19.3159325  62.6956084
  49.5607162  22.6378488  66.9926961  49.3828923  22.1855097  67.7181876
  49.2726184  23.4404650  67.1765438  49.4920115  22.6901046  67.1270464
  65.2230743  23.8936206  66.2304351  65.7184409  23.1759201  66.1908371
  64.4130519  23.5907003  66.1158838  65.1774637  23.7433852  66.2078077
  60.6689355  27.7434019  58.3801356  59.8600678  27.4200693  58.3334665
  61.1764264  27.0367241  58.3129604  60.6239022  27.5915335  58.3631650
  51.2979632  25.1706212  64.1048720  50.4325152  25.1591903  63.9931491
  51.3978448  24.9836435  64.9519859  51.1853799  25.1412273  64.2137664
  67.2882562  26.6439893  68.9181480  67.7137634  26.1214315  68.3651905
  66.9239482  27.2420731  68.3970103  67.2969165  26.6550120  68.7590490
  56.9236642  34.9404111  67.6778825  57.2383201  35.7540499  67.6856607
  57.3330055  34.5554329  68.3460985  57.0304740  35.0032813  67.7782917
  63.8761162  30.3574158  65.2482637  64.3472340  31.0714420  65.4172623
  64.2121340  29.7572908  65.7842507  63.9956277  30.3745622  65.3515013
  64.5135108  30.1492092  72.0110330  63.9656054  29.5249975  71.7430395
  64.9748137  30.3386364  71.2954409  64.5002317  30.0851142  71.8660761
  59.8623771  17.1318041  59.6720197  60.6839466  17.3016354  59.4301892
  59.3993422  17.2865302  58.9486495  59.9154934  17.1799774  59.5291841
  58.4519103  15.1260803  70.4518626  58.9963516  14.7851930  71.0422968
  58.5056039  15.9846265  70.5939911  58.5408223  15.2016063  70.5600499
  54.2649662  28.8877219  67.3257434  54.8694519  28.8473053  66.6971255
  54.0576975  29.7348371  67.3561490  54.3238559  29.0065222  67.2373550
  64.0793434  31.1543164  68.5419671  64.8991808  31.0106130  68.8035966
  63.7987512  31.7789363  69.0836109  64.1590178  31.2253516  68.6607611
  49.5000944  27.8711837  67.1956357  49.4025222  27.0608108  67.5046414
  50.2829814  27.8503630  66.8102625  49.6017081  27.7478927  67.1843220
  73.7506769  37.8983667  66.2615478  72.8944665  38.0592165  66.3124595
  73.7974423  37.0275731  66.2820539  73.6305881  37.7934469  66.2721544
  68.1347909  47.4346385  62.0252710  67.3830809  47.0561923  61.7968755
  68.5833921  47.4664819  61.2771520  68.0897576  47.3831992  61.8810212
  73.5872869  47.8571754  57.4538257  73.2524238  48.5348676  57.0182479
  74.0999739  47.4677066  56.8655128  73.6138450  47.8996333  57.3025048
  73.1277160  49.8086023  63.3949368  73.5116540  50.3772922  62.8554144
  73.0636302  49.0835533  62.9155184  73.1750588  49.7861487  63.2443231
  76.5958590  39.9575711  68.9047130  77.1414551  40.6360798  68.9641099
  76.5375467  39.8163172  68.0448711  76.6674505  40.0367713  68.7859190
  69.7132665  47.4464777  64.2915482  69.8143028  46.6365131  64.6012610
  69.1174411  47.3521724  63.6615161  69.6405204  47.3129805  64.2441721
  69.5533405  52.3642366  65.6930338  70.1970860  52.8055530  66.0826497
  69.8789660  51.5595792  65.6060597  69.6965234  52.3107561  65.7375815
  62.9097710  43.4685064  63.9167816  62.6747894  42.6352716  63.8100085
  63.0483350  43.7489729  63.1029017  62.8953372  43.3868567  63.7810171
  65.2087797  35.6370794  66.8152123  64.5892829  35.0463442  66.6462138
  65.1071661  36.2282229  66.1816447  65.1025473  35.6374877  66.6957113
  70.2553985  45.3754341  61.0650200  70.5769826  45.9159548  60.4611508
  70.9026081  44.8051113  61.1972490  70.3980040  45.3713516  60.9957235
  72.3055693  37.3770336  61.1484587  73.0035857  37.5558464  61.6406050
  72.6208025  36.8540675  60.5254976  72.4551030  37.3264108  61.1286597
  64.9356930  39.1823076  69.0595692  64.8115627  39.7685521  69.6945511
  65.5875215  38.6883272  69.3607967  65.0130579  39.1961880  69.1981622
  72.4943628  43.7640781  61.1364378  72.9337264  43.1557882  61.5819151
  72.3448291  43.3848154  60.3649843  72.5365094  43.6179252  61.0883545
  69.9615271  42.3584793  68.3383204  70.6064274  41.8657236  68.0194152
  70.2017048  42.5009580  69.1649282  70.0925856  42.3062235  68.4132737
  72.5001362  45.2039699  67.9890096  72.7824605  44.4091105  67.7676852
  73.2287523  45.6820286  68.0095157  72.6490926  45.1574296  67.9593111
  70.4782556  32.7462733  65.2305861  70.1485886  33.1973876  64.5609560
  69.8027558  32.6678896  65.7778868  70.3292993  32.8013868  65.2129085
  76.0952965  42.1167962  58.0895147  76.0104260  42.9728929  58.2344716
  76.5837348  41.8412286  58.7577306  76.1541862  42.2025284  58.2097229
  77.6858964  28.7348256  63.4755472  77.3712405  29.4251734  63.9075894
  77.1685906  28.6793038  62.7740973  77.5623434  28.8283144  63.4352421
  77.0271398  38.7352757  59.5892882  76.4982869  38.9512390  60.2490189
  77.5496418  39.4288895  59.5093852  77.0259851  38.8695893  59.6748482
  68.9171006  42.6315973  58.3900350  68.3328221  43.1366005  58.7966214
  68.5141101  42.4058360  57.6496942  68.7710309  42.6724222  58.3405376
  64.4715034  48.3470734  65.1924022  63.9882613  49.0721224  65.1683606
  65.2838353  48.6446864  65.3034180  64.5205782  48.4973088  65.2051301
  70.5429188  47.1402915  67.7973836  70.0256130  46.7810330  67.1935144
  71.2403580  46.6165090  67.8079903  70.5694769  47.0100603  67.7104095
  73.3748220  38.8781625  56.8669271  73.6144224  39.0859609  56.0544614
  73.6964061  38.0739134  56.9758216  73.4585378  38.7895727  56.7629824
  68.6838510  30.8075021  60.7128809  69.4384478  31.1753338  60.4745859
  68.5066045  31.1814576  61.4807989  68.7692989  30.9173209  60.7913697
  67.3259232  48.8626910  65.3444302  68.0279811  48.3478899  65.4017058
  67.2456715  49.1901062  66.1491177  67.4182992  48.8341137  65.4717094
  68.3738138  39.1002497  74.4724717  68.5458642  38.9908392  75.3209998
  68.9107496  39.7456903  74.2355909  68.4783142  39.1794499  74.5629814
  67.0395575  33.2145340  57.4106922  66.8571148  33.4317221  56.5847915
  67.9021188  33.3284353  57.4665536  67.1400164  33.2635238  57.2961409
  66.6510007  45.0533262  64.8529910  67.4898906  45.2856195  64.9003671
  66.6821776  44.1837574  64.7836945  66.7791725  44.9590209  64.8494554
  67.2762710  45.4734138  69.1543215  67.8160935  45.3305269  69.8246588
  66.5932656  45.8730888  69.5227242  67.2554864  45.5113808  69.3077637
  72.7195294  30.2171751  60.4455946  73.4481455  30.0387706  59.9994102
  72.8090187  31.0589831  60.6563124  72.8401956  30.3155629  60.4109463
  76.7003595  41.1525138  64.3488240  77.4561110  41.5856653  64.3877148
  76.8065919  40.5029908  64.9222876  76.8273765  41.1202622  64.4386265
  62.6799855  41.6934428  69.3077637  62.4138270  40.8773545  69.4668627
  62.6938419  41.7387584  68.4373152  62.6424577  41.5791333  69.2031119
  66.5857602  36.4919513  55.9229395  65.8715779  36.2057692  56.3351827
  67.0701571  36.8316139  56.5635782  66.5516965  36.5001162  56.0785030
  67.4298461  35.2312807  71.9544645  66.7370258  34.7609786  72.2005376
  68.0458789  35.0051111  72.5286352  67.4182991  35.1279938  72.0753797
  73.7604920  44.9949467  56.2991203  74.1756068  44.6634491  55.6075699
  72.9296850  44.7618369  56.1711340  73.6992929  44.9120723  56.1782051
  63.0893269  42.4793208  66.5889381  62.9068842  42.4540094  65.7361673
  63.8242938  42.9492146  66.6278290  63.1707333  42.5454570  66.4687300
  66.1539020  39.1978211  73.0971490  66.8778993  39.1831241  73.5836385
  66.2555157  39.9073566  72.5993458  66.2757229  39.3002914  73.0950277
  76.2015289  39.4011286  62.2515453  76.2962143  40.1400580  62.7055078
  75.5774132  38.9728762  62.6850017  76.1224319  39.4472607  62.3823600
  63.0564179  39.3586708  66.7388448  63.6337682  39.2223159  67.3780693
  62.3578241  38.9022493  66.9934032  63.0385200  39.2708975  66.8710737
  76.4538310  41.2460026  55.4852405  76.3718473  41.3162213  56.3507392
  77.0918031  41.8089770  55.2936145  76.5358147  41.3398997  55.5842354
  69.8131481  41.0120764  64.9526931  69.5550726  40.1792499  64.9258230
  69.8679964  41.2378377  64.1119431  69.7831259  40.9218535  64.8247068
  74.8932531  33.1149215  65.0531024  74.1888858  32.6258400  65.2114943
  74.9417506  33.1271689  64.1819468  74.7962583  33.0438863  64.9470363
  68.7866193  38.5658527  65.4391826  68.2115785  38.7250695  66.0755787
  68.4101870  37.9293936  64.9760276  68.6469006  38.4956339  65.4646384
  72.4539482  37.0381876  70.2984204  72.0653915  36.6136094  69.6436395
  71.7894180  37.2864025  70.8061231  72.2986410  37.0120597  70.2772072
  58.5323012  38.2098601  63.4536266  58.6183264  37.8330470  64.2349796
  59.1598810  37.8359047  62.9756225  58.6379563  38.0984084  63.4981744
  73.5578420  41.2680480  58.4961011  74.3719059  41.5595373  58.3843782
  73.4937562  40.6140343  57.9219304  73.6681159  41.2145675  58.3949848
  69.4286329  44.7401998  63.6233323  70.0660275  44.5013745  64.1685117
  69.8541400  44.9439157  62.8886484  69.5862495  44.7353008  63.5950480
  64.1198971  46.9790334  67.5067627  64.1603116  47.2505185  66.6787407
  64.6793495  47.5032242  67.9225415  64.2082317  47.0966089  67.4459515
  70.0689144  39.9604288  57.9608213  70.4534296  39.7411994  58.7124758
  69.8200764  40.7867233  58.0909289  70.0891216  40.0502434  58.0909289
  71.8107801  45.2174421  65.3027109  71.8846809  45.0549592  66.1568959
  72.6277307  45.4064610  65.0587591  71.9424159  45.2211163  65.3925135
  65.5713557  45.5632283  62.3321553  64.7451675  45.8094021  62.2055832
  65.6325548  45.4844364  63.1983611  65.4587724  45.5877232  62.4410497
  67.7889581  31.6301224  63.2916993  66.9212006  31.7023824  63.3574602
  68.0764785  32.4323303  63.4804968  67.7029329  31.7595371  63.3291760
  70.3512386  48.1809164  60.0340583  70.6410685  47.7898145  59.3099809
  71.0815867  48.3625868  60.4745858  70.5019270  48.1502977  59.9923390
  70.9407131  42.9826909  71.1193713  70.4418825  43.6942677  71.1978602
  71.7507356  43.3027576  71.0811876  70.9863238  43.1353758  71.1250282
  68.2918302  50.1576546  63.1000733  68.0718597  49.8673901  63.8927400
  68.0712824  49.4991501  62.5718645  68.2265896  50.0176254  63.1389641
  67.2035249  42.2449862  65.3656434  66.9148498  41.6187334  65.9002162
  68.0718597  42.1870150  65.4321115  67.2895501  42.1437407  65.4547389
  77.9913147  37.3884646  65.6838416  77.6477913  36.6674981  66.0345666
  78.0906189  37.1798497  64.8416774  77.9555190  37.2508849  65.6110096
  70.4586258  51.5305936  61.8831425  71.1110316  50.9982378  62.1122451
  69.7611866  51.1774588  62.2699299  70.4516975  51.3995459  61.9743593
  67.4067522  43.8845114  61.2898799  68.1613490  44.2658153  61.5034262
  66.8138135  44.3356257  61.7445496  67.4304236  44.0073941  61.3881678
  69.8674189  35.8407954  76.4156012  69.0573965  36.1465734  76.3045854
  70.3448876  36.5613536  76.5308596  69.8177668  35.9922555  76.4163083
  68.7265749  45.0553675  66.6638915  68.2046502  45.1953967  67.3490779
  69.1139769  44.2964339  66.8541032  68.7069450  44.9639199  66.7939991
  65.7156933  35.1059484  60.7333869  65.4281729  34.7360754  59.9965817
  66.4027401  35.5754339  60.4717574  65.7745830  35.1206453  60.5848945
  74.9232754  46.7949134  60.6499483  74.6819430  46.0616995  60.2426548
  75.1034087  47.3435991  59.9965817  74.9140378  46.7671525  60.4929706
  70.1532075  42.0857694  62.0620406  69.9574857  42.6932428  61.4680709
  70.3766420  41.3925638  61.5812080  70.1566716  42.0735219  61.9036487
  68.5510605  38.9712432  62.1801274  69.2733257  39.1353590  61.7205080
  68.0718597  39.6922097  62.0740614  68.5874335  39.1010661  62.0966888
  76.5104112  35.3076231  67.5597959  75.6715213  35.3337510  67.3236222
  76.5808479  35.9546966  68.1403306  76.3972506  35.4072356  67.6107076
  66.2018221  41.3770504  71.2855414  66.7139318  41.6554758  70.6364174
  65.9154564  42.1159798  71.6518227  66.2353084  41.5272858  71.2445292
  74.9573390  32.2061608  62.2925575  75.6599743  32.0069356  61.8145533
  74.6917579  31.4337550  62.5994418  75.0220023  32.0624574  62.2671016
  63.2885128  35.8840696  61.5819150  63.3901264  36.6866858  61.9100126
  64.0841014  35.6828032  61.2842231  63.4213033  35.9726595  61.5854506
  69.7201947  33.4696893  71.3456456  69.5285144  33.4852027  72.1955879
  70.5700543  33.6660567  71.3223110  69.8177669  33.5011244  71.4679750
  64.1048860  35.9987874  69.3240272  63.9634352  35.1471815  69.4484780
  64.3889423  36.0416535  68.5002478  64.1256706  35.8787624  69.2207896
  74.2587452  37.8354965  63.4684760  74.0122166  37.7550715  64.3021549
  74.5872575  37.0508432  63.2747288  74.2708696  37.7081230  63.5632283
  78.1535501  44.5438324  67.2571542  78.0149860  45.2419370  67.7620284
  77.3735499  44.3886980  66.9007723  78.0178728  44.6238491  67.2797816
  70.2184479  40.5711683  72.8807743  70.3627855  41.1512891  72.2450853
  70.5660128  40.9487980  73.5857598  70.2911941  40.7132387  72.8906738
  72.3904397  39.7701851  70.6632875  71.6427711  39.9632866  70.2581153
  72.5445922  38.9447071  70.4256996  72.3026824  39.6766963  70.5678281
  72.6306174  33.6652402  71.5528279  73.0878788  34.3976377  71.6801071
  72.7062503  33.2418867  72.3115534  72.7097144  33.7109640  71.6829355
  72.4735782  47.4530097  61.8576867  73.2385673  47.1839740  61.5359531
  72.3713872  46.9680107  62.5746930  72.5717277  47.3419661  61.9156695
  70.5088552  35.6554506  68.3970103  69.7184626  35.4745966  68.7187438
  70.9049174  34.8781459  68.3800397  70.4505428  35.5141967  68.4422651
  74.9954442  44.4842280  53.8376816  75.7627428  44.5442405  53.4282668
  74.5485751  43.9122722  53.3533135  75.0427870  44.4078856  53.7054527
  75.8932238  43.2896936  66.1229549  75.2177240  43.0582169  66.6242936
  75.9024614  42.6818119  65.4971654  75.7950743  43.1655861  66.1045701
  73.0226382  38.1314765  72.8793602  72.9585523  38.9924722  72.7513738
  73.1623570  37.8146758  72.0789153  73.0341852  38.2114932  72.7421814
  77.8948973  46.1462069  58.3539727  77.9768810  46.9529055  58.0301177
  78.3798715  46.1658028  59.0780500  77.9786130  46.2682731  58.4126625
  71.7045476  40.8246905  67.0209804  71.2807725  41.0251404  66.2848823
  71.5290331  39.9775753  67.1334104  71.6156356  40.7295686  66.9283495
  66.9927921  41.3198956  62.4537777  67.1492540  41.2545759  63.3093769
  67.3328514  42.0947509  62.2416457  67.0661156  41.4248154  62.5492371
  73.5307065  40.6956840  61.3231140  74.0722611  40.1927221  61.7869761
  73.8453624  40.6422034  60.5120625  73.6571462  40.6136261  61.2714952
  71.6993515  46.0874191  58.6071168  71.7686335  45.2288730  58.7464169
  72.4781970  46.3046072  58.2790193  71.8246365  45.9927055  58.5788326
  74.6796335  35.5893144  71.3753441  74.8938304  34.9504058  70.8216795
  74.0630234  36.0338968  70.9461302  74.6201664  35.5603288  71.2303872
  76.0901003  48.5111892  62.8207662  75.6980794  48.2078608  62.1030528
  76.2454075  49.3480982  62.6312615  76.0554593  48.5895729  62.6864159
  63.5662182  38.5033906  62.7698544  63.9461147  38.9218451  62.1058812
  62.9917547  39.0847362  63.0767388  63.5373507  38.6511765  62.7175285
  76.2540677  45.0761881  62.7613692  75.8955332  45.2476524  63.5377725
  75.7679388  45.5375087  62.2041691  76.1299374  45.1700852  62.7938961
  74.0711063  28.6993080  66.3640784  73.2004621  28.6731801  66.3174093
  74.3251405  28.5270272  65.5466629  73.9804624  28.6703223  66.2360920
  71.0429043  40.7561047  55.3013927  71.3321568  41.5325929  55.5757501
  71.1300842  40.2449778  56.0028426  71.0983299  40.7952965  55.4456424
  71.0960204  30.7099308  67.8214254  70.5798693  30.0179500  67.9465833
  70.5354133  31.3770085  67.7676853  70.9366717  30.7062566  67.8320320
  73.1652437  31.2492268  69.6507106  72.7784191  31.2741300  70.4320636
  72.6785375  30.6833947  69.1981623  73.0364946  31.1688019  69.6995010
  67.2092984  40.0694311  67.4014039  66.3680990  39.9698185  67.6092932
  67.4182992  40.8389792  67.7528359  67.1157676  40.1686355  67.4841354
  64.6868551  37.6913848  65.2298789  64.2925249  37.7656860  64.4548899
  64.1308668  38.0771795  65.7807151  64.5471363  37.7595623  65.1966449
  76.3233498  30.6695142  64.9102668  76.5283091  30.6017450  65.7559665
  75.9959922  31.4753963  64.8423846  76.3048745  30.7781083  65.0262323
  71.0209649  37.9975710  66.6511636  70.7172786  37.4431699  67.2522044
  70.3189069  38.1767920  66.1639670  70.8725858  37.9420493  66.6681342
  70.0775746  35.3076230  61.2156338  70.3535480  34.5895143  60.8033906
  70.6774415  35.9061150  61.0077444  70.2069010  35.2896601  61.1237099
  69.0828000  45.2125431  71.3583734  68.9748355  45.2227493  72.2245792
  69.2923781  46.0380212  71.1688688  69.0978111  45.3366506  71.4587826
  73.5786266  32.9789748  59.4902933  74.0330013  33.1500308  60.2150778
  74.0526312  32.3657858  59.0900709  73.7154586  32.9140633  59.5376695
  67.1001792  42.4638074  68.8205672  66.5089725  43.1047572  68.7908687
  67.8622815  42.8875691  68.7936971  67.1250052  42.6213912  68.8120819
  67.4962414  33.6240071  69.4873689  67.9563896  33.6979001  70.2248813
  67.5418521  34.4221325  69.1373510  67.5712970  33.7534218  69.5446446
  69.1445764  34.2906766  74.0545716  68.7531329  33.6440113  74.4901494
  69.3131627  34.8818201  74.6739972  69.1116675  34.2821034  74.2108422
  76.8591308  47.9147385  66.2537696  76.6610997  48.4038200  65.5593907
  76.2379019  48.1188627  66.8321829  76.7378872  48.0163923  66.2360919
  70.9199286  39.6832282  60.5947940  71.6641331  40.0706558  60.8330890
  71.0659982  38.8389707  60.7588428  71.0509871  39.6162755  60.6541910
  72.8378862  31.4782541  65.6279802  71.9914907  31.6505349  65.5021151
  72.8349994  30.6731885  65.9645630  72.7126012  31.3843570  65.6590929
  73.9077162  35.2557755  66.4941860  73.4337116  34.7299517  67.0047171
  74.2795298  34.7087228  65.9256721  73.8927051  35.0973752  66.4857007
  64.2850192  37.2529262  71.8625405  65.1475805  37.1524971  71.7762735
  63.9541975  36.6723971  71.3010978  64.3635389  37.1520889  71.7670811
  75.8360662  36.1494310  59.5567613  75.3083680  36.2323054  58.8673322
  76.2956370  36.8912181  59.5532258  75.8262512  36.2714972  59.4542309
  67.6451978  36.0771711  68.5235824  67.0205048  36.0890103  67.9161776
  67.3097573  36.5531886  69.1727064  67.5037470  36.1490228  68.5292392
  67.8293727  34.4196829  54.5808509  67.4806531  35.0716555  55.0440058
  67.3490173  34.4053942  53.8532380  67.7063971  34.5139883  54.5419600
  64.3577654  44.1372171  69.9639588  63.8277578  43.4464610  70.0134563
  64.6302747  44.1282356  69.1352296  64.3202376  44.0339303  69.8487004
  75.3897744  44.7197873  58.6877270  76.1131943  45.1855986  58.5441844
  74.9498335  44.7871483  57.9374867  75.4313437  44.7981710  58.5562052
  74.5583899  41.5795416  69.9377959  73.9440892  41.0353466  70.2326595
  75.0751184  41.0659652  69.4583776  74.5439562  41.4231825  69.9102188
  73.7980197  42.6499686  67.6722258  73.3707805  42.0249404  67.2387693
  73.7905141  42.3674608  68.4981265  73.7339338  42.5152466  67.7302086
  66.9142724  37.6864859  70.7410692  67.0736210  36.9308183  71.1462414
  66.7335617  38.2355798  71.3951430  66.9108083  37.6558673  70.8973398
  72.1265906  33.5268440  67.8864792  72.1508393  32.9928553  67.1977572
  72.3777380  33.0185749  68.5490383  72.1675825  33.3729344  67.8829437
  59.6373496  40.8099935  67.3207936  59.5316945  40.7646780  66.4560020
  58.8873716  41.1553716  67.6022221  59.5109099  40.8540843  67.2345266
  68.4067228  32.2539258  67.2670536  68.4465600  32.7548465  67.9805244
  67.5816893  32.3449652  66.9976459  68.2906754  32.3421075  67.3321075
  69.8281592  38.7699768  69.5644435  68.9973522  38.9373586  69.3579683
  69.7733109  38.3935719  70.3493321  69.6971007  38.7389500  69.6492963
  68.2017636  37.0455360  60.0934553  68.3420597  37.5427824  60.7963194
  68.7000168  36.3441654  60.2348767  68.2958717  37.0157339  60.2186132
  68.2317858  37.9122471  57.4227130  68.8662938  38.5082896  57.3576592
  68.3143469  37.6125928  58.2373000  68.3374409  37.9563379  57.5330216
  69.8096841  33.8436446  57.3972572  70.1312682  33.3639529  56.7431834
  70.0723785  34.6536092  57.2063384  69.8962866  33.8926344  57.2728064
  75.2055996  33.2308640  69.7596051  75.6311067  32.7781167  69.1479577
  74.5912989  32.6768711  70.0360838  75.1784641  33.0822616  69.7101076
  64.7370846  40.1090312  60.6916676  65.2463075  40.7054819  61.0727981
  65.2105118  39.8416285  60.0093096  64.8814222  40.1576127  60.6471199
  75.6501594  48.7818578  58.8475331  74.9330904  48.6079441  58.3822569
  76.3008332  48.5471151  58.3150818  75.6403444  48.7214371  58.7004549
  73.6450219  29.7023740  63.1686628  73.0018537  29.5521386  63.7371766
  73.3049626  29.4566085  62.4035733  73.4995296  29.6435863  63.1389643
  72.2836299  49.7979879  67.8228395  72.0601953  49.0398708  68.1912421
  71.7946142  49.8277900  67.1008835  72.1779748  49.6902103  67.7705136
  78.3977693  34.1139050  65.5007010  78.7505303  33.6868773  66.1752809
  77.5392494  34.0289894  65.6308086  78.3227137  34.0383791  65.6202020
  67.0961378  36.7446570  63.5589856  66.3773367  37.1610703  63.8262720
  67.4673740  37.3100809  63.0081494  67.0453309  36.8895852  63.5172663
  76.3960958  37.3774419  69.4491852  76.3758886  37.1957714  70.3026631
  76.4440159  38.2486438  69.4251436  76.3995599  37.4790957  69.5715147
  70.9314756  50.0180337  65.2765480  70.5175155  49.3554467  64.8869321
  71.6162130  50.1658196  64.7561174  70.9713128  49.9420995  65.1421977
  74.2980050  49.1770422  66.0289096  73.8996333  49.2872693  65.2609916
  73.6831270  49.3852489  66.6115656  74.1478939  49.2243990  66.0020395
  72.8707952  35.7844570  58.8963236  72.2772791  36.1061567  58.3447803
  72.9083230  34.9385665  58.6884342  72.7882341  35.7068898  58.7846007
  75.7465769  35.7424075  62.3264986  75.5179462  35.7656776  61.4843344
  76.0063845  34.9181542  62.4459997  75.7511957  35.6240155  62.2190184
  70.0284997  37.5958548  71.9290086  69.5163900  36.9879731  72.2875118
  69.8564493  38.3115140  72.3964062  69.9274634  37.6121847  72.0506310
  64.8750712  36.0396123  74.5792448  64.7053302  36.6997498  74.0340655
  64.4316662  36.2502684  75.3004937  64.7850045  36.1682105  74.6054077
  68.8010531  34.2800621  63.6219182  69.2767897  34.6417701  62.9869363
  68.2999131  34.9357088  63.9019324  68.7975890  34.4294810  63.5695923
  61.7752776  38.9442989  69.8380938  61.2279496  38.2743634  69.9561806
  62.5645154  38.5772836  69.9024405  61.8104960  38.7907975  69.8649638
  70.8437184  36.4241821  56.9892566  71.2236149  36.4421450  56.2043680
  70.1029780  36.8695810  56.8683413  70.7906022  36.4923595  56.8556134
  78.4722475  34.7324012  62.5768144  78.4716701  34.5772668  63.4352421
  78.2678655  35.5786999  62.5209530  78.4422253  34.8344633  62.6956084
  60.5339746  38.1563796  66.9926961  60.3561507  37.7040405  67.7181876
  60.2458768  38.9589958  67.1765438  60.4652699  38.2086354  67.1270464
  76.1963327  39.4121514  66.2304351  76.6916992  38.6944509  66.1908371
  75.3863103  39.1092311  66.1158838  76.1507220  39.2619160  66.2078077
  71.6421938  43.2619327  58.3801356  70.8333261  42.9386000  58.3334665
  72.1496847  42.5552549  58.3129604  71.5971605  43.1100643  58.3631650
  62.2712216  40.6891520  64.1048720  61.4057735  40.6777211  63.9931491
  62.3711032  40.5021743  64.9519859  62.1586383  40.6597581  64.2137664
  78.2615146  42.1625201  68.9181480  78.6870217  41.6399623  68.3651905
  77.8972066  42.7606039  68.3970103  78.2701748  42.1735428  68.7590490
  67.8969226  50.4589419  67.6778825  68.2115784  51.2725807  67.6856607
  68.3062639  50.0739637  68.3460985  68.0037324  50.5218121  67.7782917
  74.8493745  45.8759465  65.2482637  75.3204923  46.5899728  65.4172623
  75.1853924  45.2758216  65.7842507  74.9688860  45.8930930  65.3515013
  69.4251687  30.6446111  70.4518626  69.9696100  30.3037238  71.0422968
  69.4788623  31.5031573  70.5939911  69.5140806  30.7201370  70.5600499
  65.2382246  44.4062527  67.3257434  65.8427103  44.3658361  66.6971255
  65.0309558  45.2533679  67.3561490  65.2971143  44.5250530  67.2373550
  60.4733528  43.3897145  67.1956357  60.3757806  42.5793416  67.5046414
  61.2562398  43.3688938  66.8102625  60.5749664  43.2664235  67.1843220
  77.5590186  52.0104821  55.9229395  76.8448363  51.7243000  56.3351827
  78.0434154  52.3501447  56.5635782  77.5249549  52.0186470  56.0785030
  69.5055596  53.7283909  63.4536266  69.5915848  53.3515778  64.2349796
  70.1331393  53.3544355  62.9756225  69.6112147  53.6169391  63.4981744
  76.6889517  50.6244792  60.7333869  76.4014312  50.2546062  59.9965817
  77.3759985  51.0939647  60.4717574  76.7478414  50.6391761  60.5848945
  74.2617711  51.4026004  61.5819150  74.3633848  52.2052165  61.9100126
  75.0573598  51.2013340  61.2842231  74.3945617  51.4911903  61.5854506
  74.5394766  54.0219214  62.7698544  74.9193731  54.4403759  62.1058812
  73.9650131  54.6032670  63.0767388  74.5106091  54.1697073  62.7175285
  75.7103430  55.6275620  60.6916676  76.2195659  56.2240127  61.0727981
  76.1837702  55.3601593  60.0093096  75.8546805  55.6761435  60.6471199
  78.0693961  52.2631878  63.5589856  77.3505950  52.6796011  63.8262720
  78.4406324  52.8286117  63.0081494  78.0185893  52.4081160  63.5172663
  56.8566150   8.8539208  48.9592756  56.1049049   8.4754747  48.7308801
  57.3052161   8.8857642  48.2111567  56.8115816   8.8024815  48.8150259
  62.3091109   9.2764578  44.3878304  61.9742478   9.9541499  43.9522526
  62.8217980   8.8869889  43.7995175  62.3356691   9.3189156  44.2365095
  61.8495401  11.2278846  50.3289415  62.2334780  11.7965745  49.7894190
  61.7854542  10.5028357  49.8495231  61.8968828  11.2054310  50.1783278
  58.4350906   8.8657600  51.2255529  58.5361269   8.0557954  51.5352657
  57.8392651   8.7714547  50.5955207  58.3623444   8.7322628  51.1781767
  58.2751645  13.7835190  52.6270385  58.9189101  14.2248354  53.0166543
  58.6007901  12.9788616  52.5400644  58.4183474  13.7300384  52.6715862
  51.6315950   4.8877887  50.8507863  51.3966134   4.0545539  50.7440131
  51.7701591   5.1682553  50.0369064  51.6171612   4.8061390  50.7150218
  58.9772225   6.7947164  47.9990247  59.2988066   7.3352372  47.3951555
  59.6244322   6.2243936  48.1312536  59.1198280   6.7906340  47.9297282
  53.1933275   9.7663558  52.1264069  52.7100853  10.4914047  52.1023652
  54.0056593  10.0639688  52.2374226  53.2424022   9.9165911  52.1391348
  59.2647429   8.5595738  54.7313883  58.7474370   8.2003153  54.1275191
  59.9621820   8.0357913  54.7419949  59.2913010   8.4293426  54.6444142
  62.9211021   9.0090552  60.6930056  63.0094367   8.8216693  61.5408267
  63.3500733   8.3627982  60.2934903  62.9973123   8.8853560  60.7601808
  60.4881480   8.2921712  59.6747718  59.9252315   7.8794322  60.1987380
  61.2502504   8.2174618  60.0940862  60.5175929   8.2199113  59.8140719
  56.0477472  10.2819734  52.2784349  56.7498051   9.7671723  52.3357105
  55.9674955  10.6093885  53.0831224  56.1401232  10.2533960  52.4057141
  55.3728247   6.4726086  51.7869957  56.2117147   6.7049018  51.8343718
  55.4040017   5.6030397  51.7176992  55.5009965   6.3783032  51.7834601
  55.9980950   6.8926961  56.0883262  56.5379175   6.7498092  56.7586635
  55.3150897   7.2923712  56.4567288  55.9773104   6.9306632  56.2417684
  63.0331080   8.4399571  63.3573840  63.8171497   8.5530419  63.7229582
  62.8327675   7.6140709  63.5532526  63.1197105   8.3346291  63.4408226
  63.1901473  10.3509674  57.0040295  62.3916719  10.1109174  57.2614164
  63.6387485  10.4024066  57.7507343  63.1376085  10.3232065  57.1525220
  51.8111509   3.8986031  53.5229428  51.6287082   3.8732917  52.6701720
  52.5461178   4.3684969  53.5618337  51.8925573   3.9647393  53.4027346
  58.1504569   6.1594821  50.5573370  58.7878516   5.9206569  51.1025163
  58.5759640   6.3631980  49.8226531  58.3080735   6.1545831  50.5290527
  52.8417211   8.3983158  54.4407674  52.8821357   8.6698009  53.6127453
  53.4011735   8.9225066  54.8565462  52.9300557   8.5158913  54.3799562
  60.5326041   6.6367244  52.2367156  60.6065049   6.4742416  53.0909006
  61.3495547   6.8257433  51.9927638  60.6642399   6.6403986  52.3265182
  54.2931798   6.9825107  49.2661600  53.4669915   7.2286844  49.1395879
  54.3543789   6.9037187  50.1323658  54.1805965   7.0070056  49.3750544
  59.0730627   9.6001987  46.9680630  59.3628925   9.2090968  46.2439856
  59.8034107   9.7818692  47.4085905  59.2237511   9.5695801  46.9263437
  57.0136542  11.5769369  50.0340779  56.7936838  11.2866724  50.8267446
  56.7931064  10.9184324  49.5058692  56.9484136  11.4369078  50.0729688
  59.1804498  12.9498759  48.8171472  59.8328556  12.4175201  49.0462498
  58.4830107  12.5967411  49.2039346  59.1735216  12.8188282  48.9083640
  56.1285763   5.3037937  48.2238846  56.8831731   5.6850976  48.4374309
  55.5356375   5.7549080  48.6785543  56.1522476   5.4266764  48.3221724
  57.4483989   6.4746498  53.5978961  56.9264743   6.6146790  54.2830826
  57.8358010   5.7157162  53.7881079  57.4287690   6.3832022  53.7280038
  63.6450994   8.2141957  47.5839530  63.4037670   7.4809818  47.1766595
  63.8252327   8.7628814  46.9305864  63.6358618   8.1864349  47.4269753
  58.0130475  10.1807278  56.6808817  58.1620038   9.6210194  56.0282221
  58.7930477  10.2599280  57.0641336  58.1504568  10.1092844  56.6405766
  60.5383775  10.3521921  57.9593308  60.4627446   9.6830732  58.5144096
  60.4673634  11.0539709  58.4733974  60.5164382  10.3566828  58.1170156
  61.1954022   8.8722920  48.7916914  61.9603913   8.6032564  48.4699578
  61.0932112   8.3872930  49.5086977  61.2935518   8.7612485  48.8496741
  59.9275410  13.7590241  56.4171309  60.4171340  13.0601030  56.2346973
  59.3559642  13.4614111  57.0047366  59.9159940  13.6116464  56.4772349
  60.4211755   7.5067014  45.5411215  60.4904576   6.6481553  45.6804215
  61.2000211   7.7238895  45.2130240  60.5464606   7.4119878  45.5128372
  64.8119243   9.9304716  49.7547708  64.4199035   9.6271431  49.0370575
  64.9672315  10.7673806  49.5652662  64.7772833  10.0088552  49.6204206
  57.8046240   6.6318254  58.2923781  57.6966595   6.6420317  59.1585839
  58.0142022   7.4573035  58.1028735  57.8196351   6.7559329  58.3927872
  65.5809548   9.3340208  53.1877743  65.3829237   9.8231023  52.4933954
  64.9597259   9.5381450  53.7661876  65.4597113   9.4356747  53.1700966
  53.0795894   5.5564994  56.8979635  52.5495819   4.8657433  56.9474609
  53.3520988   5.5475180  56.0692343  53.0420617   5.4532126  56.7827051
  48.3591736   2.2292758  54.2547983  48.2535186   2.1839603  53.3900067
  47.6091956   2.5746539  54.5362268  48.2327339   2.2733667  54.1685313
  61.7612054   6.2848144  57.8511435  61.2537145   6.8383991  58.2952065
  61.4638700   6.3456434  57.0330209  61.6416939   6.3754455  57.7959891
  64.3719834  10.2011402  45.7815378  63.6549144  10.0272264  45.3162616
  65.0226572   9.9663974  45.2490864  64.3621685  10.1407194  45.6344596
  61.0054539  11.2172702  54.7568442  60.7820194  10.4591531  55.1252468
  60.5164383  11.2470723  54.0348881  60.8997988  11.1094927  54.7045183
  59.6532996  11.4373160  52.2105526  59.2393395  10.7747290  51.8209368
  60.3380371  11.5851019  51.6901220  59.6931368  11.3613818  52.0762023
  63.0198290  10.5963246  52.9629143  62.6214574  10.7065516  52.1949963
  62.4049510  10.8045312  53.5455703  62.8697180  10.6436814  52.9360442
  56.6187466  11.8782242  54.6118872  56.9334025  12.6918630  54.6196654
  57.0280879  11.4932461  55.2801031  56.7255564  11.9410944  54.7122964
  53.9600486   5.8255350  54.2597481  54.5645343   5.7851185  53.6311301
  53.7527799   6.6726502  54.2901537  54.0189383   5.9443353  54.1713597
  63.7744258   8.0921296  55.4759718  64.5942632   7.9484262  55.7376013
  63.4938336   8.7167494  56.0176156  63.8541002   8.1631648  55.5947657
  49.1951768   4.8089968  54.1296404  49.0976046   3.9986239  54.4386460
  49.9780638   4.7881761  53.7442672  49.2967905   4.6857058  54.1183267
  73.4457593  14.8361798  53.1955525  72.5895489  14.9970297  53.2464642
  73.4925247  13.9653862  53.2160586  73.3256705  14.7312600  53.2061591
  67.8298733  24.3724516  48.9592756  67.0781633  23.9940054  48.7308801
  68.2784745  24.4042950  48.2111567  67.7848400  24.3210123  48.8150259
  73.2823693  24.7949886  44.3878304  72.9475061  25.4726807  43.9522526
  73.7950563  24.4055197  43.7995175  73.3089274  24.8374464  44.2365095
  72.8227984  26.7464154  50.3289415  73.2067364  27.3151053  49.7894190
  72.7587126  26.0213665  49.8495231  72.8701411  26.7239618  50.1783278
  76.2909414  16.8953842  55.8387176  76.8365374  17.5738929  55.8981146
  76.2326291  16.7541303  54.9788758  76.3625329  16.9745844  55.7199237
  69.4083489  24.3842908  51.2255529  69.5093852  23.5743262  51.5352657
  68.8125235  24.2899855  50.5955207  69.3356028  24.2507936  51.1781767
  69.2484229  29.3020497  52.6270385  69.8921684  29.7433661  53.0166543
  69.5740484  28.4973924  52.5400644  69.3916058  29.2485692  52.6715862
  62.6048534  20.4063195  50.8507863  62.3698718  19.5730847  50.7440131
  62.7434174  20.6867861  50.0369064  62.5904196  20.3246698  50.7150218
  64.9038621  12.5748925  53.7492170  64.2843653  11.9841573  53.5802185
  64.8022485  13.1660361  53.1156493  64.7976297  12.5753008  53.6297160
  69.9504809  22.3132472  47.9990247  70.2720650  22.8537680  47.3951555
  70.5976905  21.7429244  48.1312536  70.0930864  22.3091647  47.9297282
  72.0006517  14.3148467  48.0824633  72.6986681  14.4936595  48.5746097
  72.3158849  13.7918807  47.4595023  72.1501854  14.2642239  48.0626644
  64.6307754  16.1201207  55.9935739  64.5066451  16.7063653  56.6285558
  65.2826039  15.6261403  56.2948014  64.7081403  16.1340012  56.1321669
  72.1894452  20.7018912  48.0704425  72.6288088  20.0936013  48.5159198
  72.0399115  20.3226286  47.2989890  72.2315918  20.5557383  48.0223592
  69.6566095  19.2962924  55.2723250  70.3015098  18.8035367  54.9534199
  69.8967872  19.4387711  56.0989329  69.7876680  19.2440366  55.3472784
  72.1952186  22.1417830  54.9230143  72.4775429  21.3469236  54.7016899
  72.9238347  22.6198417  54.9435204  72.3441750  22.0952427  54.8933158
  70.1733380   9.6840864  52.1645908  69.8436710  10.1352007  51.4949607
  69.4978382   9.6057027  52.7118914  70.0243817   9.7391999  52.1469131
  75.7903789  19.0546094  45.0235194  75.7055084  19.9107060  45.1684763
  76.2788172  18.7790418  45.6917353  75.8492686  19.1403415  45.1437276
  76.7222222  15.6730888  46.5232929  76.1933693  15.8890521  47.1830235
  77.2447242  16.3667026  46.4433899  76.7210675  15.8074025  46.6088528
  68.6121830  19.5694105  45.3240397  68.0279045  20.0744136  45.7306261
  68.2091925  19.3436491  44.5836989  68.4661133  19.6102353  45.2745422
  64.1665858  25.2848866  52.1264069  63.6833436  26.0099355  52.1023652
  64.9789177  25.5824996  52.2374226  64.2156606  25.4351219  52.1391348
  70.2380012  24.0781046  54.7313883  69.7206954  23.7188461  54.1275191
  70.9354404  23.5543221  54.7419949  70.2645593  23.9478734  54.6444142
  73.8943604  24.5275860  60.6930056  73.9826950  24.3402001  61.5408267
  74.3233317  23.8813290  60.2934903  73.9705707  24.4038868  60.7601808
  71.4614064  23.8107020  59.6747718  70.8984899  23.3979630  60.1987380
  72.2235088  23.7359926  60.0940862  71.4908513  23.7384421  59.8140719
  73.0699044  15.8159757  43.8009318  73.3095048  16.0237740  42.9884661
  73.3914885  15.0117265  43.9098262  73.1536202  15.7273858  43.6969871
  67.0210056  25.8005042  52.2784349  67.7230635  25.2857031  52.3357105
  66.9407539  26.1279193  53.0831224  67.1133816  25.7719268  52.4057141
  68.0688962  16.0380628  61.4064764  68.2409466  15.9286523  62.2550045
  68.6058320  16.6835034  61.1695956  68.1733966  16.1172630  61.4969860
  66.7346399  10.1523471  44.3446969  66.5521972  10.3695352  43.5187962
  67.5972012  10.2662484  44.4005583  66.8350988  10.2013369  44.2301456
  66.3460831  21.9911394  51.7869957  67.1849730  22.2234326  51.8343718
  66.3772600  21.1215705  51.7176992  66.4742549  21.8968340  51.7834601
  66.9713534  22.4112269  56.0883262  67.5111759  22.2683400  56.7586635
  66.2883480  22.8109020  56.4567288  66.9505688  22.4491940  56.2417684
  76.3954419  18.0903269  51.2828286  77.1511934  18.5234784  51.3217195
  76.5016743  17.4408039  51.8562923  76.5224589  18.0580753  51.3726312
  74.0063664  23.9584879  63.3573840  74.7904080  24.0715727  63.7229582
  73.8060258  23.1326017  63.5532526  74.0929689  23.8531599  63.4408226
  62.3750679  18.6312560  56.2417684  62.1089094  17.8151676  56.4008674
  62.3889243  18.6765715  55.3713199  62.3375401  18.5169464  56.1371166
  66.2808426  13.4297644  42.8569442  65.5666603  13.1435823  43.2691874
  66.7652395  13.7694270  43.4975829  66.2467789  13.4379294  43.0125077
  67.1249285  12.1690938  58.8884691  66.4321082  11.6987918  59.1345423
  67.7409613  11.9429242  59.4626399  67.1133815  12.0658070  59.0093844
  74.1634057  25.8694981  57.0040295  73.3649303  25.6294482  57.2614164
  74.6120068  25.9209374  57.7507343  74.1108668  25.8417373  57.1525220
  73.4555744  21.9327598  43.2331250  73.8706892  21.6012622  42.5415746
  72.6247674  21.6996500  43.1051387  73.3943753  21.8498854  43.1122097
  62.7844093  19.4171339  53.5229428  62.6019666  19.3918225  52.6701720
  63.5193762  19.8870277  53.5618337  62.8658157  19.4832701  53.4027346
  65.8489844  16.1356342  60.0311537  66.5729817  16.1209372  60.5176431
  65.9505981  16.8451697  59.5333505  65.9708053  16.2381045  60.0290323
  75.8966113  16.3389418  49.1855499  75.9912967  17.0778712  49.6395125
  75.2724956  15.9106893  49.6190064  75.8175143  16.3850738  49.3163647
  74.1518587  19.5175630  59.8345780  74.7257448  18.8802874  59.9894344
  74.0733390  19.5179713  58.9655438  74.2251821  19.4240742  59.7292191
  62.7515003  16.2964840  53.6728495  63.3288506  16.1601290  54.3120740
  62.0529065  15.8400624  53.9274079  62.7336024  16.2087106  53.8050784
  76.1489134  18.1838157  42.4192451  76.0669297  18.2540344  43.2847438
  76.7868855  18.7467901  42.2276192  76.2308971  18.2777128  42.5182401
  69.5082305  17.9498895  51.8866978  69.2501549  17.1170630  51.8598277
  69.5630788  18.1756508  51.0459478  69.4782083  17.8596667  51.7587114
  68.4817017  15.5036658  52.3731872  67.9066609  15.6628826  53.0095833
  68.1052694  14.8672067  51.9100323  68.3419830  15.4334471  52.3986431
  72.1490306  13.9760007  57.2324251  71.7604739  13.5514225  56.5776442
  71.4845004  14.2242157  57.7401278  71.9937234  13.9498728  57.2112119
  58.2273836  15.1476733  50.3876313  58.3134088  14.7708601  51.1689843
  58.8549634  14.7737178  49.9096271  58.3330387  15.0362215  50.4321790
  73.2529244  18.2058612  45.4301058  74.0669883  18.4973504  45.3183829
  73.1888385  17.5518474  44.8559351  73.3631983  18.1523806  45.3289895
  69.1237152  21.6780129  50.5573370  69.7611099  21.4391877  51.1025163
  69.5492224  21.8817288  49.8226531  69.2813319  21.6731139  50.5290527
  63.8149795  23.9168466  54.4407674  63.8553940  24.1883317  53.6127453
  64.3744319  24.4410374  54.8565462  63.9033141  24.0344221  54.3799562
  69.7639968  16.8982419  44.8948259  70.1485120  16.6790126  45.6464804
  69.5151588  17.7245364  45.0249336  69.7842040  16.9880565  45.0249336
  71.5058624  22.1552552  52.2367156  71.5797633  21.9927724  53.0909006
  72.3228131  22.3442741  51.9927638  71.6374983  22.1589294  52.3265182
  65.2664381  22.5010415  49.2661600  64.4402499  22.7472152  49.1395879
  65.3276372  22.4222495  50.1323658  65.1538548  22.5255363  49.3750544
  67.4840405   8.5679356  50.2257040  66.6162830   8.6401955  50.2914649
  67.7715609   9.3701434  50.4145015  67.3980153   8.6973503  50.2631806
  70.0463210  25.1187295  46.9680630  70.3361509  24.7276276  46.2439856
  70.7766691  25.3004000  47.4085905  70.1970094  25.0881109  46.9263437
  70.6357955  19.9205041  58.0533760  70.1369649  20.6320808  58.1318649
  71.4458180  20.2405707  58.0151923  70.6814062  20.0731889  58.0590329
  67.9869126  27.0954677  50.0340779  67.7669421  26.8052032  50.8267446
  67.7663648  26.4369632  49.5058692  67.9216720  26.9554386  50.0729688
  66.8986073  19.1827994  52.2996481  66.6099322  18.5565465  52.8342208
  67.7669421  19.1248281  52.3661161  66.9846325  19.0815538  52.3887436
  77.6863971  14.3262777  52.6178463  77.3428737  13.6053112  52.9685713
  77.7857013  14.1176628  51.7756821  77.6506014  14.1886980  52.5450143
  70.1537081  28.4684067  48.8171472  70.8061139  27.9360509  49.0462498
  69.4562690  28.1152719  49.2039346  70.1467799  28.3373590  48.9083640
  67.1018346  20.8223245  48.2238846  67.8564314  21.2036284  48.4374309
  66.5088959  21.2734388  48.6785543  67.1255060  20.9452072  48.3221724
  78.1477000  20.7888481  48.1602451  78.7135032  21.4481691  48.0760994
  77.5004903  21.1338179  48.6318853  78.1355756  20.9370422  48.2175208
  69.5625013  12.7786085  63.3496058  68.7524789  13.0843865  63.2385901
  70.0399700  13.4991667  63.4648642  69.5128492  12.9300686  63.3503129
  68.4216573  21.9931806  53.5978961  67.8997326  22.1332098  54.2830826
  68.8090593  21.2342470  53.7881079  68.4020274  21.9017330  53.7280038
  65.4107757  12.0437615  47.6673916  65.1232553  11.6738885  46.9305863
  66.0978225  12.5132470  47.4057621  65.4696654  12.0584584  47.5188992
  74.6183578  23.7327265  47.5839530  74.3770254  22.9995126  47.1766595
  74.7984911  24.2814122  46.9305864  74.6091202  23.7049656  47.4269753
  69.8482899  19.0235825  48.9960453  69.6525681  19.6310560  48.4020755
  70.0717244  18.3303769  48.5152126  69.8517540  19.0113351  48.8376533
  68.2461429  15.9090563  49.1141321  68.9684080  16.0731721  48.6545127
  67.7669421  16.6300228  49.0080661  68.2825159  16.0388793  49.0306935
  76.2054936  12.2454362  54.4938006  75.3666037  12.2715641  54.2576269
  76.2759303  12.8925097  55.0743352  76.0923330  12.3450488  54.5447123
  65.8969045  18.3148635  58.2195461  66.4090142  18.5932889  57.5704220
  65.6105388  19.0537929  58.5858274  65.9303908  18.4650989  58.1785339
  62.9835952  12.8218827  48.5159197  63.0852088  13.6244989  48.8440173
  63.7791838  12.6206163  48.2182278  63.1163857  12.9104726  48.5194553
  69.4152771  10.4075024  58.2796502  69.2235968  10.4230158  59.1295926
  70.2651367  10.6038698  58.2563157  69.5128493  10.4389375  58.4019797
  63.7999684  12.9366005  56.2580319  63.6585175  12.0849946  56.3824827
  64.0840247  12.9794666  55.4342525  63.8207530  12.8165756  56.1547943
  73.9538276  14.7733096  50.4024807  73.7072990  14.6928847  51.2361596
  74.2823399  13.9886564  50.2087335  73.9659520  14.6459361  50.4972330
  77.8486325  21.4816455  54.1911588  77.7100684  22.1797501  54.6960331
  77.0686323  21.3265112  53.8347770  77.7129552  21.5616622  54.2137862
  69.9135303  17.5089814  59.8147790  70.0578679  18.0891022  59.1790900
  70.2610952  17.8866111  60.5197645  69.9862765  17.6510518  59.8246785
  72.0855221  16.7079983  57.5972922  71.3378535  16.9010997  57.1921200
  72.2396746  15.8825202  57.3597043  71.9977648  16.6145094  57.5018328
  68.9863058  25.6992586  56.6808817  69.1352622  25.1395502  56.0282221
  69.7663060  25.7784588  57.0641336  69.1237152  25.6278152  56.6405766
  71.5116359  25.8707229  57.9593308  71.4360030  25.2016040  58.5144096
  71.4406218  26.5725017  58.4733974  71.4896966  25.8752136  58.1170156
  72.3256998  10.6030533  58.4868325  72.7829612  11.3354508  58.6141118
  72.4013326  10.1796999  59.2455581  72.4047968  10.6487771  58.6169402
  64.5689989  10.8496353  59.5757769  64.0332178  10.2376711  59.8918536
  64.6307754  11.4244489  60.2291436  64.4985622  10.8443281  59.7193196
  72.1686606  24.3908228  48.7916914  72.9336497  24.1217872  48.4699578
  72.0664696  23.9058238  49.5086977  72.2668101  24.2797792  48.8496741
  70.2039376  12.5932637  55.3310149  69.4135450  12.4124097  55.6527485
  70.5999998  11.8159590  55.3140444  70.1456252  12.4520098  55.3762698
  74.6905266  21.4220412  40.7716863  75.4578251  21.4820537  40.3622715
  74.2436575  20.8500853  40.2873182  74.7378694  21.3456987  40.6394573
  75.5883062  20.2275067  53.0569595  74.9128064  19.9960300  53.5582982
  75.5975438  19.6196250  52.4311700  75.4901566  20.1033993  53.0385748
  72.7177206  15.0692896  59.8133648  72.6536347  15.9302853  59.6853785
  72.8574394  14.7524890  59.0129200  72.7292676  15.1493063  59.6761861
  77.5899796  23.0840200  45.2879773  77.6719634  23.8907186  44.9641224
  78.0749539  23.1036159  46.0120547  77.6736954  23.2060862  45.3466672
  71.3996300  17.7625036  53.9549851  70.9758549  17.9629535  53.2188870
  71.2241155  16.9153884  54.0674151  71.3107180  17.6673817  53.8623541
  70.9007993  29.2775549  56.4171309  71.3903924  28.5786338  56.2346973
  70.3292226  28.9799419  57.0047366  70.8892523  29.1301772  56.4772349
  66.6878745  18.2577087  49.3877824  66.8443364  18.1923890  50.2433816
  67.0279338  19.0325640  49.1756503  66.7611980  18.3626285  49.4832418
  73.2257889  17.6334971  48.2571187  73.7673435  17.1305352  48.7209808
  73.5404448  17.5800165  47.4460672  73.3522286  17.5514392  48.2054999
  71.3944339  23.0252322  45.5411215  71.4637159  22.1666861  45.6804215
  72.1732794  23.2424203  45.2130240  71.5197189  22.9305186  45.5128372
  74.3747159  12.5271275  58.3093488  74.5889128  11.8882189  57.7556841
  73.7581058  12.9717099  57.8801349  74.3152488  12.4981419  58.1643919
  75.7851827  25.4490024  49.7547708  75.3931618  25.1456739  49.0370575
  75.9404899  26.2859114  49.5652662  75.7505416  25.5273860  49.6204206
  63.2613006  15.4412038  49.7038591  63.6411971  15.8596583  49.0398858
  62.6868371  16.0225493  50.0107434  63.2324331  15.5889896  49.6515332
  75.9491501  22.0140012  49.6953739  75.5906156  22.1854655  50.4717771
  75.4630212  22.4753218  49.1381737  75.8250198  22.1078984  49.7279008
  70.7379867  17.6939178  42.2353973  71.0272392  18.4704060  42.5097548
  70.8251666  17.1827909  42.9368473  70.7934123  17.7331096  42.3796471
  77.1096241  22.9043908  60.6420940  77.7475961  22.4104104  60.3083396
  76.4670332  22.8321309  60.0573167  77.1090467  22.8202917  60.5063295
  77.1650497  23.5963717  57.2826297  77.9542876  23.2452781  57.4028378
  77.3394095  24.4100105  57.0202930  77.3070779  23.6649574  57.2614165
  66.9043808  17.0072442  54.3354085  66.0631814  16.9076317  54.5432979
  67.1133816  17.7767923  54.6868406  66.8108500  17.1064486  54.4181400
  64.3819375  14.6291979  52.1638836  63.9876072  14.7034991  51.3888946
  63.8259492  15.0149926  52.7147198  64.2422187  14.6973754  52.1306496
  70.7160473  14.9353842  53.5851683  70.4123610  14.3809830  54.1862091
  70.0139893  15.1146052  53.0979717  70.5676682  14.8798624  53.6021389
  69.7726570  12.2454361  48.1496385  70.0486304  11.5273274  47.7373952
  70.3725239  12.8439281  47.9417491  69.9019834  12.2274732  48.0577146
  68.7778824  22.1503562  58.2923781  68.6699179  22.1605624  59.1585839
  68.9874605  22.9758343  58.1028735  68.7928935  22.2744637  58.3927872
  66.7952616  19.4016205  55.7545718  66.2040549  20.0425703  55.7248733
  67.5573639  19.8253822  55.7277018  66.8200876  19.5592043  55.7460866
  67.1913238  10.5618202  56.4213736  67.6514720  10.6357132  57.1588860
  67.2369345  11.3599456  56.0713557  67.2663794  10.6912350  56.4786492
  68.8396588  11.2284897  60.9885763  68.4482153  10.5818244  61.4241541
  69.0082451  11.8196333  61.6080018  68.8067499  11.2199165  61.1448469
  76.5542132  24.8525516  53.1877743  76.3561821  25.3416331  52.4933954
  75.9329843  25.0566758  53.7661876  76.4329696  24.9542055  53.1700966
  70.6150110  16.6210413  47.5287987  71.3592155  17.0084689  47.7670937
  70.7610806  15.7767838  47.6928475  70.7460695  16.5540886  47.5881957
  73.6027986  12.1935886  53.4281906  73.1287940  11.6677648  53.9387217
  73.9746122  11.6465359  52.8596768  73.5877875  12.0351883  53.4197054
  63.9801016  14.1907393  58.7965452  64.8426629  14.0903102  58.7102782
  63.6492799  13.6102102  58.2351024  64.0586213  14.0899020  58.7010858
  75.5311486  13.0872441  46.4907660  75.0034504  13.1701185  45.8013369
  75.9907194  13.8290312  46.4872305  75.5213336  13.2093103  46.3882355
  67.3402802  13.0149842  55.4575870  66.7155872  13.0268234  54.8501823
  67.0048397  13.4910017  56.1067111  67.1988294  13.0868359  55.4632439
  67.5244551  11.3574961  41.5148555  67.1757355  12.0094686  41.9780105
  67.0440997  11.3432074  40.7872427  67.4014795  11.4518014  41.4759647
  64.0528478  21.0750302  56.8979635  63.5228402  20.3842741  56.9474609
  64.3253571  21.0660488  56.0692343  64.0153200  20.9717434  56.7827051
  75.0848568  21.6576005  45.6217317  75.8082767  22.1234118  45.4781891
  74.6449159  21.7249614  44.8714914  75.1264260  21.7359841  45.4902099
  74.2534723  18.5173547  56.8718006  73.6391716  17.9731597  57.1666642
  74.7702008  18.0037783  56.3923822  74.2390386  18.3609956  56.8442235
  73.4931020  19.5877817  54.6062305  73.0658629  18.9627536  54.1727740
  73.4855965  19.3052739  55.4321312  73.4290162  19.4530598  54.6642132
  66.6093548  14.6242990  57.6750739  66.7687034  13.8686314  58.0802461
  66.4286441  15.1733929  58.3291476  66.6058907  14.5936804  57.8313445
  71.8216730  10.4646571  54.8204839  71.8459217   9.9306684  54.1317619
  72.0728204   9.9563880  55.4830429  71.8626649  10.3107475  54.8169484
  59.3324320  17.7478066  54.2547983  59.2267769  17.7024911  53.3900067
  58.5824540  18.0931847  54.5362268  59.2059923  17.7918975  54.1685313
  68.1018052   9.1917390  54.2010583  68.1416424   9.6926596  54.9145291
  67.2767717   9.2827783  53.9316506  67.9857578   9.2799206  54.2661121
  70.2847665  18.7578130  62.3030878  69.4343296  18.8949844  62.4388523
  70.4475793  18.0241908  62.7478579  70.1831529  18.6692231  62.3886477
  69.5232416  15.7077899  56.4984482  68.6924345  15.8751717  56.2919730
  69.4683933  15.3313850  57.2833367  69.3921831  15.6767631  56.5833010
  67.8968460  13.9833491  47.0274600  68.0371421  14.4805955  47.7303241
  68.3950992  13.2819785  47.1688814  67.9909541  13.9535470  47.1526179
  67.9268682  14.8500602  44.3567177  68.5613761  15.4461027  44.2916638
  68.0094293  14.5504060  45.1713047  68.0325233  14.8941510  44.4670263
  69.5047665  10.7814577  44.3312619  69.8263506  10.3017660  43.6771881
  69.7674609  11.5914224  44.1403430  69.5913690  10.8304475  44.2068111
  72.7344638  21.8033452  57.8511435  72.2269729  22.3569299  58.2952065
  72.4371284  21.8641742  57.0330209  72.6149523  21.8939763  57.7959891
  64.4321670  17.0468443  47.6256723  64.9413899  17.6432950  48.0068028
  64.9055942  16.7794416  46.9433142  64.5765046  17.0954258  47.5811245
  75.3452418  25.7196709  45.7815378  74.6281728  25.5457572  45.3162616
  75.9959156  25.4849282  45.2490864  75.3354268  25.6592502  45.6344596
  77.9300389  14.5961298  49.5256683  77.2591579  15.1391000  49.3969749
  78.6240139  15.0656153  49.2838378  77.9329257  14.7459569  49.4712211
  71.9787123  26.7358010  54.7568442  71.7552777  25.9776839  55.1252468
  71.4896966  26.7656031  54.0348881  71.8730572  26.6280235  54.7045183
  66.7912202  13.6824701  50.4929903  66.0724191  14.0988834  50.7602767
  67.1624564  14.2478940  49.9421541  66.7404133  13.8273983  50.4512710
  76.0911782  14.3152550  56.3831899  76.0709710  14.1335845  57.2366678
  76.1390983  15.1864569  56.3591482  76.0946423  14.4169089  56.5055194
  74.0358112  20.9039742  62.3080375  73.9953967  20.2589419  61.7225531
  74.8481431  20.8476360  62.6205787  74.1501266  20.7998709  62.2677325
  70.6265580  26.9558468  52.2105526  70.2125978  26.2932598  51.8209368
  71.3112954  27.1036327  51.6901220  70.6663952  26.8799126  52.0762023
  73.9930874  26.1148553  52.9629143  73.5947157  26.2250824  52.1949963
  73.3782094  26.3230620  53.5455703  73.8429763  26.1622121  52.9360442
  72.5658776  12.7222701  45.8303283  71.9723615  13.0439698  45.2787850
  72.6034054  11.8763797  45.6224389  72.4833165  12.6447030  45.7186054
  75.4416593  12.6802206  49.2605033  75.2130286  12.7034907  48.4183391
  75.7014669  11.8559673  49.3800043  75.4462781  12.5618286  49.1530231
  69.7235821  14.5336679  58.8630133  69.2114724  13.9257862  59.2215164
  69.5515317  15.2493271  59.3304109  69.6225458  14.5499978  58.9846357
  64.5701536  12.9774254  61.5132495  64.4004126  13.6375629  60.9680701
  64.1267486  13.1880815  62.2344984  64.4800869  13.1060236  61.5394124
  68.4961355  11.2178752  50.5559228  68.9718721  11.5795832  49.9209410
  67.9949955  11.8735220  50.8359371  68.4926714  11.3672941  50.5035969
  61.4703600  15.8821120  56.7720985  60.9230320  15.2121765  56.8901853
  62.2595978  15.5150968  56.8364452  61.5055784  15.7286106  56.7989685
  71.3188009  15.5428577  62.2684396  72.0699336  15.8580254  62.5823950
  71.5110585  15.3407748  61.4418317  71.4579423  15.5595959  62.1927791
  70.5388008  13.3619952  43.9232612  70.9186973  13.3799581  43.1383727
  69.7980604  13.8073941  43.8023460  70.4856846  13.4301726  43.7896181
  60.2290570  15.0941927  53.9267008  60.0512331  14.6418536  54.6521923
  59.9409592  15.8968089  54.1105485  60.1603523  15.1464485  54.0610511
  75.8914151  16.3499645  53.1644398  76.3867816  15.6322640  53.1248418
  75.0813927  16.0470443  53.0498885  75.8458044  16.1997291  53.1418124
  71.3372762  20.1997458  45.3141402  70.5284085  19.8764132  45.2674712
  71.8447671  19.4930680  45.2469651  71.2922429  20.0478774  45.2971697
  61.9663040  17.6269651  51.0388767  61.1008559  17.6155342  50.9271538
  62.0661855  17.4399874  51.8859906  61.8537207  17.5975712  51.1477711
  77.9565970  19.1003332  55.8521527  78.3821041  18.5777754  55.2991952
  77.5922890  19.6984170  55.3310150  77.9652572  19.1113559  55.6930537
  67.5920049  27.3967550  54.6118872  67.9066608  28.2103938  54.6196654
  68.0013463  27.0117769  55.2801031  67.6988147  27.4596252  54.7122964
  74.5444569  22.8137597  52.1822684  75.0155747  23.5277859  52.3512669
  74.8804748  22.2136347  52.7182554  74.6639684  22.8309061  52.2855060
  75.1818515  22.6055531  58.9450377  74.6339461  21.9813414  58.6770442
  75.6431544  22.7949803  58.2294456  75.1685725  22.5414581  58.8000808
  70.5307179   9.5881480  46.6060244  71.3522873   9.7579793  46.3641939
  70.0676830   9.7428741  45.8826542  70.5838341   9.6363213  46.4631888
  64.9333070  21.3440658  54.2597481  65.5377927  21.3036492  53.6311301
  64.7260382  22.1911810  54.2901537  64.9921967  21.4628661  54.1713597
  74.7476842  23.6106603  55.4759718  75.5675216  23.4669569  55.7376013
  74.4670919  24.2352802  56.0176156  74.8273585  23.6816955  55.5947657
  60.1684352  20.3275276  54.1296404  60.0708630  19.5171547  54.4386460
  60.9513222  20.3067069  53.7442672  60.2700488  20.2042366  54.1183267
  73.5781117  35.9248503  50.8507863  73.3431302  35.0916155  50.7440131
  73.7166758  36.2053168  50.0369064  73.5636780  35.8432006  50.7150218
  75.8771205  28.0934233  53.7492170  75.2576236  27.5026881  53.5802185
  75.7755068  28.6845669  53.1156493  75.7708880  28.0938316  53.6297160
  75.6040338  31.6386515  55.9935739  75.4799034  32.2248961  56.6285558
  76.2558622  31.1446711  56.2948014  75.6813987  31.6525320  56.1321669
  75.1398442  40.8034174  52.1264069  74.6566020  41.5284663  52.1023652
  75.9521760  41.1010304  52.2374226  75.1889190  40.9536527  52.1391348
  77.9942639  41.3190349  52.2784349  78.6963218  40.8042339  52.3357105
  77.9140122  41.6464501  53.0831224  78.0866400  41.2904576  52.4057141
  77.7078983  25.6708779  44.3446969  77.5254556  25.8880660  43.5187962
  78.5704596  25.7847792  44.4005583  77.8083572  25.7198677  44.2301456
  77.3193415  37.5096701  51.7869957  78.1582314  37.7419634  51.8343718
  77.3505184  36.6401013  51.7176992  77.4475132  37.4153648  51.7834601
  77.9446118  37.9297577  56.0883262  78.4844342  37.7868708  56.7586635
  77.2616064  38.3294327  56.4567288  77.9238271  37.9677248  56.2417684
  73.3483263  34.1497867  56.2417684  73.0821678  33.3336984  56.4008674
  73.3621827  34.1951023  55.3713199  73.3107985  34.0354772  56.1371166
  77.2541010  28.9482952  42.8569442  76.5399187  28.6621131  43.2691874
  77.7384978  29.2879578  43.4975829  77.2200373  28.9564602  43.0125077
  78.0981869  27.6876246  58.8884691  77.4053666  27.2173225  59.1345423
  78.7142196  27.4614550  59.4626399  78.0866399  27.5843378  59.0093844
  73.7576676  34.9356647  53.5229428  73.5752249  34.9103533  52.6701720
  74.4926345  35.4055585  53.5618337  73.8390740  35.0018009  53.4027346
  76.8222428  31.6541650  60.0311537  77.5462400  31.6394680  60.5176431
  76.9238564  32.3637005  59.5333505  76.9440637  31.7566353  60.0290323
  73.7247587  31.8150148  53.6728495  74.3021089  31.6786598  54.3120740
  73.0261648  31.3585932  53.9274079  73.7068608  31.7272414  53.8050784
  69.2006420  30.6662040  50.3876313  69.2866672  30.2893909  51.1689843
  69.8282217  30.2922486  49.9096271  69.3062971  30.5547523  50.4321790
  74.7882378  39.4353773  54.4407674  74.8286524  39.7068625  53.6127453
  75.3476903  39.9595682  54.8565462  74.8765724  39.5529529  54.3799562
  76.2396965  38.0195722  49.2661600  75.4135082  38.2657460  49.1395879
  76.3008956  37.9407803  50.1323658  76.1271132  38.0440671  49.3750544
  78.4572988  24.0864663  50.2257040  77.5895414  24.1587263  50.2914649
  78.7448193  24.8886742  50.4145015  78.3712737  24.2158811  50.2631806
  77.8718657  34.7013302  52.2996481  77.5831905  34.0750773  52.8342208
  78.7402005  34.6433589  52.3661161  77.9578908  34.6000846  52.3887436
  76.3840341  27.5622923  47.6673916  76.0965136  27.1924193  46.9305863
  77.0710809  28.0317778  47.4057621  76.4429238  27.5769892  47.5188992
  76.8701629  33.8333943  58.2195461  77.3822726  34.1118197  57.5704220
  76.5837971  34.5723237  58.5858274  76.9036492  33.9836297  58.1785339
  73.9568535  28.3404135  48.5159197  74.0584672  29.1430297  48.8440173
  74.7524422  28.1391471  48.2182278  74.0896441  28.4290034  48.5194553
  74.7732267  28.4551313  56.2580319  74.6317759  27.6035254  56.3824827
  75.0572831  28.4979974  55.4342525  74.7940113  28.3351063  56.1547943
  75.5422572  26.3681661  59.5757769  75.0064762  25.7562019  59.8918536
  75.6040337  26.9429797  60.2291436  75.4718205  26.3628589  59.7193196
  77.6611328  33.7762395  49.3877824  77.8175947  33.7109198  50.2433816
  78.0011921  34.5510948  49.1756503  77.7344563  33.8811593  49.4832418
  74.2345590  30.9597346  49.7038591  74.6144555  31.3781891  49.0398858
  73.6600955  31.5410801  50.0107434  74.2056915  31.1075204  49.6515332
  77.8776391  32.5257750  54.3354085  77.0364398  32.4261625  54.5432979
  78.0866399  33.2953231  54.6868406  77.7841084  32.6249794  54.4181400
  75.3551958  30.1477287  52.1638836  74.9608656  30.2220299  51.3888946
  74.7992075  30.5335234  52.7147198  75.2154771  30.2159062  52.1306496
  77.7685199  34.9201513  55.7545718  77.1773132  35.5611011  55.7248733
  78.5306223  35.3439130  55.7277018  77.7933460  35.0777351  55.7460866
  78.1645822  26.0803510  56.4213736  78.6247304  26.1542440  57.1588860
  78.2101929  26.8784764  56.0713557  78.2396377  26.2097657  56.4786492
  74.9533600  29.7092701  58.7965452  75.8159213  29.6088410  58.7102782
  74.6225383  29.1287410  58.2351024  75.0318796  29.6084328  58.7010858
  78.3135386  28.5335150  55.4575870  77.6888456  28.5453542  54.8501823
  77.9780981  29.0095325  56.1067111  78.1720878  28.6053667  55.4632439
  78.4977134  26.8760269  41.5148555  78.1489939  27.5279994  41.9780105
  78.0173580  26.8617382  40.7872427  78.3747378  26.9703322  41.4759647
  75.0261061  36.5935610  56.8979635  74.4960986  35.9028049  56.9474609
  75.2986155  36.5845795  56.0692343  74.9885784  36.4902742  56.7827051
  77.5826131  30.1428298  57.6750739  77.7419618  29.3871622  58.0802461
  77.4019025  30.6919237  58.3291476  77.5791490  30.1122112  57.8313445
  70.3056904  33.2663374  54.2547983  70.2000353  33.2210219  53.3900067
  69.5557124  33.6117155  54.5362268  70.1792506  33.3104282  54.1685313
  75.4054253  32.5653751  47.6256723  75.9146483  33.1618258  48.0068028
  75.8788526  32.2979724  46.9433142  75.5497629  32.6139566  47.5811245
  77.7644785  29.2010009  50.4929903  77.0456774  29.6174142  50.7602767
  78.1357147  29.7664248  49.9421541  77.7136717  29.3459291  50.4512710
  75.5434119  28.4959562  61.5132495  75.3736710  29.1560937  60.9680701
  75.1000069  28.7066123  62.2344984  75.4533453  28.6245544  61.5394124
  72.4436184  31.4006428  56.7720985  71.8962903  30.7307073  56.8901853
  73.2328562  31.0336275  56.8364452  72.4788367  31.2471414  56.7989685
  71.2023153  30.6127235  53.9267008  71.0244914  30.1603844  54.6521923
  70.9142175  31.4153397  54.1105485  71.1336106  30.6649793  54.0610511
  72.9395623  33.1454959  51.0388767  72.0741143  33.1340650  50.9271538
  73.0394439  32.9585182  51.8859906  72.8269790  33.1161020  51.1477711
  75.9065653  36.8625966  54.2597481  76.5110511  36.8221800  53.6311301
  75.6992966  37.7097118  54.2901537  75.9654550  36.9813969  54.1713597
  71.1416935  35.8460584  54.1296404  71.0441213  35.0356855  54.4386460
  71.9245805  35.8252377  53.7442672  71.2433072  35.7227674  54.1183267
  73.2731941  12.8626634  37.7847909  73.0382126  12.0294286  37.6780178
  73.4117582  13.1431300  36.9709110  73.2587604  12.7810137  37.6490264
  74.8349266  17.7412305  39.0604116  74.3516844  18.4662794  39.0363699
  75.6472584  18.0388435  39.1714273  74.8840013  17.8914658  39.0731395
  77.6893463  18.2568481  39.2124395  78.3914042  17.7420470  39.2697152
  77.6090946  18.5842632  40.0171271  77.7817223  18.2282707  39.3397188
  77.0144238  14.4474833  38.7210003  77.8533138  14.6797765  38.7683765
  77.0456008  13.5779144  38.6517039  77.1425956  14.3531779  38.7174648
  77.6396941  14.8675708  43.0223309  78.1795166  14.7246839  43.6926681
  76.9566888  15.2672459  43.3907335  77.6189095  14.9055379  43.1757731
  73.0434087  11.0875999  43.1757731  72.7772502  10.2715115  43.3348721
  73.0572651  11.1329154  42.3053246  73.0058809  10.9732903  43.0711212
  73.4527500  11.8734778  40.4569475  73.2703073  11.8481664  39.6041767
  74.1877169  12.3433716  40.4958384  73.5341564  11.9396140  40.3367393
  74.4833202  16.3731905  41.3747721  74.5237348  16.6446756  40.5467500
  75.0427726  16.8973813  41.7905508  74.5716548  16.4907660  41.3139609
  75.9347789  14.9573854  36.2001647  75.1085906  15.2035591  36.0735925
  75.9959780  14.8785934  37.0663705  75.8221956  14.9818803  36.3090591
  78.6552533  19.5518116  36.9680826  78.4352829  19.2615471  37.7607493
  78.4347055  18.8933071  36.4398739  78.5900127  19.4117825  37.0069735
  77.7701754  13.2786684  35.1578893  78.5247722  13.6599723  35.3714355
  77.1772366  13.7297827  35.6125589  77.7938467  13.4015511  35.2561771
  77.4636023  11.8579644  42.6885765  76.8723956  12.4989142  42.6588780
  78.2257047  12.2817261  42.6617065  77.4884284  12.0155482  42.6800912
  74.7211885  13.5313741  43.8319681  74.1911810  12.8406180  43.8814656
  74.9936979  13.5223927  43.0032390  74.6836608  13.4280873  43.7167097
  70.0007728  10.2041505  41.1888030  69.8951177  10.1588350  40.3240114
  69.2507947  10.5495286  41.4702315  69.8743330  10.2482414  41.1025359
  78.2603457  19.8530989  41.5458919  78.5750016  20.6667377  41.5536701
  78.6696870  19.4681208  42.2141078  78.3671555  19.9159691  41.6463011
  75.6016477  13.8004097  41.1937527  76.2061335  13.7599932  40.5651348
  75.3943790  14.6475249  41.2241583  75.6605374  13.9192100  41.1053644
  70.8367759  12.7838715  41.0636451  70.7392037  11.9734986  41.3726507
  71.6196629  12.7630508  40.6782719  70.9383896  12.6605805  41.0523314
  26.3758876  30.5625924  74.2987861  26.3452880  31.4170561  74.4706131
  26.9740225  30.2621217  74.8574005  26.4596034  30.6442421  74.4062664
  13.9599701  39.1864293  74.8178023  13.2082600  38.8079831  74.5894068
  14.4085712  39.2182727  74.0696834  13.9149367  39.1349900  74.6735525
  19.4124660  39.6089663  70.2463570  19.0776029  40.2866584  69.8107792
  19.9251531  39.2194974  69.6580442  19.4390242  39.6514241  70.0950362
  18.9528952  41.5603931  76.1874682  19.3368331  42.1290830  75.6479457
  18.8888093  40.8353442  75.7080498  19.0002379  41.5379395  76.0368544
  24.1975451  33.1378226  72.5706171  24.0814976  33.8885912  72.9998309
  24.9931337  32.8802180  72.8202258  24.2980040  33.2113073  72.6710263
  15.3785196  44.1160274  78.4855652  16.0222652  44.5573438  78.8751810
  15.7041452  43.3113701  78.3985911  15.5217025  44.0625469  78.5301129
  16.0805776  37.1272249  73.8575514  16.4021617  37.6677457  73.2536822
  16.7277873  36.5569021  73.9897803  16.2231831  37.1231424  73.7882549
  18.3195420  35.5158689  73.9289692  18.7589055  34.9075790  74.3744464
  18.1700082  35.1366063  73.1575157  18.3616885  35.3697160  73.8808859
  21.9204756  33.8685871  70.8820461  21.8356051  34.7246837  71.0270030
  22.4089139  33.5930195  71.5502620  21.9793653  33.9543192  71.0022542
  22.8523189  30.4870665  72.3818196  22.3234661  30.7030298  73.0415502
  23.3748209  31.1806803  72.3019165  22.8511642  30.6213802  72.4673795
  28.3071242  36.0616969  77.7551241  27.4768945  36.2727613  77.9184657
  28.2580495  35.2354024  77.4793524  28.1777978  35.9706575  77.7388606
  14.7422797  34.3833882  71.1825664  14.1580012  34.8883913  71.5891528
  14.3392892  34.1576268  70.4422256  14.5962101  34.4242130  71.1330689
  19.2000012  30.6299534  69.6594585  19.4396015  30.8377517  68.8469928
  19.5215853  29.8257042  69.7683529  19.2837169  30.5413635  69.5555138
  25.5635557  36.7316324  77.8915956  25.1270789  36.7353066  78.6474928
  25.2298473  37.4121823  77.4595534  25.4498177  36.8328779  77.9396789
  12.4109393  28.2437421  68.7154709  11.6967571  27.9575600  69.1277141
  12.8953362  28.5834047  69.3561096  12.3768757  28.2519071  68.8710344
  28.6979904  33.4497243  76.7835594  29.3596338  32.8887912  76.6831502
  28.0571316  32.9549274  77.1088285  28.7008771  33.2933653  76.8167934
  19.5856711  36.7467375  69.0916517  20.0007860  36.4152399  68.4001013
  18.7548641  36.5136277  68.9636653  19.5244720  36.6638631  68.9707364
  24.9844734  34.4662626  76.5247582  25.2200324  34.6107825  75.6974433
  25.1334298  35.2305034  76.9179096  25.0410538  34.6001680  76.4611186
  26.8135191  33.3064292  74.3617186  27.1443408  33.8391932  73.7557281
  27.3868279  33.3603180  75.0179137  26.9468870  33.3933861  74.3694968
  22.2790102  32.9977934  68.2777718  22.1970264  33.0680121  69.1432705
  22.9169822  33.5607678  68.0861459  22.3609939  33.0916905  68.3767668
  27.9214543  28.5474789  75.8657348  27.6651107  27.7354730  75.6755231
  28.7643857  28.5552356  75.6387535  28.0080568  28.4286786  75.8042165
  19.3830212  33.0198389  71.2886325  20.1970851  33.3113281  71.1769096
  19.3189353  32.3658251  70.7144618  19.4932951  32.9663583  71.1875162
  15.8940935  31.7122196  70.7533526  16.2786088  31.4929903  71.5050071
  15.6452555  32.5385141  70.8834603  15.9143008  31.8020342  70.8834603
  16.1764178  39.9327072  72.8265896  16.4662476  39.5416053  72.1025123
  16.9067659  40.1143777  73.2671172  16.3271062  39.9020886  72.7848703
  14.1170093  41.9094454  75.8926046  13.8970389  41.6191809  76.6852713
  13.8964615  41.2509409  75.3643959  14.0517687  41.7694163  75.9314955
  16.2838049  43.2823844  74.6756739  16.9362107  42.7500286  74.9047765
  15.5863658  42.9292496  75.0624613  16.2768767  43.1513367  74.7668906
  24.2777967  35.6028258  74.0187718  24.8436000  36.2621468  73.9346261
  23.6305871  35.9477956  74.4904120  24.2656724  35.7510199  74.0760474
  20.7484545  38.5467042  73.4424797  20.5071221  37.8134903  73.0351862
  20.9285878  39.0953899  72.7891130  20.7392169  38.5189433  73.2855020
  25.4740665  35.6534486  70.8113354  25.0947474  34.8671624  70.8042644
  24.8106911  36.2021343  70.6684999  25.3199140  35.6179310  70.7894151
  18.2987573  39.2048005  74.6502181  19.0637464  38.9357649  74.3284845
  18.1965663  38.7198015  75.3672243  18.3969069  39.0937569  74.7082008
  20.8206234  36.2360189  66.6302130  21.5879219  36.2960314  66.2207982
  20.3737543  35.6640630  66.1458448  20.8679661  36.1596764  66.4979840
  23.7200764  37.8979977  71.1465040  23.8020601  38.7046963  70.8226491
  24.2050506  37.9175936  71.8705814  23.8037922  38.0200639  71.2051939
  19.3558857  32.4474748  74.1156454  19.8974402  31.9445129  74.5795074
  19.6705416  32.3939942  73.3045939  19.4823254  32.3654169  74.0640266
  17.5245307  37.8392099  71.3996482  17.5938127  36.9806638  71.5389482
  18.3033762  38.0563980  71.0715506  17.6498157  37.7444963  71.3713639
  21.9152794  40.2629801  75.6132975  21.5232586  39.9596516  74.8955841
  22.0705866  41.0998891  75.4237929  21.8806384  40.3413637  75.4789472
  22.0792469  36.8279789  75.5539006  21.7207124  36.9994432  76.3303038
  21.5931180  37.2892995  74.9967004  21.9551166  36.9218760  75.5864275
  16.8680834  32.5078955  68.0939240  17.1573359  33.2843837  68.3682814
  16.9552633  31.9967686  68.7953739  16.9235091  32.5470873  68.2381738
  22.6843099  39.6665293  79.0463010  22.4862788  40.1556108  78.3519221
  22.0630810  39.8706535  79.6247143  22.5630664  39.7681832  79.0286233
  21.6612453  27.9012218  72.3492927  21.1335472  27.9840962  71.6598636
  22.1208161  28.6430089  72.3457572  21.6514304  28.0232880  72.2467622
  13.6545518  26.1714738  67.3733822  13.3058323  26.8234463  67.8365372
  13.1741964  26.1571851  66.6457693  13.5315762  26.2657791  67.3344913
  21.2149536  36.4715782  71.4802584  21.9383735  36.9373895  71.3367157
  20.7750127  36.5389391  70.7300181  21.2565228  36.5499618  71.3487365
  14.0569650  29.6640379  70.2152444  14.6914729  30.2600804  70.1501905
  14.1395260  29.3643837  71.0298314  14.1626201  29.7081287  70.3255530
  21.4753385  40.5336486  71.6400645  20.7582695  40.3597349  71.1747882
  22.1260123  40.2989059  71.1076131  21.4655236  40.4732279  71.4929863
  16.7566547  41.7698245  78.0690793  16.3426946  41.1072375  77.6794635
  17.4413922  41.9176104  77.5486487  16.7964919  41.6938903  77.9347290
  20.1231841  40.9288330  78.8214410  19.7248125  41.0390601  78.0535230
  19.5083061  41.1370397  79.4040969  19.9730731  40.9761898  78.7945709
  27.8573684  35.5040297  72.2057500  28.2407290  36.2531653  72.4355597
  27.0617797  35.7506117  71.9469489  27.7967466  35.6509991  72.2015074
  16.6688976  28.1759729  69.7817879  17.0487941  28.1939358  68.9968994
  15.9281572  28.6213718  69.6608727  16.6157814  28.2441503  69.6481447
  17.4673730  35.0137235  71.1726669  16.6585053  34.6903909  71.1259979
  17.9748639  34.3070457  71.1054918  17.4223397  34.8618551  71.1556964
  37.3491460  46.0811232  74.2987861  37.3185464  46.9355869  74.4706131
  37.9472808  45.7806525  74.8574005  37.4328618  46.1627729  74.4062664
  30.5491144  45.1686883  79.0540792  29.6929040  45.3295381  79.1049908
  30.5958798  44.2978947  79.0745853  30.4290256  45.0637685  79.0646858
  24.9332284  54.7049601  74.8178023  24.1815184  54.3265139  74.5894068
  25.3818296  54.7368035  74.0696834  24.8881951  54.6535208  74.6735525
  30.3857244  55.1274971  70.2463570  30.0508613  55.8051892  69.8107792
  30.8984115  54.7380282  69.6580442  30.4122825  55.1699549  70.0950362
  29.9261535  57.0789239  76.1874682  30.3100915  57.6476138  75.6479457
  29.8620677  56.3538750  75.7080498  29.9734963  57.0564703  76.0368544
  33.3942966  47.2278927  81.6972443  33.9398926  47.9064014  81.7566413
  33.3359842  47.0866388  80.8374025  33.4658880  47.3070929  81.5784504
  26.5117040  54.7167993  77.0840796  26.6127403  53.9068347  77.3937924
  25.9158786  54.6224940  76.4540474  26.4389579  54.5833021  77.0367034
  35.1708034  48.6563534  72.5706171  35.0547560  49.4071220  72.9998309
  35.9663921  48.3987487  72.8202258  35.2712624  48.7298381  72.6710263
  26.3517780  59.6345582  78.4855652  26.9955235  60.0758746  78.8751810
  26.6774036  58.8299009  78.3985911  26.4949609  59.5810777  78.5301129
  22.0072172  42.9074010  79.6077437  21.3877204  42.3166658  79.4387452
  21.9056036  43.4985446  78.9741760  21.9009848  42.9078093  79.4882427
  27.0538360  52.6457557  73.8575514  27.3754201  53.1862765  73.2536822
  27.7010456  52.0754329  73.9897803  27.1964415  52.6416732  73.7882549
  21.7341305  46.4526292  81.8521006  21.6100002  47.0388738  82.4870825
  22.3859590  45.9586488  82.1533281  21.8114954  46.4665097  81.9906935
  29.2928003  51.0343997  73.9289692  29.7321639  50.4261098  74.3744464
  29.1432666  50.6551371  73.1575157  29.3349469  50.8882468  73.8808859
  26.7599646  49.6288009  81.1308517  27.4048649  49.1360452  80.8119466
  27.0001423  49.7712796  81.9574595  26.8910231  49.5765451  81.2058050
  29.2985738  52.4742915  80.7815410  29.5808980  51.6794321  80.5602166
  30.0271898  52.9523502  80.8020471  29.4475301  52.4277512  80.7518425
  27.2766931  40.0165949  78.0231175  26.9470261  40.4677092  77.3534874
  26.6011933  39.9382112  78.5704181  27.1277368  40.0717084  78.0054398
  32.8937340  49.3871178  70.8820461  32.8088635  50.2432145  71.0270030
  33.3821723  49.1115503  71.5502620  32.9526237  49.4728500  71.0022542
  34.4843339  36.0051472  76.2680786  34.1696780  36.6954950  76.7001208
  33.9670281  35.9496254  75.5666286  34.3607810  36.0986360  76.2277735
  33.8255773  46.0055973  72.3818196  33.2967244  46.2215606  73.0415502
  34.3480793  46.6992111  72.3019165  33.8244226  46.1399110  72.4673795
  39.2803826  51.5802277  77.7551241  38.4501529  51.7912921  77.9184657
  39.2313078  50.7539332  77.4793524  39.1510561  51.4891883  77.7388606
  25.7155381  49.9019189  71.1825664  25.1312596  50.4069221  71.5891528
  25.3125476  49.6761576  70.4422256  25.5694685  49.9427438  71.1330689
  21.2699409  55.6173951  77.9849336  20.7866988  56.3424440  77.9608919
  22.0822728  55.9150081  78.0959493  21.3190157  55.7676304  77.9976615
  30.1732595  46.1484842  69.6594585  30.4128599  46.3562825  68.8469928
  30.4948436  45.3442350  69.7683529  30.2569753  46.0598943  69.5555138
  25.4822885  38.0778237  73.5054123  26.2368853  38.4456554  73.2671173
  25.3050420  38.4517792  74.2733302  25.5677364  38.1876425  73.5839011
  24.1243607  56.1330126  78.1369615  24.8264186  55.6182116  78.1942372
  24.0441090  56.4604278  78.9416491  24.2167367  56.1044353  78.2642408
  38.7757784  44.2272678  81.5501662  37.9386205  44.2974865  81.7849256
  38.7446015  44.2297173  80.6775964  38.6476067  44.2382905  81.4561210
  23.8379950  40.4848556  70.2032236  23.6555523  40.7020437  69.3773228
  24.7005563  40.5987569  70.2590850  23.9384540  40.5338454  70.0886723
  23.4494382  52.3236478  77.6455223  24.2883281  52.5559411  77.6928985
  23.4806151  51.4540790  77.5762259  23.5776100  52.2293425  77.6419868
  24.0747085  52.7437354  81.9468529  24.6145310  52.6008485  82.6171901
  23.3917031  53.1434104  82.3152555  24.0539239  52.7817025  82.1002951
  29.5179669  37.4874967  73.2381259  30.2465830  37.3090922  72.7919416
  29.6074562  38.3293047  73.4488438  29.6386331  37.5858845  73.2034777
  33.4987970  48.4228354  77.1413553  34.2545485  48.8559869  77.1802462
  33.6050294  47.7733124  77.7148189  33.6258141  48.3905838  77.2311579
  36.5368141  52.2501632  77.8915956  36.1003373  52.2538374  78.6474928
  36.2031057  52.9307131  77.4595534  36.4230761  52.3514087  77.9396789
  36.4565624  39.2915459  80.1345384  37.0991532  39.3613564  80.7207300
  36.7088645  38.6244682  79.6324926  36.5887756  39.2041808  80.1472664
  23.3841977  43.7622729  68.7154709  22.6700154  43.4760908  69.1277141
  23.8685946  44.1019355  69.3561096  23.3501340  43.7704379  68.8710344
  39.6712487  48.9682551  76.7835594  40.3328921  48.4073220  76.6831502
  39.0303899  48.4734582  77.1088285  39.6741355  48.8118960  76.8167934
  30.5589295  52.2652683  69.0916517  30.9740443  51.9337707  68.4001013
  29.7281225  52.0321585  68.9636653  30.4977304  52.1823939  68.9707364
  19.8877644  49.7496424  79.3814695  19.7053217  49.7243310  78.5286987
  20.6227313  50.2195362  79.4203604  19.9691708  49.8157786  79.2612613
  35.9577318  49.9847934  76.5247582  36.1932907  50.1293133  75.6974433
  36.1066882  50.7490342  76.9179096  36.0143121  50.1186988  76.4611186
  37.7867775  48.8249600  74.3617186  38.1175992  49.3577240  73.7557281
  38.3600863  48.8788488  75.0179137  37.9201454  48.9119169  74.3694968
  32.9999664  46.6714502  75.0440766  33.0946518  47.4103797  75.4980392
  32.3758507  46.2431978  75.4775331  32.9208694  46.7175823  75.1748914
  19.8548554  46.6289925  79.5313761  20.4322057  46.4926375  80.1706007
  19.1562616  46.1725709  79.7859346  19.8369575  46.5412191  79.6636051
  33.2522685  48.5163242  68.2777718  33.1702848  48.5865429  69.1432705
  33.8902406  49.0792986  68.0861459  33.3342522  48.6102213  68.3767668
  26.6115856  48.2823980  77.7452245  26.3535101  47.4495715  77.7183544
  26.6664339  48.5081593  76.9044745  26.5815634  48.1921751  77.6172381
  31.6916906  40.3852431  77.8456337  30.9873233  39.8961616  78.0040256
  31.7401881  40.3974905  76.9744782  31.5946958  40.3142079  77.7395677
  25.5850568  45.8361743  78.2317139  25.0100160  45.9953911  78.8681100
  25.2086245  45.1997152  77.7685590  25.4453381  45.7659556  78.2571698
  29.2523857  44.3085092  83.0909518  28.8638290  43.8839310  82.4361709
  28.5878555  44.5567242  83.5986544  29.0970785  44.2823813  83.0697386
  38.8947126  44.0660097  75.8657348  38.6383691  43.2540038  75.6755231
  39.7376440  44.0737664  75.6387535  38.9813152  43.9472094  75.8042165
  15.3307387  45.4801817  76.2461580  15.4167639  45.1033686  77.0275110
  15.9583185  45.1062263  75.7681538  15.4363938  45.3687300  76.2907057
  33.0750219  38.0059721  80.6033502  33.4560730  37.3237892  80.9901376
  32.2713503  37.7169323  80.4209166  33.0126680  37.8626769  80.6337558
  30.3562795  48.5383697  71.2886325  31.1703434  48.8298589  71.1769096
  30.2921937  47.8843559  70.7144618  30.4665534  48.4848891  71.1875162
  26.2270704  52.0105214  76.4158637  26.8644651  51.7716962  76.9610430
  26.6525775  52.2142373  75.6811797  26.3846870  52.0056224  76.3875794
  26.8673519  47.2307504  70.7533526  27.2518671  47.0115210  71.5050071
  26.6185139  48.0570449  70.8834603  26.8875591  47.3205650  70.8834603
  28.6092176  52.4877637  78.0952423  28.6831184  52.3252808  78.9494273
  29.4261682  52.6767826  77.8512905  28.7408534  52.4914379  78.1850449
  22.3697932  52.8335499  75.1246867  21.5436050  53.0797237  74.9981145
  22.4309923  52.7547580  75.9908925  22.2572099  52.8580448  75.2335811
  24.5873956  38.9004440  76.0842307  23.7196381  38.9727040  76.1499916
  24.8749160  39.7026519  76.2730282  24.5013704  39.0298588  76.1217073
  33.7106845  39.0482300  84.4153629  34.4560437  38.8592110  84.0017054
  33.2944149  39.5740538  83.8567485  33.7591819  39.0984445  84.2718202
  27.1496761  55.4512380  72.8265896  27.4395060  55.0601361  72.1025123
  27.8800242  55.6329085  73.2671172  27.3003645  55.4206193  72.7848703
  41.0869116  46.4191528  79.3659134  41.6377037  45.7859597  79.6056226
  41.0713231  46.9506921  80.0574638  41.1654312  46.4040476  79.5037992
  27.7391506  50.2530126  83.9119027  27.2403200  50.9645893  83.9903915
  28.5491731  50.5730792  83.8737189  27.7847613  50.4056974  83.9175595
  25.0902677  57.4279762  75.8926046  24.8702972  57.1377117  76.6852713
  24.8697199  56.7694717  75.3643959  25.0250271  57.2879470  75.9314955
  24.0019624  49.5153079  78.1581748  23.7132873  48.8890550  78.6927475
  24.8702972  49.4573366  78.2246428  24.0879876  49.4140623  78.2472702
  34.7897522  44.6587862  78.4763730  34.4462288  43.9378197  78.8270979
  34.8890564  44.4501713  77.6342088  34.7539565  44.5212065  78.4035410
  27.2570633  58.8009152  74.6756739  27.9094691  58.2685594  74.9047765
  26.5596241  58.4477804  75.0624613  27.2501351  58.6698675  74.7668906
  24.2051897  51.1548330  74.0824113  24.9597865  51.5361369  74.2959575
  23.6122510  51.6059473  74.5370809  24.2288611  51.2777157  74.1806991
  35.2510551  51.1213566  74.0187718  35.8168584  51.7806776  73.9346261
  34.6038454  51.4663264  74.4904120  35.2389307  51.2695507  74.0760474
  25.5250124  52.3256891  79.4564228  25.0030878  52.4657183  80.1416093
  25.9124144  51.5667555  79.6466346  25.5053825  52.2342415  79.5865305
  22.5141308  42.3762700  73.5259183  22.2266104  42.0063970  72.7891130
  23.2011776  42.8457555  73.2642888  22.5730205  42.3909669  73.3774259
  31.7217129  54.0652350  73.4424797  31.4803805  53.3320211  73.0351862
  31.9018462  54.6139207  72.7891130  31.7124753  54.0374741  73.2855020
  26.9516450  49.3560910  74.8545719  26.7559232  49.9635645  74.2606022
  27.1750795  48.6628854  74.3737393  26.9551091  49.3438436  74.6961800
  25.3494980  46.2415648  74.9726588  26.0717632  46.4056806  74.5130394
  24.8702972  46.9625313  74.8665927  25.3858710  46.3713878  74.8892202
  33.3088487  42.5779447  80.3523273  32.4699588  42.6040726  80.1161536
  33.3792855  43.2250182  80.9328619  33.1956881  42.6775573  80.4032389
  31.7557765  39.4764824  75.0850889  32.4584118  39.2772572  74.6070847
  31.4901954  38.7040766  75.3919732  31.8204398  39.3327790  75.0596330
  37.1846011  47.7847434  77.6384514  37.0979986  47.9402860  78.4919293
  36.7296491  48.4285509  77.2643919  37.1049268  47.9023189  77.7091621
  20.0869503  43.1543912  74.3744464  20.1885639  43.9570074  74.7025439
  20.8825389  42.9531248  74.0767545  20.2197408  43.2429811  74.3779819
  31.0571827  45.1058181  76.2610074  30.8106541  45.0253932  77.0946863
  31.3856950  44.3211648  76.0672601  31.0693071  44.9784446  76.3557597
  34.9519876  51.8141540  80.0496855  34.8134235  52.5122586  80.5545598
  34.1719874  51.6590196  79.6933037  34.8163103  51.8941707  80.0723129
  27.0168854  47.8414899  85.6733057  27.1612230  48.4216107  85.0376167
  27.3644503  48.2191196  86.3782912  27.0896316  47.9835603  85.6832052
  29.1888772  47.0405068  83.4558189  28.4412086  47.2336082  83.0506467
  29.3430297  46.2150287  83.2182310  29.1011199  46.9470179  83.3603594
  26.0896609  56.0317671  82.5394084  26.2386173  55.4720587  81.8867488
  26.8696611  56.1109673  82.9226603  26.2270703  55.9603236  82.4991033
  36.4473249  51.1719794  70.8113354  36.0680058  50.3856932  70.8042644
  35.7839494  51.7206651  70.6684999  36.2931724  51.1364618  70.7894151
  33.9017875  34.1145493  78.2147435  34.0201443  34.5721957  77.4814738
  33.7280050  33.3090755  77.9283653  33.8937046  34.0639266  78.0648369
  29.2720157  54.7233313  74.6502181  30.0370048  54.4542957  74.3284845
  29.1698247  54.2383323  75.3672243  29.3701652  54.6122877  74.7082008
  27.3072927  42.9257722  81.1895416  26.5169001  42.7449182  81.5112752
  27.7033550  42.1484675  81.1725711  27.2489803  42.7845183  81.2347965
  31.7938817  51.7545497  66.6302130  32.5611803  51.8145622  66.2207982
  31.3470126  51.1825938  66.1458448  31.8412245  51.6782072  66.4979840
  32.6916613  50.5600152  78.9154862  32.0161615  50.3285385  79.4168249
  32.7008989  49.9521335  78.2896967  32.5935118  50.4359078  78.8971014
  29.8210757  45.4017981  85.6718915  29.7569898  46.2627938  85.5439052
  29.9607945  45.0849975  84.8714467  29.8326227  45.4818148  85.5347128
  34.6933348  53.4165285  71.1465040  34.7753185  54.2232271  70.8226491
  35.1783090  53.4361244  71.8705814  34.7770505  53.5385947  71.2051939
  28.5029851  48.0950121  79.8135118  28.0792100  48.2954620  79.0774136
  28.3274706  47.2478969  79.9259418  28.4140731  47.9998902  79.7208808
  23.7912296  48.5902172  75.2463091  23.9476915  48.5248975  76.1019083
  24.1312889  49.3650725  75.0341770  23.8645531  48.6951370  75.3417685
  30.3291440  47.9660056  74.1156454  30.8706986  47.4630437  74.5795074
  30.6437999  47.9125250  73.3045939  30.4555838  47.8839477  74.0640266
  28.4977890  53.3577407  71.3996482  28.5670710  52.4991946  71.5389482
  29.2766345  53.5749288  71.0715506  28.6230740  53.2630271  71.3713639
  31.4780710  42.8596360  84.1678754  31.6922679  42.2207274  83.6142108
  30.8614609  43.3042184  83.7386616  31.4186039  42.8306504  84.0229185
  32.8885378  55.7815109  75.6132975  32.4965169  55.4781824  74.8955841
  33.0438450  56.6184198  75.4237929  32.8538968  55.8598945  75.4789472
  20.3646557  45.7737123  75.5623858  20.7445522  46.1921668  74.8984125
  19.7901922  46.3550578  75.8692701  20.3357882  45.9214981  75.5100599
  33.6419798  44.4685425  85.1062061  32.8296480  44.1611316  85.1875234
  34.1009732  43.9884426  85.6704774  33.5900183  44.3521918  85.2016656
  33.0525052  52.3465097  75.5539006  32.6939707  52.5179740  76.3303038
  32.5663763  52.8078303  74.9967004  32.9283749  52.4404068  75.5864275
  30.8695438  35.9696296  79.1566097  29.9988996  35.9435017  79.1099407
  31.1235780  35.7973488  78.3391943  30.7788999  35.9406440  79.0286234
  27.8413418  48.0264263  68.0939240  28.1305943  48.8029145  68.3682814
  27.9285217  47.5152994  68.7953739  27.8967674  48.0656181  68.2381738
  27.8944579  37.9802524  80.6139568  27.3783068  37.2882716  80.7391147
  27.3338508  38.6473301  80.5602166  27.7351092  37.9765782  80.6245634
  35.9386792  45.0858139  81.0672122  35.5114400  44.9984488  80.3120222
  35.3012845  45.1935915  81.6526966  35.7816399  45.0890799  81.0417564
  24.0077359  47.3397527  80.1939352  23.1665365  47.2401402  80.4018246
  24.2167367  48.1093008  80.5453673  23.9142051  47.4389571  80.2766667
  21.4852926  44.9617064  78.0224103  21.0909624  45.0360076  77.2474213
  20.9293043  45.3475011  78.5732465  21.3455738  45.0298839  77.9891763
  33.1217873  37.9398358  77.7027982  33.3267466  37.8720666  78.5484979
  32.7944297  38.7457180  77.6349159  33.1033121  38.0484299  77.8187637
  27.8194024  45.2678927  79.4436950  27.5157161  44.7134915  80.0447357
  27.1173445  45.4471136  78.9564984  27.6710234  45.2123709  79.4606655
  26.8760121  42.5779446  74.0081652  27.1519855  41.8598359  73.5959219
  27.4758790  43.1764366  73.8002758  27.0053385  42.5599817  73.9162413
  36.3751560  38.4930123  77.1830747  35.7625874  38.9800525  77.5684479
  36.4715735  37.8173613  77.7268398  36.2989458  38.4648431  77.3209605
  30.3770641  40.2492964  72.2828247  30.8314388  40.4203524  73.0076091
  30.8510687  39.6361074  71.8826022  30.5138961  40.1843849  72.3302008
  23.8986167  49.7341290  81.6130985  23.3074100  50.3750788  81.5834000
  24.6607190  50.1578907  81.5862285  23.9234427  49.8917128  81.6046132
  33.6575683  55.1850601  79.0463010  33.4595372  55.6741416  78.3519221
  33.0363394  55.3891843  79.6247143  33.5363247  55.2867139  79.0286233
  27.7183661  46.9535498  73.3873254  28.4625706  47.3409774  73.6256204
  27.8644357  46.1092923  73.5513742  27.8494246  46.8865971  73.4467224
  29.6363237  38.7485757  78.4205115  28.7899282  38.9208565  78.2946465
  29.6334369  37.9435101  78.7570944  29.5110387  38.6546786  78.4516242
  30.7061537  42.5260971  79.2867173  30.2321491  42.0002733  79.7972484
  31.0779673  41.9790444  78.7182035  30.6911426  42.3676968  79.2782320
  36.9698268  47.5863347  80.6973954  36.7296491  46.7469762  80.7016380
  37.4490275  47.6663514  81.4214727  37.0050451  47.4744747  80.8048756
  32.6345037  43.4197526  72.3492927  32.1068055  43.5026270  71.6598636
  33.0940745  44.1615397  72.3457572  32.6246887  43.5418188  72.2467622
  38.9703455  44.3664804  78.6503213  38.7313225  44.3260638  77.8123997
  39.1337356  45.2135956  78.7768934  38.9593758  44.4856889  78.5456695
  24.4436353  43.3474927  81.3161137  23.8189423  43.3593319  80.7087090
  24.1081948  43.8235102  81.9652377  24.3021845  43.4193444  81.3217706
  24.6278102  41.6900046  67.3733822  24.2790906  42.3419771  67.8365372
  24.1474548  41.6757159  66.6457693  24.5048346  41.7843099  67.3344913
  32.1882119  51.9901090  71.4802584  32.9116318  52.4559202  71.3367157
  31.7482710  52.0574699  70.7300181  32.2297812  52.0684926  71.3487365
  31.3568274  48.8498632  82.7303273  30.7425268  48.3056682  83.0251908
  31.8735559  48.3362868  82.2509089  31.3423937  48.6935041  82.7027501
  30.5964572  49.9202902  80.4647572  30.1692180  49.2952620  80.0313007
  30.5889516  49.6377824  81.2906579  30.5323713  49.7855682  80.5227399
  28.9250281  40.7971656  80.6790106  28.9492768  40.2631769  79.9902886
  29.1761755  40.2888965  81.3415696  28.9660200  40.6432560  80.6754750
  25.2051603  39.5242475  80.0595850  25.2449975  40.0251681  80.7730557
  24.3801268  39.6152868  79.7901773  25.0891129  39.6124291  80.1246388
  26.6265967  46.0402984  82.3569749  25.7957897  46.2076802  82.1504997
  26.5717484  45.6638935  83.1418634  26.4955382  46.0092716  82.4418277
  25.0002011  44.3158576  72.8859867  25.1404972  44.8131040  73.5888508
  25.4984544  43.6144870  73.0274080  25.0943092  44.2860555  73.0111446
  25.0302233  45.1825687  70.2152444  25.6647313  45.7786112  70.1501905
  25.1127844  44.8829145  71.0298314  25.1358784  45.2266595  70.3255530
  26.6081216  41.1139662  70.1897886  26.9297057  40.6342745  69.5357148
  26.8708160  41.9239308  69.9988697  26.6947241  41.1629560  70.0653378
  29.8378189  52.1358537  83.7096702  29.3303280  52.6894384  84.1537332
  29.5404835  52.1966827  82.8915476  29.7183074  52.2264848  83.6545158
  32.0040371  40.5011856  82.5521365  32.4295442  40.0484383  81.9404891
  31.3897364  39.9471927  82.8286152  31.9769016  40.3525833  82.5026390
  21.5355221  47.3793528  73.4841990  22.0447450  47.9758035  73.8653295
  22.0089493  47.1119501  72.8018409  21.6798597  47.4279343  73.4396512
  32.4485969  56.0521794  71.6400645  31.7315279  55.8782657  71.1747882
  33.0992707  55.8174367  71.1076131  32.4387820  55.9917587  71.4929863
  30.4434594  36.9726956  75.9611942  29.8002912  36.8224602  76.5297080
  30.1034001  36.7269301  75.1961046  30.2979671  36.9139079  75.9314957
  35.0333940  44.9286383  75.3841950  34.3625130  45.4716085  75.2555016
  35.7273691  45.3981238  75.1423645  35.0362808  45.0784654  75.3297478
  29.0820674  57.0683095  80.6153708  28.8586328  56.3101924  80.9837735
  28.5930517  57.0981116  79.8934148  28.9764123  56.9605319  80.5630449
  35.1962068  41.3842267  78.2932323  35.5489678  40.9571990  78.9678122
  34.3376869  41.2993110  78.4233400  35.1211512  41.3087007  78.4127334
  23.8945753  44.0149786  76.3515170  23.1757742  44.4313919  76.6188034
  24.2658115  44.5804025  75.8006808  23.8437684  44.1599068  76.3097977
  33.1945334  44.6477635  82.2417166  33.1743261  44.4660930  83.0951945
  33.2424534  45.5189654  82.2176749  33.1979975  44.7494173  82.3640460
  27.7299131  57.2883553  78.0690793  27.3159530  56.6257683  77.6794635
  28.4146505  57.4361412  77.5486487  27.7697503  57.2124211  77.9347290
  31.0964425  56.4473638  78.8214410  30.6980708  56.5575909  78.0535230
  30.4815645  56.6555705  79.4040969  30.9463314  56.4947206  78.7945709
  29.6692327  43.0547786  71.6888549  29.0757166  43.3764783  71.1373116
  29.7067605  42.2088882  71.4809656  29.5866716  42.9772114  71.5771321
  36.6286128  36.5060678  79.2216636  36.1216992  35.7989818  79.1537813
  37.4253562  36.1753867  79.3517712  36.6713367  36.3533830  79.2315631
  32.5450144  43.0127291  75.1190300  32.3163837  43.0359992  74.2768658
  32.8048220  42.1884758  75.2385310  32.5496332  42.8943371  75.0115497
  25.5994906  41.5503837  76.4144495  26.0752272  41.9120917  75.7794676
  25.0983506  42.2060305  76.6944638  25.5960265  41.6998026  76.3621236
  38.8306268  51.0225605  72.2057500  39.2139874  51.7716961  72.4355597
  38.0350381  51.2691425  71.9469489  38.7700050  51.1695299  72.2015074
  27.6421559  43.6945037  69.7817879  28.0220524  43.7124666  68.9968994
  26.9014155  44.1399026  69.6608727  27.5890397  43.7626811  69.6481447
  35.2706850  42.0027228  75.3693458  35.2701076  41.8475885  76.2277734
  35.0663030  42.8490215  75.3134844  35.2406628  42.1047849  75.4881397
  17.3324121  45.4267012  79.7852275  17.1545882  44.9743621  80.5107190
  17.0443143  46.2293174  79.9690752  17.2637074  45.4789570  79.9195777
  32.9947702  46.6824730  79.0229665  33.4901367  45.9647725  78.9833685
  32.1847478  46.3795527  78.9084152  32.9491595  46.5322376  79.0003391
  28.4406313  50.5322543  71.1726669  27.6317636  50.2089217  71.1259979
  28.9481222  49.8255765  71.1054918  28.3955980  50.3803859  71.1556964
  19.0696591  47.9594736  76.8974034  18.2042110  47.9480427  76.7856805
  19.1695407  47.7724959  77.7445173  18.9570758  47.9300797  77.0062978
  35.0599521  49.4328417  81.7106794  35.4854592  48.9102839  81.1577219
  34.6956441  50.0309255  81.1895417  35.0686123  49.4438644  81.5515803
  24.6953601  57.7292635  80.4704139  25.0100160  58.5429023  80.4781921
  25.1047014  57.3442853  81.1386298  24.8021699  57.7921337  80.5708231
  31.6478120  53.1462682  78.0407951  32.1189298  53.8602944  78.2097936
  31.9838299  52.5461432  78.5767821  31.7673235  53.1634146  78.1440327
  35.0945931  41.0065970  82.1886836  34.5108920  41.5075177  81.7764403
  35.4150225  40.4995526  81.5551159  35.0559106  41.0057805  82.0345343
  27.6340730  39.9206565  72.4645511  28.4556424  40.0904878  72.2227206
  27.1710381  40.0753826  71.7411808  27.6871892  39.9688298  72.3217155
  22.0366621  51.6765743  80.1182748  22.6411478  51.6361577  79.4896568
  21.8293933  52.5236895  80.1486803  22.0955518  51.7953746  80.0298864
  31.8510393  53.9431688  81.3344985  32.6708767  53.7994654  81.5961280
  31.5704470  54.5677887  81.8761423  31.9307136  54.0142040  81.4532924
  40.0772651  60.1658860  73.9409900  40.7752816  60.3446988  74.4331363
  40.3924984  59.6429199  73.3180290  40.2267989  60.1152632  73.9211910
  38.2499515  55.5351257  78.0231175  37.9202845  55.9862400  77.3534874
  37.5744517  55.4567420  78.5704181  38.1009951  55.5902392  78.0054398
  45.4575923  51.5236780  76.2680786  45.1429364  52.2140258  76.7001208
  44.9402864  51.4681562  75.5666286  45.3340393  51.6171668  76.2277735
  36.6887964  65.4204497  71.1825664  36.1045180  65.9254529  71.5891528
  36.2858059  65.1946884  70.4422256  36.5427268  65.4612746  71.1330689
  41.1465179  61.6670149  69.6594585  41.3861182  61.8748133  68.8469928
  41.4681020  60.8627658  69.7683529  41.2302337  61.5784251  69.5555138
  36.4555469  53.5963545  73.5054123  37.2101437  53.9641862  73.2671173
  36.2783004  53.9703100  74.2733302  36.5409947  53.7061733  73.5839011
  34.8112534  56.0033864  70.2032236  34.6288107  56.2205745  69.3773228
  35.6738147  56.1172877  70.2590850  34.9117123  56.0523762  70.0886723
  40.4912253  53.0060275  73.2381259  41.2198413  52.8276230  72.7919416
  40.5807146  53.8478355  73.4488438  40.6118915  53.1044153  73.2034777
  34.3574561  59.2808037  68.7154709  33.6432738  58.9946216  69.1277141
  34.8418529  59.6204663  69.3561096  34.3233924  59.2889686  68.8710344
  41.5321879  67.7837991  69.0916517  41.9473027  67.4523015  68.4001013
  40.7013808  67.5506893  68.9636653  41.4709887  67.7009247  68.9707364
  44.2255269  64.0348550  68.2777718  44.1435431  64.1050737  69.1432705
  44.8634989  64.5978294  68.0861459  44.3075106  64.1287521  68.3767668
  26.3039971  60.9987125  76.2461580  26.3900223  60.6218994  77.0275110
  26.9315768  60.6247571  75.7681538  26.4096522  60.8872608  76.2907057
  41.3295379  64.0569004  71.2886325  42.1436018  64.3483897  71.1769096
  41.2654520  63.4028867  70.7144618  41.4398118  64.0034199  71.1875162
  37.8406102  62.7492812  70.7533526  38.2251255  62.5300518  71.5050071
  37.5917723  63.5755757  70.8834603  37.8608175  62.8390958  70.8834603
  35.5606540  54.4189748  76.0842307  34.6928965  54.4912348  76.1499916
  35.8481744  55.2211827  76.2730282  35.4746288  54.5483895  76.1217073
  33.4873892  57.8948008  73.5259183  33.1998687  57.5249278  72.7891130
  34.1744360  58.3642863  73.2642888  33.5462789  57.9094977  73.3774259
  36.3227563  61.7600956  74.9726588  37.0450215  61.9242114  74.5130394
  35.8435556  62.4810621  74.8665927  36.3591294  61.8899185  74.8892202
  42.7290349  54.9950132  75.0850889  43.4316702  54.7957880  74.6070847
  42.4634538  54.2226074  75.3919732  42.7936981  54.8513098  75.0596330
  31.0602086  58.6729220  74.3744464  31.1618223  59.4755382  74.7025439
  31.8557973  58.4716556  74.0767545  31.1929992  58.7615119  74.3779819
  44.8750458  49.6330801  78.2147435  44.9934026  50.0907265  77.4814738
  44.7012634  48.8276063  77.9283653  44.8669629  49.5824574  78.0648369
  42.7671401  67.2730804  66.6302130  43.5344386  67.3330929  66.2207982
  42.3202710  66.7011246  66.1458448  42.8144828  67.1967380  66.4979840
  31.3379141  61.2922431  75.5623858  31.7178106  61.7106975  74.8984125
  30.7634506  61.8735886  75.8692701  31.3090466  61.4400289  75.5100599
  41.8428022  51.4881604  79.1566097  40.9721580  51.4620325  79.1099407
  42.0968363  51.3158796  78.3391943  41.7521582  51.4591748  79.0286234
  38.8146001  63.5449571  68.0939240  39.1038526  64.3214453  68.3682814
  38.9017800  63.0338302  68.7953739  38.8700258  63.5841489  68.2381738
  37.8492704  58.0964754  74.0081652  38.1252439  57.3783667  73.5959219
  38.4491374  58.6949674  73.8002758  37.9785969  58.0785125  73.9162413
  41.3503225  55.7678272  72.2828247  41.8046971  55.9388832  73.0076091
  41.8243271  55.1546382  71.8826022  41.4871545  55.7029157  72.3302008
  38.6916245  62.4720806  73.3873254  39.4358290  62.8595082  73.6256204
  38.8376941  61.6278231  73.5513742  38.8226830  62.4051279  73.4467224
  40.6095820  54.2671065  78.4205115  39.7631865  54.4393873  78.2946465
  40.6066953  53.4620409  78.7570944  40.4842970  54.1732094  78.4516242
  43.6077620  58.9382834  72.3492927  43.0800639  59.0211578  71.6598636
  44.0673329  59.6800705  72.3457572  43.5979471  59.0603496  72.2467622
  35.6010686  57.2085353  67.3733822  35.2523490  57.8605079  67.8365372
  35.1207131  57.1942467  66.6457693  35.4780929  57.3028407  67.3344913
  35.9734594  59.8343884  72.8859867  36.1137555  60.3316348  73.5888508
  36.4717127  59.1330178  73.0274080  36.0675675  59.8045863  73.0111446
  36.0034817  60.7010995  70.2152444  36.6379896  61.2971420  70.1501905
  36.0860427  60.4014453  71.0298314  36.1091368  60.7451903  70.3255530
  37.5813800  56.6324970  70.1897886  37.9029641  56.1528053  69.5357148
  37.8440743  57.4424616  69.9988697  37.6679825  56.6814868  70.0653378
  32.5087805  62.8978836  73.4841990  33.0180034  63.4943343  73.8653295
  32.9822077  62.6304809  72.8018409  32.6531180  62.9464651  73.4396512
  41.4167177  52.4912264  75.9611942  40.7735495  52.3409910  76.5297080
  41.0766584  52.2454609  75.1961046  41.2712255  52.4324387  75.9314957
  34.8678336  59.5335094  76.3515170  34.1490325  59.9499227  76.6188034
  35.2390699  60.0989333  75.8006808  34.8170268  59.6784376  76.3097977
  40.6424911  58.5733094  71.6888549  40.0489750  58.8950091  71.1373116
  40.6800188  57.7274190  71.4809656  40.5599300  58.4957422  71.5771321
  43.5182727  58.5312599  75.1190300  43.2896420  58.5545300  74.2768658
  43.7780803  57.7070066  75.2385310  43.5228915  58.4128679  75.0115497
  36.5727490  57.0689145  76.4144495  37.0484856  57.4306225  75.7794676
  36.0716089  57.7245612  76.6944638  36.5692849  57.2183334  76.3621236
  38.6154143  59.2130345  69.7817879  38.9953108  59.2309974  68.9968994
  37.8746739  59.6584334  69.6608727  38.5622981  59.2812119  69.6481447
  39.4138897  66.0507851  71.1726669  38.6050220  65.7274524  71.1259979
  39.9213806  65.3441073  71.1054918  39.3688564  65.8989167  71.1556964
  30.0429174  63.4780044  76.8974034  29.1774694  63.4665735  76.7856805
  30.1427990  63.2910267  77.7445173  29.9303341  63.4486105  77.0062978
  38.6073314  55.4391873  72.4645511  39.4289008  55.6090186  72.2227206
  38.1442965  55.5939134  71.7411808  38.6604476  55.4873606  72.3217155
  26.0709700   7.5004055  61.2327908  26.0403704   8.3548692  61.4046177
  26.6691049   7.1999348  61.7914052  26.1546858   7.5820552  61.3402710
  13.6550525  16.1242424  61.7518070  12.9033424  15.7457963  61.5234115
  14.1036536  16.1560858  61.0036880  13.6100191  16.0728031  61.6075572
  19.1075484  16.5467794  57.1803617  18.7726853  17.2244715  56.7447839
  19.6202355  16.1573105  56.5920489  19.1341066  16.5892372  57.0290409
  18.6479776  18.4982062  63.1214729  19.0319155  19.0668961  62.5819504
  18.5838917  17.7731573  62.6420545  18.6953203  18.4757526  62.9708591
  23.8926275  10.0756357  59.5046218  23.7765800  10.8264044  59.9338356
  24.6882161   9.8180311  59.7542305  23.9930864  10.1491204  59.6050310
  15.0736020  21.0538406  65.4195699  15.7173476  21.4951570  65.8091857
  15.3992276  20.2491832  65.3325957  15.2167849  21.0003600  65.4641176
  15.7756600  14.0650380  60.7915560  16.0972441  14.6055588  60.1876868
  16.4228697  13.4947152  60.9237850  15.9182655  14.0609556  60.7222596
  18.0146243  12.4536820  60.8629738  18.4539879  11.8453921  61.3084511
  17.8650906  12.0744194  60.0915204  18.0567709  12.3075292  60.8148906
  21.6155580  10.8064002  57.8160508  21.5306875  11.6624968  57.9610077
  22.1039963  10.5308326  58.4842667  21.6744477  10.8921323  57.9362589
  22.5474013   7.4248796  59.3158243  22.0185485   7.6408429  59.9755549
  23.0699033   8.1184934  59.2359212  22.5462466   7.5591933  59.4013842
  28.0022066  12.9995100  64.6891287  27.1719769  13.2105744  64.8524704
  27.9531318  12.1732155  64.4133571  27.8728802  12.9084707  64.6728653
  14.4373621  11.3212013  58.1165711  13.8530836  11.8262044  58.5231575
  14.0343716  11.0954400  57.3762303  14.2912925  11.3620261  58.0670736
  18.8950835   7.5677665  56.5934631  19.1346839   7.7755648  55.7809975
  19.2166676   6.7635173  56.7023576  18.9787993   7.4791766  56.4895185
  25.2586381  13.6694455  64.8256003  24.8221613  13.6731197  65.5814975
  24.9249297  14.3499954  64.3935581  25.1449001  13.7706911  64.8736836
  28.3930728  10.3875375  63.7175640  29.0547162   9.8266043  63.6171549
  27.7522140   9.8927405  64.0428332  28.3959595  10.2311784  63.7507981
  19.2807535  13.6845506  56.0256564  19.6958684  13.3530530  55.3341059
  18.4499465  13.4514408  55.8976700  19.2195544  13.6016762  55.9047411
  24.6795558  11.4040757  63.4587629  24.9151147  11.5485956  62.6314480
  24.8285122  12.1683165  63.8519143  24.7361362  11.5379811  63.3951233
  26.5086015  10.2442423  61.2957233  26.8394232  10.7770063  60.6897328
  27.0819103  10.2981311  61.9519184  26.6419694  10.3311992  61.3035015
  21.9740925   9.9356066  55.2117765  21.8921088  10.0058253  56.0772752
  22.6120646  10.4985809  55.0201506  22.0560763  10.0295037  55.3107715
  19.0781036   9.9576520  58.2226372  19.8921675  10.2491413  58.1109143
  19.0140177   9.3036382  57.6484665  19.1883775   9.9041715  58.1215209
  15.5891759   8.6500327  57.6873573  15.9736912   8.4308034  58.4390118
  15.3403379   9.4763272  57.8174649  15.6093832   8.7398473  57.8174649
  15.8715002  16.8705203  59.7605943  16.1613300  16.4794184  59.0365170
  16.6018482  17.0521908  60.2011219  16.0221886  16.8399017  59.7188750
  13.8120917  18.8472585  62.8266093  13.5921213  18.5569940  63.6192760
  13.5915439  18.1887540  62.2984005  13.7468511  18.7072294  62.8655002
  15.9788873  20.2201975  61.6096785  16.6312931  19.6878418  61.8387811
  15.2814482  19.8670628  61.9964659  15.9719591  20.0891498  61.7008953
  23.9728791  12.5406389  60.9527765  24.5386824  13.1999599  60.8686308
  23.3256695  12.8856087  61.4244167  23.9607548  12.6888331  61.0100521
  20.4435369  15.4845173  60.3764844  20.2022045  14.7513034  59.9691909
  20.6236702  16.0332030  59.7231177  20.4342993  15.4567565  60.2195067
  25.1691489  12.5912617  57.7453401  24.7898298  11.8049755  57.7382691
  24.5057735  13.1399474  57.6025045  25.0149964  12.5557441  57.7234198
  17.9938397  16.1426136  61.5842227  18.7588288  15.8735780  61.2624892
  17.8916487  15.6576146  62.3012290  18.0919893  16.0315701  61.6422055
  20.5157058  13.1738320  53.5642177  21.2830043  13.2338445  53.1548029
  20.0688367  12.6018761  53.0798495  20.5630485  13.0974895  53.4319887
  23.4151588  14.8358108  58.0805087  23.4971425  15.6425094  57.7566538
  23.9001330  14.8554067  58.8045860  23.4988746  14.9578770  58.1391986
  19.0509681   9.3852879  61.0496501  19.5925226   8.8823260  61.5135121
  19.3656240   9.3318074  60.2385986  19.1774078   9.3032300  60.9980313
  17.2196131  14.7770230  58.3336529  17.2888951  13.9184769  58.4729529
  17.9984586  14.9942111  58.0055553  17.3448981  14.6823094  58.3053686
  21.6103618  17.2007932  62.5473022  21.2183410  16.8974647  61.8295888
  21.7656690  18.0377022  62.3577976  21.5757208  17.2791768  62.4129519
  21.7743293  13.7657921  62.4879053  21.4157948  13.9372563  63.2643085
  21.2882004  14.2271126  61.9307051  21.6501990  13.8596892  62.5204322
  16.5631658   9.4457086  55.0279287  16.8524183  10.2221969  55.3022861
  16.6503457   8.9345817  55.7293786  16.6185915   9.4849004  55.1721785
  22.3793923  16.6043424  65.9803056  22.1813612  17.0934239  65.2859268
  21.7581634  16.8084666  66.5587190  22.2581488  16.7059963  65.9626280
  21.3563277   4.8390349  59.2832974  20.8286296   4.9219093  58.5938683
  21.8158985   5.5808221  59.2797618  21.3465128   4.9611012  59.1807669
  20.9100360  13.4093913  58.4142631  21.6334559  13.8752026  58.2707204
  20.4700951  13.4767522  57.6640228  20.9516052  13.4877749  58.2827412
  21.1704209  17.4714618  58.5740692  20.4533519  17.2975480  58.1087929
  21.8210947  17.2367190  58.0416178  21.1606060  17.4110410  58.4269910
  16.4517371  18.7076376  65.0030840  16.0377770  18.0450507  64.6134682
  17.1364746  18.8554235  64.4826534  16.4915743  18.6317035  64.8687337
  19.8182665  17.8666462  65.7554456  19.4198949  17.9768732  64.9875277
  19.2033885  18.0748528  66.3381016  19.6681555  17.9140030  65.7285756
  27.5524508  12.4418428  59.1397547  27.9358114  13.1909784  59.3695644
  26.7568621  12.6884248  58.8809536  27.4918290  12.5888122  59.1355121
  16.3639800   5.1137860  56.7157926  16.7438765   5.1317489  55.9309041
  15.6232396   5.5591849  56.5948773  16.3108637   5.1819635  56.5821494
  17.1624554  11.9515366  58.1066716  16.3535877  11.6282040  58.0600026
  17.6699463  11.2448588  58.0394965  17.1174221  11.7996683  58.0897010
  37.0442284  23.0189363  61.2327908  37.0136288  23.8734000  61.4046177
  37.6423632  22.7184656  61.7914052  37.1279441  23.1005860  61.3402710
  30.2441968  22.1065014  65.9880839  29.3879864  22.2673513  66.0389955
  30.2909622  21.2357078  66.0085900  30.1241080  22.0015816  65.9986905
  33.5535685  28.3751540  75.5941295  34.2602452  27.8803571  75.7228229
  33.7423620  28.8160621  74.8643953  33.6863591  28.3669890  75.5050340
  30.0808068  32.0653102  57.1803617  29.7459436  32.7430023  56.7447839
  30.5934938  31.6758413  56.5920489  30.1073649  32.1077680  57.0290409
  29.6212359  34.0167370  63.1214729  30.0051739  34.5854269  62.5819504
  29.5571501  33.2916881  62.6420545  29.6685787  33.9942834  62.9708591
  33.0893789  24.1657058  68.6312490  33.6349749  24.8442145  68.6906460
  33.0310666  24.0244519  67.7714072  33.1609704  24.2449060  68.5124551
  26.2067864  31.6546124  64.0180843  26.3078227  30.8446478  64.3277970
  25.6109610  31.5603071  63.3880521  26.1340403  31.5211152  63.9707081
  34.8658858  25.5941665  59.5046218  34.7498384  26.3449351  59.9338356
  35.6614745  25.3365619  59.7542305  34.9663448  25.6676512  59.6050310
  26.0468604  36.5723714  65.4195699  26.6906059  37.0136878  65.8091857
  26.3724859  35.7677140  65.3325957  26.1900433  36.5188908  65.4641176
  19.4032909  27.6766411  63.6433176  19.1683093  26.8434063  63.5365445
  19.5418549  27.9571077  62.8294377  19.3888571  27.5949914  63.5075531
  26.7489184  29.5835688  60.7915560  27.0705025  30.1240896  60.1876868
  27.3961280  29.0132460  60.9237850  26.8915239  29.5794864  60.7222596
  28.7990892  21.5851683  60.8749947  29.4971056  21.7639811  61.3671410
  29.1143224  21.0622023  60.2520336  28.9486229  21.5345455  60.8551957
  21.4292129  23.3904423  68.7861053  21.3050826  23.9766869  69.4210872
  22.0810414  22.8964619  69.0873328  21.5065778  23.4043228  68.9246982
  28.9878827  27.9722128  60.8629738  29.4272463  27.3639229  61.3084511
  28.8383490  27.5929502  60.0915204  29.0300293  27.8260599  60.8148906
  26.4550470  26.5666140  68.0648564  27.0999473  26.0738583  67.7459513
  26.6952247  26.7090927  68.8914642  26.5861055  26.5143582  68.1398097
  28.9936561  29.4121046  67.7155457  29.2759804  28.6172452  67.4942212
  29.7222722  29.8901634  67.7360518  29.1426125  29.3655643  67.6858472
  26.9717755  16.9544080  64.9571222  26.6421085  17.4055224  64.2874920
  26.2962757  16.8760243  65.5044228  26.8228192  17.0095215  64.9394445
  32.5888164  26.3249310  57.8160508  32.5039459  27.1810276  57.9610077
  33.0772547  26.0493634  58.4842667  32.6477061  26.4106631  57.9362589
  34.1794163  12.9429603  63.2020832  33.8647604  13.6333081  63.6341255
  33.6621105  12.8874385  62.5006333  34.0558633  13.0364491  63.1617781
  33.5206597  22.9434104  59.3158243  32.9918068  23.1593737  59.9755549
  34.0431617  23.6370242  59.2359212  33.5195050  23.0777241  59.4013842
  38.9754650  28.5180408  64.6891287  38.1452353  28.7291052  64.8524704
  38.9263902  27.6917463  64.4133571  38.8461385  28.4270015  64.6728653
  25.4106205  26.8397321  58.1165711  24.8263420  27.3447352  58.5231575
  25.0076300  26.6139708  57.3762303  25.2645508  26.8805569  58.0670736
  20.9650233  32.5552082  64.9189382  20.4817812  33.2802571  64.8948966
  21.7773552  32.8528212  65.0299540  21.0140981  32.7054435  64.9316662
  27.0364387  31.3484262  67.5239197  26.5191329  30.9891677  66.9200505
  27.7338779  30.8246437  67.5345263  27.0629968  31.2181950  67.4369456
  30.6927979  31.7979077  73.4855370  30.7811325  31.6105217  74.3333580
  31.1217692  31.1516506  73.0860217  30.7690082  31.6742084  73.5527121
  28.2598439  31.0810236  72.4673032  27.6969274  30.6682846  72.9912693
  29.0219463  31.0063142  72.8866175  28.2892888  31.0087637  72.6066032
  29.8683419  23.0862973  56.5934631  30.1079423  23.2940956  55.7809975
  30.1899260  22.2820481  56.7023576  29.9520577  22.9977074  56.4895185
  25.1773709  15.0156368  60.4394169  25.9319677  15.3834685  60.2011220
  25.0001244  15.3895923  61.2073349  25.2628188  15.1254556  60.5179058
  23.8194431  33.0708258  65.0709662  24.5215010  32.5560247  65.1282419
  23.7391914  33.3982409  65.8756537  23.9118191  33.0422484  65.1982454
  38.4708608  21.1650809  68.4841709  37.6337029  21.2352996  68.7189303
  38.4396839  21.1675304  67.6116011  38.3426890  21.1761036  68.3901257
  23.5330774  17.4226687  57.1372282  23.3506347  17.6398568  56.3113275
  24.3956387  17.5365700  57.1930897  23.6335363  17.4716585  57.0226769
  23.1445206  29.2614610  64.5795270  23.9834105  29.4937542  64.6269032
  23.1756975  28.3918921  64.5102306  23.2726924  29.1671556  64.5759915
  23.7697909  29.6815485  68.8808576  24.3096134  29.5386616  69.5511948
  23.0867855  30.0812236  69.2492602  23.7490063  29.7195156  69.0342998
  29.2130493  14.4253098  60.1721306  29.9416654  14.2469053  59.7259462
  29.3025386  15.2671178  60.3828484  29.3337155  14.5236976  60.1374824
  33.1938794  25.3606485  64.0753600  33.9496309  25.7938000  64.1142509
  33.3001118  24.7111255  64.6488236  33.3208964  25.3283969  64.1651626
  36.2318965  29.1879763  64.8256003  35.7954197  29.1916505  65.5814975
  35.8981880  29.8685262  64.3935581  36.1181585  29.2892218  64.8736836
  30.8048039  31.2288096  76.1499153  31.5888455  31.3418943  76.5154896
  30.6044633  30.4029233  76.3457839  30.8914064  31.1234815  76.2333539
  19.1735054  25.9015776  69.0342997  18.9073469  25.0854892  69.1933988
  19.1873618  25.9468931  68.1638513  19.1359776  25.7872680  68.9296479
  36.1516448  16.2293591  67.0685431  36.7942356  16.2991695  67.6547346
  36.4039469  15.5622813  66.5664973  36.2838580  16.1419939  67.0812710
  23.0792801  20.7000860  55.6494755  22.3650978  20.4139040  56.0617188
  23.5636770  21.0397486  56.2901143  23.0452164  20.7082510  55.8050390
  30.9618432  33.1398198  69.7965609  30.1633678  32.8997698  70.0539478
  31.4104443  33.1912590  70.5432657  30.9093043  33.1120589  69.9450533
  39.3663311  25.9060683  63.7175640  40.0279745  25.3451351  63.6171549
  38.7254723  25.4112713  64.0428332  39.3692179  25.7497092  63.7507981
  30.2540119  29.2030814  56.0256564  30.6691267  28.8715838  55.3341059
  29.4232049  28.9699716  55.8976700  30.1928128  29.1202070  55.9047411
  19.5828468  26.6874555  66.3154742  19.4004041  26.6621441  65.4627034
  20.3178137  27.1573493  66.3543650  19.6642532  26.7535917  66.1952660
  35.6528142  26.9226065  63.4587629  35.8883731  27.0671264  62.6314480
  35.8017706  27.6868473  63.8519143  35.7093945  27.0565119  63.3951233
  37.4818599  25.7627731  61.2957233  37.8126816  26.2955371  60.6897328
  38.0551687  25.8166619  61.9519184  37.6152278  25.8497300  61.3035015
  32.6950488  23.6092634  61.9780813  32.7897342  24.3481928  62.4320439
  32.0709331  23.1810109  62.4115378  32.6159518  23.6553954  62.1088961
  30.9502962  26.7878846  72.6271094  31.5241823  26.1506090  72.7819658
  30.8717765  26.7882929  71.7580752  31.0236196  26.6943958  72.5217505
  19.5499378  23.5668056  66.4653808  20.1272881  23.4304506  67.1046054
  18.8513440  23.1103840  66.7199393  19.5320399  23.4790322  66.5976098
  32.9473509  25.4541373  55.2117765  32.8653672  25.5243561  56.0772752
  33.5853230  26.0171117  55.0201506  33.0293346  25.5480345  55.3107715
  26.3066680  25.2202111  64.6792291  26.0485924  24.3873846  64.6523591
  26.3615163  25.4459724  63.8384792  26.2766458  25.1299883  64.5512428
  31.3867730  17.3230562  64.7796384  30.6824057  16.8339748  64.9380303
  31.4352705  17.3353036  63.9084829  31.2897782  17.2520210  64.6735724
  25.2801392  22.7739874  65.1657186  24.7050984  22.9332042  65.8021147
  24.9037069  22.1375283  64.7025637  25.1404205  22.7037687  65.1911745
  28.9474681  21.2463223  70.0249565  28.5589114  20.8217441  69.3701756
  28.2829379  21.4945373  70.5326591  28.7921609  21.2201944  70.0037433
  38.5897950  21.0038228  62.7997395  38.3334515  20.1918169  62.6095277
  39.4327264  21.0115795  62.5727582  38.6763976  20.8850225  62.7382212
  15.0258211  22.4179949  63.1801627  15.1118463  22.0411817  63.9615157
  15.6534009  22.0440394  62.7021585  15.1314762  22.3065431  63.2247104
  32.7701043  14.9437852  67.5373549  33.1511554  14.2616023  67.9241423
  31.9664327  14.6547454  67.3549213  32.7077504  14.8004900  67.5677605
  30.0513619  25.4761828  58.2226372  30.8654258  25.7676720  58.1109143
  29.9872761  24.8221690  57.6484665  30.1616358  25.4227022  58.1215209
  36.2723109  28.1587824  72.6355947  36.0361747  27.3275889  72.5168008
  36.9166338  28.1073431  73.2210791  36.3317780  28.0285512  72.7041841
  25.9221528  28.9483345  63.3498684  26.5595474  28.7095093  63.8950477
  26.3476599  29.1520504  62.6151844  26.0797694  28.9434355  63.3215841
  20.6134170  31.1871682  67.2332987  20.6538315  31.4586533  66.4052767
  21.1728694  31.7113590  67.6490775  20.7017516  31.3047437  67.1724876
  26.5624343  24.1685635  57.6873573  26.9469495  23.9493342  58.4390118
  26.3135963  24.9948580  57.8174649  26.5826415  24.2583781  57.8174649
  37.2959530  27.9432273  68.6984242  36.9905347  28.6760329  69.0597557
  36.5765746  27.5370202  68.4177028  37.1446872  27.9914006  68.7097379
  28.3042999  29.4255768  65.0292470  28.3782008  29.2630940  65.8834320
  29.1212506  29.6145957  64.7852952  28.4359358  29.4292510  65.1190496
  42.9961322  24.5825273  68.0252586  42.9285822  24.6021232  67.1555172
  42.9816985  25.4255601  68.2508256  42.9840079  24.7099008  67.9305063
  22.0648756  29.7713631  62.0586913  21.2386874  30.0175368  61.9321192
  22.1260747  29.6925711  62.9248971  21.9522923  29.7958580  62.1675858
  24.2824780  15.8382572  63.0182354  23.4147205  15.9105171  63.0839963
  24.5699984  16.6404651  63.2070329  24.1964528  15.9676719  63.0557120
  26.8447585  32.3890511  59.7605943  27.1345884  31.9979492  59.0365170
  27.5751066  32.5707216  60.2011219  26.9954469  32.3584325  59.7188750
  40.7819940  23.3569659  66.2999180  41.3327861  22.7237729  66.5396272
  40.7664055  23.8885052  66.9914685  40.8605136  23.3418608  66.4378039
  27.4342330  27.1908257  70.8459074  26.9354024  27.9024024  70.9243962
  28.2442555  27.5108923  70.8077236  27.4798437  27.3435105  70.8515642
  24.7853501  34.3657893  62.8266093  24.5653796  34.0755248  63.6192760
  24.5648023  33.7072848  62.2984005  24.7201095  34.2257602  62.8655002
  23.6970448  26.4531210  65.0921795  23.4083697  25.8268681  65.6267522
  24.5653796  26.3951497  65.1586475  23.7830700  26.3518754  65.1812749
  34.4848346  21.5965993  65.4103777  34.1413112  20.8756328  65.7611026
  34.5841388  21.3879844  64.5682135  34.4490389  21.4590196  65.3375457
  26.9521457  35.7387283  61.6096785  27.6045515  35.2063726  61.8387811
  26.2547065  35.3855936  61.9964659  26.9452174  35.6076806  61.7008953
  23.9002721  28.0926461  61.0164160  24.6548689  28.4739500  61.2299622
  23.3073334  28.5437604  61.4710856  23.9239435  28.2155288  61.1147038
  34.9461375  28.0591697  60.9527765  35.5119407  28.7184907  60.8686308
  34.2989278  28.4041395  61.4244167  34.9340131  28.2073639  61.0100521
  25.2200948  29.2635022  66.3904275  24.6981701  29.4035314  67.0756140
  25.6074968  28.5045686  66.5806392  25.2004649  29.1720546  66.5205352
  22.2092132  19.3140831  60.4599230  21.9216928  18.9442101  59.7231177
  22.8962600  19.7835686  60.1982935  22.2681029  19.3287800  60.3114306
  31.4167953  31.0030481  60.3764844  31.1754629  30.2698342  59.9691909
  31.5969286  31.5517338  59.7231177  31.4075577  30.9752873  60.2195067
  26.6467274  26.2939041  61.7885766  26.4510056  26.9013776  61.1946069
  26.8701619  25.6006985  61.3077440  26.6501915  26.2816567  61.6301847
  25.0445804  23.1793779  61.9066635  25.7668455  23.3434937  61.4470441
  24.5653796  23.9003444  61.8005974  25.0809534  23.3092009  61.8232249
  33.0039311  19.5157578  67.2863319  32.1650412  19.5418857  67.0501583
  33.0743678  20.1628313  67.8668666  32.8907705  19.6153704  67.3372436
  22.6953420  25.5851852  71.0120774  23.2074517  25.8636105  70.3629534
  22.4089763  26.3241146  71.3783587  22.7288283  25.7354205  70.9710652
  31.4508589  16.4142955  62.0190935  32.1534942  16.2150703  61.5410894
  31.1852778  15.6418897  62.3259779  31.5155222  16.2705921  61.9936377
  36.8796835  24.7225565  64.5724561  36.7930810  24.8780991  65.4259340
  36.4247315  25.3663640  64.1983966  36.8000092  24.8401320  64.6431668
  19.7820327  20.0922043  61.3084511  19.8836463  20.8948205  61.6365486
  20.5776213  19.8909379  61.0107591  19.9148232  20.1807942  61.3119866
  30.7522651  22.0436312  63.1950121  30.5057365  21.9632063  64.0286910
  31.0807774  21.2589780  63.0012648  30.7643895  21.9162577  63.2897644
  34.6470700  28.7519671  66.9836902  34.5085059  29.4500717  67.4885644
  33.8670698  28.5968328  66.6273084  34.5113927  28.8319838  67.0063176
  32.9848785  25.0516046  73.2359284  32.9796824  24.1795863  73.2401710
  33.6909779  25.2504216  72.7628739  33.0893789  24.9519921  73.1666319
  26.7119678  24.7793030  72.6073104  26.8563054  25.3594239  71.9716214
  27.0595327  25.1569327  73.3122958  26.7847140  24.9213734  72.6172099
  28.8839596  23.9783199  70.3898235  28.1362910  24.1714213  69.9846513
  29.0381121  23.1528418  70.1522357  28.7962023  23.8848310  70.2943641
  25.7847433  32.9695802  69.4734131  25.9336997  32.4098718  68.8207535
  26.5647435  33.0487804  69.8566649  25.9221527  32.8981368  69.4331080
  36.1424073  28.1097925  57.7453401  35.7630881  27.3235063  57.7382691
  35.4790318  28.6584782  57.6025045  35.9882547  28.0742749  57.7234198
  28.3100734  33.1410445  70.7518621  28.2344405  32.4719256  71.3069410
  28.2390593  33.8428233  71.2659288  28.2881341  33.1455352  70.9095470
  33.5968699  11.0523625  65.1487482  33.7152267  11.5100088  64.4154785
  33.4230874  10.2468886  64.8623700  33.5887870  11.0017397  64.9988416
  28.9670981  31.6611444  61.5842227  29.7320872  31.3921088  61.2624892
  28.8649071  31.1761454  62.3012290  29.0652476  31.5501009  61.6422055
  27.0023751  19.8635853  68.1235463  26.2119825  19.6827313  68.4452799
  27.3984373  19.0862806  68.1065758  26.9440627  19.7223314  68.1688011
  31.4889641  28.6923628  53.5642177  32.2562627  28.7523753  53.1548029
  31.0420950  28.1204069  53.0798495  31.5363069  28.6160203  53.4319887
  32.3867437  27.4978284  65.8494909  31.7112439  27.2663516  66.3508296
  32.3959813  26.8899466  65.2237014  32.2885941  27.3737209  65.8311061
  29.5161581  22.3396113  72.6058962  29.4520722  23.2006069  72.4779099
  29.6558769  22.0228106  71.8054513  29.5277051  22.4196279  72.4687175
  34.3884172  30.3543416  58.0805087  34.4704009  31.1610402  57.7566538
  34.8733914  30.3739375  58.8045860  34.4721329  30.4764078  58.1391986
  28.1980675  25.0328252  66.7475165  27.7742924  25.2332751  66.0114183
  28.0225530  24.1857100  66.8599465  28.1091555  24.9377033  66.6548855
  27.6992368  36.5478765  69.2096622  28.1888299  35.8489554  69.0272287
  27.1276601  36.2502635  69.7972680  27.6876898  36.4004988  69.2697663
  23.4863120  25.5280303  62.1803137  23.6427739  25.4627106  63.0359130
  23.8263713  26.3028856  61.9681817  23.5596355  25.6329501  62.2757732
  30.0242264  24.9038187  61.0496501  30.5657810  24.4008568  61.5135121
  30.3388823  24.8503382  60.2385986  30.1506661  24.8217608  60.9980313
  33.8959372  29.1140834  78.1623413  34.7094237  28.8425983  78.3228545
  33.7354338  28.8148374  77.3583609  33.9929320  29.0295760  78.0668819
  28.1928714  30.2955538  58.3336529  28.2621534  29.4370077  58.4729529
  28.9717169  30.5127419  58.0055553  28.3181564  30.2008402  58.3053686
  31.1731534  19.7974491  71.1018801  31.3873503  19.1585406  70.5482155
  30.5565433  20.2420315  70.6726663  31.1136863  19.7684635  70.9569232
  32.5836202  32.7193240  62.5473022  32.1915993  32.4159955  61.8295888
  32.7389274  33.5562330  62.3577976  32.5489792  32.7977076  62.4129519
  20.0597381  22.7115254  62.4963905  20.4396346  23.1299799  61.8324172
  19.4852746  23.2928709  62.8032748  20.0308706  22.8593113  62.4440646
  33.3370622  21.4063557  72.0402108  32.5247303  21.0989447  72.1215281
  33.7960556  20.9262557  72.6044820  33.2851007  21.2900049  72.1356702
  32.7475876  29.2843229  62.4879053  32.3890531  29.4557871  63.2643085
  32.2614587  29.7456434  61.9307051  32.6234573  29.3782200  62.5204322
  30.5646262  12.9074427  66.0906144  29.6939820  12.8813148  66.0439453
  30.8186604  12.7351619  65.2731990  30.4739823  12.8784571  65.9626281
  27.5364242  24.9642394  55.0279287  27.8256767  25.7407276  55.3022861
  27.6236041  24.4531125  55.7293786  27.5918498  25.0034312  55.1721785
  33.9080616  30.1747124  73.4346253  34.5460336  29.6807320  73.1008710
  33.2654707  30.1024525  72.8498480  33.9074842  30.0906133  73.2988608
  35.6337616  22.0236270  68.0012169  35.2065224  21.9362619  67.2460269
  34.9963669  22.1314046  68.5867013  35.4767223  22.0268930  67.9757611
  33.9634872  30.8666933  70.0751610  34.7527251  30.5155997  70.1953692
  34.1378470  31.6803321  69.8128244  34.1055154  30.9352790  70.0539478
  23.7028183  24.2775659  67.1279399  22.8616189  24.1779533  67.3358293
  23.9118191  25.0471139  67.4793720  23.6092875  24.3767702  67.2106714
  21.1803750  21.8995195  64.9564150  20.7860448  21.9738207  64.1814259
  20.6243867  22.2853142  65.5072511  21.0406562  21.9676970  64.9231810
  32.8168697  14.8776489  64.6368029  33.0218290  14.8098797  65.4825026
  32.4895121  15.6835311  64.5689206  32.7983944  14.9862430  64.7527684
  27.5144848  22.2057058  66.3776997  27.2107985  21.6513046  66.9787404
  26.8124268  22.3849268  65.8905031  27.3661057  22.1501840  66.3946702
  26.5710945  19.5157577  60.9421698  26.8470679  18.7976490  60.5299266
  27.1709614  20.1142497  60.7342805  26.7004209  19.4977948  60.8502460
  25.5763199  29.4206778  71.0849094  25.4683554  29.4308841  71.9511152
  25.7858980  30.2461559  70.8954048  25.5913310  29.5447853  71.1853186
  36.0702384  15.4308254  64.1170794  35.4576698  15.9178656  64.5024526
  36.1666559  14.7551745  64.6608445  35.9940282  15.4026562  64.2549652
  30.0721465  17.1871095  59.2168293  30.5265212  17.3581655  59.9416138
  30.5461511  16.5739206  58.8166069  30.2089785  17.1221980  59.2642055
  23.5936991  26.6719421  68.5471032  23.0024924  27.3128919  68.5174047
  24.3558014  27.0957038  68.5202331  23.6185251  26.8295259  68.5386179
  39.7127412  26.5025190  69.5448310  39.7710536  26.9511839  70.2908287
  39.0793880  26.9124003  69.1078390  39.6278707  26.6298925  69.5900859
  33.3526507  32.1228732  65.9803056  33.1546196  32.6119547  65.2859268
  32.7314218  32.3269974  66.5587190  33.2314071  32.2245271  65.9626280
  27.4134485  23.8913629  60.3213301  28.1576530  24.2787906  60.5596251
  27.5595181  23.0471055  60.4853788  27.5445070  23.8244102  60.3807270
  29.3314061  15.6863888  65.3545162  28.4850106  15.8586696  65.2286512
  29.3285193  14.8813232  65.6910990  29.2061211  15.5924917  65.3856289
  30.4012361  19.4639103  66.2207220  29.9272315  18.9380865  66.7312531
  30.7730497  18.9168575  65.6522082  30.3862250  19.3055099  66.2122367
  36.6649092  24.5241478  67.6314001  36.4247315  23.6847893  67.6356427
  37.1441099  24.6041645  68.3554774  36.7001275  24.4122878  67.7388803
  32.3295861  20.3575657  59.2832974  31.8018879  20.4404401  58.5938683
  32.7891569  21.0993529  59.2797618  32.3197711  20.4796320  59.1807669
  38.6654279  21.3042935  65.5843260  38.4264049  21.2638770  64.7464044
  38.8288180  22.1514087  65.7108981  38.6544582  21.4235020  65.4796742
  35.2700309  25.6892885  71.5148305  35.9934508  25.2365411  71.3359325
  35.0050271  25.9697550  70.7320633  35.3381582  25.6643853  71.3727020
  24.1387177  20.2853058  68.2501184  23.5140247  20.2971450  67.6427137
  23.8032772  20.7613233  68.8992424  23.9972669  20.3571575  68.2557753
  24.3228926  18.6278177  54.3073869  23.9741730  19.2797902  54.7705418
  23.8425372  18.6135290  53.5797740  24.1999170  18.7221230  54.2684960
  20.8512853  28.3453518  69.6904948  20.3212777  27.6545957  69.7399923
  21.1237946  28.3363704  68.8617657  20.8137575  28.2420650  69.5752364
  31.8832943  28.9279221  58.4142631  32.6067142  29.3937334  58.2707204
  31.4433534  28.9952830  57.6640228  31.9248636  29.0063057  58.2827412
  31.0519098  25.7876763  69.6643320  30.4376091  25.2434813  69.9591955
  31.5686383  25.2740999  69.1849136  31.0374761  25.6313172  69.6367548
  30.2915396  26.8581033  67.3987618  29.8643004  26.2330752  66.9653054
  30.2840340  26.5755955  68.2246626  30.2274537  26.7233814  67.4567446
  28.6201105  17.7349788  67.6130152  28.6443592  17.2009900  66.9242932
  28.8712579  17.2267096  68.2755743  28.6611024  17.5810691  67.6094797
  16.1308695  25.0181282  67.0473297  16.0252144  24.9728127  66.1825381
  15.3808915  25.3635063  67.3287581  16.0044298  25.0622191  66.9610626
  24.9002427  16.4620606  66.9935897  24.9400799  16.9629812  67.7070604
  24.0752092  16.5530999  66.7241820  24.7841953  16.5502422  67.0586435
  26.3216791  22.9781116  69.2909796  25.4908720  23.1454934  69.0845044
  26.2668308  22.6017066  70.0758681  26.1906206  22.9470847  69.3758324
  24.6952835  21.2536707  59.8199914  24.8355796  21.7509171  60.5228555
  25.1935367  20.5523002  59.9614127  24.7893916  21.2238686  59.9451493
  24.7253057  22.1203818  57.1492490  25.3598137  22.7164243  57.0841952
  24.8078668  21.8207276  57.9638360  24.8309608  22.1644726  57.2595577
  37.7035623  24.6519296  70.0178855  38.2953463  25.2916546  70.0497053
  38.1394617  23.9542332  70.3070921  37.8554054  24.6437646  70.0659687
  26.3032040  18.0517794  57.1237932  26.6247881  17.5720876  56.4697195
  26.5658984  18.8617440  56.9328744  26.3898065  18.1007691  56.9993424
  29.5329013  29.0736668  70.6436748  29.0254104  29.6272515  71.0877379
  29.2355659  29.1344958  69.8255523  29.4133898  29.1642979  70.5885205
  31.6991195  17.4389988  69.4861411  32.1246266  16.9862514  68.8744938
  31.0848188  16.8850058  69.7626199  31.6719840  17.2903964  69.4366437
  21.2306045  24.3171659  60.4182036  21.7398274  24.9136166  60.7993342
  21.7040317  24.0497633  59.7358456  21.3749421  24.3657474  60.3736559
  32.1436793  32.9899926  58.5740692  31.4266103  32.8160788  58.1087929
  32.7943531  32.7552498  58.0416178  32.1338643  32.9295718  58.4269910
  30.1385418  13.9105087  62.8951988  29.4953736  13.7602734  63.4637127
  29.7984825  13.6647433  62.1301093  29.9930495  13.8517210  62.8655004
  34.7284764  21.8664514  62.3181997  34.0575954  22.4094216  62.1895063
  35.4224514  22.3359369  62.0763692  34.7313632  22.0162785  62.2637525
  28.7771498  34.0061226  67.5493755  28.5537152  33.2480055  67.9177782
  28.2881341  34.0359247  66.8274195  28.6714947  33.8983451  67.4970496
  34.8912892  18.3220398  65.2272370  35.2440502  17.8950121  65.9018169
  34.0327693  18.2371241  65.3573447  34.8162336  18.2465138  65.3467381
  23.5896577  20.9527917  63.2855217  22.8708566  21.3692050  63.5528080
  23.9608939  21.5182156  62.7346855  23.5388508  21.0977199  63.2438024
  32.8896157  21.5855766  69.1757212  32.8694085  21.4039062  70.0291991
  32.9375358  22.4567785  69.1516796  32.8930798  21.6872305  69.2980507
  30.8342487  28.1742958  75.1005689  30.7938342  27.5292635  74.5150845
  31.6465806  28.1179576  75.4131101  30.9485641  28.0701925  75.0602638
  27.4249955  34.2261684  65.0030840  27.0110353  33.5635814  64.6134682
  28.1097329  34.3739543  64.4826534  27.4648327  34.1502342  64.8687337
  30.7915249  33.3851770  65.7554456  30.3931532  33.4954040  64.9875277
  30.1766469  33.5933836  66.3381016  30.6414138  33.4325338  65.7285756
  29.3643151  19.9925917  58.6228596  28.7707990  20.3142914  58.0713163
  29.4018429  19.1467013  58.4149702  29.2817540  19.9150246  58.5111368
  36.3236952  13.4438810  66.1556683  35.8167816  12.7367949  66.0877860
  37.1204385  13.1131998  66.2857759  36.3664191  13.2911961  66.1655678
  32.2400968  19.9505422  62.0530346  32.0114661  19.9738123  61.2108705
  32.4999044  19.1262889  62.1725357  32.2447156  19.8321502  61.9455544
  25.2945730  18.4881968  63.3484542  25.7703096  18.8499048  62.7134723
  24.7934330  19.1438436  63.6284685  25.2911089  18.6376157  63.2961283
  38.5257092  27.9603736  59.1397547  38.9090697  28.7095092  59.3695644
  37.7301205  28.2069556  58.8809536  38.4650874  28.1073430  59.1355121
  27.3372383  20.6323168  56.7157926  27.7171348  20.6502797  55.9309041
  26.5964979  21.0777157  56.5948773  27.2841221  20.7004943  56.5821494
  34.9657674  18.9405359  62.3033505  34.9651900  18.7854016  63.1617781
  34.7613854  19.7868346  62.2474890  34.9357452  19.0425980  62.4221444
  17.0274945  22.3645144  66.7192321  16.8496706  21.9121753  67.4447237
  16.7393967  23.1671305  66.9030799  16.9587898  22.4167701  66.8535824
  32.6898526  23.6202861  65.9569712  33.1852191  22.9025856  65.9173732
  31.8798302  23.3173659  65.8424199  32.6442419  23.4700507  65.9343437
  28.1357137  27.4700674  58.1066716  27.3268460  27.1467348  58.0600026
  28.6432046  26.7633896  58.0394965  28.0906804  27.3181991  58.0897010
  18.7647415  24.8972867  63.8314080  17.8992934  24.8858558  63.7196852
  18.8646231  24.7103090  64.6785220  18.6521582  24.8678929  63.9403025
  34.7550345  26.3706548  68.6446840  35.1805416  25.8480970  68.0917265
  34.3907265  26.9687386  68.1235463  34.7636947  26.3816775  68.4855850
  24.3904425  34.6670766  67.4044186  24.7050983  35.4807154  67.4121968
  24.7997838  34.2820985  68.0726345  24.4972522  34.7299468  67.5048278
  31.3428944  30.0840813  64.9747998  31.8140122  30.7981075  65.1437983
  31.6789123  29.4839563  65.5107867  31.4624059  30.1012277  65.0780374
  33.4305929  31.6942126  77.1540070  33.5402894  30.9050687  77.5096817
  33.7596825  31.6048062  76.3514408  33.4958335  31.5647979  77.0882461
  31.9802890  29.8758747  71.7375691  31.4323836  29.2516631  71.4695756
  32.4415919  30.0653019  71.0219770  31.9670100  29.8117797  71.5926122
  34.7896755  17.9444101  69.1226883  34.2059744  18.4453308  68.7104450
  35.1101049  17.4373658  68.4891206  34.7509930  17.9435936  68.9685390
  27.3291554  16.8584696  59.3985558  28.1507248  17.0283009  59.1567253
  26.8661205  17.0131957  58.6751855  27.3822716  16.9066429  59.2557202
  21.7317445  28.6143874  67.0522794  22.3362302  28.5739709  66.4236615
  21.5244757  29.4615026  67.0826850  21.7906342  28.7331877  66.9638911
  31.5461217  30.8809820  68.2685032  32.3659591  30.7372786  68.5301327
  31.2655294  31.5056018  68.8101470  31.6257960  30.9520172  68.3872971
  16.9668727  27.5978492  66.9221717  16.8693005  26.7874763  67.2311774
  17.7497597  27.5770285  66.5367986  17.0684863  27.4745582  66.9108580
  41.2174552  37.6250322  65.9880839  40.3612448  37.7858821  66.0389955
  41.2642206  36.7542386  66.0085900  41.0973663  37.5201124  65.9986905
  44.5268269  43.8936848  75.5941295  45.2335036  43.3988879  75.7228229
  44.7156204  44.3345929  74.8643953  44.6596174  43.8855198  75.5050340
  44.0626373  39.6842366  68.6312490  44.6082333  40.3627453  68.6906460
  44.0043249  39.5429827  67.7714072  44.1342287  39.7634368  68.5124551
  37.1800448  47.1731432  64.0180843  37.2810811  46.3631786  64.3277970
  36.5842193  47.0788379  63.3880521  37.1072987  47.0396460  63.9707081
  37.0201187  52.0909021  65.4195699  37.6638643  52.5322186  65.8091857
  37.3457443  51.2862448  65.3325957  37.1633016  52.0374216  65.4641176
  30.3765492  43.1951719  63.6433176  30.1415677  42.3619371  63.5365445
  30.5151133  43.4756385  62.8294377  30.3621155  43.1135222  63.5075531
  32.6755580  35.3637449  66.5417484  32.0560611  34.7730097  66.3727499
  32.5739443  35.9548885  65.9081807  32.5693255  35.3641532  66.4222473
  39.7723475  37.1036991  60.8749947  40.4703640  37.2825119  61.3671410
  40.0875808  36.5807331  60.2520336  39.9218812  37.0530763  60.8551957
  32.4024713  38.9089731  68.7861053  32.2783410  39.4952177  69.4210872
  33.0542997  38.4149927  69.0873328  32.4798362  38.9228536  68.9246982
  37.4283054  42.0851448  68.0648564  38.0732056  41.5923891  67.7459513
  37.6684831  42.2276235  68.8914642  37.5593639  42.0328890  68.1398097
  39.9669145  44.9306354  67.7155457  40.2492388  44.1357760  67.4942212
  40.6955305  45.4086941  67.7360518  40.1158709  44.8840951  67.6858472
  37.9450339  32.4729388  64.9571222  37.6153669  32.9240532  64.2874920
  37.2695341  32.3945551  65.5044228  37.7960775  32.5280523  64.9394445
  45.1526747  28.4614911  63.2020832  44.8380188  29.1518389  63.6341255
  44.6353688  28.4059693  62.5006333  45.0291217  28.5549799  63.1617781
  36.3838788  42.3582629  58.1165711  35.7996003  42.8632660  58.5231575
  35.9808883  42.1325015  57.3762303  36.2378092  42.3990877  58.0670736
  31.9382817  48.0737390  64.9189382  31.4550395  48.7987879  64.8948966
  32.7506135  48.3713520  65.0299540  31.9873565  48.2239743  64.9316662
  38.0096971  46.8669570  67.5239197  37.4923913  46.5076985  66.9200505
  38.7071362  46.3431745  67.5345263  38.0362552  46.7367258  67.4369456
  41.6660563  47.3164384  73.4855370  41.7543909  47.1290525  74.3333580
  42.0950275  46.6701814  73.0860217  41.7422665  47.1927392  73.5527121
  39.2331023  46.5995544  72.4673032  38.6701857  46.1868154  72.9912693
  39.9952046  46.5248450  72.8866175  39.2625471  46.5272945  72.6066032
  36.1506293  30.5341676  60.4394169  36.9052261  30.9019993  60.2011220
  35.9733828  30.9081231  61.2073349  36.2360771  30.6439864  60.5179058
  34.7927014  48.5893566  65.0709662  35.4947593  48.0745555  65.1282419
  34.7124497  48.9167717  65.8756537  34.8850775  48.5607792  65.1982454
  49.4441192  36.6836117  68.4841709  48.6069613  36.7538304  68.7189303
  49.4129423  36.6860612  67.6116011  49.3159474  36.6946344  68.3901257
  35.8405921  38.8269152  74.1990077  36.0126424  38.7175047  75.0475359
  36.3775278  39.4723558  73.9621270  35.9450925  38.9061154  74.2895174
  34.5063358  32.9411995  57.1372282  34.3238931  33.1583876  56.3113275
  35.3688971  33.0551008  57.1930897  34.6067947  32.9901893  57.0226769
  34.1177790  44.7799918  64.5795270  34.9566689  45.0122850  64.6269032
  34.1489559  43.9104229  64.5102306  34.2459507  44.6856864  64.5759915
  34.7430493  45.2000793  68.8808576  35.2828718  45.0571924  69.5511948
  34.0600439  45.5997544  69.2492602  34.7222646  45.2380464  69.0342998
  40.1863077  29.9438406  60.1721306  40.9149237  29.7654361  59.7259462
  40.2757970  30.7856486  60.3828484  40.3069739  30.0422284  60.1374824
  44.1671377  40.8791793  64.0753600  44.9228892  41.3123308  64.1142509
  44.2733702  40.2296563  64.6488236  44.2941548  40.8469277  64.1651626
  47.2051549  44.7065071  64.8256003  46.7686780  44.7101813  65.5814975
  46.8714464  45.3870570  64.3935581  47.0914169  44.8077526  64.8736836
  41.7780622  46.7473403  76.1499153  42.5621039  46.8604251  76.5154896
  41.5777217  45.9214541  76.3457839  41.8646648  46.6420123  76.2333539
  30.1467638  41.4201084  69.0342997  29.8806053  40.6040200  69.1933988
  30.1606202  41.4654239  68.1638513  30.1092360  41.3057988  68.9296479
  47.1249031  31.7478898  67.0685431  47.7674940  31.8177003  67.6547346
  47.3772052  31.0808121  66.5664973  47.2571164  31.6605247  67.0812710
  34.8966244  34.9579462  71.6810005  34.2038041  34.4876442  71.9270737
  35.5126571  34.7317766  72.2551712  34.8850774  34.8546594  71.8019158
  41.9351015  48.6583506  69.7965609  41.1366261  48.4183006  70.0539478
  42.3837027  48.7097898  70.5432657  41.8825627  48.6305897  69.9450533
  30.5561051  42.2059863  66.3154742  30.3736625  42.1806749  65.4627034
  31.2910720  42.6758801  66.3543650  30.6375115  42.2721225  66.1952660
  46.6260725  42.4411373  63.4587629  46.8616315  42.5856572  62.6314480
  46.7750289  43.2053781  63.8519143  46.6826529  42.5750427  63.3951233
  33.6206803  38.9244866  72.8236850  34.3446775  38.9097896  73.3101745
  33.7222939  39.6340221  72.3258818  33.7425012  39.0269569  72.8215637
  40.9951752  42.4043950  77.6885797  40.2024733  42.7187462  77.8738417
  41.1100679  42.6195419  76.8506582  40.8947163  42.4827787  77.5924132
  41.9235545  42.3064154  72.6271094  42.4974407  41.6691398  72.7819658
  41.8450349  42.3068237  71.7580752  41.9968780  42.2129266  72.5217505
  30.5231962  39.0853364  66.4653808  31.1005464  38.9489814  67.1046054
  29.8246023  38.6289148  66.7199393  30.5052983  38.9975630  66.5976098
  37.2799264  40.7387419  64.6792291  37.0218508  39.9059154  64.6523591
  37.3347747  40.9645032  63.8384792  37.2499042  40.6485191  64.5512428
  42.3600314  32.8415870  64.7796384  41.6556641  32.3525055  64.9380303
  42.4085288  32.8538344  63.9084829  42.2630366  32.7705518  64.6735724
  36.2533976  38.2925182  65.1657186  35.6783567  38.4517350  65.8021147
  35.8769652  37.6560591  64.7025637  36.1136788  38.2222995  65.1911745
  49.5630534  36.5223536  62.7997395  49.3067099  35.7103477  62.6095277
  50.4059848  36.5301103  62.5727582  49.6496559  36.4035533  62.7382212
  25.9990795  37.9365257  63.1801627  26.0851047  37.5597125  63.9615157
  26.6266592  37.5625702  62.7021585  26.1047346  37.8250739  63.2247104
  43.7433626  30.4623160  67.5373549  44.1244138  29.7801331  67.9241423
  42.9396910  30.1732762  67.3549213  43.6810088  30.3190208  67.5677605
  47.2455693  43.6773132  72.6355947  47.0094330  42.8461197  72.5168008
  47.8898922  43.6258739  73.2210791  47.3050364  43.5470820  72.7041841
  36.8954111  44.4668653  63.3498684  37.5328058  44.2280401  63.8950477
  37.3209183  44.6705812  62.6151844  37.0530277  44.4619663  63.3215841
  31.5866753  46.7056990  67.2332987  31.6270899  46.9771841  66.4052767
  32.1461278  47.2298898  67.6490775  31.6750099  46.8232745  67.1724876
  37.5356926  39.6870943  57.6873573  37.9202079  39.4678650  58.4390118
  37.2868546  40.5133888  57.8174649  37.5558999  39.7769089  57.8174649
  37.7025467  32.9677358  77.4036157  37.3878908  33.7376921  77.1405720
  37.3815399  32.4047614  76.8188384  37.6084386  32.9987627  77.2777507
  48.2692114  43.4617581  68.6984242  47.9637931  44.1945637  69.0597557
  47.5498329  43.0555510  68.4177028  48.1179456  43.5099314  68.7097379
  39.2775583  44.9441076  65.0292470  39.3514591  44.7816248  65.8834320
  40.0945089  45.1331265  64.7852952  39.4091942  44.9477818  65.1190496
  53.9693906  40.1010581  68.0252586  53.9018406  40.1206540  67.1555172
  53.9549568  40.9440908  68.2508256  53.9572662  40.2284316  67.9305063
  33.0381340  45.2898939  62.0586913  32.2119457  45.5360676  61.9321192
  33.0993331  45.2111019  62.9248971  32.9255507  45.3143888  62.1675858
  35.2557363  31.3567880  63.0182354  34.3879789  31.4290479  63.0839963
  35.5432568  32.1589958  63.2070329  35.1697112  31.4862027  63.0557120
  44.3790252  31.5045739  71.3493675  45.1243844  31.3155549  70.9357101
  43.9627557  32.0303977  70.7907532  44.4275226  31.5547884  71.2058249
  51.7552523  38.8754967  66.2999180  52.3060445  38.2423036  66.5396272
  51.7396638  39.4070360  66.9914685  51.8337719  38.8603916  66.4378039
  38.4074914  42.7093565  70.8459074  37.9086608  43.4209332  70.9243962
  39.2175138  43.0294231  70.8077236  38.4531021  42.8620413  70.8515642
  35.7586084  49.8843201  62.8266093  35.5386380  49.5940556  63.6192760
  35.5380606  49.2258156  62.2984005  35.6933679  49.7442910  62.8655002
  34.6703032  41.9716518  65.0921795  34.3816280  41.3453989  65.6267522
  35.5386380  41.9136805  65.1586475  34.7563283  41.8704062  65.1812749
  45.4580929  37.1151301  65.4103777  45.1145695  36.3941636  65.7611026
  45.5573972  36.9065152  64.5682135  45.4222972  36.9775504  65.3375457
  37.9254040  51.2572591  61.6096785  38.5778098  50.7249033  61.8387811
  37.2279649  50.9041243  61.9964659  37.9184758  51.1262114  61.7008953
  34.8735305  43.6111769  61.0164160  35.6281273  43.9924808  61.2299622
  34.2805918  44.0622912  61.4710856  34.8972019  43.7340596  61.1147038
  37.3341972  35.5674609  76.1421372  36.5241748  35.8732389  76.0311214
  37.8116659  36.2880191  76.2573956  37.2845451  35.7189210  76.1428443
  36.1933532  44.7820330  66.3904275  35.6714285  44.9220622  67.0756140
  36.5807552  44.0230994  66.5806392  36.1737232  44.6905854  66.5205352
  33.1824716  34.8326139  60.4599230  32.8949511  34.4627409  59.7231177
  33.8695184  35.3020994  60.1982935  33.2413613  34.8473108  60.3114306
  37.6199857  41.8124349  61.7885766  37.4242640  42.4199084  61.1946069
  37.8434203  41.1192293  61.3077440  37.6234498  41.8001875  61.6301847
  36.0178387  38.6979087  61.9066635  36.7401039  38.8620245  61.4470441
  35.5386380  39.4188752  61.8005974  36.0542118  38.8277317  61.8232249
  43.9771895  35.0342886  67.2863319  43.1382995  35.0604165  67.0501583
  44.0476262  35.6813621  67.8668666  43.8640288  35.1339012  67.3372436
  33.6686004  41.1037159  71.0120774  34.1807101  41.3821413  70.3629534
  33.3822346  41.8426454  71.3783587  33.7020867  41.2539513  70.9710652
  42.4241173  31.9328263  62.0190935  43.1267526  31.7336011  61.5410894
  42.1585362  31.1604205  62.3259779  42.4887805  31.7891229  61.9936377
  47.8529419  40.2410873  64.5724561  47.7663393  40.3966299  65.4259340
  47.3979898  40.8848948  64.1983966  47.7732675  40.3586628  64.6431668
  30.7552910  35.6107351  61.3084511  30.8569047  36.4133513  61.6365486
  31.5508797  35.4094687  61.0107591  30.8880816  35.6993250  61.3119866
  37.1869729  33.1963548  71.0721816  36.9952926  33.2118682  71.9221239
  38.0368325  33.3927222  71.0488471  37.2845451  33.2277899  71.1945111
  31.5716642  35.7254530  69.0505632  31.4302134  34.8738470  69.1750140
  31.8557206  35.7683190  68.2267838  31.5924488  35.6054280  68.9473257
  41.7255235  37.5621620  63.1950121  41.4789949  37.4817371  64.0286910
  42.0540358  36.7775088  63.0012648  41.7376478  37.4347885  63.2897644
  45.6203283  44.2704979  66.9836902  45.4817643  44.9686025  67.4885644
  44.8403281  44.1153636  66.6273084  45.4846510  44.3505146  67.0063176
  43.9581369  40.5701354  73.2359284  43.9529407  39.6981171  73.2401710
  44.6642362  40.7689524  72.7628739  44.0626373  40.4705229  73.1666319
  37.6852262  40.2978338  72.6073104  37.8295638  40.8779546  71.9716214
  38.0327910  40.6754635  73.3122958  37.7579723  40.4399042  72.6172099
  39.8572179  39.4968507  70.3898235  39.1095493  39.6899521  69.9846513
  40.0113704  38.6713726  70.1522357  39.7694607  39.4033618  70.2943641
  36.7580017  48.4881110  69.4734131  36.9069581  47.9284026  68.8207535
  37.5380019  48.5673112  69.8566649  36.8954111  48.4166676  69.4331080
  39.2833318  48.6595753  70.7518621  39.2076989  47.9904564  71.3069410
  39.2123177  49.3613541  71.2659288  39.2613924  48.6640660  70.9095470
  40.0973956  33.3919057  71.2793639  40.5546570  34.1243032  71.4066431
  40.1730285  32.9685523  72.0380895  40.1764926  33.4376295  71.4094716
  32.3406948  33.6384877  72.3683083  31.8049137  33.0265235  72.6843850
  32.4024712  34.2133013  73.0216749  32.2702580  33.6331805  72.5118510
  44.5701282  26.5708933  65.1487482  44.6884850  27.0285396  64.4154785
  44.3963458  25.7654194  64.8623700  44.5620453  26.5202705  64.9988416
  37.9756334  35.3821161  68.1235463  37.1852409  35.2012621  68.4452799
  38.3716957  34.6048114  68.1065758  37.9173210  35.2408622  68.1688011
  43.3600021  43.0163591  65.8494909  42.6845022  42.7848824  66.3508296
  43.3692397  42.4084774  65.2237014  43.2618525  42.8922517  65.8311061
  40.4894164  37.8581420  72.6058962  40.4253306  38.7191377  72.4779099
  40.6291352  37.5413414  71.8054513  40.5009635  37.9381587  72.4687175
  39.1713258  40.5513560  66.7475165  38.7475507  40.7518059  66.0114183
  38.9958114  39.7042408  66.8599465  39.0824139  40.4562341  66.6548855
  38.6724952  52.0664073  69.2096622  39.1620882  51.3674862  69.0272287
  38.1009184  51.7687943  69.7972680  38.6609482  51.9190296  69.2697663
  34.4595703  41.0465611  62.1803137  34.6160323  40.9812414  63.0359130
  34.7996296  41.8214164  61.9681817  34.5328938  41.1514809  62.2757732
  44.8691955  44.6326142  78.1623413  45.6826821  44.3611291  78.3228545
  44.7086922  44.3333682  77.3583609  44.9661904  44.5481068  78.0668819
  42.1464117  35.3159799  71.1018801  42.3606087  34.6770714  70.5482155
  41.5298017  35.7605623  70.6726663  42.0869447  35.2869943  70.9569232
  43.5568785  48.2378548  62.5473022  43.1648577  47.9345263  61.8295888
  43.7121857  49.0747638  62.3577976  43.5222375  48.3162384  62.4129519
  31.0329965  38.2300562  62.4963905  31.4128930  38.6485107  61.8324172
  30.4585330  38.8114017  62.8032748  31.0041290  38.3778421  62.4440646
  44.3103205  36.9248864  72.0402108  43.4979887  36.6174755  72.1215281
  44.7693140  36.4447865  72.6044820  44.2583590  36.8085357  72.1356702
  43.7208460  44.8028536  62.4879053  43.3623115  44.9743179  63.2643085
  43.2347171  45.2641742  61.9307051  43.5967157  44.8967508  62.5204322
  41.5378846  28.4259735  66.0906144  40.6672404  28.3998456  66.0439453
  41.7919187  28.2536927  65.2731990  41.4472406  28.3969879  65.9626281
  41.4056713  38.3308936  76.8230811  41.8756344  38.9551052  77.2098685
  41.4518593  37.6625911  77.3824025  41.4824589  38.3243616  76.9630882
  38.5627986  30.4365963  67.5479614  38.0466475  29.7446155  67.6731193
  38.0021915  31.1036740  67.4942213  38.4034500  30.4329221  67.5585680
  40.6320220  30.9758923  69.3772467  40.2451973  31.0007955  70.1585997
  40.1453157  30.4100602  68.9246984  40.5032729  30.8954674  69.4260371
  44.8813199  45.6932432  73.4346253  45.5192920  45.1992628  73.1008710
  44.2387291  45.6209833  72.8498480  44.8807426  45.6091441  73.2988608
  46.6070199  37.5421578  68.0012169  46.1797808  37.4547927  67.2460269
  45.9696252  37.6499354  68.5867013  46.4499807  37.5454238  67.9757611
  40.2977362  27.8625909  71.6682727  40.9270480  28.3986209  71.3903797
  40.4663224  27.7703268  72.5196292  40.4155156  27.9287271  71.7531255
  40.0991277  32.6497104  73.9409138  40.9264706  32.3782253  73.9967753
  40.1199123  33.4457945  74.2972957  40.2244127  32.7276858  74.0024321
  44.9367456  46.3852241  70.0751610  45.7259834  46.0341305  70.1953692
  45.1111054  47.1988629  69.8128244  45.0787738  46.4538098  70.0539478
  34.6760766  39.7960966  67.1279399  33.8348773  39.6964841  67.3358293
  34.8850774  40.5656447  67.4793720  34.5825459  39.8953010  67.2106714
  32.1536333  37.4180503  64.9564150  31.7593031  37.4923515  64.1814259
  31.5976450  37.8038450  65.5072511  32.0139146  37.4862278  64.9231810
  43.7901280  30.3961797  64.6368029  43.9950874  30.3284105  65.4825026
  43.4627704  31.2020619  64.5689206  43.7716528  30.5047738  64.7527684
  38.4877431  37.7242366  66.3776997  38.1840569  37.1698354  66.9787404
  37.7856852  37.9034576  65.8905031  38.3393641  37.6687148  66.3946702
  37.5443528  35.0342885  60.9421698  37.8203263  34.3161798  60.5299266
  38.1442198  35.6327805  60.7342805  37.6736793  35.0163256  60.8502460
  36.5495782  44.9392086  71.0849094  36.4416137  44.9494148  71.9511152
  36.7591564  45.7646867  70.8954048  36.5645893  45.0633161  71.1853186
  47.0434968  30.9493562  64.1170794  46.4309281  31.4363964  64.5024526
  47.1399143  30.2737053  64.6608445  46.9672865  30.9211870  64.2549652
  41.0454049  32.7056403  59.2168293  41.4997795  32.8766963  59.9416138
  41.5194095  32.0924513  58.8166069  41.1822369  32.6407288  59.2642055
  34.5669574  42.1904729  68.5471032  33.9757508  42.8314227  68.5174047
  35.3290598  42.6142346  68.5202331  34.5917835  42.3480567  68.5386179
  34.9630197  33.3506726  69.2139050  35.4231679  33.4245656  69.9514173
  35.0086304  34.1487981  68.8638871  35.0380752  33.4800874  69.2711806
  36.6113547  34.0173421  73.7811077  36.2199112  33.3706768  74.2166854
  36.7799410  34.6084857  74.4005332  36.5784457  34.0087689  73.9373783
  50.6859996  42.0210498  69.5448310  50.7443120  42.4697147  70.2908287
  50.0526463  42.4309311  69.1078390  50.6011291  42.1484233  69.5900859
  44.3259091  47.6414040  65.9803056  44.1278779  48.1304855  65.2859268
  43.7046802  47.8455282  66.5587190  44.2046655  47.7430579  65.9626280
  38.3867069  39.4098937  60.3213301  39.1309114  39.7973213  60.5596251
  38.5327765  38.5656363  60.4853788  38.5177654  39.3429410  60.3807270
  40.3046644  31.2049196  65.3545162  39.4582689  31.3772004  65.2286512
  40.3017777  30.3998540  65.6910990  40.1793794  31.1110225  65.3856289
  41.3744945  34.9824410  66.2207220  40.9004899  34.4566172  66.7312531
  41.7463081  34.4353883  65.6522082  41.3594834  34.8240407  66.2122367
  31.7517975  36.9795917  71.5890766  32.6143588  36.8791626  71.5028096
  31.4209758  36.3990626  71.0276338  31.8303171  36.8787544  71.4936172
  47.6381675  40.0426786  67.6314001  47.3979898  39.2033201  67.6356427
  48.1173682  40.1226953  68.3554774  47.6733859  39.9308186  67.7388803
  49.6386862  36.8228243  65.5843260  49.3996632  36.7824077  64.7464044
  49.8020764  37.6699395  65.7108981  49.6277166  36.9420328  65.4796742
  46.2432892  41.2078193  71.5148305  46.9667091  40.7550719  71.3359325
  45.9782855  41.4882858  70.7320633  46.3114166  41.1829161  71.3727020
  35.1119761  35.8038366  68.2501184  34.4872831  35.8156758  67.6427137
  34.7765356  36.2798541  68.8992424  34.9705253  35.8756883  68.2557753
  31.8245436  43.8638826  69.6904948  31.2945361  43.1731265  69.7399923
  32.0970530  43.8549012  68.8617657  31.7870159  43.7605958  69.5752364
  42.0251682  41.3062071  69.6643320  41.4108675  40.7620121  69.9591955
  42.5418967  40.7926307  69.1849136  42.0107344  41.1498480  69.6367548
  41.2647979  42.3766341  67.3987618  40.8375587  41.7516060  66.9653054
  41.2572923  42.0941263  68.2246626  41.2007120  42.2419122  67.4567446
  34.3810506  37.4131514  70.4676052  34.5403993  36.6574838  70.8727774
  34.2003400  37.9622453  71.1216790  34.3775865  37.3825328  70.6238758
  42.3230809  29.5792750  71.0226842  41.8271370  29.7756424  70.3318409
  43.0799871  29.9785418  70.8515644  42.3617634  29.6670483  70.8946979
  39.5933689  33.2535095  67.6130152  39.6176176  32.7195208  66.9242932
  39.8445162  32.7452404  68.2755743  39.6343607  33.0995999  67.6094797
  27.1041279  40.5366590  67.0473297  26.9984728  40.4913435  66.1825381
  26.3541499  40.8820371  67.3287581  26.9776882  40.5807499  66.9610626
  35.8735011  31.9805914  66.9935897  35.9133383  32.4815120  67.7070604
  35.0484676  32.0716307  66.7241820  35.7574537  32.0687730  67.0586435
  38.0564624  41.5466654  75.0956191  37.2060254  41.6838368  75.2313836
  38.2192752  40.8130432  75.5403893  37.9548487  41.4580755  75.1811791
  37.2949374  38.4966423  69.2909796  36.4641304  38.6640241  69.0845044
  37.2400892  38.1202374  70.0758681  37.1638789  38.4656155  69.3758324
  35.1033158  31.9875316  74.9266207  35.7285861  31.4437449  75.1995639
  34.6483638  31.5070234  74.3573997  35.1281418  31.8364798  74.8827800
  35.6685418  36.7722015  59.8199914  35.8088379  37.2694479  60.5228555
  36.1667951  36.0708309  59.9614127  35.7626499  36.7423994  59.9451493
  35.6985641  37.6389126  57.1492490  36.3330720  38.2349551  57.0841952
  35.7811251  37.3392584  57.9638360  35.8042192  37.6830034  57.2595577
  48.6768206  40.1704603  70.0178855  49.2686047  40.8101854  70.0497053
  49.1127201  39.4727640  70.3070921  48.8286638  40.1622954  70.0659687
  37.2764623  33.5703101  57.1237932  37.5980465  33.0906184  56.4697195
  37.5391567  34.3802748  56.9328744  37.3630649  33.6192999  56.9993424
  40.5061596  44.5921976  70.6436748  39.9986687  45.1457823  71.0877379
  40.2088242  44.6530266  69.8255523  40.3866481  44.6828287  70.5885205
  42.6723778  32.9575295  69.4861411  43.0978850  32.5047822  68.8744938
  42.0580772  32.4035366  69.7626199  42.6452424  32.8089272  69.4366437
  32.2038629  39.8356967  60.4182036  32.7130858  40.4321474  60.7993342
  32.6772901  39.5682940  59.7358456  32.3482004  39.8842782  60.3736559
  41.1118001  29.4290395  62.8951988  40.4686319  29.2788042  63.4637127
  40.7717408  29.1832741  62.1301093  40.9663079  29.3702518  62.8655004
  39.7504082  49.5246534  67.5493755  39.5269736  48.7665363  67.9177782
  39.2613925  49.5544555  66.8274195  39.6447531  49.4168759  67.4970496
  45.8645475  33.8405706  65.2272370  46.2173085  33.4135429  65.9018169
  45.0060277  33.7556549  65.3573447  45.7894920  33.7650446  65.3467381
  34.5629160  36.4713225  63.2855217  33.8441149  36.8877358  63.5528080
  34.9341523  37.0367464  62.7346855  34.5121092  36.6162507  63.2438024
  43.8628741  37.1041074  69.1757212  43.8426668  36.9224369  70.0291991
  43.9107942  37.9753093  69.1516796  43.8663382  37.2057613  69.2980507
  41.8075071  43.6928266  75.1005689  41.7670926  43.0477943  74.5150845
  42.6198389  43.6364884  75.4131101  41.9218224  43.5887233  75.0602638
  38.3982538  49.7446992  65.0030840  37.9842937  49.0821122  64.6134682
  39.0829913  49.8924851  64.4826534  38.4380910  49.6687650  64.8687337
  41.7647833  48.9037077  65.7554456  41.3664116  49.0139348  64.9875277
  41.1499052  49.1119144  66.3381016  41.6146722  48.9510645  65.7285756
  40.3375735  35.5111225  58.6228596  39.7440574  35.8328222  58.0713163
  40.3751012  34.6652321  58.4149702  40.2550124  35.4335554  58.5111368
  47.2969535  28.9624118  66.1556683  46.7900400  28.2553257  66.0877860
  48.0936969  28.6317306  66.2857759  47.3396775  28.8097269  66.1655678
  37.4952780  37.3225203  71.6555447  36.9831683  36.7146386  72.0140478
  37.3232276  38.0381795  72.1229422  37.3942417  37.3388502  71.7771670
  32.3418494  35.7662778  74.3057808  32.1721085  36.4264153  73.7606015
  31.8984444  35.9769339  75.0270298  32.2517828  35.8948760  74.3319438
  36.2678314  34.0067276  63.3484542  36.7435680  34.3684356  62.7134723
  35.7666913  34.6623744  63.6284685  36.2643673  34.1561465  63.2961283
  41.3721850  35.2449447  74.0957702  41.9293280  35.0163257  73.4636168
  41.0482915  36.0055113  73.8192915  41.4068260  35.3233284  73.9614199
  29.2420559  38.6709644  69.5646298  28.6947278  38.0010289  69.6827167
  30.0312937  38.3039492  69.6289766  29.2772742  38.5174630  69.5914999
  39.0904967  38.3317101  75.0609709  39.8416294  38.6468778  75.3749264
  39.2827544  38.1296272  74.2343631  39.2296381  38.3484483  74.9853105
  45.9390257  34.4590667  62.3033505  45.9384484  34.3039324  63.1617781
  45.7346437  35.3053654  62.2474890  45.9090035  34.5611288  62.4221444
  28.0007528  37.8830452  66.7192321  27.8229289  37.4307061  67.4447237
  27.7126550  38.6856613  66.9030799  27.9320481  37.9353009  66.8535824
  43.6631109  39.1388169  65.9569712  44.1584775  38.4211164  65.9173732
  42.8530885  38.8358967  65.8424199  43.6175003  38.9885815  65.9343437
  29.7379998  40.4158175  63.8314080  28.8725518  40.4043866  63.7196852
  29.8378814  40.2288398  64.6785220  29.6254165  40.3864236  63.9403025
  45.7282928  41.8891856  68.6446840  46.1538000  41.3666278  68.0917265
  45.3639848  42.4872694  68.1235463  45.7369531  41.9002083  68.4855850
  35.3637008  50.1856074  67.4044186  35.6783567  50.9992462  67.4121968
  35.7730421  49.8006293  68.0726345  35.4705106  50.2484776  67.5048278
  42.3161528  45.6026121  64.9747998  42.7872706  46.3166383  65.1437983
  42.6521706  45.0024871  65.5107867  42.4356643  45.6197585  65.0780374
  44.4038512  47.2127434  77.1540070  44.5135478  46.4235995  77.5096817
  44.7329409  47.1233370  76.3514408  44.4690918  47.0833287  77.0882461
  39.2331023  30.3753591  71.9306093  39.3658928  29.5784585  72.2587068
  39.6176175  30.9019994  72.5104368  39.3087352  30.3353508  72.0649596
  42.9535474  45.3944055  71.7375691  42.4056420  44.7701938  71.4695756
  43.4148503  45.5838327  71.0219770  42.9402684  45.3303105  71.5926122
  42.3063378  27.2983917  68.5287186  41.5009342  27.1881647  68.8455024
  42.1770113  27.3996373  67.6717052  42.1683511  27.2967587  68.4495226
  45.7629338  33.4629409  69.1226883  45.1792327  33.9638616  68.7104450
  46.0833632  32.9558965  68.4891206  45.7242514  33.4621244  68.9685390
  38.3024138  32.3770004  59.3985558  39.1239832  32.5468317  59.1567253
  37.8393788  32.5317265  58.6751855  38.3555300  32.4251737  59.2557202
  36.8919469  30.3712766  70.1783986  37.4363882  30.0303893  70.7688328
  36.9456405  31.2298228  70.3205271  36.9808589  30.4468026  70.2865860
  32.7050028  44.1329182  67.0522794  33.3094886  44.0925016  66.4236615
  32.4977341  44.9800334  67.0826850  32.7638926  44.2517185  66.9638911
  42.5193800  46.3995127  68.2685032  43.3392174  46.2558094  68.5301327
  42.2387878  47.0241326  68.8101470  42.5990544  46.4705480  68.3872971
  27.9401311  43.1163800  66.9221717  27.8425589  42.3060071  67.2311774
  28.7230180  43.0955593  66.5367986  28.0417447  42.9930890  66.9108580
  58.9907451  54.0559979  61.2327908  58.9601455  54.9104616  61.4046177
  59.5888799  53.7555272  61.7914052  59.0744609  54.1376476  61.3402710
  52.1907136  53.1435630  65.9880839  51.3345031  53.3044128  66.0389955
  52.2374789  52.2727694  66.0085900  52.0706247  53.0386432  65.9986905
  46.5748275  62.6798348  61.7518070  45.8231175  62.3013886  61.5234115
  47.0234287  62.7116782  61.0036880  46.5297942  62.6283955  61.6075572
  52.0273235  63.1023718  57.1803617  51.6924604  63.7800639  56.7447839
  52.5400106  62.7129029  56.5920489  52.0538816  63.1448296  57.0290409
  51.5677526  65.0537986  63.1214729  51.9516906  65.6224885  62.5819504
  51.5036668  64.3287497  62.6420545  51.6150954  65.0313450  62.9708591
  55.0358957  55.2027674  68.6312490  55.5814917  55.8812761  68.6906460
  54.9775833  55.0615135  67.7714072  55.1074871  55.2819676  68.5124551
  48.1533031  62.6916740  64.0180843  48.2543394  61.8817094  64.3277970
  47.5574777  62.5973687  63.3880521  48.0805570  62.5581768  63.9707081
  56.8124025  56.6312281  59.5046218  56.6963551  57.3819967  59.9338356
  57.6079912  56.3736235  59.7542305  56.9128615  56.7047128  59.6050310
  47.9933771  67.6094329  65.4195699  48.6371227  68.0507493  65.8091857
  48.3190027  66.8047756  65.3325957  48.1365600  67.5559524  65.4641176
  41.3498076  58.7137027  63.6433176  41.1148260  57.8804679  63.5365445
  41.4883716  58.9941692  62.8294377  41.3353738  58.6320530  63.5075531
  43.6488163  50.8822757  66.5417484  43.0293195  50.2915405  66.3727499
  43.5472027  51.4734193  65.9081807  43.5425839  50.8826840  66.4222473
  48.6954351  60.6206304  60.7915560  49.0170192  61.1611512  60.1876868
  49.3426447  60.0503076  60.9237850  48.8380406  60.6165479  60.7222596
  50.7456059  52.6222299  60.8749947  51.4436224  52.8010427  61.3671410
  51.0608391  52.0992639  60.2520336  50.8951396  52.5716071  60.8551957
  43.3757296  54.4275039  68.7861053  43.2515993  55.0137485  69.4210872
  44.0275581  53.9335235  69.0873328  43.4530946  54.4413844  68.9246982
  50.9343994  59.0092744  60.8629738  51.3737630  58.4009845  61.3084511
  50.7848657  58.6300118  60.0915204  50.9765460  58.8631215  60.8148906
  48.4015637  57.6036756  68.0648564  49.0464640  57.1109199  67.7459513
  48.6417414  57.7461543  68.8914642  48.5326222  57.5514198  68.1398097
  50.9401729  60.4491662  67.7155457  51.2224971  59.6543068  67.4942212
  51.6687889  60.9272249  67.7360518  51.0891292  60.4026259  67.6858472
  54.5353331  57.3619925  57.8160508  54.4504626  58.2180892  57.9610077
  55.0237714  57.0864250  58.4842667  54.5942228  57.4477247  57.9362589
  56.1259330  43.9800219  63.2020832  55.8112771  44.6703697  63.6341255
  55.6086272  43.9245001  62.5006333  56.0023801  44.0735107  63.1617781
  55.4671764  53.9804720  59.3158243  54.9383235  54.1964353  59.9755549
  55.9896784  54.6740858  59.2359212  55.4660217  54.1147857  59.4013842
  60.9219817  59.5551024  64.6891287  60.0917520  59.7661668  64.8524704
  60.8729069  58.7288079  64.4133571  60.7926552  59.4640630  64.6728653
  47.3571372  57.8767936  58.1165711  46.7728587  58.3817968  58.5231575
  46.9541467  57.6510323  57.3762303  47.2110676  57.9176185  58.0670736
  42.9115400  63.5922698  64.9189382  42.4282979  64.3173187  64.8948966
  43.7238719  63.8898828  65.0299540  42.9606148  63.7425051  64.9316662
  48.9829554  62.3854878  67.5239197  48.4656496  62.0262293  66.9200505
  49.6803946  61.8617053  67.5345263  49.0095136  62.2552566  67.4369456
  51.8148586  54.1233589  56.5934631  52.0544590  54.3311572  55.7809975
  52.1364427  53.3191097  56.7023576  51.8985744  54.0347690  56.4895185
  45.7659598  64.1078874  65.0709662  46.4680177  63.5930863  65.1282419
  45.6857081  64.4353025  65.8756537  45.8583358  64.0793100  65.1982454
  60.4173775  52.2021425  68.4841709  59.5802196  52.2723612  68.7189303
  60.3862006  52.2045920  67.6116011  60.2892058  52.2131652  68.3901257
  46.8138504  54.3454460  74.1990077  46.9859008  54.2360355  75.0475359
  47.3507862  54.9908866  73.9621270  46.9183508  54.4246462  74.2895174
  45.0910373  60.2985225  64.5795270  45.9299273  60.5308158  64.6269032
  45.1222142  59.4289537  64.5102306  45.2192091  60.2042172  64.5759915
  45.7163076  60.7186101  68.8808576  46.2561301  60.5757232  69.5511948
  45.0333022  61.1182851  69.2492602  45.6955230  60.7565772  69.0342998
  55.1403961  56.3977101  64.0753600  55.8961476  56.8308616  64.1142509
  55.2466285  55.7481871  64.6488236  55.2674132  56.3654585  64.1651626
  58.1784132  60.2250379  64.8256003  57.7419364  60.2287121  65.5814975
  57.8447048  60.9055878  64.3935581  58.0646752  60.3262834  64.8736836
  41.1200221  56.9386391  69.0342997  40.8538636  56.1225508  69.1933988
  41.1338785  56.9839547  68.1638513  41.0824944  56.8243296  68.9296479
  58.0981615  47.2664206  67.0685431  58.7407523  47.3362311  67.6547346
  58.3504636  46.5993429  66.5664973  58.2303747  47.1790555  67.0812710
  45.8698828  50.4764770  71.6810005  45.1770624  50.0061749  71.9270737
  46.4859155  50.2503074  72.2551712  45.8583358  50.3731902  71.8019158
  61.3128478  56.9431298  63.7175640  61.9744912  56.3821967  63.6171549
  60.6719890  56.4483329  64.0428332  61.3157346  56.7867707  63.7507981
  52.2005286  60.2401430  56.0256564  52.6156435  59.9086454  55.3341059
  51.3697216  60.0070332  55.8976700  52.1393295  60.1572686  55.9047411
  41.5293635  57.7245171  66.3154742  41.3469208  57.6992057  65.4627034
  42.2643304  58.1944109  66.3543650  41.6107699  57.7906533  66.1952660
  57.5993309  57.9596681  63.4587629  57.8348898  58.1041880  62.6314480
  57.7482873  58.7239089  63.8519143  57.6559112  58.0935735  63.3951233
  44.5939387  54.4430174  72.8236850  45.3179359  54.4283204  73.3101745
  44.6955523  55.1525529  72.3258818  44.7157596  54.5454877  72.8215637
  59.4283766  56.7998347  61.2957233  59.7591983  57.3325987  60.6897328
  60.0016854  56.8537235  61.9519184  59.5617445  56.8867916  61.3035015
  54.6415655  54.6463249  61.9780813  54.7362509  55.3852544  62.4320439
  54.0174498  54.2180725  62.4115378  54.5624685  54.6924570  62.1088961
  41.4964545  54.6038672  66.4653808  42.0738048  54.4675122  67.1046054
  40.7978607  54.1474456  66.7199393  41.4785567  54.5160938  66.5976098
  54.8938676  56.4911989  55.2117765  54.8118839  56.5614176  56.0772752
  55.5318397  57.0541733  55.0201506  54.9758514  56.5850960  55.3107715
  48.2531847  56.2572727  64.6792291  47.9951092  55.4244462  64.6523591
  48.3080330  56.4830340  63.8384792  48.2231625  56.1670498  64.5512428
  47.2266560  53.8110490  65.1657186  46.6516151  53.9702658  65.8021147
  46.8502236  53.1745899  64.7025637  47.0869372  53.7408303  65.1911745
  50.8939848  52.2833839  70.0249565  50.5054281  51.8588057  69.3701756
  50.2294547  52.5315989  70.5326591  50.7386776  52.2572560  70.0037433
  60.5363117  52.0408844  62.7997395  60.2799682  51.2288785  62.6095277
  61.3792431  52.0486411  62.5727582  60.6229143  51.9220841  62.7382212
  36.9723378  53.4550564  63.1801627  37.0583630  53.0782433  63.9615157
  37.5999176  53.0811010  62.7021585  37.0779929  53.3436047  63.2247104
  54.7166210  45.9808468  67.5373549  55.0976721  45.2986639  67.9241423
  53.9129494  45.6918070  67.3549213  54.6542671  45.8375516  67.5677605
  51.9978786  56.5132444  58.2226372  52.8119425  56.8047336  58.1109143
  51.9337928  55.8592306  57.6484665  52.1081525  56.4597638  58.1215209
  47.8686695  59.9853961  63.3498684  48.5060642  59.7465709  63.8950477
  48.2941766  60.1891120  62.6151844  48.0262861  59.9804971  63.3215841
  42.5599337  62.2242298  67.2332987  42.6003482  62.4957149  66.4052767
  43.1193861  62.7484206  67.6490775  42.6482683  62.3418053  67.1724876
  48.5089510  55.2056251  57.6873573  48.8934662  54.9863958  58.4390118
  48.2601130  56.0319196  57.8174649  48.5291582  55.2954397  57.8174649
  48.6758050  48.4862666  77.4036157  48.3611491  49.2562229  77.1405720
  48.3547983  47.9232922  76.8188384  48.5816969  48.5172935  77.2777507
  50.2508167  60.4626384  65.0292470  50.3247175  60.3001556  65.8834320
  51.0677673  60.6516573  64.7852952  50.3824525  60.4663126  65.1190496
  44.0113923  60.8084246  62.0586913  43.1852041  61.0545984  61.9321192
  44.0725915  60.7296327  62.9248971  43.8988090  60.8329195  62.1675858
  46.2289947  46.8753187  63.0182354  45.3612373  46.9475787  63.0839963
  46.5165151  47.6775266  63.2070329  46.1429695  47.0047335  63.0557120
  55.3522836  47.0231047  71.3493675  56.0976428  46.8340857  70.9357101
  54.9360140  47.5489285  70.7907532  55.4007810  47.0733192  71.2058249
  48.7912752  63.4261127  59.7605943  49.0811051  63.0350108  59.0365170
  49.5216233  63.6077832  60.2011219  48.9419637  63.3954940  59.7188750
  62.7285107  54.3940275  66.2999180  63.2793028  53.7608344  66.5396272
  62.7129222  54.9255668  66.9914685  62.8070303  54.3789223  66.4378039
  49.3807498  58.2278873  70.8459074  48.8819191  58.9394640  70.9243962
  50.1907722  58.5479539  70.8077236  49.4263604  58.3805721  70.8515642
  46.7318668  65.4028509  62.8266093  46.5118963  65.1125864  63.6192760
  46.5113190  64.7443464  62.2984005  46.6666262  65.2628217  62.8655002
  45.6435615  57.4901826  65.0921795  45.3548864  56.8639297  65.6267522
  46.5118963  57.4322113  65.1586475  45.7295867  57.3889370  65.1812749
  56.4313513  52.6336609  65.4103777  56.0878279  51.9126944  65.7611026
  56.5306555  52.4250460  64.5682135  56.3955556  52.4960812  65.3375457
  48.8986624  66.7757899  61.6096785  49.5510682  66.2434341  61.8387811
  48.2012232  66.4226551  61.9964659  48.8917342  66.6447422  61.7008953
  45.8467888  59.1297077  61.0164160  46.6013856  59.5110116  61.2299622
  45.2538501  59.5808220  61.4710856  45.8704602  59.2525904  61.1147038
  56.8926542  59.0962313  60.9527765  57.4584575  59.7555523  60.8686308
  56.2454445  59.4412011  61.4244167  56.8805298  59.2444254  61.0100521
  48.3074556  51.0859917  76.1421372  47.4974331  51.3917697  76.0311214
  48.7849242  51.8065499  76.2573956  48.2578034  51.2374518  76.1428443
  47.1666115  60.3005638  66.3904275  46.6446869  60.4405930  67.0756140
  47.5540135  59.5416302  66.5806392  47.1469816  60.2091162  66.5205352
  44.1557299  50.3511447  60.4599230  43.8682095  49.9812717  59.7231177
  44.8427767  50.8206302  60.1982935  44.2146196  50.3658416  60.3114306
  53.3633120  62.0401097  60.3764844  53.1219796  61.3068958  59.9691909
  53.5434453  62.5887954  59.7231177  53.3540744  62.0123488  60.2195067
  48.5932441  57.3309657  61.7885766  48.3975223  57.9384392  61.1946069
  48.8166786  56.6377601  61.3077440  48.5967082  57.3187183  61.6301847
  46.9910971  54.2164395  61.9066635  47.7133623  54.3805553  61.4470441
  46.5118964  54.9374060  61.8005974  47.0274701  54.3462625  61.8232249
  54.9504478  50.5528194  67.2863319  54.1115579  50.5789473  67.0501583
  55.0208846  51.1998929  67.8668666  54.8372872  50.6524320  67.3372436
  44.6418587  56.6222467  71.0120774  45.1539684  56.9006721  70.3629534
  44.3554930  57.3611761  71.3783587  44.6753451  56.7724821  70.9710652
  58.8262002  55.7596181  64.5724561  58.7395977  55.9151607  65.4259340
  58.3712482  56.4034256  64.1983966  58.7465259  55.8771936  64.6431668
  41.7285494  51.1292659  61.3084511  41.8301630  51.9318821  61.6365486
  42.5241380  50.9279995  61.0107591  41.8613399  51.2178558  61.3119866
  48.1602313  48.7148856  71.0721816  47.9685510  48.7303990  71.9221239
  49.0100909  48.9112530  71.0488471  48.2578035  48.7463207  71.1945111
  42.5449226  51.2439837  69.0505632  42.4034718  50.3923778  69.1750140
  42.8289789  51.2868498  68.2267838  42.5657072  51.1239587  68.9473257
  52.6987818  53.0806928  63.1950121  52.4522532  53.0002679  64.0286910
  53.0272941  52.2960395  63.0012648  52.7109062  52.9533193  63.2897644
  56.5935867  59.7890287  66.9836902  56.4550226  60.4871333  67.4885644
  55.8135865  59.6338943  66.6273084  56.4579094  59.8690454  67.0063176
  48.6584845  55.8163646  72.6073104  48.8028221  56.3964854  71.9716214
  49.0060494  56.1939943  73.3122958  48.7312307  55.9584350  72.6172099
  50.8304763  55.0153815  70.3898235  50.0828077  55.2084829  69.9846513
  50.9846288  54.1899034  70.1522357  50.7427190  54.9218926  70.2943641
  47.7312600  64.0066418  69.4734131  47.8802164  63.4469334  68.8207535
  48.5112603  64.0858420  69.8566649  47.8686694  63.9351984  69.4331080
  58.0889240  59.1468541  57.7453401  57.7096049  58.3605679  57.7382691
  57.4255485  59.6955398  57.6025045  57.9347715  59.1113365  57.7234198
  51.0706540  48.9104365  71.2793639  51.5279154  49.6428340  71.4066431
  51.1462869  48.4870831  72.0380895  51.1497510  48.9561603  71.4094716
  43.3139531  49.1570185  72.3683083  42.7781721  48.5450543  72.6843850
  43.3757296  49.7318321  73.0216749  43.2435164  49.1517113  72.5118510
  55.5433866  42.0894241  65.1487482  55.6617434  42.5470704  64.4154785
  55.3696042  41.2839502  64.8623700  55.5353037  42.0388013  64.9988416
  50.9136148  62.6982060  61.5842227  51.6786039  62.4291704  61.2624892
  50.8114238  62.2132070  62.3012290  51.0117644  62.5871624  61.6422055
  48.9488918  50.9006469  68.1235463  48.1584993  50.7197929  68.4452799
  49.3449541  50.1233422  68.1065758  48.8905794  50.7593930  68.1688011
  53.4354809  59.7294244  53.5642177  54.2027794  59.7894369  53.1548029
  52.9886118  59.1574685  53.0798495  53.4828236  59.6530819  53.4319887
  54.3332604  58.5348899  65.8494909  53.6577606  58.3034132  66.3508296
  54.3424980  57.9270082  65.2237014  54.2351109  58.4107825  65.8311061
  51.4626748  53.3766728  72.6058962  51.3985889  54.2376685  72.4779099
  51.6023936  53.0598722  71.8054513  51.4742218  53.4566895  72.4687175
  56.3349339  61.3914032  58.0805087  56.4169176  62.1981018  57.7566538
  56.8199081  61.4109991  58.8045860  56.4186497  61.5134694  58.1391986
  50.1445842  56.0698868  66.7475165  49.7208091  56.2703367  66.0114183
  49.9690697  55.2227716  66.8599465  50.0556723  55.9747649  66.6548855
  45.4328287  56.5650919  62.1803137  45.5892906  56.4997722  63.0359130
  45.7728880  57.3399472  61.9681817  45.5061522  56.6700117  62.2757732
  51.9707432  55.9408803  61.0496501  52.5122977  55.4379184  61.5135121
  52.2853991  55.8873997  60.2385986  52.0971829  55.8588224  60.9980313
  50.1393881  61.3326154  58.3336529  50.2086702  60.4740693  58.4729529
  50.9182336  61.5498035  58.0055553  50.2646731  61.2379018  58.3053686
  53.1196701  50.8345107  71.1018801  53.3338670  50.1956021  70.5482155
  52.5030600  51.2790931  70.6726663  53.0602030  50.8055251  70.9569232
  54.5301369  63.7563856  62.5473022  54.1381161  63.4530571  61.8295888
  54.6854441  64.5932945  62.3577976  54.4954959  63.8347692  62.4129519
  42.0062548  53.7485870  62.4963905  42.3861513  54.1670415  61.8324172
  41.4317913  54.3299325  62.8032748  41.9773873  53.8963728  62.4440646
  55.2835789  52.4434172  72.0402108  54.4712471  52.1360063  72.1215281
  55.7425724  51.9633173  72.6044820  55.2316174  52.3270665  72.1356702
  54.6941044  60.3213844  62.4879053  54.3355698  60.4928487  63.2643085
  54.2079754  60.7827050  61.9307051  54.5699741  60.4152815  62.5204322
  52.5111430  43.9445043  66.0906144  51.6404988  43.9183764  66.0439453
  52.7651771  43.7722235  65.2731990  52.4204990  43.9155187  65.9626281
  49.4829409  56.0013010  55.0279287  49.7721934  56.7777892  55.3022861
  49.5701208  55.4901741  55.7293786  49.5383665  56.0404928  55.1721785
  49.5360570  45.9551271  67.5479614  49.0199059  45.2631463  67.6731193
  48.9754499  46.6222048  67.4942213  49.3767083  45.9514529  67.5585680
  51.6052804  46.4944231  69.3772467  51.2184557  46.5193263  70.1585997
  51.1185741  45.9285910  68.9246984  51.4765312  46.4139982  69.4260371
  57.5802783  53.0606886  68.0012169  57.1530391  52.9733235  67.2460269
  56.9428836  53.1684662  68.5867013  57.4232390  53.0639546  67.9757611
  51.2709945  43.3811217  71.6682727  51.9003063  43.9171517  71.3903797
  51.4395808  43.2888576  72.5196292  51.3887740  43.4472579  71.7531255
  51.0723860  48.1682412  73.9409138  51.8997289  47.8967560  73.9967753
  51.0931706  48.9643253  74.2972957  51.1976710  48.2462166  74.0024321
  45.6493350  55.3146274  67.1279399  44.8081357  55.2150149  67.3358293
  45.8583358  56.0841755  67.4793720  45.5558043  55.4138318  67.2106714
  43.1268917  52.9365811  64.9564150  42.7325615  53.0108823  64.1814259
  42.5709034  53.3223758  65.5072511  42.9871729  53.0047586  64.9231810
  54.7633864  45.9147105  64.6368029  54.9683457  45.8469413  65.4825026
  54.4360288  46.7205927  64.5689206  54.7449112  46.0233046  64.7527684
  49.4610015  53.2427674  66.3776997  49.1573152  52.6883662  66.9787404
  48.7589436  53.4219884  65.8905031  49.3126225  53.1872456  66.3946702
  47.5228366  60.4577394  71.0849094  47.4148721  60.4679456  71.9511152
  47.7324147  61.2832175  70.8954048  47.5378477  60.5818469  71.1853186
  58.0167551  46.4678870  64.1170794  57.4041865  46.9549272  64.5024526
  58.1131726  45.7922360  64.6608445  57.9405449  46.4397178  64.2549652
  45.5402158  57.7090037  68.5471032  44.9490091  58.3499535  68.5174047
  46.3023181  58.1327654  68.5202331  45.5650418  57.8665875  68.5386179
  45.9362781  48.8692034  69.2139050  46.3964262  48.9430964  69.9514173
  45.9818887  49.6673288  68.8638871  46.0113336  48.9986181  69.2711806
  47.5846130  49.5358729  73.7811077  47.1931696  48.8892076  74.2166854
  47.7531993  50.1270165  74.4005332  47.5517041  49.5272997  73.9373783
  55.2991674  63.1599348  65.9803056  55.1011363  63.6490163  65.2859268
  54.6779385  63.3640590  66.5587190  55.1779239  63.2615887  65.9626280
  49.3599652  54.9284245  60.3213301  50.1041697  55.3158521  60.5596251
  49.5060349  54.0841670  60.4853788  49.4910238  54.8614718  60.3807270
  52.3477528  50.5009718  66.2207220  51.8737483  49.9751480  66.7312531
  52.7195664  49.9539191  65.6522082  52.3327417  50.3425715  66.2122367
  42.7250558  52.4981225  71.5890766  43.5876171  52.3976934  71.5028096
  42.3942341  51.9175934  71.0276338  42.8035755  52.3972852  71.4936172
  58.6114259  55.5612094  67.6314001  58.3712482  54.7218509  67.6356427
  59.0906266  55.6412261  68.3554774  58.6466443  55.4493494  67.7388803
  60.6119446  52.3413551  65.5843260  60.3729216  52.3009385  64.7464044
  60.7753347  53.1884703  65.7108981  60.6009749  52.4605636  65.4796742
  46.0852344  51.3223674  68.2501184  45.4605415  51.3342066  67.6427137
  45.7497939  51.7983849  68.8992424  45.9437836  51.3942191  68.2557753
  42.7978020  59.3824134  69.6904948  42.2677944  58.6916573  69.7399923
  43.0703113  59.3734320  68.8617657  42.7602742  59.2791266  69.5752364
  53.8298110  59.9649837  58.4142631  54.5532309  60.4307950  58.2707204
  53.3898701  60.0323446  57.6640228  53.8713803  60.0433673  58.2827412
  52.9984266  56.8247379  69.6643320  52.3841259  56.2805429  69.9591955
  53.5151550  56.3111615  69.1849136  52.9839928  56.6683788  69.6367548
  52.2380563  57.8951649  67.3987618  51.8108171  57.2701367  66.9653054
  52.2305507  57.6126571  68.2246626  52.1739704  57.7604429  67.4567446
  45.3543090  52.9316822  70.4676052  45.5136576  52.1760146  70.8727774
  45.1735983  53.4807761  71.1216790  45.3508449  52.9010636  70.6238758
  53.2963393  45.0978057  71.0226842  52.8003954  45.2941732  70.3318409
  54.0532455  45.4970726  70.8515644  53.3350217  45.1855791  70.8946979
  50.5666272  48.7720403  67.6130152  50.5908760  48.2380516  66.9242932
  50.8177746  48.2637712  68.2755743  50.6076191  48.6181307  67.6094797
  38.0773862  56.0551898  67.0473297  37.9717311  56.0098743  66.1825381
  37.3274082  56.4005679  67.3287581  37.9509465  56.0992806  66.9610626
  46.8467595  47.4991222  66.9935897  46.8865966  48.0000428  67.7070604
  46.0217259  47.5901615  66.7241820  46.7307121  47.5873038  67.0586435
  48.2681958  54.0151731  69.2909796  47.4373888  54.1825549  69.0845044
  48.2133475  53.6387682  70.0758681  48.1371373  53.9841463  69.3758324
  46.0765741  47.5060624  74.9266207  46.7018445  46.9622757  75.1995639
  45.6216221  47.0255542  74.3573997  46.1014002  47.3550106  74.8827800
  46.6418002  52.2907323  59.8199914  46.7820963  52.7879787  60.5228555
  47.1400535  51.5893617  59.9614127  46.7359083  52.2609302  59.9451493
  46.6718224  53.1574434  57.1492490  47.3063304  53.7534859  57.0841952
  46.7543835  52.8577892  57.9638360  46.7774775  53.2015342  57.2595577
  53.6456362  48.4760603  69.4861411  54.0711434  48.0233130  68.8744938
  53.0313355  47.9220674  69.7626199  53.6185007  48.3274580  69.4366437
  43.1771212  55.3542275  60.4182036  43.6863441  55.9506782  60.7993342
  43.6505484  55.0868248  59.7358456  43.3214588  55.4028090  60.3736559
  54.0901960  64.0270541  58.5740692  53.3731270  63.8531404  58.1087929
  54.7408698  63.7923114  58.0416178  54.0803811  63.9666334  58.4269910
  56.6749931  52.9035130  62.3181997  56.0041121  53.4464832  62.1895063
  57.3689682  53.3729985  62.0763692  56.6778799  53.0533401  62.2637525
  50.7236665  65.0431842  67.5493755  50.5002320  64.2850671  67.9177782
  50.2346508  65.0729863  66.8274195  50.6180114  64.9354067  67.4970496
  56.8378059  49.3591014  65.2272370  57.1905669  48.9320737  65.9018169
  55.9792860  49.2741857  65.3573447  56.7627503  49.2835754  65.3467381
  45.5361744  51.9898533  63.2855217  44.8173733  52.4062666  63.5528080
  45.9074106  52.5552772  62.7346855  45.4853676  52.1347815  63.2438024
  54.8361325  52.6226382  69.1757212  54.8159252  52.4409677  70.0291991
  54.8840525  53.4938401  69.1516796  54.8395966  52.7242920  69.2980507
  49.3715122  65.2632300  65.0030840  48.9575521  64.6006430  64.6134682
  50.0562496  65.4110159  64.4826534  49.4113494  65.1872958  64.8687337
  52.7380416  64.4222385  65.7554456  52.3396699  64.5324656  64.9875277
  52.1231636  64.6304452  66.3381016  52.5879305  64.4695953  65.7285756
  58.2702119  44.4809425  66.1556683  57.7632984  43.7738565  66.0877860
  59.0669553  44.1502614  66.2857759  58.3129358  44.3282577  66.1655678
  54.1866135  50.9876038  62.0530346  53.9579828  51.0108739  61.2108705
  54.4464211  50.1633505  62.1725357  54.1912323  50.8692118  61.9455544
  48.4685363  52.8410511  71.6555447  47.9564266  52.2331694  72.0140478
  48.2964859  53.5567103  72.1229422  48.3675000  52.8573810  71.7771670
  43.3151078  51.2848086  74.3057808  43.1453668  51.9449461  73.7606015
  42.8717028  51.4954647  75.0270298  43.2250411  51.4134068  74.3319438
  47.2410897  49.5252584  63.3484542  47.7168264  49.8869664  62.7134723
  46.7399497  50.1809052  63.6284685  47.2376256  49.6746773  63.2961283
  60.4722259  58.9974352  59.1397547  60.8555865  59.7465708  59.3695644
  59.6766372  59.2440172  58.8809536  60.4116041  59.1444046  59.1355121
  52.3454434  50.7634755  74.0957702  52.9025864  50.5348565  73.4636168
  52.0215499  51.5240421  73.8192915  52.3800844  50.8418592  73.9614199
  40.2153142  54.1894952  69.5646298  39.6679862  53.5195597  69.6827167
  41.0045521  53.8224800  69.6289766  40.2505326  54.0359938  69.5914999
  49.2837550  51.6693784  56.7157926  49.6636515  51.6873413  55.9309041
  48.5430146  52.1147773  56.5948773  49.2306388  51.7375558  56.5821494
  56.9122841  49.9775975  62.3033505  56.9117067  49.8224632  63.1617781
  56.7079021  50.8238962  62.2474890  56.8822619  50.0796596  62.4221444
  38.9740112  53.4015759  66.7192321  38.7961873  52.9492368  67.4447237
  38.6859134  54.2041921  66.9030799  38.9053065  53.4538317  66.8535824
  54.6363693  54.6573477  65.9569712  55.1317358  53.9396472  65.9173732
  53.8263469  54.3544274  65.8424199  54.5907586  54.5071123  65.9343437
  50.0822305  58.5071290  58.1066716  49.2733627  58.1837964  58.0600026
  50.5897213  57.8004512  58.0394965  50.0371971  58.3552606  58.0897010
  40.7112582  55.9343483  63.8314080  39.8458101  55.9229174  63.7196852
  40.8111398  55.7473706  64.6785220  40.5986749  55.9049544  63.9403025
  56.7015512  57.4077164  68.6446840  57.1270583  56.8851586  68.0917265
  56.3372432  58.0058002  68.1235463  56.7102114  57.4187391  68.4855850
  46.3369592  65.7041382  67.4044186  46.6516151  66.5177770  67.4121968
  46.7463005  65.3191600  68.0726345  46.4437690  65.7670084  67.5048278
  53.2894111  61.1211429  64.9747998  53.7605289  61.8351691  65.1437983
  53.6254290  60.5210179  65.5107867  53.4089226  61.1382893  65.0780374
  50.2063606  45.8938899  71.9306093  50.3391512  45.0969893  72.2587068
  50.5908759  46.4205302  72.5104368  50.2819935  45.8538816  72.0649596
  53.2795961  42.8169225  68.5287186  52.4741925  42.7066955  68.8455024
  53.1502697  42.9181681  67.6717052  53.1416094  42.8152895  68.4495226
  56.7361922  48.9814717  69.1226883  56.1524911  49.4823924  68.7104450
  57.0566216  48.4744273  68.4891206  56.6975097  48.9806552  68.9685390
  47.8652053  45.8898074  70.1783986  48.4096466  45.5489201  70.7688328
  47.9188989  46.7483536  70.3205271  47.9541172  45.9653334  70.2865860
  43.6782612  59.6514490  67.0522794  44.2827469  59.6110324  66.4236615
  43.4709924  60.4985642  67.0826850  43.7371509  59.7702493  66.9638911
  53.4926384  61.9180435  68.2685032  54.3124758  61.7743401  68.5301327
  53.2120462  62.5426634  68.8101470  53.5723127  61.9890787  68.3872971
  38.9133894  58.6349108  66.9221717  38.8158172  57.8245379  67.2311774
  39.6962764  58.6140901  66.5367986  39.0150031  58.5116198  66.9108580
  61.7188642  68.1407607  60.8749947  62.4168807  68.3195735  61.3671410
  62.0340975  67.6177946  60.2520336  61.8683980  68.0901379  60.8551957
  59.8915506  63.5100004  64.9571222  59.5618836  63.9611147  64.2874920
  59.2160508  63.4316167  65.5044228  59.7425942  63.5651139  64.9394445
  67.0991914  59.4985527  63.2020832  66.7845355  60.1889005  63.6341255
  66.5818855  59.4430309  62.5006333  66.9756384  59.5920415  63.1617781
  58.3303955  73.3953244  58.1165711  57.7461171  73.9003276  58.5231575
  57.9274051  73.1695631  57.3762303  58.1843259  73.4361493  58.0670736
  62.7881170  69.6418896  56.5934631  63.0277173  69.8496880  55.7809975
  63.1097011  68.8376405  56.7023576  62.8718328  69.5532998  56.4895185
  58.0971460  61.5712292  60.4394169  58.8517428  61.9390609  60.2011220
  57.9198995  61.9451847  61.2073349  58.1825938  61.6810480  60.5179058
  56.4528525  63.9782611  57.1372282  56.2704098  64.1954492  56.3113275
  57.3154138  64.0921624  57.1930897  56.5533114  64.0272509  57.0226769
  62.1328244  60.9809022  60.1721306  62.8614404  60.8024977  59.7259462
  62.2223137  61.8227102  60.3828484  62.2534906  61.0792900  60.1374824
  55.9990552  67.2556784  55.6494755  55.2848729  66.9694963  56.0617188
  56.4834520  67.5953410  56.2901143  55.9649915  67.2638433  55.8050390
  63.1737870  75.7586738  56.0256564  63.5889018  75.4271762  55.3341059
  62.3429799  75.5255640  55.8976700  63.1125878  75.6757994  55.9047411
  65.8671260  72.0097297  55.2117765  65.7851422  72.0799484  56.0772752
  66.5050980  72.5727041  55.0201506  65.9491097  72.1036268  55.3107715
  47.9455962  68.9735872  63.1801627  48.0316214  68.5967741  63.9615157
  48.5731759  68.5996318  62.7021585  48.0512513  68.8621355  63.2247104
  62.9711370  72.0317751  58.2226372  63.7852009  72.3232644  58.1109143
  62.9070511  71.3777614  57.6484665  63.0814109  71.9782946  58.1215209
  59.4822093  70.7241559  57.6873573  59.8667246  70.5049265  58.4390118
  59.2333714  71.5504504  57.8174649  59.5024166  70.8139705  57.8174649
  57.2022531  62.3938495  63.0182354  56.3344956  62.4661095  63.0839963
  57.4897735  63.1960574  63.2070329  57.1162279  62.5232642  63.0557120
  55.1289883  65.8696755  60.4599230  54.8414678  65.4998025  59.7231177
  55.8160351  66.3391610  60.1982935  55.1878780  65.8843724  60.3114306
  57.9643554  69.7349703  61.9066635  58.6866206  69.8990861  61.4470441
  57.4851547  70.4559368  61.8005974  58.0007285  69.8647932  61.8232249
  64.3706340  62.9698879  62.0190935  65.0732693  62.7706627  61.5410894
  64.1050529  62.1974821  62.3259779  64.4352972  62.8261845  61.9936377
  52.7018077  66.6477967  61.3084511  52.8034214  67.4504129  61.6365486
  53.4973964  66.4465303  61.0107591  52.8345983  66.7363866  61.3119866
  66.5166449  57.6079548  65.1487482  66.6350017  58.0656012  64.4154785
  66.3428625  56.8024810  64.8623700  66.5085620  57.5573321  64.9988416
  64.4087392  75.2479552  53.5642177  65.1760377  75.3079676  53.1548029
  63.9618701  74.6759993  53.0798495  64.4560819  75.1716127  53.4319887
  52.9795132  69.2671178  62.4963905  53.3594097  69.6855722  61.8324172
  52.4050497  69.8484633  62.8032748  52.9506457  69.4149036  62.4440646
  63.4844013  59.4630351  66.0906144  62.6137571  59.4369072  66.0439453
  63.7384354  59.2907543  65.2731990  63.3937573  59.4340495  65.9626281
  60.4561993  71.5198318  55.0279287  60.7454517  72.2963200  55.3022861
  60.5433791  71.0087049  55.7293786  60.5116249  71.5590236  55.1721785
  59.4908696  66.0713501  60.9421698  59.7668430  65.3532414  60.5299266
  60.0907365  66.6698421  60.7342805  59.6201960  66.0533872  60.8502460
  62.9919216  63.7427019  59.2168293  63.4462963  63.9137579  59.9416138
  63.4659262  63.1295129  58.8166069  63.1287536  63.6777904  59.2642055
  60.3332236  70.4469553  60.3213301  61.0774281  70.8343829  60.5596251
  60.4792932  69.6026978  60.4853788  60.4642821  70.3800026  60.3807270
  65.2493612  66.9131581  59.2832974  64.7216630  66.9960325  58.5938683
  65.7089320  67.6549452  59.2797618  65.2395462  67.0352243  59.1807669
  57.2426677  65.1834101  54.3073869  56.8939481  65.8353826  54.7705418
  56.7623122  65.1691214  53.5797740  57.1196921  65.2777154  54.2684960
  57.6150585  67.8092631  59.8199914  57.7553546  68.3065095  60.5228555
  58.1133118  67.1078925  59.9614127  57.7091666  67.7794610  59.9451493
  57.6450808  68.6759742  57.1492490  58.2795887  69.2720167  57.0841952
  57.7276419  68.3763200  57.9638360  57.7507359  68.7200650  57.2595577
  59.2229791  64.6073717  57.1237932  59.5445632  64.1276800  56.4697195
  59.4856734  65.4173363  56.9328744  59.3095816  64.6563615  56.9993424
  54.1503796  70.8727583  60.4182036  54.6596025  71.4692090  60.7993342
  54.6238068  70.6053556  59.7358456  54.2947171  70.9213398  60.3736559
  63.0583168  60.4661011  62.8951988  62.4151486  60.3158657  63.4637127
  62.7182575  60.2203356  62.1301093  62.9128246  60.4073134  62.8655004
  56.5094327  67.5083841  63.2855217  55.7906317  67.9247974  63.5528080
  56.8806690  68.0738080  62.7346855  56.4586259  67.6533123  63.2438024
  62.2840902  66.5481841  58.6228596  61.6905741  66.8698838  58.0713163
  62.3216179  65.7022937  58.4149702  62.2015291  66.4706169  58.5111368
  58.2143481  65.0437892  63.3484542  58.6900847  65.4054972  62.7134723
  57.7132080  65.6994360  63.6284685  58.2108840  65.1932081  63.2961283
  60.2570134  67.1879092  56.7157926  60.6369099  67.2058721  55.9309041
  59.5162730  67.6333081  56.5948773  60.2038972  67.2560866  56.5821494
  61.0554888  74.0256598  58.1066716  60.2466211  73.7023272  58.0600026
  61.5629797  73.3189820  58.0394965  61.0104555  73.8737914  58.0897010
  60.2489305  63.4140620  59.3985558  61.0704999  63.5838933  59.1567253
  59.7858956  63.5687881  58.6751855  60.3020467  63.4622353  59.2557202
  36.7393108  -0.0432506  48.1667955  36.7087112   0.8112131  48.3386224
  37.3374456  -0.3437213  48.7254099  36.8230265   0.0383991  48.2742757
  29.9392792  -0.9556854  52.9220885  29.0830688  -0.7948356  52.9730002
  29.9860446  -1.8264791  52.9425946  29.8191904  -1.0606053  52.9326951
  24.3233932   8.5805863  48.6858117  23.5716832   8.2021402  48.4574162
  24.7719944   8.6124297  47.9376927  24.2783599   8.5291471  48.5415619
  33.2486509   5.3129671  62.5281341  33.9553276   4.8181702  62.6568276
  33.4374444   5.7538753  61.7983999  33.3814415   5.3048021  62.4390387
  29.7758892   9.0031233  44.1143664  29.4410260   9.6808154  43.6787886
  30.2885762   8.6136544  43.5260536  29.8024473   9.0455811  43.9630455
  29.3163183  10.9545502  50.0554776  29.7002563  11.5232400  49.5159551
  29.2522324  10.2295012  49.5760592  29.3636610  10.9320965  49.9048638
  32.7844613   1.1035189  55.5652537  33.3300573   1.7820276  55.6246507
  32.7261490   0.9622650  54.7054118  32.8560528   1.1827191  55.4464598
  25.9018688   8.5924256  50.9520889  26.0029051   7.7824609  51.2618017
  25.3060434   8.4981202  50.3220568  25.8291227   8.4589284  50.9047128
  34.5609682   2.5319797  46.4386265  34.4449208   3.2827483  46.8678403
  35.3565569   2.2743750  46.6882352  34.6614271   2.6054643  46.5390356
  25.7419428  13.5101845  52.3535745  26.3856883  13.9515009  52.7431904
  26.0675683  12.7055271  52.2666004  25.8851257  13.4567039  52.3981223
  19.0983733   4.6144542  50.5773223  18.8633917   3.7812194  50.4705492
  19.2369373   4.8949208  49.7634424  19.0839395   4.5328046  50.4415578
  26.4440008   6.5213820  47.7255607  26.7655849   7.0619027  47.1216915
  27.0912104   5.9510591  47.8577897  26.5866063   6.5172995  47.6562643
  28.4941716  -1.4770185  47.8089994  29.1921880  -1.2982058  48.3011457
  28.8094048  -1.9999846  47.1860383  28.6437053  -1.5276413  47.7892004
  21.1242953   0.3282554  55.7201100  21.0001650   0.9145000  56.3550919
  21.7761238  -0.1657250  56.0213375  21.2016602   0.3421359  55.8587029
  28.6829651   4.9100260  47.7969785  29.1223287   4.3017360  48.2424558
  28.5334314   4.5307633  47.0255250  28.7251117   4.7638731  47.7488953
  26.1501294   3.5044271  54.9988611  26.7950297   3.0116714  54.6799559
  26.3903071   3.6469058  55.8254689  26.2811879   3.4521714  55.0738144
  28.6887385   6.3499177  54.6495503  28.9710628   5.5550583  54.4282259
  29.4173546   6.8279765  54.6700564  28.8376949   6.3033774  54.6198519
  32.2838988   3.2627441  44.7500555  32.1990283   4.1188407  44.8950123
  32.7723371   2.9871765  45.4182714  32.3427885   3.3484762  44.8702636
  33.2157421  -0.1187765  46.2498290  32.6868892   0.0971869  46.9095596
  33.7382441   0.5748373  46.1699259  33.2145874   0.0155372  46.3353889
  38.6705474   5.4558539  51.6231334  37.8403177   5.6669183  51.7864751
  38.6214726   4.6295594  51.3473618  38.5412209   5.3648146  51.6068700
  25.1057029   3.7775452  45.0505758  24.5214244   4.2825483  45.4571622
  24.7027124   3.5517839  44.3102350  24.9596332   3.8183700  45.0010783
  20.6601057   9.4930213  51.8529429  20.1768635  10.2180703  51.8289013
  21.4724375   9.7906343  51.9639587  20.7091805   9.6432567  51.8656708
  26.7315211   8.2862394  54.4579244  26.2142153   7.9269809  53.8540552
  27.4289603   7.7624568  54.4685310  26.7580792   8.1560082  54.3709502
  30.3878803   8.7357208  60.4195417  30.4762149   8.5483348  61.2673627
  30.8168516   8.0894637  60.0200263  30.4640906   8.6120215  60.4867168
  27.9549263   8.0188368  59.4013079  27.3920098   7.6060977  59.9252740
  28.7170287   7.9441273  59.8206222  27.9843712   7.9465768  59.5406079
  29.5634243   0.0241104  43.5274678  29.8030247   0.2319088  42.7150021
  29.8850084  -0.7801387  43.6363623  29.6471401  -0.0644795  43.4235231
  23.5145255  10.0086389  52.0049709  24.2165834   9.4938378  52.0622466
  23.4342738  10.3360540  52.8096584  23.6069015   9.9800615  52.1322501
  38.1659432  -1.8971060  55.4181756  37.3287853  -1.8268873  55.6529350
  38.1347663  -1.8946565  54.5456058  38.0377714  -1.8860833  55.3241304
  22.8396030   6.1992741  51.5135317  23.6784929   6.4315674  51.5609079
  22.8707799   5.3297052  51.4442353  22.9677748   6.1049687  51.5099962
  23.4648733   6.6193616  55.8148623  24.0046958   6.4764747  56.4851995
  22.7818679   7.0190367  56.1832649  23.4440887   6.6573287  55.9683044
  32.8889618   2.2984617  51.0093647  33.6447133   2.7316131  51.0482556
  32.9951942   1.6489386  51.5828283  33.0159788   2.2662100  51.0991673
  35.9269789   6.1257894  51.7596050  35.4905021   6.1294636  52.5155021
  35.5932704   6.8063393  51.3275627  35.8132409   6.2270350  51.8076883
  30.4998863   8.1666227  63.0839200  31.2839279   8.2797074  63.4494942
  30.2995457   7.3407364  63.2797886  30.5864888   8.0612946  63.1673586
  18.8685878   2.8393907  55.9683044  18.6024293   2.0233023  56.1274034
  18.8824442   2.8847062  55.0978560  18.8310600   2.7250812  55.8636526
  22.7743625  -2.3621009  42.5834802  22.0601802  -2.6482829  42.9957235
  23.2587594  -2.0224383  43.2241190  22.7402988  -2.3539359  42.7390437
  30.6569256  10.0776329  56.7305656  29.8584502   9.8375829  56.9879525
  31.1055267  10.1290722  57.4772704  30.6043867  10.0498720  56.8790580
  39.0614135   2.8438814  50.6515687  39.7230569   2.2829482  50.5511596
  38.4205547   2.3490844  50.9768378  39.0643003   2.6875223  50.6848027
  29.9490943   6.1408945  42.9596610  30.3642091   5.8093969  42.2681106
  29.1182873   5.9077847  42.8316747  29.8878952   6.0580201  42.8387458
  19.2779292   3.6252686  53.2494788  19.0954865   3.5999572  52.3967081
  20.0128961   4.0951624  53.2883697  19.3593356   3.6914048  53.1292707
  35.3478966   3.8604196  50.3927676  35.5834555   4.0049395  49.5654527
  35.4968529   4.6246604  50.7859190  35.4044769   3.9943251  50.3291280
  37.1769423   2.7005862  48.2297280  37.5077640   3.2333502  47.6237375
  37.7502511   2.7544750  48.8859231  37.3103102   2.7875431  48.2375062
  32.3901312   0.5470765  48.9120860  32.4848166   1.2860059  49.3660485
  31.7660155   0.1188240  49.3455424  32.3110342   0.5932085  49.0429007
  30.6453786   3.7256977  59.5611141  31.2192647   3.0884222  59.7159705
  30.5668589   3.7261060  58.6920798  30.7187020   3.6322089  59.4557552
  19.2450202   0.5046187  53.3993855  19.8223705   0.3682638  54.0386100
  18.5464264   0.0481971  53.6539439  19.2271223   0.4168453  53.5316145
  32.6424333   2.3919505  42.1457812  32.5604496   2.4621692  43.0112799
  33.2804053   2.9549249  41.9541553  32.7244170   2.4858476  42.2447761
  26.0017504   2.1580243  51.6132338  25.7436748   1.3251977  51.5863638
  26.0565987   2.3837856  50.7724839  25.9717282   2.0678014  51.4852475
  24.9752216  -0.2881995  52.0997233  24.4001808  -0.1289827  52.7361194
  24.5987893  -0.9246586  51.6365684  24.8355029  -0.3584182  52.1251791
  28.6425505  -1.8158646  56.9589611  28.2539938  -2.2404428  56.3041803
  27.9780203  -1.5676496  57.4666638  28.4872433  -1.8419925  56.9377479
  29.7464443   2.4139959  45.1566418  30.5605082   2.7054852  45.0449190
  29.6823584   1.7599821  44.5824711  29.8567182   2.3605154  45.0555256
  35.9673933   5.0965955  59.5695994  35.7312571   4.2654020  59.4508055
  36.6117162   5.0451562  60.1550838  36.0268604   4.9663643  59.6381888
  25.6172351   5.8861476  50.2838730  26.2546298   5.6473224  50.8290524
  26.0427423   6.0898635  49.5491891  25.7748518   5.8812487  50.2555888
  20.3084994   8.1249813  54.1673034  20.3489139   8.3964664  53.3392814
  20.8679518   8.6491721  54.5830822  20.3968340   8.2425568  54.1064922
  26.2575166   1.1063766  44.6213620  26.6420319   0.8871473  45.3730165
  26.0086787   1.9326712  44.7514696  26.2777239   1.1961912  44.7514696
  27.9993823   6.3633899  51.9632517  28.0732832   6.2009071  52.8174367
  28.8163330   6.5524089  51.7192998  28.1310182   6.3670641  52.0530542
  42.6912146   1.5203404  54.9592633  42.6236646   1.5399364  54.0895219
  42.6767809   2.3633732  55.1848303  42.6790903   1.6477139  54.8645110
  21.7599580   6.7091762  48.9926960  20.9337698   6.9553499  48.8661239
  21.8211571   6.6303843  49.8589018  21.6473747   6.7336711  49.1015905
  26.5398409   9.3268642  46.6945990  26.8296708   8.9357623  45.9705217
  27.2701890   9.5085347  47.1351265  26.6905293   9.2962456  46.6528797
  40.4770763   0.2947791  53.2339227  41.0278685  -0.3384140  53.4736319
  40.4614879   0.8263183  53.9254731  40.5555960   0.2796739  53.3718085
  27.1293154   4.1286388  57.7799121  26.6304848   4.8402156  57.8584009
  27.9393379   4.4487055  57.7417283  27.1749261   4.2813237  57.7855689
  24.4804325  11.3036024  49.7606140  24.2604620  11.0133379  50.5532807
  24.2598847  10.6450979  49.2324052  24.4151919  11.1635733  49.7995049
  23.3921272   3.3909341  52.0261841  23.1034521   2.7646812  52.5607569
  24.2604620   3.3329628  52.0926522  23.4781524   3.2896885  52.1152796
  34.1799170  -1.4655876  52.3443823  33.8363936  -2.1865540  52.6951073
  34.2792212  -1.6742024  51.5022182  34.1441213  -1.6031672  52.2715503
  26.6472280  12.6765414  48.5436832  27.2996338  12.1441857  48.7727858
  25.9497889  12.3234067  48.9304706  26.6402998  12.5454937  48.6349000
  23.5953545   5.0304592  47.9504207  24.3499513   5.4117631  48.1639669
  23.0024158   5.4815736  48.4050903  23.6190259   5.1533419  48.0487085
  34.6412199   4.9969828  47.8867811  35.2070231   5.6563038  47.8026354
  33.9940102   5.3419526  48.3584214  34.6290955   5.1451770  47.9440568
  24.9151772   6.2013153  53.3244322  24.3932525   6.3413445  54.0096187
  25.3025792   5.4423818  53.5146439  24.8955473   6.1098677  53.4545398
  31.1118777   7.9408613  47.3104891  30.8705453   7.2076473  46.9031956
  31.2920110   8.4895470  46.6571224  31.1026401   7.9131004  47.1535114
  26.3418098   3.2317172  48.7225813  26.1460880   3.8391907  48.1286116
  26.5652443   2.5385116  48.2417487  26.3452739   3.2194698  48.5641894
  24.7396628   0.1171910  48.8406681  25.4619279   0.2813068  48.3810487
  24.2604620   0.8381575  48.7346021  24.7760358   0.2470140  48.7572295
  32.6990135  -3.5464291  54.2203366  31.8601236  -3.5203012  53.9841630
  32.7694502  -2.8993555  54.8008713  32.5858529  -3.4468165  54.2712483
  22.3904244   2.5229983  57.9460821  22.9025341   2.8014236  57.2969581
  22.1040587   3.2619277  58.3123634  22.4239107   2.6732336  57.9050699
  36.5747659   1.6603696  51.5064608  36.4881633   1.8159122  52.3599387
  36.1198139   2.3041771  51.1324013  36.4950916   1.7779451  51.5771715
  30.4473475  -1.0185557  50.1290168  30.2008189  -1.0989806  50.9626956
  30.7758598  -1.8032089  49.9352695  30.4594719  -1.1459292  50.2237691
  34.3421524   5.6897802  53.9176949  34.2035883   6.3878848  54.4225691
  33.5621522   5.5346459  53.5613131  34.2064751   5.7697969  53.9403223
  32.6799609   1.9894178  60.1699330  32.6747647   1.1173994  60.1741757
  33.3860603   2.1882347  59.6968786  32.7844613   1.8898052  60.1006366
  26.4070502   1.7171162  59.5413151  26.5513878   2.2972370  58.9056261
  26.7546151   2.0947458  60.2463005  26.4797964   1.8591866  59.5512146
  28.5790420   0.9161330  57.3238282  27.8313734   1.1092344  56.9186560
  28.7331945   0.0906549  57.0862403  28.4912847   0.8226441  57.2283688
  25.4798257   9.9073933  56.4074177  25.6287821   9.3476849  55.7547582
  26.2598259   9.9865935  56.7906696  25.6172351   9.8359499  56.3671127
  35.8374897   5.0476056  44.6793448  35.4581705   4.2613194  44.6722737
  35.1741142   5.5962913  44.5365092  35.6833371   5.0120880  44.6574245
  28.0051558  10.0788576  57.6858668  27.9295229   9.4097387  58.2409457
  27.9341417  10.7806364  58.1999334  27.9832165  10.0833484  57.8435516
  28.6621805   8.5989575  48.5182274  29.4271696   8.3299219  48.1964938
  28.5599895   8.1139585  49.2352337  28.7603300   8.4879140  48.5762102
  26.6974575  -3.1986015  55.0575510  25.9070649  -3.3794555  55.3792846
  27.0935197  -3.9759063  55.0405804  26.6391451  -3.3398555  55.1028058
  31.1840465   5.6301759  40.4982224  31.9513450   5.6901884  40.0888075
  30.7371774   5.0582200  40.0138542  31.2313893   5.5538335  40.3659934
  32.0818261   4.4356415  52.7834956  31.4063263   4.2041647  53.2848343
  32.0910637   3.8277598  52.1577061  31.9836765   4.3115340  52.7651108
  29.2112405  -0.7225756  59.5399009  29.1471546   0.1384200  59.4119146
  29.3509593  -1.0393763  58.7394560  29.2227875  -0.6425590  59.4027222
  34.0834995   7.2921547  45.0145134  34.1654833   8.0988533  44.6906585
  34.5684738   7.3117506  45.7385907  34.1672153   7.4142209  45.0732032
  27.8931499   1.9706383  53.6815212  27.4693748   2.1710882  52.9454230
  27.7176354   1.1235231  53.7939512  27.8042379   1.8755165  53.5888902
  27.3943192  13.4856896  56.1436669  27.8839123  12.7867685  55.9612334
  26.8227424  13.1880766  56.7312726  27.3827722  13.3383120  56.2037710
  23.1813944   2.4658434  49.1143184  23.3378563   2.4005237  49.9699176
  23.5214537   3.2406987  48.9021864  23.2547179   2.5707633  49.2097778
  29.7193088   1.8416318  47.9836548  30.2608634   1.3386699  48.4475168
  30.0339647   1.7881513  47.1726033  29.8457485   1.7595739  47.9320360
  33.5910196   6.0518965  65.0963460  34.4045061   5.7804114  65.2568592
  33.4305162   5.7526505  64.2923656  33.6880144   5.9673891  65.0008866
  27.8879538   7.2333670  45.2676576  27.9572358   6.3748208  45.4069576
  28.6667993   7.4505550  44.9395600  28.0132388   7.1386534  45.2393733
  30.8682358  -3.2647377  58.0358848  31.0824327  -3.9036463  57.4822202
  30.2516257  -2.8201554  57.6066710  30.8087687  -3.2937234  57.8909279
  32.2787026   9.6571371  49.4813069  31.8866817   9.3538086  48.7635935
  32.4340098  10.4940461  49.2918023  32.2440615   9.7355208  49.3469566
  19.7548205  -0.3506615  49.4303951  20.1347170   0.0677930  48.7664219
  19.1803570   0.2306841  49.7372795  19.7259530  -0.2028756  49.3780692
  33.0321446  -1.6558312  58.9742155  32.2198127  -1.9632422  59.0555328
  33.4911380  -2.1359312  59.5384867  32.9801830  -1.7721820  59.0696749
  32.4426700   6.2221360  49.4219099  32.0841355   6.3936003  50.1983132
  31.9565411   6.6834565  48.8647098  32.3185397   6.3160331  49.4544369
  27.2315066   1.9020525  41.9619334  27.5207591   2.6785408  42.2362908
  27.3186865   1.3909257  42.6633833  27.2869322   1.9412443  42.1061832
  33.6031440   7.1125256  60.3686300  34.2411160   6.6185451  60.0348756
  32.9605531   7.0402656  59.7838527  33.6025666   7.0284264  60.2328655
  35.3288440  -1.0385598  54.9352216  34.9016048  -1.1259250  54.1800315
  34.6914493  -0.9307823  55.5207060  35.1718047  -1.0352939  54.9097657
  33.6585696   7.8045064  57.0091657  34.4478074   7.4534129  57.1293739
  33.8329294   8.6181452  56.7468291  33.8005978   7.8730921  56.9879525
  23.3979007   1.2153790  54.0619446  22.5567013   1.1157664  54.2698340
  23.6069015   1.9849270  54.4133767  23.3043699   1.3145833  54.1446761
  20.8754574  -1.1626673  51.8904197  20.4811271  -1.0883662  51.1154306
  20.3194691  -0.7768727  52.4412558  20.7357386  -1.0944899  51.8571856
  27.2095672  -0.8564811  53.3117043  26.9058809  -1.4108823  53.9127451
  26.5075092  -0.6772601  52.8245078  27.0611881  -0.9120029  53.3286749
  26.2661769  -3.5464291  47.8761745  26.5421503  -4.2645379  47.4639313
  26.8660438  -2.9479371  47.6682851  26.3955033  -3.5643921  47.7842506
  25.2714023   6.3584910  58.0189141  25.1634378   6.3686972  58.8851199
  25.4809804   7.1839690  57.8294095  25.2864134   6.4825984  58.1193233
  23.2887815   3.6097552  55.4811079  22.6975748   4.2507050  55.4514094
  24.0508838   4.0335169  55.4542378  23.3136075   3.7673390  55.4726226
  39.4078236   3.4403322  56.4788357  39.4661360   3.8889970  57.2248334
  38.7744704   3.8502134  56.0418437  39.3229531   3.5677056  56.5240905
  33.0477331   9.0606864  52.9143103  32.8497020   9.5497678  52.2199315
  32.4265042   9.2648105  53.4927237  32.9264895   9.1623402  52.8966326
  27.1085309   0.8291760  47.2553347  27.8527354   1.2166037  47.4936297
  27.2546005  -0.0150814  47.4193835  27.2395894   0.7622233  47.3147317
  30.0963185  -3.5982766  53.1547267  29.6223139  -4.1241004  53.6652578
  30.4681321  -4.1453293  52.5862128  30.0813074  -3.7566770  53.1462414
  36.3599916   1.4619609  54.5654047  36.1198139   0.6226025  54.5696474
  36.8391923   1.5419776  55.2894821  36.3952099   1.3501009  54.6728850
  32.0246685  -2.7046212  46.2173021  31.4969703  -2.6217468  45.5278729
  32.4842393  -1.9628340  46.2137665  32.0148535  -2.5825549  46.1147716
  38.3605103  -1.7578933  52.5183306  38.1214873  -1.7983099  51.6804091
  38.5239004  -0.9107781  52.6449028  38.3495406  -1.6386848  52.4136788
  34.9651133   2.6271016  58.4488352  35.6885332   2.1743542  58.2699372
  34.7001095   2.9075682  57.6660679  35.0332406   2.6021984  58.3067067
  23.8338001  -2.7768811  55.1841231  23.2091071  -2.7650419  54.5767183
  23.4983596  -2.3008635  55.8332471  23.6923493  -2.7050294  55.1897799
  20.5463677   5.2831650  56.6244995  20.0163601   4.5924088  56.6739970
  20.8188770   5.2741835  55.7957704  20.5088399   5.1798781  56.5092411
  31.5783767   5.8657352  45.3482678  32.3017966   6.3315465  45.2047251
  31.1384358   5.9330961  44.5980275  31.6199459   5.9441189  45.2167459
  30.7469922   2.7254894  56.5983367  30.1326915   2.1812944  56.8932002
  31.2637207   2.2119131  56.1189183  30.7325585   2.5691303  56.5707595
  29.9866219   3.7959164  54.3327665  29.5593828   3.1708883  53.8993101
  29.9791164   3.5134086  55.1586673  29.9225361   3.6611945  54.3907493
  15.8259519   1.9559414  53.9813343  15.7202968   1.9106258  53.1165427
  15.0759739   2.3013194  54.2627628  15.6995122   2.0000322  53.8950673
  26.0167615  -0.0840753  56.2249843  25.1859544   0.0833065  56.0185091
  25.9619132  -0.4604802  57.0098728  25.8857030  -0.1151022  56.3098371
  24.3903659  -1.8085162  46.7539960  24.5306620  -1.3112697  47.4568602
  24.8886191  -2.5098867  46.8954174  24.4844740  -1.8383183  46.8791539
  24.4203881  -0.9418051  44.0832537  25.0548960  -0.3457626  44.0181999
  24.5029492  -1.2414593  44.8978407  24.5260432  -0.8977142  44.1935624
  37.3986447   1.5897427  56.9518901  37.9904287   2.2294677  56.9837099
  37.8345441   0.8920463  57.2410968  37.5504878   1.5815777  56.9999734
  25.9982864  -5.0104075  44.0577979  26.3198705  -5.4900993  43.4037241
  26.2609808  -4.2004429  43.8668791  26.0848889  -4.9614177  43.9333471
  29.2279837   6.0114799  57.5776795  28.7204928   6.5650646  58.0217426
  28.9306483   6.0723089  56.7595570  29.1084722   6.1021110  57.5225252
  20.9256869   1.2549790  47.3522083  21.4349098   1.8514298  47.7333389
  21.3991141   0.9875764  46.6698503  21.0700245   1.3035606  47.3076606
  31.8387617   9.9278057  45.5080739  31.1216927   9.7538919  45.0427976
  32.4894355   9.6930629  44.9756225  31.8289467   9.8673849  45.3609957
  34.4235588  -1.1957355  49.2522044  33.7526778  -0.6527652  49.1235109
  35.1175338  -0.7262499  49.0103739  34.4264456  -1.0459083  49.1977572
  28.4722322  10.9439357  54.4833802  28.2487976  10.1858187  54.8517828
  27.9832165  10.9737379  53.7614242  28.3665771  10.8361582  54.4310543
  23.2847401  -2.1093951  50.2195264  22.5659390  -1.6929819  50.4868127
  23.6559763  -1.5439713  49.6686902  23.2339332  -1.9644670  50.1778071
  32.5846981  -1.4766102  56.1097259  32.5644909  -1.6582807  56.9632038
  32.6326182  -0.6054084  56.0856843  32.5881622  -1.3749564  56.2320554
  30.5293311   5.1121090  62.0345736  30.4889166   4.4670767  61.4490892
  31.3416630   5.0557707  62.3471148  30.6436465   5.0080056  61.9942685
  27.1200779  11.1639815  51.9370887  26.7061177  10.5013946  51.5474728
  27.8048153  11.3117674  51.4166581  27.1599151  11.0880474  51.8027384
  30.4866073  10.3229901  52.6894503  30.0882356  10.4332171  51.9215324
  29.8717293  10.5311967  53.2721063  30.3364962  10.3703469  52.6625803
  29.0593975  -3.0695951  45.5568643  28.4658814  -2.7478955  45.0053210
  29.0969253  -3.9154856  45.3489749  28.9768364  -3.1471623  45.4451414
  31.9351792  -3.1116447  48.9870393  31.7065485  -3.0883745  48.1448751
  32.1949868  -3.9358980  49.1065404  31.9397980  -3.2300367  48.8795591
  24.9896554  -4.5739901  50.2824589  25.4653920  -4.2122821  49.6474770
  24.4885154  -3.9183433  50.5624732  24.9861913  -4.4245712  50.2301330
  38.2207916   4.8981867  46.0737594  38.6041521   5.6473224  46.3035691
  37.4252029   5.1447687  45.8149583  38.1601698   5.0451561  46.0695168
  27.0323207  -2.4298701  43.6497973  27.4122172  -2.4119072  42.8649088
  26.2915803  -1.9844712  43.5288820  26.9792045  -2.3616926  43.5161541
  32.3849350   0.5580992  52.8909758  32.8803015  -0.1596013  52.8513779
  31.5749126   0.2551790  52.7764245  32.3393243   0.4078638  52.8683484
  27.8307961   4.4078805  45.0406763  27.0219284   4.0845479  44.9940072
  28.3382870   3.7012027  44.9735012  27.7857628   4.2560122  45.0237057
  18.4598239   1.8350999  50.7654127  17.5943758   1.8236689  50.6536898
  18.5597054   1.6481221  51.6125266  18.3472406   1.8057060  50.8743072
  34.4501169   3.3084680  55.5786887  34.8756240   2.7859101  55.0257312
  34.0858089   3.9065517  55.0575510  34.4587771   3.3194907  55.4195897
  24.0855248  11.6048897  54.3384233  24.4001807  12.4185286  54.3462014
  24.4948662  11.2199116  55.0066392  24.1923346  11.6677600  54.4388324
  31.0379768   7.0218944  51.9088045  31.5090946   7.7359206  52.0778030
  31.3739947   6.4217694  52.4447914  31.1574883   7.0390408  52.0120421
  33.1256753   8.6320257  64.0880117  33.2353718   7.8428818  64.4436864
  33.4547649   8.5426193  63.2854455  33.1909158   8.5026110  64.0222508
  31.6753714   6.8136878  58.6715737  31.1274660   6.1894762  58.4035803
  32.1366743   7.0031150  57.9559817  31.6620924   6.7495928  58.5266168
  21.4268269   5.5522006  53.9862841  22.0313126   5.5117840  53.3576662
  21.2195581   6.3993158  54.0166897  21.4857166   5.6710008  53.8978958
  31.2412041   7.8187951  55.2025079  32.0610415   7.6750917  55.4641374
  30.9606118   8.4434150  55.7441516  31.3208784   7.8898303  55.3213018
  16.6619551   4.5356623  53.8561764  16.5643829   3.7252895  54.1651821
  17.4448421   4.5148416  53.4708032  16.7635687   4.4123713  53.8448627
  40.9125376  14.5628453  52.9220885  40.0563271  14.7236952  52.9730002
  40.9593030  13.6920517  52.9425946  40.7924487  14.4579255  52.9326951
  44.2219092  20.8314979  62.5281341  44.9285860  20.3367010  62.6568276
  44.4107028  21.2724061  61.7983999  44.3546998  20.8233329  62.4390387
  43.7577197  16.6220497  55.5652537  44.3033157  17.3005584  55.6246507
  43.6994073  16.4807958  54.7054118  43.8293111  16.7012499  55.4464598
  36.7152011  29.0287153  52.3535745  37.3589467  29.4700317  52.7431904
  37.0408267  28.2240579  52.2666004  36.8583840  28.9752347  52.3981223
  30.0716316  20.1329850  50.5773223  29.8366501  19.2997502  50.4705492
  30.2101957  20.4134516  49.7634424  30.0571979  20.0513353  50.4415578
  32.3706404  12.3015581  53.4757531  31.7511435  11.7108228  53.3067546
  32.2690267  12.8927016  52.8421854  32.2644079  12.3019663  53.3562520
  39.4674299  14.0415122  47.8089994  40.1654464  14.2203250  48.3011457
  39.7826632  13.5185462  47.1860383  39.6169636  13.9908895  47.7892004
  32.0975537  15.8467862  55.7201100  31.9734233  16.4330308  56.3550919
  32.7493821  15.3528058  56.0213375  32.1749186  15.8606667  55.8587029
  39.6562235  20.4285567  47.7969785  40.0955870  19.8202668  48.2424558
  39.5066897  20.0492941  47.0255250  39.6983700  20.2824039  47.7488953
  37.1233878  19.0229579  54.9988611  37.7682880  18.5302022  54.6799559
  37.3635655  19.1654366  55.8254689  37.2544463  18.9707022  55.0738144
  39.6619969  21.8684485  54.6495503  39.9443212  21.0735891  54.4282259
  40.3906129  22.3465073  54.6700564  39.8109533  21.8219082  54.6198519
  37.6401163   9.4107519  51.8911268  37.3104493   9.8618663  51.2214967
  36.9646165   9.3323682  52.4384275  37.4911599   9.4658654  51.8734492
  44.8477571   5.3993042  50.1360879  44.5331012   6.0896521  50.5681301
  44.3304512   5.3437824  49.4346380  44.7242041   5.4927931  50.0957828
  49.6438057  20.9743847  51.6231334  48.8135760  21.1854491  51.7864751
  49.5947310  20.1480902  51.3473618  49.5144793  20.8833454  51.6068700
  36.0789612  19.2960760  45.0505758  35.4946827  19.8010791  45.4571622
  35.6759707  19.0703147  44.3102350  35.9328916  19.3369008  45.0010783
  31.6333641  25.0115521  51.8529429  31.1501219  25.7366010  51.8289013
  32.4456959  25.3091651  51.9639587  31.6824389  25.1617875  51.8656708
  37.7047795  23.8047702  54.4579244  37.1874736  23.4455117  53.8540552
  38.4022186  23.2809876  54.4685310  37.7313376  23.6745389  54.3709502
  41.3611387  24.2542516  60.4195417  41.4494733  24.0668656  61.2673627
  41.7901099  23.6079945  60.0200263  41.4373489  24.1305523  60.4867168
  38.9281847  23.5373676  59.4013079  38.3652681  23.1246285  59.9252740
  39.6902870  23.4626581  59.8206222  38.9576295  23.4651076  59.5406079
  40.5366827  15.5426412  43.5274678  40.7762830  15.7504396  42.7150021
  40.8582668  14.7383920  43.6363623  40.6203984  15.4540513  43.4235231
  35.8457117   7.4719807  47.3734216  36.6003085   7.8398125  47.1351266
  35.6684651   7.8459362  48.1413396  35.9311595   7.5817995  47.4519105
  34.4877838  25.5271697  52.0049709  35.1898417  25.0123686  52.0622466
  34.4075321  25.8545848  52.8096584  34.5801599  25.4985923  52.1322501
  49.1392016  13.6214248  55.4181756  48.3020437  13.6916435  55.6529350
  49.1080247  13.6238743  54.5456058  49.0110298  13.6324475  55.3241304
  35.5356745  15.7647284  61.1330124  35.7077248  15.6553178  61.9815406
  36.0726102  16.4101689  60.8961316  35.6401749  15.8439285  61.2235221
  34.2014181   9.8790126  44.0712329  34.0189755  10.0962007  43.2453322
  35.0639795   9.9929139  44.1270944  34.3018771   9.9280024  43.9566816
  33.8128613  21.7178049  51.5135317  34.6517513  21.9500982  51.5609079
  33.8440383  20.8482360  51.4442353  33.9410331  21.6234995  51.5099962
  34.4381316  22.1378924  55.8148623  34.9779541  21.9950055  56.4851995
  33.7551263  22.5375675  56.1832649  34.4173470  22.1758595  55.9683044
  39.8813901   6.8816537  47.1061353  40.6100061   6.7032492  46.6599509
  39.9708794   7.7234617  47.3168531  40.0020563   6.9800416  47.0714871
  43.8622201  17.8169925  51.0093647  44.6179716  18.2501439  51.0482556
  43.9684526  17.1674694  51.5828283  43.9892372  17.7847408  51.0991673
  46.9002372  21.6443202  51.7596050  46.4637604  21.6479944  52.5155021
  46.5665288  22.3248701  51.3275627  46.7864992  21.7455658  51.8076883
  41.4731446  23.6851535  63.0839200  42.2571863  23.7982382  63.4494942
  41.2728041  22.8592672  63.2797886  41.5597471  23.5798254  63.1673586
  29.8418462  18.3579215  55.9683044  29.5756877  17.5418331  56.1274034
  29.8557026  18.4032370  55.0978560  29.8043184  18.2436120  55.8636526
  46.8199855   8.6857030  54.0025478  47.4625764   8.7555134  54.5887393
  47.0722876   8.0186253  53.5005020  46.9521988   8.5983378  54.0152757
  33.7476209  13.1564299  42.5834802  33.0334386  12.8702479  42.9957235
  34.2320177  13.4960925  43.2241190  33.7135572  13.1645949  42.7390437
  34.5917068  11.8957593  58.6150052  33.8988865  11.4254573  58.8610783
  35.2077395  11.6695898  59.1891759  34.5801598  11.7924725  58.7359204
  41.6301839  25.5961637  56.7305656  40.8317085  25.3561137  56.9879525
  42.0787851  25.6476030  57.4772704  41.5776451  25.5684028  56.8790580
  50.0346719  18.3624122  50.6515687  50.6963153  17.8014790  50.5511596
  49.3938131  17.8676152  50.9768378  50.0375586  18.2060531  50.6848027
  30.2511875  19.1437994  53.2494788  30.0687448  19.1184880  52.3967081
  30.9861544  19.6136932  53.2883697  30.3325939  19.2099356  53.1292707
  46.3211549  19.3789504  50.3927676  46.5567139  19.5234703  49.5654527
  46.4701113  20.1431912  50.7859190  46.3777353  19.5128558  50.3291280
  33.3157627  15.8622997  59.7576897  34.0397599  15.8476028  60.2441792
  33.4173763  16.5718352  59.2598865  33.4375836  15.9647700  59.7555684
  40.6902576  19.3422082  64.6225844  39.8975557  19.6565593  64.8078464
  40.8051503  19.5573550  63.7846629  40.5897987  19.4205918  64.5264179
  43.3633895  16.0656073  48.9120860  43.4580750  16.8045367  49.3660485
  42.7392739  15.6373548  49.3455424  43.2842925  16.1117393  49.0429007
  41.6186369  19.2442285  59.5611141  42.1925231  18.6069530  59.7159705
  41.5401173  19.2446368  58.6920798  41.6919604  19.1507397  59.4557552
  30.2182786  16.0231495  53.3993855  30.7956288  15.8867946  54.0386100
  29.5196847  15.5667279  53.6539439  30.2003807  15.9353761  53.5316145
  36.9750088  17.6765550  51.6132338  36.7169332  16.8437285  51.5863638
  37.0298571  17.9023163  50.7724839  36.9449866  17.5863322  51.4852475
  42.0551138   9.7794001  51.7136431  41.3507465   9.2903187  51.8720350
  42.1036112   9.7916476  50.8424875  41.9581189   9.7083649  51.6075771
  35.9484800  15.2303313  52.0997233  35.3734391  15.3895481  52.7361194
  35.5720476  14.5938722  51.6365684  35.8087612  15.1601126  52.1251791
  39.6158089  13.7026662  56.9589611  39.2272521  13.2780880  56.3041803
  38.9512787  13.9508812  57.4666638  39.4605016  13.6765383  56.9377479
  49.2581358  13.4601667  49.7337441  49.0017922  12.6481608  49.5435324
  50.1010672  13.4679234  49.5067629  49.3447383  13.3413664  49.6722259
  25.6941619  14.8743388  50.1141674  25.7801871  14.4975256  50.8955204
  26.3217416  14.5003833  49.6361632  25.7998170  14.7628870  50.1587151
  43.4384450   7.4001291  54.4713596  43.8194962   6.7179462  54.8581470
  42.6347734   7.1110893  54.2889260  43.3760912   7.2568339  54.5017652
  40.7197027  17.9325267  45.1566418  41.5337666  18.2240160  45.0449190
  40.6556168  17.2785129  44.5824711  40.8299766  17.8790462  45.0555256
  46.9406517  20.6151263  59.5695994  46.7045154  19.7839328  59.4508055
  47.5849746  20.5636870  60.1550838  47.0001188  20.4848951  59.6381888
  36.5904935  21.4046784  50.2838730  37.2278882  21.1658532  50.8290524
  37.0160007  21.6083943  49.5491891  36.7481101  21.3997794  50.2555888
  31.2817577  23.6435121  54.1673034  31.3221723  23.9149972  53.3392814
  31.8412101  24.1677029  54.5830822  31.3700923  23.7610876  54.1064922
  37.2307750  16.6249074  44.6213620  37.6152903  16.4056781  45.3730165
  36.9819370  17.4512019  44.7514696  37.2509823  16.7147220  44.7514696
  37.3976290   9.9055489  64.3376204  37.0829732  10.6755052  64.0745767
  37.0766223   9.3425745  63.7528431  37.3035210   9.9365758  64.2117554
  47.9642938  20.3995712  55.6324289  47.6588755  21.1323769  55.9937604
  47.2449153  19.9933641  55.3517075  47.8130280  20.4477445  55.6437426
  38.9726407  21.8819207  51.9632517  39.0465415  21.7194379  52.8174367
  39.7895913  22.0709396  51.7192998  39.1042766  21.8855949  52.0530542
  53.6644730  17.0388712  54.9592633  53.5969230  17.0584672  54.0895219
  53.6500392  17.8819040  55.1848303  53.6523486  17.1662447  54.8645110
  32.7332164  22.2277070  48.9926960  31.9070281  22.4738807  48.8661239
  32.7944155  22.1489151  49.8589018  32.6206331  22.2522019  49.1015905
  34.9508187   8.2946011  49.9522400  34.0830613   8.3668610  50.0180010
  35.2383392   9.0968090  50.1410375  34.8647936   8.4240158  49.9897167
  44.0741076   8.4423870  58.2833722  44.8194668   8.2533680  57.8697148
  43.6578381   8.9682108  57.7247579  44.1226050   8.4926015  58.1398295
  51.4503347  15.8133099  53.2339227  52.0011269  15.1801168  53.4736319
  51.4347462  16.3448491  53.9254731  51.5288543  15.7982047  53.3718085
  38.1025738  19.6471696  57.7799121  37.6037432  20.3587464  57.8584009
  38.9125962  19.9672362  57.7417283  38.1481845  19.7998544  57.7855689
  34.3653856  18.9094649  52.0261841  34.0767104  18.2832120  52.5607569
  35.2337204  18.8514936  52.0926522  34.4514107  18.8082193  52.1152796
  45.1531753  14.0529432  52.3443823  44.8096519  13.3319767  52.6951073
  45.2524796  13.8443283  51.5022182  45.1173796  13.9153636  52.2715503
  45.6144782  20.5155136  47.8867811  46.1802815  21.1748346  47.8026354
  44.9672686  20.8604834  48.3584214  45.6023539  20.6637078  47.9440568
  37.0292796  12.5052740  63.0761419  36.2192572  12.8110520  62.9651261
  37.5067483  13.2258323  63.1914003  36.9796275  12.6567341  63.0768490
  35.8884355  21.7198461  53.3244322  35.3665109  21.8598753  54.0096187
  36.2758376  20.9609126  53.5146439  35.8688056  21.6283985  53.4545398
  32.8775540  11.7704270  47.3939277  32.5900335  11.4005540  46.6571224
  33.5646008  12.2399125  47.1322982  32.9364437  11.7851239  47.2454352
  37.3150681  18.7502480  48.7225813  37.1193464  19.3577215  48.1286116
  37.5385027  18.0570424  48.2417487  37.3185322  18.7380006  48.5641894
  35.7129211  15.6357218  48.8406681  36.4351863  15.7998376  48.3810487
  35.2337204  16.3566883  48.7346021  35.7492942  15.7655448  48.7572295
  43.6722719  11.9721017  54.2203366  42.8333819  11.9982296  53.9841630
  43.7427086  12.6191752  54.8008713  43.5591112  12.0717143  54.2712483
  33.3636828  18.0415291  57.9460821  33.8757925  18.3199544  57.2969581
  33.0773170  18.7804585  58.3123634  33.3971691  18.1917644  57.9050699
  42.1191997   8.8706394  48.9530982  42.8218350   8.6714142  48.4750940
  41.8536186   8.0982336  49.2599826  42.1838629   8.7269360  48.9276424
  47.5480243  17.1789004  51.5064608  47.4614217  17.3344430  52.3599387
  47.0930722  17.8227079  51.1324013  47.4683499  17.2964759  51.5771715
  30.4503734  12.5485482  48.2424558  30.5519871  13.3511644  48.5705533
  31.2459621  12.3472818  47.9447638  30.5831640  12.6371381  48.2459913
  36.8820553  10.1341679  58.0061863  36.6903750  10.1496814  58.8561286
  37.7319149  10.3305354  57.9828518  36.9796275  10.1656030  58.1285158
  31.2667466  12.6632661  55.9845679  31.1252958  11.8116601  56.1090187
  31.5508030  12.7061321  55.1607885  31.2875312  12.5432411  55.8813303
  41.4206059  14.4999751  50.1290168  41.1740773  14.4195502  50.9626956
  41.7491182  13.7153219  49.9352695  41.4327302  14.3726016  50.2237691
  45.3154107  21.2083110  53.9176949  45.1768467  21.9064156  54.4225691
  44.5354105  21.0531767  53.5613131  45.1797334  21.2883277  53.9403223
  43.6532193  17.5079486  60.1699330  43.6480231  16.6359302  60.1741757
  44.3593186  17.7067655  59.6968786  43.7577197  17.4083360  60.1006366
  37.3803086  17.2356469  59.5413151  37.5246462  17.8157678  58.9056261
  37.7278734  17.6132766  60.2463005  37.4530547  17.3777174  59.5512146
  39.5523003  16.4346638  57.3238282  38.8046317  16.6277652  56.9186560
  39.7064528  15.6091857  57.0862403  39.4645431  16.3411749  57.2283688
  36.4530841  25.4259241  56.4074177  36.6020405  24.8662157  55.7547582
  37.2330843  25.5051243  56.7906696  36.5904934  25.3544807  56.3671127
  38.9784141  25.5973884  57.6858668  38.9027813  24.9282695  58.2409457
  38.9074001  26.2991672  58.1999334  38.9564748  25.6018792  57.8435516
  39.7924780  10.3297189  58.2133686  40.2497394  11.0621163  58.3406478
  39.8681109   9.9063654  58.9720942  39.8715750  10.3754427  58.3434762
  32.0357771  10.5763008  59.3023130  31.4999961   9.9643366  59.6183897
  32.0975536  11.1511144  59.9556796  31.9653404  10.5709936  59.4458556
  44.2652106   3.5087064  52.0827529  44.3835674   3.9663527  51.3494832
  44.0914282   2.7032325  51.7963746  44.2571277   3.4580836  51.9328463
  37.6707158  12.3199293  55.0575510  36.8803233  12.1390753  55.3792846
  38.0667781  11.5426245  55.0405804  37.6124034  12.1786753  55.1028058
  43.0550844  19.9541723  52.7834956  42.3795846  19.7226955  53.2848343
  43.0643221  19.3462906  52.1577061  42.9569349  19.8300648  52.7651108
  40.1844988  14.7959552  59.5399009  40.1204130  15.6569508  59.4119146
  40.3242176  14.4791545  58.7394560  40.1960458  14.8759718  59.4027222
  38.8664082  17.4891691  53.6815212  38.4426331  17.6896190  52.9454230
  38.6908938  16.6420539  53.7939512  38.7774963  17.3940472  53.5888902
  38.3675776  29.0042204  56.1436669  38.8571706  28.3052993  55.9612334
  37.7960008  28.7066074  56.7312726  38.3560306  28.8568428  56.2037710
  34.1546527  17.9843742  49.1143184  34.3111146  17.9190545  49.9699176
  34.4947120  18.7592295  48.9021864  34.2279762  18.0892941  49.2097778
  40.6925672  17.3601626  47.9836548  41.2341217  16.8572007  48.4475168
  41.0072231  17.3066821  47.1726033  40.8190069  17.2781047  47.9320360
  44.5642779  21.5704273  65.0963460  45.3777645  21.2989422  65.2568592
  44.4037746  21.2711813  64.2923656  44.6612728  21.4859199  65.0008866
  41.8414941  12.2537930  58.0358848  42.0556911  11.6148845  57.4822202
  41.2248840  12.6983754  57.6066710  41.7820271  12.2248074  57.8909279
  30.7280789  15.1678693  49.4303951  31.1079754  15.5863238  48.7664219
  30.1536154  15.7492149  49.7372795  30.6992114  15.3156552  49.3780692
  44.0054029  13.8626996  58.9742155  43.1930711  13.5552886  59.0555328
  44.4643964  13.3825996  59.5384867  43.9534414  13.7463488  59.0696749
  43.4159284  21.7406668  49.4219099  43.0573939  21.9121311  50.1983132
  42.9297995  22.2019873  48.8647098  43.2917981  21.8345639  49.4544369
  41.2329670   5.3637866  53.0246191  40.3623228   5.3376587  52.9779500
  41.4870011   5.1915058  52.2072036  41.1423230   5.3348010  52.8966328
  38.2047649  17.4205833  41.9619334  38.4940174  18.1970716  42.2362908
  38.2919448  16.9094564  42.6633833  38.2601906  17.4597751  42.1061832
  41.1007537  15.2687067  63.7570857  41.5707168  15.8929183  64.1438731
  41.1469417  14.6004043  64.3164072  41.1775413  15.2621747  63.8970929
  38.2578810   7.3744095  54.4819661  37.7417299   6.6824286  54.6071240
  37.6972739   8.0414872  54.4282260  38.0985324   7.3707352  54.4925727
  40.3271044   7.9137055  56.3112514  39.9402797   7.9386086  57.0926044
  39.8403981   7.3478733  55.8587030  40.1983553   7.8332805  56.3600417
  44.5764023  22.6310564  60.3686300  45.2143744  22.1370759  60.0348756
  43.9338115  22.5587964  59.7838527  44.5758250  22.5469572  60.2328655
  46.3021023  14.4799710  54.9352216  45.8748631  14.3926058  54.1800315
  45.6647076  14.5877485  55.5207060  46.1450631  14.4832369  54.9097657
  39.9928186   4.8004040  58.6022774  40.6221304   5.3364340  58.3243844
  40.1614048   4.7081399  59.4536339  40.1105980   4.8665402  58.6871302
  39.7942100   9.5875235  60.8749185  40.6215530   9.3160384  60.9307800
  39.8149947  10.3836077  61.2313003  39.9194951   9.6654989  60.9364368
  44.6318280  23.3230372  57.0091657  45.4210658  22.9719437  57.1293739
  44.8061878  24.1366760  56.7468291  44.7738562  23.3916229  56.9879525
  34.3711590  16.7339098  54.0619446  33.5299597  16.6342972  54.2698340
  34.5801598  17.5034578  54.4133767  34.2776283  16.8331141  54.1446761
  31.8487157  14.3558635  51.8904197  31.4543855  14.4301646  51.1154306
  31.2927274  14.7416581  52.4412558  31.7089970  14.4240409  51.8571856
  43.4852104   7.3339929  51.5708075  43.6901697   7.2662236  52.4165073
  43.1578528   8.1398750  51.5029253  43.4667352   7.4425869  51.6867731
  38.1828255  14.6620497  53.3117043  37.8791393  14.1076485  53.9127451
  37.4807676  14.8412707  52.8245078  38.0344465  14.6065279  53.3286749
  37.2394352  11.9721017  47.8761745  37.5154087  11.2539929  47.4639313
  37.8393022  12.5705937  47.6682851  37.3687617  11.9541387  47.7842506
  36.2446606  21.8770218  58.0189141  36.1366961  21.8872280  58.8851199
  36.4542388  22.7024998  57.8294095  36.2596717  22.0011292  58.1193233
  46.7385792   7.8871693  51.0510841  46.1260105   8.3742095  51.4364573
  46.8349967   7.2115184  51.5948492  46.6623689   7.8590002  51.1889699
  40.7404873   9.6434534  46.1508340  41.1948619   9.8145094  46.8756185
  41.2144919   9.0302645  45.7506116  40.8773193   9.5785419  46.1982102
  34.6581021  10.2884858  56.1479096  35.1182503  10.3623787  56.8854220
  34.7037128  11.0866112  55.7978918  34.7331576  10.4179005  56.2051853
  36.3064371  10.9551553  60.7151123  35.9149936  10.3084900  61.1506901
  36.4750233  11.5462988  61.3345379  36.2735281  10.9465820  60.8713829
  50.3810820  18.9588630  56.4788357  50.4393943  19.4075278  57.2248334
  49.7477287  19.3687442  56.0418437  50.2962115  19.0862364  56.5240905
  44.0209914  24.5792172  52.9143103  43.8229603  25.0682986  52.2199315
  43.3997625  24.7833413  53.4927237  43.8997479  24.6808710  52.8966326
  38.0817893  16.3477068  47.2553347  38.8259938  16.7351345  47.4936297
  38.2278589  15.5034494  47.4193835  38.2128478  16.2807541  47.3147317
  39.9997468   8.1427327  52.2885209  39.1533513   8.3150135  52.1626559
  39.9968601   7.3376671  52.6251037  39.8744618   8.0488356  52.3196336
  41.0695769  11.9202542  53.1547267  40.5955723  11.3944304  53.6652578
  41.4413904  11.3732014  52.5862128  41.0545658  11.7618538  53.1462414
  31.4468799  13.9174048  58.5230813  32.3094412  13.8169758  58.4368142
  31.1160582  13.3368758  57.9616385  31.5253995  13.8165675  58.4276218
  47.3332499  16.9804917  54.5654047  47.0930722  16.1411332  54.5696474
  47.8124506  17.0605084  55.2894821  47.3684683  16.8686317  54.6728850
  42.9979268  12.8139096  46.2173021  42.4702287  12.8967840  45.5278729
  43.4574976  13.5556968  46.2137665  42.9881119  12.9359759  46.1147716
  49.3337686  13.7606375  52.5183306  49.0947456  13.7202209  51.6804091
  49.4971588  14.6077527  52.6449028  49.3227990  13.8798460  52.4136788
  45.9383716  18.1456324  58.4488352  46.6617915  17.6928850  58.2699372
  45.6733679  18.4260989  57.6660679  46.0064990  18.1207292  58.3067067
  34.8070585  12.7416497  55.1841231  34.1823655  12.7534889  54.5767183
  34.4716180  13.2176672  55.8332471  34.6656077  12.8135014  55.1897799
  34.9912333  11.0841616  41.2413916  34.6425138  11.7361341  41.7045465
  34.5108779  11.0698729  40.5137787  34.8682577  11.1784669  41.2025007
  31.5196260  20.8016957  56.6244995  30.9896185  20.1109396  56.6739970
  31.7921354  20.7927143  55.7957704  31.4820983  20.6984089  56.5092411
  41.7202506  18.2440202  56.5983367  41.1059499  17.6998252  56.8932002
  42.2369791  17.7304439  56.1189183  41.7058168  18.0876611  56.5707595
  40.9598803  19.3144472  54.3327665  40.5326411  18.6894191  53.8993101
  40.9523747  19.0319394  55.1586673  40.8957944  19.1797253  54.3907493
  34.0761330  14.3509645  57.4016099  34.2354817  13.5952969  57.8067821
  33.8954224  14.9000585  58.0556837  34.0726689  14.3203459  57.5578805
  42.0181633   6.5170881  57.9566889  41.5222194   6.7134555  57.2658455
  42.7750695   6.9163549  57.7855690  42.0568458   6.6048615  57.8287026
  39.2884513  10.1913227  54.5470199  39.3127000   9.6573339  53.8582979
  39.5395986   9.6830535  55.2095790  39.3294431  10.0374131  54.5434844
  26.7992103  17.4744722  53.9813343  26.6935552  17.4291566  53.1165427
  26.0492323  17.8198502  54.2627628  26.6727705  17.5185630  53.8950673
  35.5685835   8.9184045  53.9275944  35.6084207   9.4193251  54.6410651
  34.7435500   9.0094439  53.6581867  35.4525361   9.0065861  53.9926482
  37.7515448  18.4844785  62.0296238  36.9011078  18.6216499  62.1653883
  37.9143576  17.7508563  62.4743940  37.6499311  18.3958886  62.1151837
  36.9900198  15.4344555  56.2249843  36.1592128  15.6018373  56.0185091
  36.9351716  15.0580505  57.0098728  36.8589613  15.4034286  56.3098371
  34.7983982   8.9253448  61.8606253  35.4236685   8.3815580  62.1335686
  34.3434462   8.4448365  61.2914044  34.8232242   8.7742929  61.8167847
  35.3636242  13.7100146  46.7539960  35.5039203  14.2072610  47.4568602
  35.8618775  13.0086441  46.8954174  35.4577323  13.6802125  46.8791539
  35.3936465  14.5767257  44.0832537  36.0281544  15.1727682  44.0181999
  35.4762075  14.2770715  44.8978407  35.4993016  14.6208165  44.1935624
  48.3719030  17.1082735  56.9518901  48.9636871  17.7479985  56.9837099
  48.8078025  16.4105771  57.2410968  48.5237462  17.1001085  56.9999734
  36.9715447  10.5081233  44.0577979  37.2931288  10.0284315  43.4037241
  37.2342391  11.3180879  43.8668791  37.0581473  10.5571131  43.9333471
  40.2012420  21.5300107  57.5776795  39.6937511  22.0835954  58.0217426
  39.9039066  21.5908397  56.7595570  40.0817305  21.6206418  57.5225252
  42.3674602   9.8953427  56.4201458  42.7929674   9.4425953  55.8084985
  41.7531596   9.3413497  56.6966246  42.3403248   9.7467403  56.3706483
  31.8989452  16.7735098  47.3522083  32.4081682  17.3699606  47.7333389
  32.3723725  16.5061072  46.6698503  32.0432828  16.8220913  47.3076606
  40.8068825   6.3668526  49.8292035  40.1637143   6.2166173  50.3977174
  40.4668232   6.1210872  49.0641140  40.6613903   6.3080649  49.7995050
  45.3968172  14.3227953  49.2522044  44.7259362  14.8657656  49.1235109
  46.0907922  14.7922809  49.0103739  45.3997039  14.4726224  49.1977572
  39.4454905  26.4624665  54.4833802  39.2220560  25.7043495  54.8517828
  38.9564749  26.4922686  53.7614242  39.3398354  26.3546890  54.4310543
  45.5596299  10.7783837  52.1612417  45.9123909  10.3513560  52.8358216
  44.7011101  10.6934680  52.2913493  45.4845744  10.7028578  52.2807428
  34.2579984  13.4091357  50.2195264  33.5391973  13.8255489  50.4868127
  34.6292346  13.9745595  49.6686902  34.2071916  13.5540638  50.1778071
  43.5579565  14.0419205  56.1097259  43.5377492  13.8602501  56.9632038
  43.6058766  14.9131224  56.0856843  43.5614206  14.1435744  56.2320554
  41.5025895  20.6306397  62.0345736  41.4621750  19.9856074  61.4490892
  42.3149213  20.5743015  62.3471148  41.6169048  20.5265364  61.9942685
  41.4598657  25.8415209  52.6894503  41.0614940  25.9517479  51.9215324
  40.8449876  26.0497275  53.2721063  41.3097546  25.8888777  52.6625803
  40.0326559  12.4489356  45.5568643  39.4391398  12.7706353  45.0053210
  40.0701836  11.6030452  45.3489749  39.9500948  12.3713685  45.4451414
  46.9920359   5.9002249  53.0896730  46.4851224   5.1931388  53.0217907
  47.7887793   5.5695438  53.2197806  47.0347598   5.7475400  53.0995725
  42.9084375  12.4068861  48.9870393  42.6798068  12.4301562  48.1448751
  43.1682451  11.5826328  49.1065404  42.9130563  12.2884941  48.8795591
  37.1903604  14.2603334  58.5895493  36.6782507  13.6524517  58.9480525
  37.0183100  14.9759927  59.0569469  37.0893241  14.2766633  58.7111717
  32.0369318  12.7040909  61.2397855  31.8671909  13.3642284  60.6946062
  31.5935268  12.9147471  61.9610344  31.9468652  12.8326891  61.2659485
  35.9629138  10.9445407  50.2824589  36.4386504  11.3062487  49.6474770
  35.4617737  11.6001875  50.5624732  35.9594497  11.0939596  50.2301330
  41.0672674  12.1827579  61.0297749  41.6244104  11.9541388  60.3976214
  40.7433739  12.9433244  60.7532961  41.1019084  12.2611415  60.8954246
  28.9371383  15.6087775  56.4986345  28.3898102  14.9388420  56.6167213
  29.7263761  15.2417623  56.5629812  28.9723566  15.4552761  56.5255046
  38.7855791  15.2695232  61.9949756  39.5367118  15.5846909  62.3089310
  38.9778368  15.0674403  61.1683678  38.9247205  15.2862614  61.9193152
  38.0055791  13.0886607  43.6497973  38.3854756  13.1066236  42.8649088
  37.2648387  13.5340596  43.5288820  37.9524629  13.1568382  43.5161541
  45.6341081  11.3968798  49.2373552  45.6335308  11.2417455  50.0957828
  45.4297261  12.2431785  49.1814937  45.6040859  11.4989419  49.3561491
  27.6958352  14.8208583  53.6532368  27.5180113  14.3685192  54.3787284
  27.4077374  15.6234744  53.8370846  27.6271305  14.8731141  53.7875871
  43.3581933  16.0766300  52.8909758  43.8535599  15.3589295  52.8513779
  42.5481709  15.7737098  52.7764245  43.3125827  15.9263946  52.8683484
  29.4330822  17.3536306  50.7654127  28.5676342  17.3421997  50.6536898
  29.5329638  17.1666529  51.6125266  29.3204989  17.3242368  50.8743072
  45.4233752  18.8269988  55.5786887  45.8488824  18.3044409  55.0257312
  45.0590672  19.4250825  55.0575510  45.4320355  18.8380215  55.4195897
  35.0587832  27.1234205  54.3384233  35.3734391  27.9370593  54.3462014
  35.4681245  26.7384424  55.0066392  35.1655930  27.1862907  54.4388324
  42.0112352  22.5404252  51.9088045  42.4823530  23.2544514  52.0778030
  42.3472530  21.9403002  52.4447914  42.1307467  22.5575716  52.0120421
  44.0989336  24.1505565  64.0880117  44.2086302  23.3614126  64.4436864
  44.4280233  24.0611501  63.2854455  44.1641742  24.0211418  64.0222508
  38.9281847   7.3131722  58.8646140  39.0609752   6.5162716  59.1927115
  39.3126999   7.8398125  59.4444415  39.0038175   7.2731639  58.9989642
  42.6486298  22.3322186  58.6715737  42.1007244  21.7080070  58.4035803
  43.1099327  22.5216458  57.9559817  42.6353507  22.2681236  58.5266168
  42.0014202   4.2362049  55.4627233  41.1960166   4.1259778  55.7795071
  41.8720937   4.3374504  54.6057099  41.8634335   4.2345719  55.3835273
  45.4580162  10.4007540  56.0566930  44.8743151  10.9016747  55.6444497
  45.7784456   9.8937097  55.4231253  45.4193338  10.3999375  55.9025437
  36.5870293   7.3090897  57.1124033  37.1314706   6.9682024  57.7028375
  36.6407229   8.1676359  57.2545318  36.6759413   7.3846157  57.2205907
  32.4000852  21.0707313  53.9862841  33.0045710  21.0303148  53.3576662
  32.1928165  21.9178466  54.0166897  32.4589749  21.1895316  53.8978958
  42.2144624  23.3373259  55.2025079  43.0342998  23.1936225  55.4641374
  41.9338702  23.9619458  55.7441516  42.2941368  23.4083611  55.3213018
  27.6352134  20.0541931  53.8561764  27.5376412  19.2438203  54.1651821
  28.4181004  20.0333724  53.4708032  27.7368271  19.9309021  53.8448627
  58.6858275  30.9938110  48.1667955  58.6552279  31.8482747  48.3386224
  59.2839623  30.6933403  48.7254099  58.7695433  31.0754607  48.2742757
  51.8857960  30.0813761  52.9220885  51.0295855  30.2422260  52.9730002
  51.9325613  29.2105825  52.9425946  51.7657071  29.9764563  52.9326951
  55.1951676  36.3500287  62.5281341  55.9018443  35.8552318  62.6568276
  55.3839611  36.7909369  61.7983999  55.3279582  36.3418637  62.4390387
  54.7309781  32.1405805  55.5652537  55.2765741  32.8190892  55.6246507
  54.6726657  31.9993266  54.7054118  54.8025695  32.2197807  55.4464598
  43.3438987  27.8200889  53.4757531  42.7244019  27.2293536  53.3067546
  43.2422851  28.4112324  52.8421854  43.2376663  27.8204971  53.3562520
  50.4406883  29.5600430  47.8089994  51.1387047  29.7388558  48.3011457
  50.7559215  29.0370770  47.1860383  50.5902220  29.5094202  47.7892004
  43.0708120  31.3653170  55.7201100  42.9466817  31.9515616  56.3550919
  43.7226405  30.8713366  56.0213375  43.1481770  31.3791975  55.8587029
  48.6133746  24.9292827  51.8911268  48.2837076  25.3803971  51.2214967
  47.9378748  24.8508990  52.4384275  48.4644183  24.9843962  51.8734492
  55.8210154  20.9178350  50.1360879  55.5063595  21.6081829  50.5681301
  55.3037096  20.8623132  49.4346380  55.6974625  21.0113238  50.0957828
  60.6170641  36.4929155  51.6231334  59.7868344  36.7039799  51.7864751
  60.5679893  35.6666210  51.3473618  60.4877376  36.4018762  51.6068700
  60.1124599  29.1399556  55.4181756  59.2753020  29.2101743  55.6529350
  60.0812830  29.1424051  54.5456058  59.9842882  29.1509783  55.3241304
  46.5089328  31.2832592  61.1330124  46.6809832  31.1738486  61.9815406
  47.0458686  31.9286997  60.8961316  46.6134332  31.3624593  61.2235221
  57.8734956  37.1628510  51.7596050  57.4370188  37.1665252  52.5155021
  57.5397872  37.8434009  51.3275627  57.7597576  37.2640966  51.8076883
  52.4464030  39.2036843  63.0839200  53.2304446  39.3167690  63.4494942
  52.2460624  38.3777980  63.2797886  52.5330055  39.0983562  63.1673586
  57.7932439  24.2042338  54.0025478  58.4358347  24.2740442  54.5887393
  58.0455460  23.5371560  53.5005020  57.9254571  24.1168686  54.0152757
  45.5649652  27.4142901  58.6150052  44.8721448  26.9439881  58.8610783
  46.1809979  27.1881205  59.1891759  45.5534181  27.3110033  58.7359204
  61.0079302  33.8809430  50.6515687  61.6695736  33.3200098  50.5511596
  60.3670714  33.3861460  50.9768378  61.0108170  33.7245839  50.6848027
  57.2944133  34.8974812  50.3927676  57.5299722  35.0420011  49.5654527
  57.4433697  35.6617220  50.7859190  57.3509936  35.0313866  50.3291280
  44.2890210  31.3808305  59.7576897  45.0130183  31.3661336  60.2441792
  44.3906347  32.0903660  59.2598865  44.4108420  31.4833008  59.7555684
  59.1234590  33.7376478  48.2297280  59.4542807  34.2704118  47.6237375
  59.6967678  33.7915366  48.8859231  59.2568269  33.8246047  48.2375062
  51.6635160  34.8607390  64.6225844  50.8708141  35.1750901  64.8078464
  51.7784087  35.0758858  63.7846629  51.5630570  34.9391226  64.5264179
  52.5918953  34.7627593  59.5611141  53.1657814  34.1254837  59.7159705
  52.5133756  34.7631676  58.6920798  52.6652188  34.6692705  59.4557552
  53.0283721  25.2979309  51.7136431  52.3240048  24.8088495  51.8720350
  53.0768696  25.3101784  50.8424875  52.9313773  25.2268957  51.6075771
  50.5890672  29.2211970  56.9589611  50.2005105  28.7966188  56.3041803
  49.9245370  29.4694120  57.4666638  50.4337600  29.1950691  56.9377479
  60.2313941  28.9786975  49.7337441  59.9750506  28.1666916  49.5435324
  61.0743255  28.9864542  49.5067629  60.3179967  28.8598972  49.6722259
  54.4117034  22.9186599  54.4713596  54.7927545  22.2364770  54.8581470
  53.6080318  22.6296201  54.2889260  54.3493495  22.7753647  54.5017652
  57.9139101  36.1336571  59.5695994  57.6777738  35.3024636  59.4508055
  58.5582329  36.0822178  60.1550838  57.9733771  36.0034259  59.6381888
  48.3708874  25.4240797  64.3376204  48.0562315  26.1940360  64.0745767
  48.0498807  24.8611053  63.7528431  48.2767793  25.4551066  64.2117554
  58.9375521  35.9181020  55.6324289  58.6321338  36.6509076  55.9937604
  58.2181737  35.5118949  55.3517075  58.7862863  35.9662753  55.6437426
  45.9240771  23.8131319  49.9522400  45.0563196  23.8853918  50.0180010
  46.2115975  24.6153398  50.1410375  45.8380519  23.9425466  49.9897167
  55.0473660  23.9609178  58.2833722  55.7927252  23.7718988  57.8697148
  54.6310964  24.4867416  57.7247579  55.0958634  24.0111323  58.1398295
  62.4235931  31.3318407  53.2339227  62.9743852  30.6986476  53.4736319
  62.4080046  31.8633799  53.9254731  62.5021127  31.3167355  53.3718085
  49.0758321  35.1657004  57.7799121  48.5770015  35.8772771  57.8584009
  49.8858546  35.4857670  57.7417283  49.1214428  35.3183852  57.7855689
  56.1264337  29.5714740  52.3443823  55.7829103  28.8505075  52.6951073
  56.2257379  29.3628591  51.5022182  56.0906380  29.4338943  52.2715503
  48.0025379  28.0238048  63.0761419  47.1925155  28.3295828  62.9651261
  48.4800066  28.7443631  63.1914003  47.9528858  28.1752649  63.0768490
  54.6455302  27.4906325  54.2203366  53.8066403  27.5167604  53.9841630
  54.7159670  28.1377060  54.8008713  54.5323696  27.5902451  54.2712483
  44.3369411  33.5600599  57.9460821  44.8490508  33.8384852  57.2969581
  44.0505754  34.2989893  58.3123634  44.3704275  33.7102952  57.9050699
  53.0924581  24.3891702  48.9530982  53.7950933  24.1899450  48.4750940
  52.8268769  23.6167644  49.2599826  53.1571213  24.2454668  48.9276424
  58.5212826  32.6974312  51.5064608  58.4346801  32.8529738  52.3599387
  58.0663306  33.3412387  51.1324013  58.4416083  32.8150067  51.5771715
  47.8553137  25.6526987  58.0061863  47.6636334  25.6682122  58.8561286
  48.7051733  25.8490661  57.9828518  47.9528859  25.6841338  58.1285158
  42.2400050  28.1817969  55.9845679  42.0985542  27.3301909  56.1090187
  42.5240613  28.2246629  55.1607885  42.2607896  28.0617719  55.8813303
  52.3938642  30.0185059  50.1290168  52.1473356  29.9380810  50.9626956
  52.7223765  29.2338527  49.9352695  52.4059886  29.8911324  50.2237691
  56.2886691  36.7268418  53.9176949  56.1501050  37.4249464  54.4225691
  55.5086689  36.5717075  53.5613131  56.1529918  36.8068585  53.9403223
  54.6264776  33.0264794  60.1699330  54.6212815  32.1544610  60.1741757
  55.3325770  33.2252963  59.6968786  54.7309780  32.9268668  60.1006366
  48.3535669  32.7541777  59.5413151  48.4979045  33.3342986  58.9056261
  48.7011318  33.1318074  60.2463005  48.4263131  32.8962481  59.5512146
  50.5255587  31.9531946  57.3238282  49.7778901  32.1462960  56.9186560
  50.6797112  31.1277165  57.0862403  50.4378014  31.8597057  57.2283688
  50.7657364  25.8482496  58.2133686  51.2229978  26.5806471  58.3406478
  50.8413693  25.4248962  58.9720942  50.8448334  25.8939735  58.3434762
  43.0090355  26.0948316  59.3023130  42.4732545  25.4828674  59.6183897
  43.0708120  26.6696452  59.9556796  42.9385988  26.0895244  59.4458556
  55.2384690  19.0272372  52.0827529  55.3568258  19.4848835  51.3494832
  55.0646865  18.2217633  51.7963746  55.2303861  18.9766144  51.9328463
  48.6439742  27.8384600  55.0575510  47.8535816  27.6576061  55.3792846
  49.0400365  27.0611553  55.0405804  48.5856618  27.6972061  55.1028058
  51.1577572  30.3144860  59.5399009  51.0936713  31.1754816  59.4119146
  51.2974760  29.9976853  58.7394560  51.1693042  30.3945026  59.4027222
  55.5375363  37.0889581  65.0963460  56.3510228  36.8174730  65.2568592
  55.3770329  36.7897121  64.2923656  55.6345311  37.0044507  65.0008866
  52.8147525  27.7723238  58.0358848  53.0289494  27.1334153  57.4822202
  52.1981424  28.2169062  57.6066710  52.7552854  27.7433382  57.8909279
  54.9786613  29.3812304  58.9742155  54.1663295  29.0738194  59.0555328
  55.4376547  28.9011304  59.5384867  54.9266998  29.2648796  59.0696749
  52.2062254  20.8823174  53.0246191  51.3355811  20.8561895  52.9779500
  52.4602595  20.7100366  52.2072036  52.1155814  20.8533318  52.8966328
  52.0740120  30.7872375  63.7570857  52.5439752  31.4114491  64.1438731
  52.1202001  30.1189351  64.3164072  52.1507996  30.7807055  63.8970929
  49.2311394  22.8929402  54.4819661  48.7149883  22.2009594  54.6071240
  48.6705323  23.5600180  54.4282260  49.0717907  22.8892660  54.4925727
  51.3003627  23.4322363  56.3112514  50.9135381  23.4571394  57.0926044
  50.8136565  22.8664041  55.8587030  51.1716136  23.3518113  56.3600417
  55.5496607  38.1495872  60.3686300  56.1876327  37.6556067  60.0348756
  54.9070698  38.0773272  59.7838527  55.5490833  38.0654880  60.2328655
  57.2753607  29.9985017  54.9352216  56.8481215  29.9111366  54.1800315
  56.6379660  30.1062793  55.5207060  57.1183214  30.0017677  54.9097657
  50.9660769  20.3189348  58.6022774  51.5953887  20.8549648  58.3243844
  51.1346632  20.2266707  59.4536339  51.0838564  20.3850710  58.6871302
  50.7674684  25.1060543  60.8749185  51.5948113  24.8345692  60.9307800
  50.7882530  25.9021384  61.2313003  50.8927534  25.1840297  60.9364368
  55.6050863  38.8415680  57.0091657  56.3943242  38.4904745  57.1293739
  55.7794461  39.6552068  56.7468291  55.7471145  38.9101537  56.9879525
  54.4584688  22.8525236  51.5708075  54.6634281  22.7847544  52.4165073
  54.1311112  23.6584058  51.5029253  54.4399936  22.9611177  51.6867731
  49.1560839  30.1805805  53.3117043  48.8523976  29.6261793  53.9127451
  48.4540260  30.3598015  52.8245078  49.0077049  30.1250587  53.3286749
  57.7118375  23.4057001  51.0510841  57.0992689  23.8927403  51.4364573
  57.8082550  22.7300492  51.5948492  57.6356273  23.3775309  51.1889699
  51.7137456  25.1619842  46.1508340  52.1681203  25.3330402  46.8756185
  52.1877502  24.5487953  45.7506116  51.8505777  25.0970727  46.1982102
  45.6313605  25.8070166  56.1479096  46.0915086  25.8809095  56.8854220
  45.6769711  26.6051420  55.7978918  45.7064160  25.9364313  56.2051853
  47.2796954  26.4736860  60.7151123  46.8882519  25.8270208  61.1506901
  47.4482817  27.0648296  61.3345379  47.2467865  26.4651128  60.8713829
  61.3543403  34.4773938  56.4788357  61.4126527  34.9260586  57.2248334
  60.7209871  34.8872750  56.0418437  61.2694698  34.6047672  56.5240905
  54.9942498  40.0977479  52.9143103  54.7962187  40.5868294  52.2199315
  54.3730209  40.3018721  53.4927237  54.8730062  40.1994018  52.8966326
  50.9730052  23.6612635  52.2885209  50.1266097  23.8335443  52.1626559
  50.9701184  22.8561979  52.6251037  50.8477202  23.5673664  52.3196336
  52.0428352  27.4387850  53.1547267  51.5688306  26.9129612  53.6652578
  52.4146488  26.8917322  52.5862128  52.0278241  27.2803846  53.1462414
  42.4201382  29.4359356  58.5230813  43.2826995  29.3355065  58.4368142
  42.0893165  28.8554066  57.9616385  42.4986579  29.3350983  58.4276218
  58.3065083  32.4990225  54.5654047  58.0663306  31.6596640  54.5696474
  58.7857090  32.5790392  55.2894821  58.3417266  32.3871625  54.6728850
  53.9711852  28.3324404  46.2173021  53.4434870  28.4153148  45.5278729
  54.4307560  29.0742276  46.2137665  53.9613702  28.4545067  46.1147716
  60.3070270  29.2791682  52.5183306  60.0680040  29.2387517  51.6804091
  60.4704171  30.1262834  52.6449028  60.2960573  29.3983767  52.4136788
  56.9116300  33.6641632  58.4488352  57.6350499  33.2114158  58.2699372
  56.6466262  33.9446297  57.6660679  56.9797573  33.6392600  58.3067067
  45.7803168  28.2601805  55.1841231  45.1556238  28.2720197  54.5767183
  45.4448763  28.7361980  55.8332471  45.6388660  28.3320322  55.1897799
  52.6935089  33.7625510  56.5983367  52.0792083  33.2183560  56.8932002
  53.2102374  33.2489746  56.1189183  52.6790752  33.6061919  56.5707595
  45.0493914  29.8694953  57.4016099  45.2087400  29.1138277  57.8067821
  44.8686807  30.4185893  58.0556837  45.0459273  29.8388767  57.5578805
  52.9914217  22.0356189  57.9566889  52.4954778  22.2319863  57.2658455
  53.7483279  22.4348857  57.7855690  53.0301041  22.1233922  57.8287026
  50.2617096  25.7098535  54.5470199  50.2859583  25.1758647  53.8582979
  50.5128570  25.2015843  55.2095790  50.3027015  25.5559438  54.5434844
  46.5418419  24.4369353  53.9275944  46.5816790  24.9378559  54.6410651
  45.7168083  24.5279746  53.6581867  46.4257944  24.5251169  53.9926482
  48.7248031  34.0030093  62.0296238  47.8743662  34.1401807  62.1653883
  48.8876159  33.2693871  62.4743940  48.6231895  33.9144194  62.1151837
  47.9632782  30.9529863  56.2249843  47.1324712  31.1203681  56.0185091
  47.9084299  30.5765813  57.0098728  47.8322197  30.9219594  56.3098371
  45.7716565  24.4438756  61.8606253  46.3969269  23.9000888  62.1335686
  45.3167045  23.9633673  61.2914044  45.7964826  24.2928237  61.8167847
  59.3451614  32.6268043  56.9518901  59.9369454  33.2665293  56.9837099
  59.7810608  31.9291079  57.2410968  59.4970045  32.6186393  56.9999734
  51.1745004  37.0485415  57.5776795  50.6670095  37.6021262  58.0217426
  50.8771650  37.1093705  56.7595570  51.0549889  37.1391726  57.5225252
  53.3407186  25.4138735  56.4201458  53.7662258  24.9611261  55.8084985
  52.7264179  24.8598805  56.6966246  53.3135831  25.2652711  56.3706483
  51.7801409  21.8853834  49.8292035  51.1369727  21.7351481  50.3977174
  51.4400816  21.6396180  49.0641140  51.6346486  21.8265957  49.7995050
  56.3700755  29.8413261  49.2522044  55.6991945  30.3842963  49.1235109
  57.0640506  30.3108117  49.0103739  56.3729623  29.9911532  49.1977572
  56.5328883  26.2969145  52.1612417  56.8856493  25.8698868  52.8358216
  55.6743684  26.2119988  52.2913493  56.4578327  26.2213885  52.2807428
  54.5312149  29.5604513  56.1097259  54.5110076  29.3787809  56.9632038
  54.5791349  30.4316532  56.0856843  54.5346790  29.6621052  56.2320554
  52.4758478  36.1491705  62.0345736  52.4354333  35.5041382  61.4490892
  53.2881797  36.0928323  62.3471148  52.5901632  36.0450672  61.9942685
  51.0059142  27.9674664  45.5568643  50.4123981  28.2891661  45.0053210
  51.0434420  27.1215760  45.3489749  50.9233531  27.8898993  45.4451414
  57.9652943  21.4187557  53.0896730  57.4583808  20.7116696  53.0217907
  58.7620377  21.0880745  53.2197806  58.0080182  21.2660708  53.0995725
  53.8816959  27.9254169  48.9870393  53.6530652  27.9486870  48.1448751
  54.1415035  27.1011636  49.1065404  53.8863147  27.8070249  48.8795591
  48.1636187  29.7788642  58.5895493  47.6515090  29.1709825  58.9480525
  47.9915683  30.4945234  59.0569469  48.0625824  29.7951941  58.7111717
  43.0101902  28.2226217  61.2397855  42.8404492  28.8827592  60.6946062
  42.5667852  28.4332778  61.9610344  42.9201235  28.3512199  61.2659485
  46.9361721  26.4630715  50.2824589  47.4119087  26.8247795  49.6474770
  46.4350321  27.1187183  50.5624732  46.9327080  26.6124904  50.2301330
  60.1673083  35.9352483  46.0737594  60.5506689  36.6843839  46.3035691
  59.3717196  36.1818303  45.8149583  60.1066865  36.0822177  46.0695168
  52.0405257  27.7012887  61.0297749  52.5976688  27.4726696  60.3976214
  51.7166322  28.4618552  60.7532961  52.0751668  27.7796723  60.8954246
  39.9103966  31.1273083  56.4986345  39.3630686  30.4573728  56.6167213
  40.6996345  30.7602931  56.5629812  39.9456150  30.9738069  56.5255046
  49.7588375  30.7880540  61.9949756  50.5099702  31.1032217  62.3089310
  49.9510951  30.5859711  61.1683678  49.8979789  30.8047922  61.9193152
  56.6073665  26.9154106  49.2373552  56.6067891  26.7602763  50.0957828
  56.4029845  27.7617093  49.1814937  56.5773443  27.0174727  49.3561491
  38.6690936  30.3393891  53.6532368  38.4912697  29.8870500  54.3787284
  38.3809958  31.1420052  53.8370846  38.6003889  30.3916448  53.7875871
  54.3314517  31.5951608  52.8909758  54.8268182  30.8774603  52.8513779
  53.5214293  31.2922406  52.7764245  54.2858410  31.4449254  52.8683484
  56.3966336  34.3455295  55.5786887  56.8221407  33.8229717  55.0257312
  56.0323256  34.9436133  55.0575510  56.4052938  34.3565523  55.4195897
  55.0721920  39.6690873  64.0880117  55.1818885  38.8799434  64.4436864
  55.4012816  39.5796809  63.2854455  55.1374326  39.5396726  64.0222508
  49.9014430  22.8317030  58.8646140  50.0342336  22.0348024  59.1927115
  50.2859583  23.3583433  59.4444415  49.9770759  22.7916947  58.9989642
  53.6218882  37.8507494  58.6715737  53.0739828  37.2265378  58.4035803
  54.0831910  38.0401766  57.9559817  53.6086091  37.7866544  58.5266168
  52.9746785  19.7547356  55.4627233  52.1692749  19.6445086  55.7795071
  52.8453521  19.8559812  54.6057099  52.8366918  19.7531027  55.3835273
  56.4312746  25.9192848  56.0566930  55.8475735  26.4202055  55.6444497
  56.7517040  25.4122405  55.4231253  56.3925921  25.9184683  55.9025437
  47.5602877  22.8276205  57.1124033  48.1047290  22.4867332  57.7028375
  47.6139813  23.6861667  57.2545318  47.6491996  22.9031465  57.2205907
  53.1877208  38.8558567  55.2025079  54.0075582  38.7121533  55.4641374
  52.9071286  39.4804765  55.7441516  53.2673951  38.9268919  55.3213018
  69.6590858  46.5123418  48.1667955  69.6284863  47.3668055  48.3386224
  70.2572207  46.2118711  48.7254099  69.7428016  46.5939915  48.2742757
  62.8590543  45.5999069  52.9220885  62.0028439  45.7607568  52.9730002
  62.9058197  44.7291133  52.9425946  62.7389655  45.4949871  52.9326951
  57.2431683  55.1361787  48.6858117  56.4914582  54.7577326  48.4574162
  57.6917694  55.1680221  47.9376927  57.1981350  55.0847394  48.5415619
  66.1684260  51.8685595  62.5281341  66.8751027  51.3737626  62.6568276
  66.3572195  52.3094676  61.7983999  66.3012165  51.8603945  62.4390387
  62.2360934  57.5101425  50.0554776  62.6200313  58.0788324  49.5159551
  62.1720075  56.7850936  49.5760592  62.2834361  57.4876889  49.9048638
  65.7042364  47.6591113  55.5652537  66.2498324  48.3376200  55.6246507
  65.6459240  47.5178574  54.7054118  65.7758278  47.7383115  55.4464598
  58.8216439  55.1480179  50.9520889  58.9226802  54.3380533  51.2618017
  58.2258184  55.0537126  50.3220568  58.7488978  55.0145207  50.9047128
  67.4807433  49.0875720  46.4386265  67.3646959  49.8383406  46.8678403
  68.2763319  48.8299674  46.6882352  67.5812022  49.1610567  46.5390356
  58.6617179  60.0657769  52.3535745  59.3054634  60.5070933  52.7431904
  58.9873434  59.2611195  52.2666004  58.8049007  60.0122963  52.3981223
  59.3637758  53.0769743  47.7255607  59.6853599  53.6174951  47.1216915
  60.0109855  52.5066515  47.8577897  59.5063813  53.0728919  47.6562643
  61.6027402  51.4656183  47.7969785  62.0421037  50.8573284  48.2424558
  61.4532065  51.0863557  47.0255250  61.6448867  51.3194654  47.7488953
  59.0699045  50.0600195  54.9988611  59.7148047  49.5672638  54.6799559
  59.3100822  50.2024982  55.8254689  59.2009630  50.0077637  55.0738144
  61.6085136  52.9055101  54.6495503  61.8908379  52.1106507  54.4282259
  62.3371297  53.3835688  54.6700564  61.7574700  52.8589698  54.6198519
  59.5866330  40.4478135  51.8911268  59.2569660  40.8989279  51.2214967
  58.9111332  40.3694298  52.4384275  59.4376766  40.5029270  51.8734492
  65.2036738  49.8183365  44.7500555  65.1188033  50.6744331  44.8950123
  65.6921122  49.5427689  45.4182714  65.2625636  49.9040686  44.8702636
  66.7942738  36.4363658  50.1360879  66.4796179  37.1267136  50.5681301
  66.2769679  36.3808440  49.4346380  66.6707208  36.5298546  50.0957828
  66.1355172  46.4368159  46.2498290  65.6066643  46.6527792  46.9095596
  66.6580191  47.1304297  46.1699259  66.1343624  46.5711296  46.3353889
  71.5903224  52.0114463  51.6231334  70.7600928  52.2225107  51.7864751
  71.5412477  51.1851518  51.3473618  71.4609960  51.9204070  51.6068700
  53.5798808  56.0486137  51.8529429  53.0966386  56.7736626  51.8289013
  54.3922126  56.3462267  51.9639587  53.6289556  56.1988490  51.8656708
  59.6512962  54.8418317  54.4579244  59.1339904  54.4825732  53.8540552
  60.3487353  54.3180492  54.4685310  59.6778543  54.7116005  54.3709502
  63.3076554  55.2913131  60.4195417  63.3959900  55.1039272  61.2673627
  63.7366267  54.6450561  60.0200263  63.3838656  55.1676139  60.4867168
  60.8747014  54.5744291  59.4013079  60.3117849  54.1616901  59.9252740
  61.6368037  54.4997197  59.8206222  60.9041462  54.5021692  59.5406079
  56.4343005  56.5642313  52.0049709  57.1363585  56.0494302  52.0622466
  56.3540488  56.8916464  52.8096584  56.5266766  56.5356539  52.1322501
  71.0857183  44.6584864  55.4181756  70.2485604  44.7287051  55.6529350
  71.0545414  44.6609359  54.5456058  70.9575465  44.6695091  55.3241304
  57.4821912  46.8017900  61.1330124  57.6542415  46.6923794  61.9815406
  58.0191269  47.4472305  60.8961316  57.5866916  46.8809901  61.2235221
  56.3846484  53.1749540  55.8148623  56.9244709  53.0320671  56.4851995
  55.7016430  53.5746291  56.1832649  56.3638638  53.2129211  55.9683044
  61.8279068  37.9187153  47.1061353  62.5565228  37.7403108  46.6599509
  61.9173961  38.7605233  47.3168531  61.9485730  38.0171031  47.0714871
  65.8087369  48.8540540  51.0093647  66.5644884  49.2872055  51.0482556
  65.9149693  48.2045310  51.5828283  65.9357539  48.8218024  51.0991673
  68.8467540  52.6813818  51.7596050  68.4102772  52.6850560  52.5155021
  68.5130455  53.3619317  51.3275627  68.7330160  52.7826273  51.8076883
  63.4196613  54.7222150  63.0839200  64.2037030  54.8352998  63.4494942
  63.2193208  53.8963288  63.2797886  63.5062639  54.6168870  63.1673586
  68.7665023  39.7227645  54.0025478  69.4090931  39.7925750  54.5887393
  69.0188043  39.0556868  53.5005020  68.8987155  39.6353994  54.0152757
  63.5767007  56.6332253  56.7305656  62.7782252  56.3931753  56.9879525
  64.0253018  56.6846645  57.4772704  63.5241618  56.6054644  56.8790580
  71.9811886  49.3994738  50.6515687  72.6428320  48.8385406  50.5511596
  71.3403298  48.9046768  50.9768378  71.9840753  49.2431147  50.6848027
  62.8688694  52.6964869  42.9596610  63.2839842  52.3649893  42.2681106
  62.0380623  52.4633771  42.8316747  62.8076702  52.6136125  42.8387458
  68.2676717  50.4160120  50.3927676  68.5032306  50.5605319  49.5654527
  68.4166280  51.1802528  50.7859190  68.3242520  50.5499174  50.3291280
  70.0967173  49.2561786  48.2297280  70.4275390  49.7889426  47.6237375
  70.6700261  49.3100674  48.8859231  70.2300852  49.3431355  48.2375062
  62.6367743  50.3792697  64.6225844  61.8440724  50.6936209  64.8078464
  62.7516671  50.5944166  63.7846629  62.5363154  50.4576534  64.5264179
  65.3099062  47.1026689  48.9120860  65.4045917  47.8415983  49.3660485
  64.6857906  46.6744164  49.3455424  65.2308093  47.1488009  49.0429007
  63.5651536  50.2812901  59.5611141  64.1390398  49.6440145  59.7159705
  63.4866340  50.2816984  58.6920798  63.6384771  50.1878013  59.4557552
  65.5622084  48.9475428  42.1457812  65.4802246  49.0177616  43.0112799
  66.2001804  49.5105172  41.9541553  65.6441921  49.0414399  42.2447761
  58.9215255  48.7136166  51.6132338  58.6634499  47.8807901  51.5863638
  58.9763738  48.9393779  50.7724839  58.8915033  48.6233938  51.4852475
  64.0016305  40.8164617  51.7136431  63.2972632  40.3273803  51.8720350
  64.0501279  40.8287091  50.8424875  63.9046357  40.7454265  51.6075771
  61.5623256  44.7397278  56.9589611  61.1737688  44.3151496  56.3041803
  60.8977954  44.9879428  57.4666638  61.4070183  44.7135999  56.9377479
  71.2046525  44.4972283  49.7337441  70.9483090  43.6852224  49.5435324
  72.0475839  44.5049850  49.5067629  71.2912550  44.3784280  49.6722259
  65.3849617  38.4371907  54.4713596  65.7660129  37.7550078  54.8581470
  64.5812902  38.1481509  54.2889260  65.3226079  38.2938955  54.5017652
  68.8871684  51.6521879  59.5695994  68.6510321  50.8209944  59.4508055
  69.5314913  51.6007486  60.1550838  68.9466355  51.5219567  59.6381888
  58.5370102  52.4417400  50.2838730  59.1744049  52.2029148  50.8290524
  58.9625174  52.6454559  49.5491891  58.6946268  52.4368410  50.2555888
  53.2282745  54.6805737  54.1673034  53.2686890  54.9520588  53.3392814
  53.7877269  55.2047645  54.5830822  53.3166091  54.7981492  54.1064922
  59.3441458  40.9426105  64.3376204  59.0294899  41.7125668  64.0745767
  59.0231390  40.3796361  63.7528431  59.2500377  40.9736374  64.2117554
  69.9108105  51.4366328  55.6324289  69.6053922  52.1694384  55.9937604
  69.1914320  51.0304257  55.3517075  69.7595447  51.4848061  55.6437426
  60.9191574  52.9189823  51.9632517  60.9930582  52.7564995  52.8174367
  61.7361080  53.1080012  51.7192998  61.0507933  52.9226565  52.0530542
  75.6109897  48.0759328  54.9592633  75.5434397  48.0955287  54.0895219
  75.5965559  48.9189655  55.1848303  75.5988653  48.2033063  54.8645110
  66.0206243  39.4794486  58.2833722  66.7659835  39.2904296  57.8697148
  65.6043548  40.0052724  57.7247579  66.0691218  39.5296631  58.1398295
  59.4596160  55.8824566  46.6945990  59.7494458  55.4913547  45.9705217
  60.1899641  56.0641271  47.1351265  59.6103044  55.8518380  46.6528797
  73.3968514  46.8503714  53.2339227  73.9476436  46.2171783  53.4736319
  73.3812630  47.3819107  53.9254731  73.4753711  46.8352663  53.3718085
  60.0490905  50.6842312  57.7799121  59.5502599  51.3958079  57.8584009
  60.8591129  51.0042978  57.7417283  60.0947012  50.8369160  57.7855689
  57.4002075  57.8591948  49.7606140  57.1802371  57.5689303  50.5532807
  57.1796597  57.2006903  49.2324052  57.3349670  57.7191657  49.7995049
  67.0996920  45.0900048  52.3443823  66.7561686  44.3690383  52.6951073
  67.1989963  44.8813899  51.5022182  67.0638963  44.9524251  52.2715503
  59.5670031  59.2321338  48.5436832  60.2194089  58.6997780  48.7727858
  58.8695640  58.8789990  48.9304706  59.5600749  59.1010861  48.6349000
  67.5609950  51.5525752  47.8867811  68.1267982  52.2118962  47.8026354
  66.9137853  51.8975450  48.3584214  67.5488706  51.7007693  47.9440568
  58.9757963  43.5423356  63.0761419  58.1657739  43.8481136  62.9651261
  59.4532650  44.2628938  63.1914003  58.9261442  43.6937957  63.0768490
  57.8349523  52.7569077  53.3244322  57.3130276  52.8969369  54.0096187
  58.2223543  51.9979741  53.5146439  57.8153224  52.6654601  53.4545398
  64.0316528  54.4964536  47.3104891  63.7903204  53.7632397  46.9031956
  64.2117861  55.0451393  46.6571224  64.0224152  54.4686928  47.1535114
  59.2615848  49.7873096  48.7225813  59.0658631  50.3947831  48.1286116
  59.4850194  49.0941040  48.2417487  59.2650489  49.7750622  48.5641894
  65.6187886  43.0091633  54.2203366  64.7798986  43.0352912  53.9841630
  65.6892253  43.6562368  54.8008713  65.5056279  43.1087759  54.2712483
  64.0657164  39.9077010  48.9530982  64.7683517  39.7084758  48.4750940
  63.8001353  39.1352952  49.2599826  64.1303796  39.7639976  48.9276424
  69.4945410  48.2159620  51.5064608  69.4079384  48.3715046  52.3599387
  69.0395890  48.8597695  51.1324013  69.4148666  48.3335375  51.5771715
  58.8285720  41.1712295  58.0061863  58.6368917  41.1867429  58.8561286
  59.6784316  41.3675969  57.9828518  58.9261442  41.2026646  58.1285158
  63.3671226  45.5370367  50.1290168  63.1205940  45.4566118  50.9626956
  63.6956349  44.7523835  49.9352695  63.3792469  45.4096632  50.2237691
  67.2619275  52.2453726  53.9176949  67.1233634  52.9434772  54.4225691
  66.4819272  52.0902383  53.5613131  67.1262501  52.3253893  53.9403223
  65.5997360  48.5450101  60.1699330  65.5945398  47.6729918  60.1741757
  66.3058354  48.7438271  59.6968786  65.7042364  48.4453976  60.1006366
  59.3268253  48.2727085  59.5413151  59.4711629  48.8528293  58.9056261
  59.6743902  48.6503382  60.2463005  59.3995714  48.4147789  59.5512146
  61.4988170  47.4717254  57.3238282  60.7511484  47.6648268  56.9186560
  61.6529696  46.6462473  57.0862403  61.4110598  47.3782365  57.2283688
  58.3996008  56.4629857  56.4074177  58.5485572  55.9032773  55.7547582
  59.1796010  56.5421859  56.7906696  58.5370102  56.3915423  56.3671127
  68.7572647  51.6031980  44.6793448  68.3779456  50.8169118  44.6722737
  68.0938893  52.1518837  44.5365092  68.6031122  51.5676804  44.6574245
  60.9249309  56.6344500  57.6858668  60.8492980  55.9653311  58.2409457
  60.8539168  57.3362288  58.1999334  60.9029916  56.6389407  57.8435516
  61.7389947  41.3667804  58.2133686  62.1962562  42.0991779  58.3406478
  61.8146276  40.9434270  58.9720942  61.8180917  41.4125043  58.3434762
  66.2117273  34.5457680  52.0827529  66.3300841  35.0034143  51.3494832
  66.0379449  33.7402941  51.7963746  66.2036444  34.4951452  51.9328463
  61.5819556  55.1545499  48.5182274  62.3469447  54.8855143  48.1964938
  61.4797646  54.6695509  49.2352337  61.6801051  55.0435064  48.5762102
  59.6172325  43.3569908  55.0575510  58.8268400  43.1761368  55.3792846
  60.0132948  42.5796861  55.0405804  59.5589202  43.2157369  55.1028058
  64.1038216  52.1857683  40.4982224  64.8711201  52.2457808  40.0888075
  63.6569525  51.6138124  40.0138542  64.1511643  52.1094258  40.3659934
  65.0016012  50.9912339  52.7834956  64.3261013  50.7597571  53.2848343
  65.0108388  50.3833521  52.1577061  64.9034516  50.8671264  52.7651108
  62.1310156  45.8330167  59.5399009  62.0669297  46.6940124  59.4119146
  62.2707343  45.5162161  58.7394560  62.1425626  45.9130334  59.4027222
  67.0032746  53.8477471  45.0145134  67.0852584  54.6544457  44.6906585
  67.4882488  53.8673430  45.7385907  67.0869904  53.9698133  45.0732032
  60.8129249  48.5262307  53.6815212  60.3891499  48.7266806  52.9454230
  60.6374105  47.6791155  53.7939512  60.7240130  48.4311088  53.5888902
  60.3140943  60.0412820  56.1436669  60.8036873  59.3423609  55.9612334
  59.7425175  59.7436690  56.7312726  60.3025473  59.8939043  56.2037710
  66.5107946  52.6074889  65.0963460  67.3242812  52.3360038  65.2568592
  66.3502913  52.3082429  64.2923656  66.6077895  52.5229815  65.0008866
  60.8077289  53.7889593  45.2676576  60.8770109  52.9304132  45.4069576
  61.5865744  54.0061474  44.9395600  60.9330139  53.6942457  45.2393733
  63.7880108  43.2908546  58.0358848  64.0022078  42.6519461  57.4822202
  63.1714008  43.7354370  57.6066710  63.7285438  43.2618690  57.8909279
  65.1984776  56.2127295  49.4813069  64.8064568  55.9094010  48.7635935
  65.3537849  57.0496385  49.2918023  65.1638366  56.2911131  49.3469566
  65.9519196  44.8997612  58.9742155  65.1395878  44.5923502  59.0555328
  66.4109131  44.4196612  59.5384867  65.8999581  44.7834104  59.0696749
  65.3624451  52.7777283  49.4219099  65.0039106  52.9491926  50.1983132
  64.8763162  53.2390489  48.8647098  65.2383148  52.8716255  49.4544369
  63.1794837  36.4008482  53.0246191  62.3088395  36.3747203  52.9779500
  63.4335178  36.2285674  52.2072036  63.0888397  36.3718626  52.8966328
  63.0472704  46.3057683  63.7570857  63.5172335  46.9299799  64.1438731
  63.0934584  45.6374658  64.3164072  63.1240580  46.2992363  63.8970929
  60.2043978  38.4114710  54.4819661  59.6882466  37.7194902  54.6071240
  59.6437906  39.0785487  54.4282260  60.0450491  38.4077968  54.4925727
  62.2736211  38.9507670  56.3112514  61.8867964  38.9756702  57.0926044
  61.7869148  38.3849349  55.8587030  62.1448720  38.8703421  56.3600417
  66.5229190  53.6681179  60.3686300  67.1608911  53.1741375  60.0348756
  65.8803282  53.5958580  59.7838527  66.5223417  53.5840188  60.2328655
  68.2486191  45.5170325  54.9352216  67.8213799  45.4296674  54.1800315
  67.6112244  45.6248101  55.5207060  68.0915798  45.5202985  54.9097657
  61.9393353  35.8374656  58.6022774  62.5686471  36.3734956  58.3243844
  62.1079215  35.7452015  59.4536339  62.0571147  35.9036018  58.6871302
  61.7407268  40.6245851  60.8749185  62.5680697  40.3531000  60.9307800
  61.7615114  41.4206692  61.2313003  61.8660118  40.7025605  60.9364368
  66.5783447  54.3600988  57.0091657  67.3675825  54.0090052  57.1293739
  66.7527045  55.1737376  56.7468291  66.7203729  54.4286845  56.9879525
  56.3176757  47.7709713  54.0619446  55.4764764  47.6713588  54.2698340
  56.5266765  48.5405194  54.4133767  56.2241450  47.8701757  54.1446761
  65.4317271  38.3710544  51.5708075  65.6366865  38.3032852  52.4165073
  65.1043695  39.1769366  51.5029253  65.4132519  38.4796485  51.6867731
  60.1293422  45.6991113  53.3117043  59.8256560  45.1447101  53.9127451
  59.4272843  45.8783323  52.8245078  59.9809632  45.6435895  53.3286749
  58.1911773  52.9140833  58.0189141  58.0832128  52.9242895  58.8851199
  58.4007555  53.7395614  57.8294095  58.2061884  53.0381908  58.1193233
  68.6850959  38.9242309  51.0510841  68.0725273  39.4112711  51.4364573
  68.7815134  38.2485800  51.5948492  68.6088857  38.8960617  51.1889699
  56.2085565  50.1653476  55.4811079  55.6173499  50.8062974  55.4514094
  56.9706589  50.5891093  55.4542378  56.2333826  50.3229314  55.4726226
  56.6046188  41.3255474  56.1479096  57.0647670  41.3994403  56.8854220
  56.6502295  42.1236728  55.7978918  56.6796743  41.4549621  56.2051853
  58.2529538  41.9922168  60.7151123  57.8615103  41.3455515  61.1506901
  58.4215401  42.5833604  61.3345379  58.2200448  41.9836436  60.8713829
  72.3275987  49.9959245  56.4788357  72.3859111  50.4445894  57.2248334
  71.6942455  50.4058058  56.0418437  72.2427282  50.1232980  56.5240905
  65.9675082  55.6162787  52.9143103  65.7694770  56.1053602  52.2199315
  65.3462793  55.8204029  53.4927237  65.8462646  55.7179326  52.8966326
  61.9462635  39.1797943  52.2885209  61.0998680  39.3520751  52.1626559
  61.9433768  38.3747287  52.6251037  61.8209785  39.0858972  52.3196336
  63.0160936  42.9573157  53.1547267  62.5420890  42.4314920  53.6652578
  63.3879072  42.4102630  52.5862128  63.0010825  42.7989154  53.1462414
  69.2797666  48.0175533  54.5654047  69.0395889  47.1781948  54.5696474
  69.7589674  48.0975700  55.2894821  69.3149850  47.9056933  54.6728850
  64.9444435  43.8509712  46.2173021  64.4167454  43.9338456  45.5278729
  65.4040144  44.5927584  46.2137665  64.9346286  43.9730374  46.1147716
  71.2802853  44.7976990  52.5183306  71.0412623  44.7572824  51.6804091
  71.4436755  45.6448142  52.6449028  71.2693157  44.9169075  52.4136788
  67.8848884  49.1826940  58.4488352  68.6083082  48.7299466  58.2699372
  67.6198846  49.4631605  57.6660679  67.9530157  49.1577908  58.3067067
  64.4981518  52.4213276  45.3482678  65.2215717  52.8871389  45.2047251
  64.0582109  52.4886885  44.5980275  64.5397210  52.4997112  45.2167459
  63.6667673  49.2810818  56.5983367  63.0524666  48.7368868  56.8932002
  64.1834958  48.7675054  56.1189183  63.6523335  49.1247227  56.5707595
  62.9063970  50.3515088  54.3327665  62.4791578  49.7264807  53.8993101
  62.8988915  50.0690010  55.1586673  62.8423111  50.2167869  54.3907493
  63.9646800  37.5541497  57.9566889  63.4687362  37.7505171  57.2658455
  64.7215862  37.9534165  57.7855690  64.0033625  37.6419230  57.8287026
  61.2349680  41.2283842  54.5470199  61.2592167  40.6943955  53.8582979
  61.4861153  40.7201151  55.2095790  61.2759599  41.0744746  54.5434844
  57.5151002  39.9554661  53.9275944  57.5549374  40.4563867  54.6410651
  56.6900667  40.0465054  53.6581867  57.3990528  40.0436477  53.9926482
  59.6980615  49.5215401  62.0296238  58.8476246  49.6587115  62.1653883
  59.8608743  48.7879179  62.4743940  59.5964479  49.4329502  62.1151837
  58.9365366  46.4715171  56.2249843  58.1057295  46.6388988  56.0185091
  58.8816883  46.0951121  57.0098728  58.8054780  46.4404902  56.3098371
  56.7449149  39.9624063  61.8606253  57.3701852  39.4186196  62.1335686
  56.2899629  39.4818981  61.2914044  56.7697409  39.8113545  61.8167847
  70.3184198  48.1453350  56.9518901  70.9102038  48.7850601  56.9837099
  70.7543192  47.4476387  57.2410968  70.4702629  48.1371701  56.9999734
  62.1477587  52.5670723  57.5776795  61.6402678  53.1206570  58.0217426
  61.8504234  52.6279013  56.7595570  62.0282472  52.6577034  57.5225252
  64.3139770  40.9324042  56.4201458  64.7394841  40.4796569  55.8084985
  63.6996763  40.3784113  56.6966246  64.2868415  40.7838019  56.3706483
  64.7585368  56.4833981  45.5080739  64.0414677  56.3094843  45.0427976
  65.4092105  56.2486553  44.9756225  64.7487218  56.4229773  45.3609957
  62.7533992  37.4039142  49.8292035  62.1102310  37.2536789  50.3977174
  62.4133399  37.1581488  49.0641140  62.6079070  37.3451265  49.7995050
  67.3433339  45.3598569  49.2522044  66.6724529  45.9028271  49.1235109
  68.0373089  45.8293424  49.0103739  67.3462206  45.5096840  49.1977572
  61.3920073  57.4995281  54.4833802  61.1685727  56.7414110  54.8517828
  60.9029916  57.5293302  53.7614242  61.2863522  57.3917506  54.4310543
  67.5061466  41.8154453  52.1612417  67.8589076  41.3884176  52.8358216
  66.6476268  41.7305296  52.2913493  67.4310911  41.7399193  52.2807428
  65.5044732  45.0789821  56.1097259  65.4842659  44.8973116  56.9632038
  65.5523933  45.9501840  56.0856843  65.5079373  45.1806360  56.2320554
  63.4491062  51.6677013  62.0345736  63.4086917  51.0226690  61.4490892
  64.2614380  51.6113631  62.3471148  63.5634216  51.5635980  61.9942685
  60.0398530  57.7195739  51.9370887  59.6258928  57.0569869  51.5474728
  60.7245904  57.8673598  51.4166581  60.0796901  57.6436397  51.8027384
  63.4063824  56.8785824  52.6894503  63.0080107  56.9888095  51.9215324
  62.7915043  57.0867891  53.2721063  63.2562713  56.9259393  52.6625803
  68.9385526  36.9372865  53.0896730  68.4316391  36.2302004  53.0217907
  69.7352960  36.6066053  53.2197806  68.9812766  36.7846016  53.0995725
  64.8549542  43.4439477  48.9870393  64.6263235  43.4672178  48.1448751
  65.1147618  42.6196944  49.1065404  64.8595730  43.3255557  48.8795591
  59.1368771  45.2973950  58.5895493  58.6247674  44.6895133  58.9480525
  58.9648267  46.0130542  59.0569469  59.0358408  45.3137249  58.7111717
  53.9834485  43.7411525  61.2397855  53.8137076  44.4012900  60.6946062
  53.5400435  43.9518086  61.9610344  53.8933819  43.8697507  61.2659485
  71.1405666  51.4537791  46.0737594  71.5239272  52.2029147  46.3035691
  70.3449780  51.7003611  45.8149583  71.0799449  51.6007485  46.0695168
  63.0137841  43.2198195  61.0297749  63.5709271  42.9912004  60.3976214
  62.6898906  43.9803860  60.7532961  63.0484251  43.2982031  60.8954246
  60.7320958  46.3065848  61.9949756  61.4832285  46.6217525  62.3089310
  60.9243535  46.1045019  61.1683678  60.8712372  46.3233230  61.9193152
  67.5806248  42.4339414  49.2373552  67.5800475  42.2788071  50.0957828
  67.3762429  43.2802401  49.1814937  67.5506026  42.5360035  49.3561491
  65.3047101  47.1136916  52.8909758  65.8000766  46.3959911  52.8513779
  64.4946876  46.8107714  52.7764245  65.2590994  46.9634562  52.8683484
  67.3698919  49.8640603  55.5786887  67.7953991  49.3415025  55.0257312
  67.0055839  50.4621441  55.0575510  67.3785522  49.8750830  55.4195897
  57.0052999  58.1604821  54.3384233  57.3199558  58.9741209  54.3462014
  57.4146413  57.7755040  55.0066392  57.1121097  58.2233523  54.4388324
  63.9577519  53.5774868  51.9088045  64.4288697  54.2915130  52.0778030
  64.2937697  52.9773618  52.4447914  64.0772634  53.5946332  52.0120421
  66.0454503  55.1876181  64.0880117  66.1551469  54.3984742  64.4436864
  66.3745400  55.0982117  63.2854455  66.1106909  55.0582034  64.0222508
  60.8747014  38.3502338  58.8646140  61.0074919  37.5533332  59.1927115
  61.2592167  38.8768741  59.4444415  60.9503343  38.3102255  58.9989642
  64.5951465  53.3692802  58.6715737  64.0472411  52.7450685  58.4035803
  65.0564494  53.5587074  57.9559817  64.5818675  53.3051852  58.5266168
  63.9479369  35.2732664  55.4627233  63.1425333  35.1630394  55.7795071
  63.8186104  35.3745120  54.6057099  63.8099502  35.2716334  55.3835273
  67.4045330  41.4378156  56.0566930  66.8208318  41.9387363  55.6444497
  67.7249624  40.9307712  55.4231253  67.3658505  41.4369991  55.9025437
  58.5335461  38.3461513  57.1124033  59.0779874  38.0052640  57.7028375
  58.5872396  39.2046975  57.2545318  58.6224580  38.4216773  57.2205907
  54.3466019  52.1077929  53.9862841  54.9510877  52.0673764  53.3576662
  54.1393332  52.9549081  54.0166897  54.4054917  52.2265932  53.8978958
  64.1609791  54.3743875  55.2025079  64.9808165  54.2306841  55.4641374
  63.8803869  54.9990073  55.7441516  64.2406535  54.4454227  55.3213018
  73.8323127  61.1184377  52.9220885  72.9761022  61.2792875  52.9730002
  73.8790780  60.2476441  52.9425946  73.7122238  61.0135179  52.9326951
  76.6774948  63.1776421  55.5652537  77.2230908  63.8561508  55.6246507
  76.6191824  63.0363882  54.7054118  76.7490862  63.2568423  55.4464598
  69.7949023  70.6665487  50.9520889  69.8959385  69.8565841  51.2618017
  69.1990768  70.5722434  50.3220568  69.7221561  70.5330515  50.9047128
  62.9914067  66.6885774  50.5773223  62.7564251  65.8553426  50.4705492
  63.1299708  66.9690440  49.7634424  62.9769729  66.6069277  50.4415578
  65.2904154  58.8571504  53.4757531  64.6709186  58.2664152  53.3067546
  65.1888018  59.4482940  52.8421854  65.1841830  58.8575587  53.3562520
  70.3370342  68.5955051  47.7255607  70.6586183  69.1360259  47.1216915
  70.9842438  68.0251823  47.8577897  70.4796397  68.5914226  47.6562643
  72.3872050  60.5971046  47.8089994  73.0852215  60.7759174  48.3011457
  72.7024382  60.0741386  47.1860383  72.5367387  60.5464818  47.7892004
  65.0173287  62.4023786  55.7201100  64.8931984  62.9886232  56.3550919
  65.6691572  61.9083982  56.0213375  65.0946937  62.4162591  55.8587029
  72.5759985  66.9841491  47.7969785  73.0153621  66.3758592  48.2424558
  72.4264648  66.6048865  47.0255250  72.6181451  66.8379962  47.7488953
  70.0431628  65.5785503  54.9988611  70.6880631  65.0857946  54.6799559
  70.2833405  65.7210290  55.8254689  70.1742213  65.5262945  55.0738144
  72.5817720  68.4240409  54.6495503  72.8640963  67.6291815  54.4282259
  73.3103880  68.9020996  54.6700564  72.7307283  68.3775006  54.6198519
  70.5598914  55.9663443  51.8911268  70.2302244  56.4174586  51.2214967
  69.8843915  55.8879606  52.4384275  70.4109350  56.0214578  51.8734492
  76.1769322  65.3368673  44.7500555  76.0920617  66.1929639  44.8950123
  76.6653705  65.0612997  45.4182714  76.2358219  65.4225994  44.8702636
  77.7675321  51.9548966  50.1360879  77.4528762  52.6452444  50.5681301
  77.2502263  51.8993748  49.4346380  77.6439792  52.0483854  50.0957828
  77.1087755  61.9553467  46.2498290  76.5799227  62.1713100  46.9095596
  77.6312775  62.6489605  46.1699259  77.1076208  62.0896604  46.3353889
  68.9987363  65.8516683  45.0505758  68.4144578  66.3566715  45.4571622
  68.5957458  65.6259070  44.3102350  68.8526667  65.8924932  45.0010783
  64.5531392  71.5671445  51.8529429  64.0698970  72.2921934  51.8289013
  65.3654710  71.8647575  51.9639587  64.6022139  71.7173798  51.8656708
  70.6245546  70.3603625  54.4579244  70.1072487  70.0011040  53.8540552
  71.3219937  69.8365800  54.4685310  70.6511127  70.2301313  54.3709502
  73.4564577  62.0982336  43.5274678  73.6960581  62.3060319  42.7150021
  73.7780418  61.2939844  43.6363623  73.5401735  62.0096437  43.4235231
  68.7654868  54.0275731  47.3734216  69.5200836  54.3954048  47.1351266
  68.5882402  54.4015286  48.1413396  68.8509346  54.1373919  47.4519105
  67.4075589  72.0827621  52.0049709  68.1096168  71.5679610  52.0622466
  67.3273072  72.4101772  52.8096584  67.4999349  72.0541847  52.1322501
  68.4554495  62.3203207  61.1330124  68.6274999  62.2109102  61.9815406
  68.9923853  62.9657613  60.8961316  68.5599499  62.3995209  61.2235221
  67.1211932  56.4346050  44.0712329  66.9387505  56.6517931  43.2453322
  67.9837545  56.5485063  44.1270944  67.2216522  56.4835948  43.9566816
  66.7326364  68.2733973  51.5135317  67.5715264  68.5056905  51.5609079
  66.7638133  67.4038284  51.4442353  66.8608082  68.1790919  51.5099962
  67.3579067  68.6934848  55.8148623  67.8977292  68.5505979  56.4851995
  66.6749014  69.0931599  56.1832649  67.3371221  68.7314519  55.9683044
  72.8011651  53.4372461  47.1061353  73.5297812  53.2588416  46.6599509
  72.8906544  54.2790541  47.3168531  72.9218313  53.5356339  47.0714871
  76.7819952  64.3725848  51.0093647  77.5377467  64.8057363  51.0482556
  76.8882277  63.7230618  51.5828283  76.9090123  64.3403332  51.0991673
  62.7616212  64.9135139  55.9683044  62.4954628  64.0974255  56.1274034
  62.7754776  64.9588294  55.0978560  62.7240935  64.7992043  55.8636526
  66.6673959  59.7120223  42.5834802  65.9532136  59.4258402  42.9957235
  67.1517928  60.0516849  43.2241190  66.6333323  59.7201873  42.7390437
  67.5114819  58.4513517  58.6150052  66.8186615  57.9810497  58.8610783
  68.1275146  58.2251821  59.1891759  67.4999349  58.3480649  58.7359204
  73.8421277  68.2150177  42.9596610  74.2572426  67.8835201  42.2681106
  73.0113207  67.9819079  42.8316747  73.7809286  68.1321433  42.8387458
  63.1709626  65.6993918  53.2494788  62.9885199  65.6740804  52.3967081
  63.9059295  66.1692856  53.2883697  63.2523690  65.7655280  53.1292707
  66.2355378  62.4178921  59.7576897  66.9595350  62.4031951  60.2441792
  66.3371514  63.1274276  59.2598865  66.3573587  62.5203624  59.7555684
  76.2831646  62.6211997  48.9120860  76.3778500  63.3601291  49.3660485
  75.6590490  62.1929472  49.3455424  76.2040676  62.6673317  49.0429007
  63.1380536  62.5787419  53.3993855  63.7154039  62.4423869  54.0386100
  62.4394598  62.1223203  53.6539439  63.1201558  62.4909685  53.5316145
  76.5354667  64.4660736  42.1457812  76.4534830  64.5362923  43.0112799
  77.1734388  65.0290480  41.9541553  76.6174505  64.5599707  42.2447761
  69.8947838  64.2321474  51.6132338  69.6367083  63.3993209  51.5863638
  69.9496321  64.4579087  50.7724839  69.8647616  64.1419246  51.4852475
  74.9748889  56.3349925  51.7136431  74.2705215  55.8459110  51.8720350
  75.0233863  56.3472399  50.8424875  74.8778940  56.2639573  51.6075771
  68.8682551  61.7859237  52.0997233  68.2932142  61.9451405  52.7361194
  68.4918227  61.1494646  51.6365684  68.7285363  61.7157050  52.1251791
  72.5355839  60.2582586  56.9589611  72.1470272  59.8336804  56.3041803
  71.8710538  60.5064736  57.4666638  72.3802767  60.2321307  56.9377479
  58.6139369  61.4299311  50.1141674  58.6999621  61.0531180  50.8955204
  59.2415167  61.0559757  49.6361632  58.7195920  61.3184794  50.1587151
  76.3582201  53.9557215  54.4713596  76.7392713  53.2735386  54.8581470
  75.5545485  53.6666817  54.2889260  76.2958663  53.8124263  54.5017652
  73.6394778  64.4881191  45.1566418  74.4535416  64.7796083  45.0449190
  73.5753919  63.8341053  44.5824711  73.7497517  64.4346385  45.0555256
  69.5102686  67.9602708  50.2838730  70.1476633  67.7214456  50.8290524
  69.9357757  68.1639867  49.5491891  69.6678852  67.9553718  50.2555888
  64.2015328  70.1991045  54.1673034  64.2419473  70.4705896  53.3392814
  64.7609852  70.7232953  54.5830822  64.2898674  70.3166800  54.1064922
  70.1505501  63.1804998  44.6213620  70.5350654  62.9612705  45.3730165
  69.9017121  64.0067943  44.7514696  70.1707573  63.2703144  44.7514696
  70.3174041  56.4611413  64.3376204  70.0027482  57.2310976  64.0745767
  69.9963974  55.8981669  63.7528431  70.2232960  56.4921682  64.2117554
  71.8924158  68.4375131  51.9632517  71.9663166  68.2750303  52.8174367
  72.7093664  68.6265320  51.7192998  72.0240516  68.4411873  52.0530542
  65.6529914  68.7832993  48.9926960  64.8268032  69.0294731  48.8661239
  65.7141906  68.7045074  49.8589018  65.5404081  68.8077942  49.1015905
  67.8705938  54.8501935  49.9522400  67.0028364  54.9224534  50.0180010
  68.1581142  55.6524013  50.1410375  67.7845686  54.9796082  49.9897167
  76.9938827  54.9979794  58.2833722  77.7392419  54.8089604  57.8697148
  76.5776132  55.5238032  57.7247579  77.0423801  55.0481939  58.1398295
  70.4328743  71.4009874  46.6945990  70.7227042  71.0098855  45.9705217
  71.1632224  71.5826579  47.1351265  70.5835628  71.3703688  46.6528797
  71.0223489  66.2027620  57.7799121  70.5235182  66.9143387  57.8584009
  71.8323713  66.5228286  57.7417283  71.0679595  66.3554468  57.7855689
  68.3734659  73.3777256  49.7606140  68.1534954  73.0874611  50.5532807
  68.1529181  72.7192211  49.2324052  68.3082253  73.2376965  49.7995049
  67.2851606  65.4650573  52.0261841  66.9964855  64.8388044  52.5607569
  68.1534954  65.4070860  52.0926522  67.3711858  65.3638117  52.1152796
  78.0729504  60.6085356  52.3443823  77.7294270  59.8875691  52.6951073
  78.1722547  60.3999207  51.5022182  78.0371547  60.4709559  52.2715503
  67.4883880  67.1045824  47.9504207  68.2429848  67.4858863  48.1639669
  66.8954492  67.5556967  48.4050903  67.5120593  67.2274651  48.0487085
  69.9490547  59.0608664  63.0761419  69.1390322  59.3666444  62.9651261
  70.4265233  59.7814246  63.1914003  69.8994025  59.2123265  63.0768490
  68.8082106  68.2754385  53.3244322  68.2862860  68.4154677  54.0096187
  69.1956127  67.5165049  53.5146439  68.7885807  68.1839909  53.4545398
  65.7973290  58.3260194  47.3939277  65.5098086  57.9561464  46.6571224
  66.4843758  58.7955049  47.1322982  65.8562188  58.3407163  47.2454352
  70.2348432  65.3058404  48.7225813  70.0391214  65.9133139  48.1286116
  70.4582777  64.6126348  48.2417487  70.2383073  65.2935930  48.5641894
  68.6326962  62.1913142  48.8406681  69.3549614  62.3554300  48.3810487
  68.1534955  62.9122807  48.7346021  68.6690693  62.3211372  48.7572295
  76.5920469  58.5276941  54.2203366  75.7531570  58.5538220  53.9841630
  76.6624837  59.1747676  54.8008713  76.4788863  58.6273067  54.2712483
  66.2834579  64.5971214  57.9460821  66.7955675  64.8755468  57.2969581
  65.9970921  65.3360508  58.3123634  66.3169442  64.7473568  57.9050699
  75.0389748  55.4262318  48.9530982  75.7416101  55.2270066  48.4750940
  74.7733936  54.6538260  49.2599826  75.1036380  55.2825284  48.9276424
  63.3701485  59.1041406  48.2424558  63.4717621  59.9067568  48.5705533
  64.1657372  58.9028742  47.9447638  63.5029390  59.1927305  48.2459913
  69.8018304  56.6897603  58.0061863  69.6101501  56.7052737  58.8561286
  70.6516900  56.8861277  57.9828518  69.8994026  56.7211954  58.1285158
  64.1865217  59.2188584  55.9845679  64.0450709  58.3672525  56.1090187
  64.4705780  59.2617245  55.1607885  64.2073063  59.0988334  55.8813303
  74.3403809  61.0555675  50.1290168  74.0938524  60.9751426  50.9626956
  74.6688932  60.2709143  49.9352695  74.3525053  60.9281940  50.2237691
  70.3000837  63.7912393  59.5413151  70.4444212  64.3713601  58.9056261
  70.6476485  64.1688690  60.2463005  70.3728298  63.9333097  59.5512146
  72.4720754  62.9902562  57.3238282  71.7244068  63.1833576  56.9186560
  72.6262279  62.1647781  57.0862403  72.3843182  62.8967673  57.2283688
  72.7122531  56.8853112  58.2133686  73.1695145  57.6177087  58.3406478
  72.7878860  56.4619578  58.9720942  72.7913501  56.9310350  58.3434762
  64.9555522  57.1318932  59.3023130  64.4197712  56.5199290  59.6183897
  65.0173287  57.7067068  59.9556796  64.8851155  57.1265860  59.4458556
  77.1849857  50.0642988  52.0827529  77.3033425  50.5219451  51.3494832
  77.0112033  49.2588249  51.7963746  77.1769028  50.0136760  51.9328463
  72.5552139  70.6730807  48.5182274  73.3202030  70.4040451  48.1964938
  72.4530229  70.1880817  49.2352337  72.6533635  70.5620371  48.5762102
  70.5904909  58.8755216  55.0575510  69.8000984  58.6946676  55.3792846
  70.9865532  58.0982169  55.0405804  70.5321785  58.7342677  55.1028058
  75.0770800  67.7042991  40.4982224  75.8443785  67.7643116  40.0888075
  74.6302109  67.1323432  40.0138542  75.1244227  67.6279566  40.3659934
  75.9748595  66.5097646  52.7834956  75.2993597  66.2782879  53.2848343
  75.9840971  65.9018829  52.1577061  75.8767100  66.3856572  52.7651108
  73.1042739  61.3515475  59.5399009  73.0401880  62.2125432  59.4119146
  73.2439927  61.0347469  58.7394560  73.1158209  61.4315642  59.4027222
  71.7861833  64.0447615  53.6815212  71.3624082  64.2452114  52.9454230
  71.6106688  63.1976463  53.7939512  71.6972714  63.9496396  53.5888902
  67.0744278  64.5399666  49.1143184  67.2308897  64.4746469  49.9699176
  67.4144871  65.3148219  48.9021864  67.1477513  64.6448864  49.2097778
  73.6123423  63.9157550  47.9836548  74.1538968  63.4127931  48.4475168
  73.9269982  63.8622744  47.1726033  73.7387820  63.8336971  47.9320360
  71.7809872  69.3074901  45.2676576  71.8502693  68.4489440  45.4069576
  72.5598328  69.5246782  44.9395600  71.9062722  69.2127765  45.2393733
  74.7612692  58.8093854  58.0358848  74.9754662  58.1704768  57.4822202
  74.1446591  59.2539678  57.6066710  74.7018021  58.7803998  57.8909279
  63.6478540  61.7234617  49.4303951  64.0277504  62.1419162  48.7664219
  63.0733904  62.3048072  49.7372795  63.6189864  61.8712475  49.3780692
  76.9251780  60.4182919  58.9742155  76.1128462  60.1108810  59.0555328
  77.3841715  59.9381920  59.5384867  76.8732165  60.3019412  59.0696749
  76.3357035  68.2962591  49.4219099  75.9771689  68.4677234  50.1983132
  75.8495745  68.7575797  48.8647098  76.2115732  68.3901562  49.4544369
  74.1527421  51.9193790  53.0246191  73.2820979  51.8932511  52.9779500
  74.4067762  51.7470982  52.2072036  74.0620981  51.8903934  52.8966328
  71.1245400  63.9761757  41.9619334  71.4137925  64.7526639  42.2362908
  71.2117199  63.4650488  42.6633833  71.1799656  64.0153675  42.1061832
  71.1776561  53.9300018  54.4819661  70.6615050  53.2380210  54.6071240
  70.6170490  54.5970795  54.4282260  71.0183074  53.9263276  54.4925727
  73.2468795  54.4692978  56.3112514  72.8600548  54.4942010  57.0926044
  72.7601732  53.9034657  55.8587030  73.1181304  54.3888729  56.3600417
  72.9125936  51.3559964  58.6022774  73.5419054  51.8920264  58.3243844
  73.0811799  51.2637323  59.4536339  73.0303731  51.4221326  58.6871302
  72.7139851  56.1431159  60.8749185  73.5413281  55.8716307  60.9307800
  72.7347697  56.9392000  61.2313003  72.8392701  56.2210913  60.9364368
  67.2909341  63.2895021  54.0619446  66.4497348  63.1898896  54.2698340
  67.4999349  64.0590502  54.4133767  67.1974034  63.3887065  54.1446761
  64.7684908  60.9114558  51.8904197  64.3741606  60.9857570  51.1154306
  64.2125025  61.2972505  52.4412558  64.6287720  60.9796333  51.8571856
  76.4049855  53.8895852  51.5708075  76.6099448  53.8218160  52.4165073
  76.0776279  54.6954674  51.5029253  76.3865103  53.9981793  51.6867731
  71.1026006  61.2176421  53.3117043  70.7989143  60.6632409  53.9127451
  70.4005427  61.3968631  52.8245078  70.9542216  61.1621203  53.3286749
  70.1592103  58.5276940  47.8761745  70.4351837  57.8095853  47.4639313
  70.7590772  59.1261860  47.6682851  70.2885368  58.5097311  47.7842506
  69.1644357  68.4326141  58.0189141  69.0564712  68.4428203  58.8851199
  69.3740138  69.2580922  57.8294095  69.1794468  68.5567216  58.1193233
  73.6602624  56.1990458  46.1508340  74.1146370  56.3701018  46.8756185
  74.1342669  55.5858568  45.7506116  73.7970944  56.1341343  46.1982102
  67.1818149  65.6838784  55.4811079  66.5906082  66.3248282  55.4514094
  67.9439172  66.1076401  55.4542378  67.2066410  65.8414622  55.4726226
  67.5778772  56.8440781  56.1479096  68.0380253  56.9179711  56.8854220
  67.6234878  57.6422035  55.7978918  67.6529327  56.9734929  56.2051853
  69.2262121  57.5107476  60.7151123  68.8347687  56.8640823  61.1506901
  69.3947984  58.1018912  61.3345379  69.1933032  57.5021744  60.8713829
  71.0015644  62.9032992  47.2553347  71.7457688  63.2907268  47.4936297
  71.1476340  62.0590417  47.4193835  71.1326229  62.8363465  47.3147317
  72.9195219  54.6983251  52.2885209  72.0731264  54.8706059  52.1626559
  72.9166351  53.8932595  52.6251037  72.7942369  54.6044280  52.3196336
  73.9893519  58.4758465  53.1547267  73.5153474  57.9500227  53.6652578
  74.3611655  57.9287938  52.5862128  73.9743408  58.3174462  53.1462414
  64.3666550  60.4729972  58.5230813  65.2292163  60.3725681  58.4368142
  64.0358333  59.8924681  57.9616385  64.4451746  60.3721599  58.4276218
  75.9177019  59.3695020  46.2173021  75.3900038  59.4523764  45.5278729
  76.3772727  60.1112891  46.2137665  75.9078870  59.4915682  46.1147716
  67.7268335  59.2972421  55.1841231  67.1021406  59.3090813  54.5767183
  67.3913930  59.7732596  55.8332471  67.5853827  59.3690938  55.1897799
  67.9110084  57.6397540  41.2413916  67.5622889  58.2917265  41.7045465
  67.4306530  57.6254653  40.5137787  67.7880328  57.7340593  41.2025007
  64.4394011  67.3572881  56.6244995  63.9093936  66.6665320  56.6739970
  64.7119104  67.3483067  55.7957704  64.4018733  67.2540013  56.5092411
  75.4714102  67.9398584  45.3482678  76.1948300  68.4056697  45.2047251
  75.0314693  68.0072193  44.5980275  75.5129794  68.0182420  45.2167459
  74.6400257  64.7996126  56.5983367  74.0257250  64.2554176  56.8932002
  75.1567542  64.2860362  56.1189183  74.6255919  64.6432535  56.5707595
  73.8796554  65.8700396  54.3327665  73.4524162  65.2450114  53.8993101
  73.8721498  65.5875318  55.1586673  73.8155695  65.7353176  54.3907493
  66.9959081  60.9065569  57.4016099  67.1552568  60.1508893  57.8067821
  66.8151974  61.4556508  58.0556837  66.9924440  60.8759383  57.5578805
  74.9379384  53.0726804  57.9566889  74.4419945  53.2690479  57.2658455
  75.6948446  53.4719473  57.7855690  74.9766209  53.1604538  57.8287026
  72.2082263  56.7469150  54.5470199  72.2324751  56.2129263  53.8582979
  72.4593737  56.2386459  55.2095790  72.2492182  56.5930054  54.5434844
  59.7189853  64.0300645  53.9813343  59.6133302  63.9847490  53.1165427
  58.9690073  64.3754426  54.2627628  59.5925456  64.0741554  53.8950673
  68.4883586  55.4739969  53.9275944  68.5281957  55.9749175  54.6410651
  67.6633250  55.5650362  53.6581867  68.3723112  55.5621785  53.9926482
  69.9097949  61.9900478  56.2249843  69.0789879  62.1574296  56.0185091
  69.8549466  61.6136429  57.0098728  69.7787364  61.9590210  56.3098371
  67.7181732  55.4809371  61.8606253  68.3434436  54.9371504  62.1335686
  67.2632212  55.0004289  61.2914044  67.7429993  55.3298853  61.8167847
  68.2833993  60.2656070  46.7539960  68.4236954  60.7628534  47.4568602
  68.7816526  59.5642364  46.8954174  68.3775074  60.2358049  46.8791539
  68.3134215  61.1323181  44.0832537  68.9479295  61.7283606  44.0181999
  68.3959826  60.8326639  44.8978407  68.4190766  61.1764089  44.1935624
  69.8913198  57.0637156  44.0577979  70.2129039  56.5840239  43.4037241
  70.1540142  57.8736802  43.8668791  69.9779224  57.1127054  43.9333471
  75.2872353  56.4509350  56.4201458  75.7127425  55.9981877  55.8084985
  74.6729346  55.8969421  56.6966246  75.2600999  56.3023327  56.3706483
  64.8187203  63.3291022  47.3522083  65.3279433  63.9255529  47.7333389
  65.2921475  63.0616995  46.6698503  64.9630579  63.3776837  47.3076606
  73.7266576  52.9224450  49.8292035  73.0834894  52.7722097  50.3977174
  73.3865983  52.6766795  49.0641140  73.5811653  52.8636573  49.7995050
  67.1777735  59.9647280  50.2195264  66.4589724  60.3811413  50.4868127
  67.5490097  60.5301519  49.6686902  67.1269667  60.1096562  50.1778071
  76.4777316  60.5975129  56.1097259  76.4575243  60.4158424  56.9632038
  76.5256516  61.4687148  56.0856843  76.4811957  60.6991668  56.2320554
  72.9524309  59.0045280  45.5568643  72.3589149  59.3262277  45.0053210
  72.9899587  58.1586376  45.3489749  72.8698698  58.9269608  45.4451414
  75.8282126  58.9624785  48.9870393  75.5995819  58.9857486  48.1448751
  76.0880202  58.1382252  49.1065404  75.8328314  58.8440865  48.8795591
  70.1101354  60.8159258  58.5895493  69.5980257  60.2080441  58.9480525
  69.9380850  61.5315850  59.0569469  70.0090991  60.8322557  58.7111717
  64.9567069  59.2596833  61.2397855  64.7869659  59.9198208  60.6946062
  64.5133019  59.4703394  61.9610344  64.8666403  59.3882815  61.2659485
  68.8826888  57.5001331  50.2824589  69.3584255  57.8618411  49.6474770
  68.3815488  58.1557799  50.5624732  68.8792247  57.6495520  50.2301330
  73.9870425  58.7383502  61.0297749  74.5441855  58.5097312  60.3976214
  73.6631490  59.4989168  60.7532961  74.0216835  58.8167339  60.8954246
  61.8569134  62.1643699  56.4986345  61.3095853  61.4944344  56.6167213
  62.6461512  61.7973547  56.5629812  61.8921317  62.0108685  56.5255046
  70.9253542  59.6442531  43.6497973  71.3052506  59.6622160  42.8649088
  70.1846138  60.0896520  43.5288820  70.8722379  59.7124305  43.5161541
  78.5538832  57.9524722  49.2373552  78.5533058  57.7973379  50.0957828
  78.3495012  58.7987709  49.1814937  78.5238610  58.0545343  49.3561491
  60.6156103  61.3764506  53.6532368  60.4377864  60.9241115  54.3787284
  60.3275125  62.1790668  53.8370846  60.5469056  61.4287064  53.7875871
  76.2779684  62.6322224  52.8909758  76.7733349  61.9145219  52.8513779
  75.4679460  62.3293022  52.7764245  76.2323577  62.4819870  52.8683484
  71.7238296  66.4820037  45.0406763  70.9149618  66.1586711  44.9940072
  72.2313204  65.7753259  44.9735012  71.6787962  66.3301353  45.0237057
  62.3528573  63.9092230  50.7654127  61.4874092  63.8977921  50.6536898
  62.4527389  63.7222453  51.6125266  62.2402740  63.8798291  50.8743072
  67.9785583  73.6790129  54.3384233  68.2932142  74.4926517  54.3462014
  68.3878996  73.2940348  55.0066392  68.0853681  73.7418831  54.4388324
  74.9310102  69.0960176  51.9088045  75.4021281  69.8100438  52.0778030
  75.2670281  68.4958926  52.4447914  75.0505217  69.1131640  52.0120421
  71.8479597  53.8687646  58.8646140  71.9807503  53.0718640  59.1927115
  72.2324750  54.3954049  59.4444415  71.9235926  53.8287563  58.9989642
  74.9211953  50.7917972  55.4627233  74.1157916  50.6815702  55.7795071
  74.7918688  50.8930428  54.6057099  74.7832085  50.7901642  55.3835273
  78.3777913  56.9563464  56.0566930  77.7940902  57.4572671  55.6444497
  78.6982207  56.4493020  55.4231253  78.3391088  56.9555299  55.9025437
  70.9172712  55.8704059  46.3325604  71.7388407  56.0402372  46.0907299
  70.4542363  56.0251320  45.6091902  70.9703874  55.9185792  46.1897249
  69.5068044  53.8646821  57.1124033  70.0512457  53.5237948  57.7028375
  69.5604980  54.7232283  57.2545318  69.5957164  53.9402081  57.2205907
  65.3198603  67.6263237  53.9862841  65.9243460  67.5859071  53.3576662
  65.1125915  68.4734389  54.0166897  65.3787500  67.7451240  53.8978958
  60.5549885  66.6097855  53.8561764  60.4574163  65.7994126  54.1651821
  61.3378755  66.5889648  53.4708032  60.6566022  66.4864945  53.8448627
  34.9917340   1.0369303  35.6198164  34.2400239   0.6584841  35.3914209
  35.4403351   1.0687736  34.8716974  34.9467006   0.9854910  35.4755666
  40.4442299   1.4594672  31.0483711  40.1093668   2.1371594  30.6127933
  40.9569170   1.0699983  30.4600582  40.4707881   1.5019250  30.8970502
  39.9846591   3.4108941  36.9894822  40.3685970   3.9795839  36.4499598
  39.9205732   2.6858451  36.5100638  40.0320018   3.3884404  36.8388685
  36.5702096   1.0487695  37.8860936  36.6712459   0.2388049  38.1958064
  35.9743841   0.9544641  37.2560615  36.4974634   0.9152723  37.8387175
  36.4102835   5.9665284  39.2875792  37.0540291   6.4078448  39.6771951
  36.7359091   5.1618710  39.2006051  36.5534664   5.9130479  39.3321270
  29.7667140  -2.9292019  37.5113270  29.5317324  -3.7624366  37.4045539
  29.9052781  -2.6487353  36.6974471  29.7522803  -3.0108515  37.3755625
  37.1123415  -1.0222741  34.6595654  37.4339256  -0.4817534  34.0556962
  37.7595512  -1.5925970  34.7917944  37.2549470  -1.0263566  34.5902689
  31.3284465   1.9493652  38.7869476  30.8452043   2.6744142  38.7629060
  32.1407783   2.2469782  38.8979634  31.3775212   2.0996006  38.7996755
  37.3998619   0.7425833  41.3919290  36.8825560   0.3833248  40.7880599
  38.0973010   0.2188007  41.4025357  37.4264200   0.6123521  41.3049549
  41.0562211   1.1920647  47.3535464  41.1445557   1.0046787  48.2013674
  41.4851923   0.5458076  46.9540310  41.1324313   1.0683654  47.4207215
  38.6232671   0.4751807  46.3353126  38.0603505   0.0624417  46.8592787
  39.3853694   0.4004712  46.7546269  38.6527119   0.4029207  46.4746126
  34.1828662   2.4649828  38.9389756  34.8849241   1.9501817  38.9962512
  34.1026145   2.7923979  39.7436631  34.2752422   2.4364054  39.0662548
  33.5079437  -1.3443820  38.4475364  34.3468337  -1.1120887  38.4949126
  33.5391207  -2.2139509  38.3782399  33.6361155  -1.4386874  38.4440009
  34.1332140  -0.9242945  42.7488669  34.6730365  -1.0671814  43.4192042
  33.4502087  -0.5246194  43.1172696  34.1124294  -0.8863274  42.9023091
  41.1682270   0.6229666  50.0179247  41.9522687   0.7360514  50.3834989
  40.9678865  -0.2029197  50.2137933  41.2548295   0.5176385  50.1013633
  41.3252663   2.5339768  43.6645703  40.5267909   2.2939268  43.9219571
  41.7738675   2.5854161  44.4112750  41.2727275   2.5062159  43.8130627
  29.9462699  -3.9183875  40.1834835  29.7638272  -3.9436989  39.3307127
  30.6812368  -3.4484937  40.2223744  30.0276763  -3.8522512  40.0632754
  36.2855759  -1.6575085  37.2178777  36.9229706  -1.8963337  37.7630571
  36.7110831  -1.4537926  36.4831938  36.4431925  -1.6624074  37.1895935
  30.9768401   0.5813252  41.1013081  31.0172547   0.8528103  40.2732861
  31.5362925   1.1055160  41.5170869  31.0651747   0.6989007  41.0404969
  38.6677231  -1.1802662  38.8972564  38.7416239  -1.3427490  39.7514413
  39.4846737  -0.9912472  38.6533045  38.7993590  -1.1765920  38.9870589
  32.4282988  -0.8344799  35.9267007  31.6021105  -0.5883062  35.8001286
  32.4894979  -0.9132718  36.7929065  32.3157155  -0.8099850  36.0355951
  35.1487732   3.7599464  36.6946187  34.9288028   3.4696818  37.4872854
  34.9282254   3.1014419  36.1664099  35.0835326   3.6199172  36.7335095
  37.3155688   5.1328853  35.4776879  37.9679746   4.6005296  35.7067905
  36.6181297   4.7797506  35.8644753  37.3086406   5.0018376  35.5689047
  34.2636953  -2.5131969  34.8844253  35.0182921  -2.1318930  35.0979716
  33.6707565  -2.0620825  35.3390950  34.2873666  -2.3903142  34.9827132
  35.5835179  -1.3423408  40.2584369  35.0615933  -1.2023116  40.9436233
  35.9709200  -2.1012743  40.4486486  35.5638880  -1.4337884  40.3885445
  41.7802184   0.3972052  34.2444937  41.5388860  -0.3360088  33.8372002
  41.9603517   0.9458909  33.5911271  41.7709808   0.3694443  34.0875160
  36.1481665   2.3637372  43.3414224  36.2971229   1.8040288  42.6887629
  36.9281667   2.4429374  43.7246743  36.2855758   2.2922938  43.3011173
  38.6734965   2.5352015  44.6198715  38.5978637   1.8660826  45.1749503
  38.6024825   3.2369804  45.1339381  38.6515572   2.5396923  44.7775563
  39.3305212   1.0553014  35.4522321  40.0955103   0.7862658  35.1304985
  39.2283302   0.5703025  36.1692384  39.4286708   0.9442579  35.5102149
  38.0626600   5.9420335  43.0776716  38.5522530   5.2431124  42.8952380
  37.4910832   5.6444205  43.6652773  38.0511130   5.7946559  43.1377757
  38.5562946  -0.3102891  32.2016622  38.6255766  -1.1688353  32.3409623
  39.3351401  -0.0931010  31.8735647  38.6815796  -0.4050027  32.1733780
  42.9470433   2.1134810  36.4153116  42.5550225   1.8101525  35.6975982
  43.1023505   2.9503900  36.2258069  42.9124023   2.1918647  36.2809613
  35.9397430  -1.1851651  44.9529188  35.8317785  -1.1749589  45.8191246
  36.1493212  -0.3596871  44.7634142  35.9547541  -1.0610577  45.0533280
  43.7160738   1.5170303  39.8483150  43.5180427   2.0061117  39.1539361
  43.0948449   1.7211544  40.4267283  43.5948303   1.6186841  39.8306373
  31.2147084  -2.2604911  43.5585042  30.6847009  -2.9512472  43.6080017
  31.4872178  -2.2694726  42.7297750  31.1771807  -2.3637780  43.4432458
  26.4942926  -5.5877147  40.9153390  26.3886376  -5.6330303  40.0505474
  25.7443146  -5.2423367  41.1967675  26.3678529  -5.5436239  40.8290720
  39.8963244  -1.5321762  44.5116842  39.3888335  -0.9785915  44.9557473
  39.5989890  -1.4713472  43.6935617  39.7768129  -1.4415451  44.4565299
  42.5071024   2.3841496  32.4420786  41.7900334   2.2102358  31.9768023
  43.1577762   2.1494068  31.9096272  42.4972875   2.3237288  32.2950003
  39.1405729   3.4002796  41.4173849  38.9171384   2.6421626  41.7857875
  38.6515573   3.4300818  40.6954289  39.0349178   3.2925021  41.3650590
  37.7884186   3.6203255  38.8710934  37.3744585   2.9577385  38.4814775
  38.4731561   3.7681113  38.3506628  37.8282558   3.5443913  38.7367431
  41.1549480   2.7793340  39.6234550  40.7565764   2.8895610  38.8555370
  40.5400700   2.9875406  40.2061110  41.0048370   2.8266908  39.5965850
  34.7538656   4.0612336  41.2724280  35.0685215   4.8748725  41.2802061
  35.1632069   3.6762555  41.9406439  34.8606754   4.1241039  41.3728371
  43.7940160   1.0883696  51.0220164  43.9037126   0.2992257  51.3776911
  44.1231057   0.9989633  50.2194502  43.8592566   0.9589549  50.9562554
  32.0951676  -1.9914555  40.9202888  32.6996533  -2.0318721  40.2916709
  31.8878989  -1.1443403  40.9506944  32.1540573  -1.8726553  40.8319004
  41.9095448   0.2751390  42.1365125  42.7293822   0.1314356  42.3981421
  41.6289526   0.8997589  42.6781563  41.9892192   0.3461742  42.2553065
  27.3302958  -3.0079938  40.7901811  27.2327236  -3.8183666  41.0991868
  28.1131828  -3.0288144  40.4048079  27.4319095  -3.1312848  40.7788674
  58.3809099   7.9316242  35.1008002  58.3503103   8.7860878  35.2726271
  58.9790447   7.6311534  35.6594145  58.4646257   8.0132738  35.2082804
  51.5808783   7.0191893  39.8560932  50.7246679   7.1800391  39.9070049
  51.6276437   6.1483957  39.8765993  51.4607895   6.9142694  39.8666998
  54.8902500  13.2878418  49.4621388  55.5969267  12.7930449  49.5908323
  55.0790435  13.7287500  48.7324046  55.0230406  13.2796769  49.3730434
  51.4174883  16.9779980  31.0483711  51.0826252  17.6556902  30.6127933
  51.9301753  16.5885291  30.4600582  51.4440464  17.0204558  30.8970502
  50.9579174  18.9294249  36.9894822  51.3418554  19.4981147  36.4499598
  50.8938316  18.2043759  36.5100638  51.0052602  18.9069712  36.8388685
  54.4260604   9.0783936  42.4992584  54.9716565   9.7569023  42.5586553
  54.3677481   8.9371397  41.6394165  54.4976519   9.1575938  42.3804644
  56.2025673  10.5068544  33.3726312  56.0865199  11.2576230  33.8018450
  56.9981560  10.2492497  33.6222399  56.3030263  10.5803390  33.4730403
  40.7399724  12.5893289  37.5113270  40.5049908  11.7560942  37.4045539
  40.8785364  12.8697955  36.6974471  40.7255386  12.5076793  37.3755625
  43.0389811   4.7579020  40.4097578  42.4194843   4.1671667  40.2407592
  42.9373675   5.3490455  39.7761901  42.9327487   4.7583102  40.2902567
  50.1357707   6.4978562  34.7430041  50.8337871   6.6766689  35.2351504
  50.4510039   5.9748901  34.1200430  50.2853044   6.4472334  34.7232051
  42.7658944   8.3031301  42.6541147  42.6417641   8.8893747  43.2890965
  43.4177229   7.8091497  42.9553422  42.8432593   8.3170106  42.7927076
  47.7917285  11.4793018  41.9328658  48.4366288  10.9865462  41.6139606
  48.0319062  11.6217805  42.7594736  47.9227870  11.4270461  42.0078191
  50.3303376  14.3247924  41.5835550  50.6126619  13.5299330  41.3622306
  51.0589537  14.8028512  41.6040611  50.4792940  14.2782521  41.5538565
  48.3084570   1.8670958  38.8251315  47.9787900   2.3182102  38.1555014
  47.6329572   1.7887122  39.3724322  48.1595007   1.9222093  38.8074539
  53.9254979  11.2376188  31.6840601  53.8406274  12.0937155  31.8290170
  54.4139362  10.9620512  32.3522761  53.9843876  11.3233509  31.8042683
  54.8573412   7.8560982  33.1838337  54.3284883   8.0720616  33.8435643
  55.3798432   8.5497121  33.1039306  54.8561865   7.9904119  33.2693936
  60.3121465  13.4307286  38.5571381  59.4819168  13.6417930  38.7204798
  60.2630717  12.6044341  38.2813665  60.1828200  13.3396893  38.5408746
  46.7473020  11.7524199  31.9845804  46.1630235  12.2574230  32.3911668
  46.3443115  11.5266586  31.2442396  46.6012324  11.7932447  31.9350830
  52.0294794  16.7105955  47.3535464  52.1178140  16.5232095  48.2013674
  52.4584507  16.0643384  46.9540310  52.1056897  16.5868962  47.4207215
  51.2050234   7.9989851  30.4614725  51.4446238   8.2067835  29.6490068
  51.5266075   7.1947360  30.5703670  51.2887392   7.9103952  30.3575278
  59.8075423   6.0777687  42.3521802  58.9703844   6.1479874  42.5869397
  59.7763654   6.0802182  41.4796105  59.6793706   6.0887914  42.2581350
  46.2040152   8.2210723  48.0670171  46.3760656   8.1116617  48.9155452
  46.7409510   8.8665128  47.8301363  46.3085156   8.3002724  48.1575268
  44.8697589   2.3353566  31.0052376  44.6873162   2.5525446  30.1793369
  45.7323202   2.4492578  31.0610990  44.9702178   2.3843464  30.8906863
  54.5305609  10.2733364  37.9433694  55.2863124  10.7064878  37.9822603
  54.6367933   9.6238133  38.5168330  54.6575779  10.2410848  38.0331719
  57.5685780  14.1006641  38.6936097  57.1321012  14.1043383  39.4495068
  57.2348695  14.7812140  38.2615674  57.4548400  14.2019097  38.7416929
  52.1414854  16.1414974  50.0179247  52.9255270  16.2545822  50.3834989
  51.9411448  15.3156111  50.2137933  52.2280879  16.0361693  50.1013633
  40.5101869  10.8142654  42.9023091  40.2440284   9.9981771  43.0614081
  40.5240433  10.8595809  42.0318606  40.4726591  10.6999559  42.7976573
  44.4159616   5.6127738  29.5174849  43.7017793   5.3265918  29.9297282
  44.9003585   5.9524364  30.1581237  44.3818979   5.6209388  29.6730484
  45.2600475   4.3521032  45.5490099  44.5672272   3.8818012  45.7950830
  45.8760803   4.1259337  46.1231806  45.2485005   4.2488164  45.6699251
  60.7030126  10.8187561  37.5855734  61.3646560  10.2578229  37.4851642
  60.0621538  10.3239592  37.9108425  60.7058994  10.6623970  37.6188074
  51.5906934  14.1157692  29.8936657  52.0058082  13.7842716  29.2021153
  50.7598864  13.8826594  29.7656794  51.5294943  14.0328948  29.7727505
  40.9195283  11.6001433  40.1834835  40.7370856  11.5748319  39.3307127
  41.6544952  12.0700371  40.2223744  41.0009347  11.6662795  40.0632754
  56.9894957  11.8352943  37.3267723  57.2250546  11.9798142  36.4994573
  57.1384521  12.5995351  37.7199236  57.0460760  11.9691998  37.2631327
  43.9841034   8.3186436  46.6916944  44.7081007   8.3039467  47.1781839
  44.0857171   9.0281791  46.1938912  44.1059243   8.4211139  46.6895731
  58.8185414  10.6754609  35.1637327  59.1493631  11.2082249  34.5577421
  59.3918502  10.7293497  35.8199278  58.9519093  10.7624178  35.1715108
  51.3585984  11.7985521  51.5565891  50.5658965  12.1129033  51.7418511
  51.4734911  12.0136989  50.7186676  51.2581394  11.8769357  51.4604226
  54.0317303   8.5219512  35.8460907  54.1264157   9.2608806  36.3000532
  53.4076146   8.0936987  36.2795471  53.9526333   8.5680832  35.9769054
  52.2869777  11.7005724  46.4951188  52.8608638  11.0632969  46.6499752
  52.2084580  11.7009807  45.6260845  52.3603011  11.6070836  46.3897598
  40.8866193   8.4794934  40.3333902  41.4639696   8.3431385  40.9726147
  40.1880255   8.0230718  40.5879486  40.8687214   8.3917200  40.4656191
  54.2840324  10.3668252  29.0797859  54.2020487  10.4370439  29.9452846
  54.9220045  10.9297996  28.8881599  54.3660161  10.4607223  29.1787808
  47.6433495  10.1328990  38.5472385  47.3852740   9.3000724  38.5203684
  47.6981978  10.3586603  37.7064885  47.6133273  10.0426761  38.4192522
  46.6168207   7.6866752  39.0337280  46.0417799   7.8458920  39.6701241
  46.2403884   7.0502161  38.5705730  46.4771020   7.6164565  39.0591838
  50.2841496   6.1590101  43.8929658  49.8955929   5.7344319  43.2381849
  49.6196194   6.4072251  44.4006685  50.1288424   6.1328822  43.8717526
  36.3625026   7.3306827  37.0481720  36.4485278   6.9538695  37.8295250
  36.9900824   6.9567272  36.5701679  36.4681577   7.2192309  37.0927198
  51.3880434  10.3888706  32.0906465  52.2021073  10.6803599  31.9789237
  51.3239576   9.7348568  31.5164758  51.4983173  10.3353901  31.9895302
  57.6089924  13.0714702  46.5036041  57.3728562  12.2402767  46.3848101
  58.2533153  13.0200309  47.0890885  57.6684595  12.9412390  46.5721934
  47.8991158   9.0812513  31.5553667  48.2836310   8.8620220  32.3070212
  47.6502778   9.9075459  31.6854743  47.9193230   9.1710659  31.6854743
  48.0659698   2.3618928  51.2716251  47.7513139   3.1318491  51.0085814
  47.7449631   1.7989184  50.6868478  47.9718617   2.3929197  51.1457601
  58.6326345  12.8559151  42.5664335  58.3272162  13.5887208  42.9277651
  57.9132561  12.4497080  42.2857121  58.4813687  12.9040884  42.5777472
  64.3328137   9.4952151  41.8932680  64.2652637   9.5148111  41.0235266
  64.3183800  10.3382479  42.1188350  64.3206894   9.6225886  41.7985156
  43.4015571  14.6840509  35.9267007  42.5753689  14.9302246  35.8001286
  43.4627562  14.6052590  36.7929065  43.2889738  14.7085458  36.0355951
  45.6191595   0.7509450  36.8862447  44.7514020   0.8232049  36.9520056
  45.9066799   1.5531529  37.0750422  45.5331343   0.8803597  36.9237214
  62.1186755   8.2696538  40.1679274  62.6694676   7.6364607  40.4076366
  62.1030870   8.8011930  40.8594778  62.1971951   8.2545486  40.3058132
  48.7709145  12.1035135  44.7139167  48.2720839  12.8150903  44.7924056
  49.5809370  12.4235802  44.6757330  48.8165252  12.2561984  44.7195736
  45.0337263  11.3658088  38.9601888  44.7450512  10.7395559  39.4947616
  45.9020611  11.3078375  39.0266569  45.1197515  11.2645632  39.0492843
  55.8215161   6.5092871  39.2783870  55.4779927   5.7883207  39.6291120
  55.9208203   6.3006723  38.4362228  55.7857204   6.3717075  39.2055550
  45.2369536  13.0053339  34.8844253  45.9915504  13.3866378  35.0979716
  44.6440149  13.4564483  35.3390950  45.2606250  13.1282166  34.9827132
  56.2828190  12.9718575  34.8207858  56.8486223  13.6311785  34.7366401
  55.6356093  13.3168274  35.2924260  56.2706946  13.1200517  34.8780615
  47.6976203   4.9616179  50.0101466  46.8875979   5.2673959  49.8991308
  48.1750890   5.6821762  50.1254050  47.6479682   5.1130781  50.0108537
  43.5458947   4.2267709  34.3279323  43.2583743   3.8568980  33.5911271
  44.2329415   4.6962564  34.0663028  43.6047844   4.2414678  34.1794399
  52.7534768  15.9157360  34.2444937  52.5121444  15.1825220  33.8372002
  52.9336101  16.4644217  33.5911271  52.7442392  15.8879751  34.0875160
  46.3812619   8.0920657  35.7746728  47.1035271   8.2561815  35.3150534
  45.9020611   8.8130322  35.6686068  46.4176349   8.2218887  35.6912342
  54.3406126   4.4284456  41.1543413  53.5017227   4.4545735  40.9181676
  54.4110493   5.0755192  41.7348760  54.2274520   4.5280582  41.2052530
  44.0320235  10.4978730  44.8800868  44.5441332  10.7762983  44.2309628
  43.7456578  11.2368024  45.2463681  44.0655098  10.6481083  44.8390746
  58.2163650   9.6352443  38.4404655  58.1297625   9.7907869  39.2939434
  57.7614130  10.2790518  38.0664060  58.1366907   9.7528198  38.5111762
  41.1187142   5.0048922  35.1764604  41.2203278   5.8075083  35.5045580
  41.9143028   4.8036257  34.8787685  41.2515047   5.0934820  35.1799960
  47.5503961   2.5905118  44.9401910  47.3587158   2.6060253  45.7901333
  48.4002557   2.7868793  44.9168564  47.6479683   2.6219470  45.0625204
  41.9350874   5.1196100  42.9185726  41.7936366   4.2680040  43.0430234
  42.2191437   5.1624760  42.0947932  41.9558720   4.9995850  42.8153350
  52.0889466   6.9563190  37.0630214  51.8424180   6.8758941  37.8967003
  52.4174589   6.1716658  36.8692742  52.1010710   6.8289455  37.1577737
  55.9837515  13.6646549  40.8516996  55.8451874  14.3627595  41.3565738
  55.2037513  13.5095206  40.4953177  55.8480742  13.7446716  40.8743270
  54.3215600   9.9642925  47.1039377  54.3163639   9.0922741  47.1081804
  55.0276594  10.1631094  46.6308833  54.4260604   9.8646799  47.0346413
  48.0486493   9.6919909  46.4753197  48.1929869  10.2721117  45.8396307
  48.3962142  10.0696205  47.1803052  48.1213955   9.8340613  46.4852192
  50.2206411   8.8910077  44.2578329  49.4729725   9.0841091  43.8526607
  50.3747936   8.0655297  44.0202450  50.1328838   8.7975188  44.1623735
  57.4790888  13.0224803  31.6133495  57.0997696  12.2361941  31.6062784
  56.8157133  13.5711660  31.4705139  57.3249363  12.9869627  31.5914292
  50.4608188   2.7860628  45.1473733  50.9180802   3.5184602  45.2746525
  50.5364517   2.3627093  45.9060989  50.5399158   2.8317866  45.2774809
  42.7041179   3.0326447  46.2363176  42.1683368   2.4206806  46.5523944
  42.7658944   3.6074583  46.8896843  42.6336812   3.0273375  46.3798603
  48.3390566   4.7762732  41.9915557  47.5486640   4.5954192  42.3132893
  48.7351188   3.9989684  41.9745851  48.2807442   4.6350193  42.0368105
  52.8256456  13.6050506  27.4322270  53.5929442  13.6650631  27.0228122
  52.3787765  13.0330947  26.9478589  52.8729884  13.5287082  27.2999981
  53.7234252  12.4105162  39.7175003  53.0479254  12.1790394  40.2188390
  53.7326628  11.8026345  39.0917108  53.6252757  12.2864087  39.6991155
  50.8528396   7.2522991  46.4739056  50.7887537   8.1132947  46.3459192
  50.9925584   6.9354984  45.6734607  50.8643866   7.3323157  46.3367269
  55.7250987  15.2670294  31.9485181  55.8070824  16.0737280  31.6246632
  56.2100729  15.2866253  32.6725954  55.8088144  15.3890957  32.0072079
  49.5347490   9.9455130  40.6155259  49.1109739  10.1459629  39.8794277
  49.3592345   9.0983978  40.7279558  49.4458370   9.8503912  40.5228949
  44.8229935  10.4407182  36.0483231  44.9794554  10.3753984  36.9039223
  45.1630528  11.2155734  35.8361911  44.8963170  10.5456380  36.1437825
  51.3609079   9.8165065  34.9176594  51.9024625   9.3135446  35.3815215
  51.6755638   9.7630260  34.1066080  51.4873477   9.7344486  34.8660406
  55.2326187  14.0267712  52.0303507  56.0461052  13.7552861  52.1908639
  55.0721153  13.7275252  51.2263702  55.3296135  13.9422638  51.9348912
  52.5098349   4.7101370  44.9698895  52.7240318   4.0712284  44.4162249
  51.8932248   5.1547193  44.5406757  52.4503678   4.6811513  44.8249326
  53.9203017  17.6320118  36.4153116  53.5282808  17.3286833  35.6975982
  54.0756089  18.4689208  36.2258069  53.8856607  17.7103955  36.2809613
  41.3964196   7.6242132  36.3643998  41.7763161   8.0426677  35.7004266
  40.8219561   8.2055588  36.6712842  41.3675521   7.7719991  36.3120739
  54.6737437   6.3190435  45.9082202  53.8614119   6.0116325  45.9895375
  55.1327371   5.8389435  46.4724914  54.6217822   6.2026927  46.0036796
  54.0842691  14.1970107  36.3559146  53.7257346  14.3684750  37.1323179
  53.5981402  14.6583312  35.7987145  53.9601388  14.2909078  36.3884415
  51.7690944   7.7250506  50.6910904  52.2390575   8.3492623  51.0778778
  51.8152824   7.0567482  51.2504119  51.8458820   7.7185186  50.8310976
  55.2447431  15.0874003  47.3026347  55.8827151  14.5934198  46.9688803
  54.6021522  15.0151403  46.7178574  55.2441657  15.0033011  47.1668702
  56.9704431   6.9363149  41.8692263  56.5432039   6.8489497  41.1140362
  56.3330484   7.0440924  42.4547107  56.8134038   6.9395809  41.8437704
  55.3001687  15.7793811  43.9431704  56.0894066  15.4282876  44.0633785
  55.4745285  16.5930199  43.6808338  55.4421969  15.8479668  43.9219572
  45.0394998   9.1902537  40.9959493  44.1983004   9.0906411  41.2038387
  45.2485006   9.9598017  41.3473813  44.9459690   9.2894580  41.0786808
  42.5170565   6.8122074  38.8244243  42.1227263   6.8865085  38.0494353
  41.9610682   7.1980020  39.3752605  42.3773377   6.8803848  38.7911903
  48.8511663   7.1183936  40.2457090  48.5474800   6.5639924  40.8467498
  48.1491083   7.2976146  39.7585124  48.7027873   7.0628718  40.2626796
  47.9077760   4.4284456  34.8101792  48.1837494   3.7103368  34.3979360
  48.5076429   5.0269376  34.6022898  48.0371024   4.4104826  34.7182553
  44.9303806  11.5846299  42.4151126  44.3391739  12.2255797  42.3854141
  45.6924829  12.0083916  42.3882425  44.9552066  11.7422137  42.4066273
  45.3264429   2.7448297  43.0819143  45.7865910   2.8187226  43.8194267
  45.3720535   3.5429551  42.7318965  45.4014984   2.8742444  43.1391900
  46.9747778   3.4114992  47.6491170  46.5833343   2.7648339  48.0846948
  47.1433641   4.0026427  48.2685426  46.9418689   3.4029260  47.8053876
  61.0494227  11.4152069  43.4128404  61.1077351  11.8638717  44.1588380
  60.4160695  11.8250882  42.9758484  60.9645522  11.5425803  43.4580952
  54.6893322  17.0355611  39.8483150  54.4913011  17.5246425  39.1539361
  54.0681033  17.2396852  40.4267283  54.5680886  17.1372149  39.8306373
  48.7501300   8.8040507  34.1893394  49.4943345   9.1914784  34.4276344
  48.8961996   7.9597933  34.3533882  48.8811885   8.7370980  34.2487364
  51.7379176   4.3765981  40.0887314  51.2639130   3.8507743  40.5992625
  52.1097312   3.8295454  39.5202175  51.7229065   4.2181977  40.0802461
  42.1152206   6.3737487  45.4570859  42.9777819   6.2733197  45.3708189
  41.7843989   5.7932197  44.8956432  42.1937403   6.2729114  45.3616265
  58.0015907   9.4368356  41.4994094  57.7614130   8.5974772  41.5036521
  58.4807914   9.5168523  42.2234868  58.0368090   9.3249756  41.6068896
  53.6662676   5.2702535  33.1513067  53.1385694   5.3531279  32.4618776
  54.1258384   6.0120407  33.1477712  53.6564526   5.3923198  33.0487763
  60.0021094   6.2169814  39.4523353  59.7630864   6.1765648  38.6144138
  60.1654995   7.0640966  39.5789074  59.9911397   6.3361899  39.3476835
  56.6067124  10.6019763  45.3828398  57.3301323  10.1492289  45.2039418
  56.3417086  10.8824429  44.6000726  56.6748397  10.5770731  45.2407114
  45.4753992   5.1979936  42.1181278  44.8507062   5.2098328  41.5107230
  45.1399587   5.6740112  42.7672518  45.3339484   5.2698453  42.1237846
  45.6595741   3.5405055  28.1753963  45.3108545   4.1924780  28.6385512
  45.1792187   3.5262168  27.4477834  45.5365985   3.6348108  28.1365054
  42.1879668  13.2580397  43.5585042  41.6579592  12.5672835  43.6080017
  42.4604761  13.2490582  42.7297750  42.1504390  13.1547528  43.4432458
  53.2199758  13.8406099  32.2822724  53.9433957  14.3064212  32.1387298
  52.7800349  13.9079709  31.5320322  53.2615451  13.9189936  32.1507506
  52.3885913  10.7003641  43.5323414  51.7742906  10.1561691  43.8272049
  52.9053198  10.1867878  43.0529230  52.3741576  10.5440050  43.5047642
  51.6282211  11.7707911  41.2667712  51.2009819  11.1457630  40.8333148
  51.6207155  11.4882833  42.0926719  51.5641352  11.6360692  41.3247540
  44.7444738   6.8073084  44.3356146  44.9038224   6.0516408  44.7407868
  44.5637631   7.3564024  44.9896884  44.7410097   6.7766898  44.4918852
  49.9567920   2.6476666  41.4810246  49.9810407   2.1136778  40.7923026
  50.2079394   2.1393975  42.1435837  49.9977839   2.4937570  41.4774891
  37.4675510   9.9308161  40.9153390  37.3618959   9.8855005  40.0505474
  36.7175730  10.2761941  41.1967675  37.3411113   9.9749069  40.8290720
  46.2369242   1.3747484  40.8615990  46.2767614   1.8756691  41.5750698
  45.4118907   1.4657878  40.5921914  46.1208768   1.4629300  40.9266529
  48.4198855  10.9408224  48.9636285  47.5694486  11.0779938  49.0993930
  48.5826983  10.2072002  49.4083987  48.3182719  10.8522325  49.0491884
  47.6583606   7.8907994  43.1589889  46.8275536   8.0581812  42.9525138
  47.6035123   7.5143945  43.9438775  47.5273021   7.8597725  43.2438418
  45.4667389   1.3816887  48.7946300  46.0920093   0.8379020  49.0675732
  45.0117869   0.9011804  48.2254091  45.4915650   1.2306368  48.7507894
  46.0319650   6.1663585  33.6880007  46.1722611   6.6636050  34.3908649
  46.5302182   5.4649880  33.8294221  46.1260731   6.1365564  33.8131586
  46.0619872   7.0330696  31.0172584  46.6964952   7.6291121  30.9522046
  46.1445483   6.7334154  31.8318454  46.1676423   7.0771605  31.1275671
  59.0402438   9.5646174  43.8858948  59.6320278  10.2043424  43.9177146
  59.4761432   8.8669210  44.1751015  59.1920869   9.5564524  43.9339781
  47.6398855   2.9644672  30.9918026  47.9614696   2.4847754  30.3377288
  47.9025799   3.7744318  30.8008838  47.7264880   3.0134570  30.8673518
  50.8695828  13.9863546  44.5116842  50.3620919  14.5399393  44.9557473
  50.5722474  14.0471836  43.6935617  50.7500713  14.0769857  44.4565299
  42.5672860   9.2298537  34.2862130  43.0765089   9.8263045  34.6673436
  43.0407132   8.9624511  33.6038550  42.7116236   9.2784353  34.2416653
  53.4803608  17.9026804  32.4420786  52.7632918  17.7287666  31.9768023
  54.1310346  17.6679376  31.9096272  53.4705458  17.8422596  32.2950003
  56.0651579   6.7791392  36.1862091  55.3942769   7.3221095  36.0575156
  56.7591329   7.2486248  35.9443785  56.0680447   6.9289664  36.1317618
  44.9263392   5.8654796  37.1535310  44.2075381   6.2818928  37.4208174
  45.2975754   6.4309034  36.6026949  44.8755323   6.0104077  37.1118117
  54.2262973   6.4982645  43.0437306  54.2060900   6.3165940  43.8972085
  54.2742173   7.3694663  43.0196890  54.2297614   6.5999183  43.1660601
  52.1709302  13.0869837  48.9685783  52.1305157  12.4419514  48.3830939
  52.9832621  13.0306454  49.2811195  52.2852456  12.9828803  48.9282732
  52.1282064  18.2978648  39.6234550  51.7298347  18.4080918  38.8555370
  51.5133284  18.5060714  40.2061110  51.9780953  18.3452216  39.5965850
  50.7009966   4.9052796  32.4908690  50.1074805   5.2269792  31.9393257
  50.7385244   4.0593891  32.2829796  50.6184355   4.8277124  32.3791461
  53.5767783   4.8632300  35.9210440  53.3481476   4.8865002  35.0788798
  53.8365859   4.0389767  36.0405451  53.5813971   4.7448380  35.8135638
  47.8587011   6.7166773  45.5235540  47.3465914   6.1087956  45.8820572
  47.6866507   7.4323366  45.9909516  47.7576648   6.7330072  45.6451764
  42.7052726   5.1604348  48.1737902  42.5355316   5.8205723  47.6286109
  42.2618676   5.3710910  48.8950391  42.6152059   5.2890331  48.1999532
  46.6312545   3.4008846  37.2164636  47.1069911   3.7625926  36.5814817
  46.1301145   4.0565314  37.4964779  46.6277904   3.5503035  37.1641377
  59.8623907  12.8730614  33.0077641  60.2457512  13.6221971  33.2375738
  59.0668020  13.1196434  32.7489630  59.8017689  13.0200308  33.0035214
  51.7356081   4.6391018  47.9637796  52.2927512   4.4104827  47.3316261
  51.4117146   5.3996683  47.6873008  51.7702492   4.7174854  47.8294293
  39.6054790   8.0651214  43.4326392  39.0581510   7.3951860  43.5507260
  40.3947168   7.6981062  43.4969859  39.6406974   7.9116200  43.4595093
  49.4539199   7.7258671  48.9289803  50.2050526   8.0410348  49.2429357
  49.6461775   7.5237842  48.1023725  49.5930613   7.7426053  48.8533199
  48.6739198   5.5450046  30.5838020  49.0538163   5.5629675  29.7989135
  47.9331794   5.9904035  30.4628867  48.6208036   5.6131821  30.4501588
  38.3641760   7.2772022  40.5872415  38.1863521   6.8248631  41.3127331
  38.0760782   8.0798183  40.7710893  38.2954713   7.3294580  40.7215918
  54.0265341   8.5329739  39.8249805  54.5219006   7.8152734  39.7853826
  53.2165117   8.2300537  39.7104292  53.9809234   8.3827385  39.8023531
  49.4723952  12.3827552  31.9746810  48.6635275  12.0594226  31.9280119
  49.9798861  11.6760775  31.9075058  49.4273619  12.2308869  31.9577104
  40.1014230   9.8099746  37.6994174  39.2359749   9.7985436  37.5876945
  40.2013046   9.6229968  38.5465313  39.9888397   9.7805807  37.8083118
  56.0917160  11.2833427  42.5126934  56.5172231  10.7607849  41.9597359
  55.7274080  11.8814264  41.9915557  56.1003762  11.2943654  42.3535944
  52.6795759  14.9967691  38.8428092  53.1506937  15.7107954  39.0118077
  53.0155938  14.3966441  39.3787961  52.7990874  15.0139155  38.9460467
  54.7672744  16.6069004  51.0220164  54.8769709  15.8177565  51.3776911
  55.0963640  16.5174941  50.2194502  54.8325150  16.4774857  50.9562554
  53.3169706  14.7885625  45.6055784  52.7690651  14.1643509  45.3375849
  53.7782734  14.9779897  44.8899864  53.3036915  14.7244675  45.4606215
  48.6658369   1.7711574  33.2665651  49.4874063   1.9409887  33.0247346
  48.2028020   1.9258835  32.5431949  48.7189531   1.8193307  33.1237296
  43.0684260  13.5270753  40.9202888  43.6729117  13.4866587  40.2916709
  42.8611572  14.3741905  40.9506944  43.1273157  13.6458755  40.8319004
  52.8828032  15.7936698  42.1365125  53.7026406  15.6499664  42.3981421
  52.6022109  16.4182897  42.6781563  52.9624775  15.8647050  42.2553065
  38.3035542  12.5105370  40.7901811  38.2059820  11.7001642  41.0991868
  39.0864412  12.4897164  40.4048079  38.4051678  12.3872460  40.7788674
  69.3541682  23.4501549  35.1008002  69.3235687  24.3046186  35.2726271
  69.9523031  23.1496842  35.6594145  69.4378840  23.5318046  35.2082804
  62.5541367  22.5377200  39.8560932  61.6979263  22.6985699  39.9070049
  62.6009021  21.6669264  39.8765993  62.4340478  22.4328002  39.8666998
  65.8635084  28.8063726  49.4621388  66.5701851  28.3115757  49.5908323
  66.0523019  29.2472808  48.7324046  65.9962989  28.7982076  49.3730434
  62.3907467  32.4965288  31.0483711  62.0558835  33.1742209  30.6127933
  62.9034337  32.1070599  30.4600582  62.4173048  32.5389866  30.8970502
  61.9311758  34.4479557  36.9894822  62.3151137  35.0166455  36.4499598
  61.8670899  33.7229067  36.5100638  61.9785185  34.4255020  36.8388685
  65.3993188  24.5969244  42.4992584  65.9449148  25.2754331  42.5586553
  65.3410064  24.4556705  41.6394165  65.4709102  24.6761246  42.3804644
  58.5167263  32.0858311  37.8860936  58.6177626  31.2758664  38.1958064
  57.9209008  31.9915257  37.2560615  58.4439802  31.9523339  37.8387175
  67.1758257  26.0253851  33.3726312  67.0597783  26.7761538  33.8018450
  67.9714143  25.7677805  33.6222399  67.2762846  26.0988698  33.4730403
  54.0122395  20.2764328  40.4097578  53.3927426  19.6856975  40.2407592
  53.9106258  20.8675763  39.7761901  53.9060070  20.2768410  40.2902567
  59.0588582  30.0147875  34.6595654  59.3804423  30.5553082  34.0556962
  59.7060679  29.4444646  34.7917944  59.2014637  30.0107050  34.5902689
  61.1090290  22.0163869  34.7430041  61.8070455  22.1951997  35.2351504
  61.4242623  21.4934209  34.1200430  61.2585627  21.9657642  34.7232051
  53.7391528  23.8216609  42.6541147  53.6150225  24.4079055  43.2890965
  54.3909812  23.3276805  42.9553422  53.8165177  23.8355414  42.7927076
  61.2978226  28.4034315  34.7309832  61.7371861  27.7951415  35.1764605
  61.1482889  28.0241688  33.9595297  61.3399691  28.2572786  34.6829000
  58.7649869  26.9978326  41.9328658  59.4098871  26.5050769  41.6139606
  59.0051646  27.1403113  42.7594736  58.8960454  26.9455769  42.0078191
  61.3035960  29.8433232  41.5835550  61.5859203  29.0484638  41.3622306
  62.0322120  30.3213820  41.6040611  61.4525524  29.7967829  41.5538565
  59.2817154  17.3856266  38.8251315  58.9520484  17.8367410  38.1555014
  58.6062156  17.3072429  39.3724322  59.1327590  17.4407401  38.8074539
  64.8987562  26.7561496  31.6840601  64.8138857  27.6122462  31.8290170
  65.3871945  26.4805820  32.3522761  64.9576460  26.8418817  31.8042683
  66.4893562  13.3741789  37.0700926  66.1747003  14.0645268  37.5021348
  65.9720503  13.3186571  36.3686427  66.3658032  13.4676678  37.0297875
  65.8305995  23.3746290  33.1838337  65.3017467  23.5905923  33.8435643
  66.3531015  24.0682428  33.1039306  65.8294448  23.5089427  33.2693936
  71.2854048  28.9492594  38.5571381  70.4551751  29.1603238  38.7204798
  71.2363301  28.1229649  38.2813665  71.1560784  28.8582201  38.5408746
  57.7205603  27.2709507  31.9845804  57.1362818  27.7759538  32.3911668
  57.3175698  27.0451894  31.2442396  57.5744907  27.3117755  31.9350830
  59.3463786  31.7796449  41.3919290  58.8290728  31.4203864  40.7880599
  60.0438177  31.2558623  41.4025357  59.3729367  31.6494137  41.3049549
  63.0027378  32.2291263  47.3535464  63.0910724  32.0417403  48.2013674
  63.4317090  31.5828692  46.9540310  63.0789480  32.1054270  47.4207215
  60.5697838  31.5122423  46.3353126  60.0068673  31.0995032  46.8592787
  61.3318861  31.4375328  46.7546269  60.5992286  31.4399823  46.4746126
  62.1782818  23.5175159  30.4614725  62.4178821  23.7253143  29.6490068
  62.4998659  22.7132668  30.5703670  62.2619976  23.4289260  30.3575278
  57.4873108  15.4468555  34.3074263  58.2419076  15.8146872  34.0691313
  57.3100643  15.8208109  35.0753443  57.5727586  15.5566742  34.3859152
  70.7808007  21.5962995  42.3521802  69.9436428  21.6665182  42.5869397
  70.7496238  21.5987490  41.4796105  70.6526289  21.6073222  42.2581350
  57.1772736  23.7396031  48.0670171  57.3493239  23.6301925  48.9155452
  57.7142093  24.3850436  47.8301363  57.2817740  23.8188032  48.1575268
  55.8430173  17.8538874  31.0052376  55.6605746  18.0710754  30.1793369
  56.7055786  17.9677886  31.0610990  55.9434762  17.9028771  30.8906863
  56.0797308  30.1127671  42.7488669  56.6195533  29.9698802  43.4192042
  55.3967254  30.5124422  43.1172696  56.0589461  30.1507342  42.9023091
  61.5229892  14.8565284  34.0401400  62.2516052  14.6781239  33.5939556
  61.6124785  15.6983364  34.2508578  61.6436554  14.9549163  34.0054917
  65.5038192  25.7918672  37.9433694  66.2595707  26.2250186  37.9822603
  65.6100517  25.1423441  38.5168330  65.6308363  25.7596155  38.0331719
  68.5418364  29.6191949  38.6936097  68.1053595  29.6228691  39.4495068
  68.2081279  30.2997448  38.2615674  68.4280984  29.7204405  38.7416929
  63.1147437  31.6600282  50.0179247  63.8987854  31.7731129  50.3834989
  62.9144032  30.8341419  50.2137933  63.2013463  31.5547001  50.1013633
  51.4834453  26.3327962  42.9023091  51.2172868  25.5167078  43.0614081
  51.4973017  26.3781117  42.0318606  51.4459175  26.2184867  42.7976573
  68.4615846  16.6605777  40.9365525  69.1041755  16.7303881  41.5227440
  68.7138867  15.9935000  40.4345067  68.5937979  16.5732125  40.9492804
  55.3892200  21.1313046  29.5174849  54.6750377  20.8451226  29.9297282
  55.8736168  21.4709672  30.1581237  55.3551563  21.1394696  29.6730484
  56.2333059  19.8706340  45.5490099  55.5404856  19.4003320  45.7950830
  56.8493386  19.6444645  46.1231806  56.2217589  19.7673472  45.6699251
  63.2717831  33.5710384  43.6645703  62.4733076  33.3309884  43.9219571
  63.7203842  33.6224777  44.4112750  63.2192442  33.5432775  43.8130627
  71.6762710  26.3372869  37.5855734  72.3379144  25.7763537  37.4851642
  71.0354122  25.8424899  37.9108425  71.6791577  26.1809278  37.6188074
  62.5639518  29.6343000  29.8936657  62.9790666  29.3028024  29.2021153
  61.7331447  29.4011902  29.7656794  62.5027526  29.5514256  29.7727505
  67.9627541  27.3538251  37.3267723  68.1983130  27.4983450  36.4994573
  68.1117104  28.1180659  37.7199236  68.0193344  27.4877306  37.2631327
  54.9573618  23.8371744  46.6916944  55.6813590  23.8224775  47.1781839
  55.0589754  24.5467099  46.1938912  55.0791827  23.9396447  46.6895731
  69.7917997  26.1939917  35.1637327  70.1226214  26.7267557  34.5577421
  70.3651085  26.2478805  35.8199278  69.9251676  26.2809486  35.1715108
  62.3318567  27.3170829  51.5565891  61.5391548  27.6314340  51.7418511
  62.4467495  27.5322297  50.7186676  62.2313978  27.3954665  51.4604226
  65.0049886  24.0404820  35.8460907  65.0996741  24.7794114  36.3000532
  64.3808730  23.6122295  36.2795471  64.9258916  24.0866140  35.9769054
  63.2602360  27.2191032  46.4951188  63.8341222  26.5818277  46.6499752
  63.1817164  27.2195115  45.6260845  63.3335595  27.1256144  46.3897598
  65.2572908  25.8853560  29.0797859  65.1753070  25.9555747  29.9452846
  65.8952628  26.4483303  28.8881599  65.3392745  25.9792531  29.1787808
  58.6166079  25.6514298  38.5472385  58.3585323  24.8186032  38.5203684
  58.6714562  25.8771910  37.7064885  58.5865857  25.5612069  38.4192522
  63.6967129  17.7542748  38.6476478  62.9923456  17.2651934  38.8060397
  63.7452103  17.7665223  37.7764922  63.5997181  17.6832396  38.5415817
  57.5900791  23.2052060  39.0337280  57.0150382  23.3644228  39.6701241
  57.2136467  22.5687469  38.5705730  57.4503603  23.1349873  39.0591838
  61.2574080  21.6775409  43.8929658  60.8688512  21.2529627  43.2381849
  60.5928778  21.9257559  44.4006685  61.1021007  21.6514130  43.8717526
  70.8997349  21.4350414  36.6677488  70.6433914  20.6230355  36.4775371
  71.7426663  21.4427981  36.4407676  70.9863374  21.3162411  36.6062305
  65.0800441  15.3750038  41.4053642  65.4610953  14.6928209  41.7921517
  64.2763725  15.0859640  41.2229307  65.0176903  15.2317087  41.4357698
  62.3613018  25.9074014  32.0906465  63.1753657  26.1988907  31.9789237
  62.2972159  25.2533876  31.5164758  62.4715757  25.8539209  31.9895302
  68.5822508  28.5900010  46.5036041  68.3461145  27.7588075  46.3848101
  69.2265737  28.5385617  47.0890885  68.6417179  28.4597698  46.5721934
  58.2320926  29.3795531  37.2178777  58.8694873  29.1407279  37.7630571
  58.6575998  29.5832690  36.4831938  58.3897092  29.3746542  37.1895935
  58.8723741  24.5997821  31.5553667  59.2568894  24.3805528  32.3070212
  58.6235361  25.4260766  31.6854743  58.8925814  24.6895967  31.6854743
  59.0392282  17.8804236  51.2716251  58.7245723  18.6503799  51.0085814
  58.7182214  17.3174492  50.6868478  58.9451201  17.9114505  51.1457601
  69.6058929  28.3744459  42.5664335  69.3004746  29.1072516  42.9277651
  68.8865144  27.9682388  42.2857121  69.4546271  28.4226192  42.5777472
  60.6142398  29.8567954  38.8972564  60.6881406  29.6943126  39.7514413
  61.4311904  30.0458143  38.6533045  60.7458757  29.8604696  38.9870589
  75.3060721  25.0137459  41.8932680  75.2385221  25.0333419  41.0235266
  75.2916383  25.8567787  42.1188350  75.2939477  25.1411194  41.7985156
  56.5924179  16.2694758  36.8862447  55.7246604  16.3417357  36.9520056
  56.8799383  17.0716837  37.0750422  56.5063927  16.3988905  36.9237214
  65.7157067  16.4172617  45.2173769  66.4610659  16.2282428  44.8037194
  65.2994372  16.9430855  44.6587625  65.7642042  16.4674763  45.0738342
  59.1546984  32.8202697  33.6286037  59.4445282  32.4291678  32.9045264
  59.8850465  33.0019402  34.0691312  59.3053868  32.7896511  33.5868844
  73.0919338  23.7881846  40.1679274  73.6427260  23.1549915  40.4076366
  73.0763454  24.3197238  40.8594778  73.1704535  23.7730794  40.3058132
  59.7441729  27.6220443  44.7139167  59.2453423  28.3336211  44.7924056
  60.5541953  27.9421109  44.6757330  59.7897836  27.7747292  44.7195736
  56.0069847  26.8843396  38.9601888  55.7183095  26.2580867  39.4947616
  56.8753195  26.8263683  39.0266569  56.0930098  26.7830940  39.0492843
  66.7947744  22.0278179  39.2783870  66.4512510  21.3068515  39.6291120
  66.8940787  21.8192030  38.4362228  66.7589787  21.8902383  39.2055550
  59.2620855  36.1699469  35.4776879  59.9144913  35.6375912  35.7067905
  58.5646464  35.8168122  35.8644753  59.2551573  36.0388992  35.5689047
  56.2102120  28.5238647  34.8844253  56.9648088  28.9051686  35.0979716
  55.6172733  28.9749791  35.3390950  56.2338834  28.6467474  34.9827132
  67.2560773  28.4903883  34.8207858  67.8218806  29.1497093  34.7366401
  66.6088677  28.8353581  35.2924260  67.2439530  28.6385825  34.8780615
  58.6708787  20.4801487  50.0101466  57.8608563  20.7859267  49.8991308
  59.1483474  21.2007070  50.1254050  58.6212266  20.6316088  50.0108537
  57.5300347  29.6947208  40.2584369  57.0081100  29.8347500  40.9436233
  57.9174367  28.9357873  40.4486486  57.5104047  29.6032732  40.3885445
  54.5191531  19.7453017  34.3279323  54.2316326  19.3754287  33.5911271
  55.2061999  20.2147872  34.0663028  54.5780428  19.7599986  34.1794399
  63.7267352  31.4342668  34.2444937  63.4854027  30.7010528  33.8372002
  63.9068684  31.9829525  33.5911271  63.7174976  31.4065059  34.0875160
  58.9566672  26.7251227  35.6565860  58.7609455  27.3325962  35.0626163
  59.1801018  26.0319171  35.1757534  58.9601313  26.7128753  35.4981941
  57.3545202  23.6105965  35.7746728  58.0767854  23.7747123  35.3150534
  56.8753195  24.3315630  35.6686068  57.3908933  23.7404195  35.6912342
  65.3138710  19.9469764  41.1543413  64.4749810  19.9731043  40.9181676
  65.3843077  20.5940499  41.7348760  65.2007103  20.0465890  41.2052530
  55.0052819  26.0164038  44.8800868  55.5173916  26.2948291  44.2309628
  54.7189162  26.7553332  45.2463681  55.0387682  26.1666391  44.8390746
  63.7607988  16.8455141  35.8871029  64.4634341  16.6462889  35.4090987
  63.4952177  16.0731083  36.1939872  63.8254620  16.7018107  35.8616471
  69.1896234  25.1537751  38.4404655  69.1030208  25.3093177  39.2939434
  68.7346714  25.7975826  38.0664060  69.1099490  25.2713506  38.5111762
  52.0919725  20.5234230  35.1764604  52.1935862  21.3260391  35.5045580
  52.8875612  20.3221565  34.8787685  52.2247631  20.6120128  35.1799960
  58.5236544  18.1090426  44.9401910  58.3319741  18.1245561  45.7901333
  59.3735140  18.3054101  44.9168564  58.6212266  18.1404777  45.0625204
  52.9083457  20.6381408  42.9185726  52.7668949  19.7865348  43.0430234
  53.1924021  20.6810068  42.0947932  52.9291303  20.5181158  42.8153350
  63.0622050  22.4748498  37.0630214  62.8156764  22.3944249  37.8967003
  63.3907173  21.6901966  36.8692742  63.0743293  22.3474763  37.1577737
  66.9570098  29.1831857  40.8516996  66.8184458  29.8812903  41.3565738
  66.1770096  29.0280514  40.4953177  66.8213325  29.2632024  40.8743270
  65.2948184  25.4828233  47.1039377  65.2896222  24.6108049  47.1081804
  66.0009177  25.6816402  46.6308833  65.3993188  25.3832107  47.0346413
  59.0219077  25.2105216  46.4753197  59.1662453  25.7906425  45.8396307
  59.3694726  25.5881513  47.1803052  59.0946538  25.3525921  46.4852192
  61.1938994  24.4095385  44.2578329  60.4462308  24.6026399  43.8526607
  61.3480520  23.5840604  44.0202450  61.1061422  24.3160496  44.1623735
  58.0946832  33.4007988  43.3414224  58.2436396  32.8410904  42.6887629
  58.8746834  33.4799990  43.7246743  58.2320926  33.3293554  43.3011173
  68.4523471  28.5410111  31.6133495  68.0730280  27.7547249  31.6062784
  67.7889717  29.0896968  31.4705139  68.2981946  28.5054935  31.5914292
  61.4340771  18.3045936  45.1473733  61.8913385  19.0369910  45.2746525
  61.5097100  17.8812401  45.9060989  61.5131741  18.3503174  45.2774809
  53.6773763  18.5511755  46.2363176  53.1415952  17.9392113  46.5523944
  53.7391527  19.1259891  46.8896843  53.6069395  18.5458683  46.3798603
  65.9068097  11.4835811  39.0167576  66.0251665  11.9412274  38.2834878
  65.7330273  10.6781072  38.7303793  65.8987268  11.4329583  38.8668509
  59.3123149  20.2948040  41.9915557  58.5219224  20.1139500  42.3132893
  59.7083772  19.5174992  41.9745851  59.2540025  20.1535500  42.0368105
  63.7989040  29.1235814  27.4322270  64.5662025  29.1835939  27.0228122
  63.3520349  28.5516255  26.9478589  63.8462467  29.0472390  27.2999981
  64.6966836  27.9290470  39.7175003  64.0211837  27.6975702  40.2188390
  64.7059212  27.3211653  39.0917108  64.5985340  27.8049395  39.6991155
  61.8260980  22.7708299  46.4739056  61.7620121  23.6318255  46.3459192
  61.9658167  22.4540292  45.6734607  61.8376450  22.8508465  46.3367269
  66.6983570  30.7855602  31.9485181  66.7803408  31.5922588  31.6246632
  67.1833312  30.8051561  32.6725954  66.7820728  30.9076264  32.0072079
  60.5080073  25.4640438  40.6155259  60.0842323  25.6644937  39.8794277
  60.3324929  24.6169286  40.7279558  60.4190954  25.3689219  40.5228949
  55.7962518  25.9592489  36.0483231  55.9527138  25.8939292  36.9039223
  56.1363112  26.7341042  35.8361911  55.8695753  26.0641688  36.1437825
  62.3341663  25.3350373  34.9176594  62.8757208  24.8320754  35.3815215
  62.6488222  25.2815568  34.1066080  62.4606060  25.2529794  34.8660406
  66.2058770  29.5453020  52.0303507  67.0193636  29.2738169  52.1908639
  66.0453737  29.2460560  51.2263702  66.3028719  29.4607946  51.9348912
  60.5028113  30.7267725  32.2016622  60.5720933  29.8682263  32.3409623
  61.2816568  30.9439605  31.8735647  60.6280963  30.6320589  32.1733780
  63.4830932  20.2286678  44.9698895  63.6972902  19.5897592  44.4162249
  62.8664832  20.6732501  44.5406757  63.4236262  20.1996821  44.8249326
  64.8935600  33.1505426  36.4153116  64.5015392  32.8472141  35.6975982
  65.0488673  33.9874516  36.2258069  64.8589190  33.2289263  36.2809613
  52.3696780  23.1427440  36.3643998  52.7495745  23.5611985  35.7004266
  51.7952145  23.7240896  36.6712842  52.3408105  23.2905299  36.3120739
  65.6470020  21.8375743  45.9082202  64.8346702  21.5301633  45.9895375
  66.1059955  21.3574743  46.4724914  65.5950405  21.7212235  46.0036796
  65.0575275  29.7155415  36.3559146  64.6989930  29.8870058  37.1323179
  64.5713986  30.1768620  35.7987145  64.9333972  29.8094386  36.3884415
  62.8745661  13.3386613  39.9586238  62.0039219  13.3125334  39.9119547
  63.1286002  13.1663805  39.1412083  62.7839221  13.3096757  39.8306374
  59.8463640  25.3954580  28.8959381  60.1356165  26.1719463  29.1702955
  59.9335439  24.8843312  29.5973880  59.9017897  25.4346498  29.0401878
  62.7423528  23.2435814  50.6910904  63.2123159  23.8677931  51.0778778
  62.7885408  22.5752790  51.2504119  62.8191404  23.2370494  50.8310976
  59.8994802  15.3492842  41.4159708  59.3833290  14.6573033  41.5411287
  59.3388730  16.0163619  41.3622307  59.7401315  15.3456099  41.4265774
  61.9687035  15.8885802  43.2452561  61.5818788  15.9134833  44.0266090
  61.4819972  15.3227480  42.7927077  61.8399544  15.8081553  43.2940464
  66.2180014  30.6059311  47.3026347  66.8559735  30.1119506  46.9688803
  65.5754106  30.5336711  46.7178574  66.2174241  30.5218319  47.1668702
  67.9437014  22.4548457  41.8692263  67.5164623  22.3674805  41.1140362
  67.3063067  22.5626232  42.4547107  67.7866622  22.4581116  41.8437704
  61.6344177  12.7752787  45.5362820  62.2637295  13.3113087  45.2583891
  61.8030039  12.6830146  46.3876386  61.7521971  12.8414149  45.6211349
  61.4358092  17.5623982  47.8089232  62.2631521  17.2909131  47.8647846
  61.4565938  18.3584824  48.1653050  61.5610942  17.6403736  47.8704415
  66.2734271  31.2979119  43.9431704  67.0626649  30.9468184  44.0633785
  66.4477869  32.1115507  43.6808338  66.4154553  31.3664976  43.9219572
  56.0127581  24.7087845  40.9959493  55.1715588  24.6091719  41.2038387
  56.2217589  25.4783325  41.3473813  55.9192274  24.8079888  41.0786808
  53.4903148  22.3307382  38.8244243  53.0959846  22.4050393  38.0494353
  52.9343265  22.7165328  39.3752605  53.3505961  22.3989156  38.7911903
  65.1268095  15.3088676  38.5048122  65.3317689  15.2410983  39.3505119
  64.7994519  16.1147497  38.4369300  65.1083343  15.4174616  38.6207777
  59.8244246  22.6369244  40.2457090  59.5207384  22.0825232  40.8467498
  59.1223667  22.8161454  39.7585124  59.6760456  22.5814026  40.2626796
  58.8810343  19.9469764  34.8101792  59.1570078  19.2288676  34.3979360
  59.4809013  20.5454684  34.6022898  59.0103608  19.9290134  34.7182553
  57.8862597  29.8518965  44.9529188  57.7782952  29.8621027  45.8191246
  58.0958379  30.6773745  44.7634142  57.9012708  29.9760039  45.0533280
  68.3801783  15.8620440  37.9850888  67.7676096  16.3490842  38.3704620
  68.4765958  15.1863931  38.5288539  68.3039681  15.8338749  38.1229746
  62.3820864  17.6183281  33.0848387  62.8364610  17.7893841  33.8096232
  62.8560910  17.0051392  32.6846163  62.5189184  17.5534166  33.1322149
  55.9036389  27.1031607  42.4151126  55.3124323  27.7441105  42.3854141
  56.6657413  27.5269224  42.3882425  55.9284650  27.2607445  42.4066273
  56.2997012  18.2633605  43.0819143  56.7598494  18.3372534  43.8194267
  56.3453119  19.0614859  42.7318965  56.3747567  18.3927752  43.1391900
  57.9480362  18.9300300  47.6491170  57.5565927  18.2833647  48.0846948
  58.1166225  19.5211735  48.2685426  57.9151272  18.9214567  47.8053876
  72.0226811  26.9337377  43.4128404  72.0809935  27.3824025  44.1588380
  71.3893278  27.3436189  42.9758484  71.9378106  27.0611111  43.4580952
  65.6625906  32.5540919  39.8483150  65.4645594  33.0431733  39.1539361
  65.0413617  32.7582160  40.4267283  65.5413470  32.6557457  39.8306373
  59.7233884  24.3225815  34.1893394  60.4675929  24.7100092  34.4276344
  59.8694580  23.4783241  34.3533882  59.8544469  24.2556288  34.2487364
  61.6413459  16.1176074  39.2225256  60.7949504  16.2898882  39.0966606
  61.6384592  15.3125418  39.5591084  61.5160609  16.0237103  39.2536383
  62.7111760  19.8951289  40.0887314  62.2371714  19.3693051  40.5992625
  63.0829896  19.3480762  39.5202175  62.6961649  19.7367285  40.0802461
  53.0884790  21.8922795  45.4570859  53.9510403  21.7918505  45.3708189
  52.7576573  21.3117505  44.8956432  53.1669986  21.7914422  45.3616265
  68.9748490  24.9553664  41.4994094  68.7346713  24.1160079  41.5036521
  69.4540497  25.0353831  42.2234868  69.0100674  24.8435064  41.6068896
  64.6395259  20.7887843  33.1513067  64.1118278  20.8716587  32.4618776
  65.0990968  21.5305715  33.1477712  64.6297110  20.9108506  33.0487763
  70.9753677  21.7355122  39.4523353  70.7363447  21.6950956  38.6144138
  71.1387579  22.5826274  39.5789074  70.9643981  21.8547207  39.3476835
  67.5799707  26.1205071  45.3828398  68.3033906  25.6677597  45.2039418
  67.3149670  26.4009737  44.6000726  67.6480981  26.0956039  45.2407114
  56.4486576  20.7165244  42.1181278  55.8239646  20.7283636  41.5107230
  56.1132171  21.1925419  42.7672518  56.3072068  20.7883761  42.1237846
  56.6328325  19.0590363  28.1753963  56.2841129  19.7110088  28.6385512
  56.1524770  19.0447476  27.4477834  56.5098568  19.1533416  28.1365054
  53.1612251  28.7765704  43.5585042  52.6312176  28.0858143  43.6080017
  53.4337345  28.7675890  42.7297750  53.1236974  28.6732836  43.4432458
  64.1932342  29.3591407  32.2822724  64.9166541  29.8249520  32.1387298
  63.7532933  29.4265016  31.5320322  64.2348034  29.4375244  32.1507506
  63.3618497  26.2188949  43.5323414  62.7475490  25.6746999  43.8272049
  63.8785782  25.7053186  43.0529230  63.3474159  26.0625358  43.5047642
  62.6014794  27.2893219  41.2667712  62.1742402  26.6642938  40.8333148
  62.5939739  27.0068141  42.0926719  62.5373935  27.1546000  41.3247540
  55.7177321  22.3258392  44.3356146  55.8770808  21.5701716  44.7407868
  55.5370215  22.8749332  44.9896884  55.7142680  22.2952206  44.4918852
  63.6597624  14.4919628  44.8906936  63.1638185  14.6883302  44.1998502
  64.4166686  14.8912296  44.7195737  63.6984449  14.5797362  44.7627072
  60.9300504  18.1661974  41.4810246  60.9542991  17.6322086  40.7923026
  61.1811977  17.6579282  42.1435837  60.9710423  18.0122878  41.4774891
  57.2101826  16.8932792  40.8615990  57.2500198  17.3941998  41.5750698
  56.3851491  16.9843186  40.5921914  57.0941352  16.9814608  40.9266529
  59.3931439  26.4593532  48.9636285  58.5427069  26.5965246  49.0993930
  59.5559567  25.7257310  49.4083987  59.2915302  26.3707633  49.0491884
  58.6316189  23.4093302  43.1589889  57.8008119  23.5767120  42.9525138
  58.5767707  23.0329253  43.9438775  58.5005604  23.3783033  43.2438418
  56.4399973  16.9002195  48.7946300  57.0652676  16.3564327  49.0675732
  55.9850453  16.4197112  48.2254091  56.4648233  16.7491676  48.7507894
  57.0052233  21.6848893  33.6880007  57.1455194  22.1821357  34.3908649
  57.5034766  20.9835188  33.8294221  57.0993314  21.6550872  33.8131586
  57.0352456  22.5516004  31.0172584  57.6697535  23.1476429  30.9522046
  57.1178066  22.2519462  31.8318454  57.1409007  22.5956912  31.1275671
  70.0135021  25.0831482  43.8858948  70.6052862  25.7228732  43.9177146
  70.4494016  24.3854518  44.1751015  70.1653453  25.0749832  43.9339781
  58.6131439  18.4829980  30.9918026  58.9347280  18.0033062  30.3377288
  58.8758382  19.2929626  30.8008838  58.6997464  18.5319878  30.8673518
  61.8428411  29.5048854  44.5116842  61.3353502  30.0584701  44.9557473
  61.5455057  29.5657144  43.6935617  61.7233296  29.5955165  44.4565299
  64.0090593  17.8702174  43.3541505  64.4345665  17.4174700  42.7425031
  63.3947587  17.3162244  43.6306293  63.9819239  17.7216150  43.3046530
  53.5405444  24.7483845  34.2862130  54.0497673  25.3448353  34.6673436
  54.0139716  24.4809819  33.6038550  53.6848819  24.7969660  34.2416653
  64.4536192  33.4212112  32.4420786  63.7365501  33.2472974  31.9768023
  65.1042929  33.1864684  31.9096272  64.4438042  33.3607904  32.2950003
  62.4484816  14.3417273  36.7632082  61.8053134  14.1914920  37.3317221
  62.1084223  14.0959619  35.9981187  62.3029894  14.2829396  36.7335097
  67.0384163  22.2976700  36.1862091  66.3675353  22.8406403  36.0575156
  67.7323913  22.7671556  35.9443785  67.0413030  22.4474972  36.1317618
  61.0870897  34.4373412  41.4173849  60.8636551  33.6792242  41.7857875
  60.5980740  34.4671433  40.6954289  60.9814346  34.3295637  41.3650590
  67.2012290  18.7532584  39.0952464  67.5539900  18.3262307  39.7698263
  66.3427092  18.6683427  39.2253540  67.1261735  18.6777325  39.2147474
  55.8995975  21.3840104  37.1535310  55.1807964  21.8004236  37.4208174
  56.2708338  21.9494342  36.6026949  55.8487907  21.5289385  37.1118117
  65.1995556  22.0167953  43.0437306  65.1793483  21.8351248  43.8972085
  65.2474757  22.8879971  43.0196890  65.2030197  22.1184491  43.1660601
  63.1441886  28.6055144  48.9685783  63.1037741  27.9604821  48.3830939
  63.9565204  28.5491762  49.2811195  63.2585039  28.5014111  48.9282732
  59.7349353  34.6573870  38.8710934  59.3209752  33.9948001  38.4814775
  60.4196728  34.8051729  38.3506628  59.7747725  34.5814529  38.7367431
  63.1014648  33.8163956  39.6234550  62.7030931  33.9266226  38.8555370
  62.4865867  34.0246022  40.2061110  62.9513537  33.8637524  39.5965850
  61.6742550  20.4238104  32.4908690  61.0807389  20.7455100  31.9393257
  61.7117827  19.5779199  32.2829796  61.5916939  20.3462432  32.3791461
  68.6336350  13.8750996  40.0236776  68.1267215  13.1680135  39.9557954
  69.4303784  13.5444185  40.1537853  68.6763590  13.7224147  40.0335771
  64.5500366  20.3817608  35.9210440  64.3214059  20.4050309  35.0788798
  64.8098442  19.5575075  36.0405451  64.5546554  20.2633688  35.8135638
  58.8319595  22.2352081  45.5235540  58.3198498  21.6273264  45.8820572
  58.6599091  22.9508674  45.9909516  58.7309232  22.2515380  45.6451764
  53.6785309  20.6789656  48.1737902  53.5087900  21.3391031  47.6286109
  53.2351259  20.8896218  48.8950391  53.5884643  20.8075638  48.1999532
  57.6045129  18.9194154  37.2164636  58.0802495  19.2811234  36.5814817
  57.1033728  19.5750622  37.4964779  57.6010488  19.0688343  37.1641377
  70.8356490  28.3915922  33.0077641  71.2190096  29.1407279  33.2375738
  70.0400604  28.6381742  32.7489630  70.7750273  28.5385616  33.0035214
  62.7088665  20.1576326  47.9637796  63.2660095  19.9290135  47.3316261
  62.3849730  20.9181991  47.6873008  62.7435075  20.2360162  47.8294293
  60.4271782  23.2443979  48.9289803  61.1783109  23.5595656  49.2429357
  60.6194359  23.0423150  48.1023725  60.5663196  23.2611361  48.8533199
  59.6471782  21.0635354  30.5838020  60.0270747  21.0814983  29.7989135
  58.9064378  21.5089343  30.4628867  59.5940620  21.1317129  30.4501588
  67.2757072  19.3717545  36.1713598  67.2751299  19.2166202  37.0297875
  67.0713252  20.2180532  36.1154984  67.2456850  19.4738166  36.2901538
  64.9997924  24.0515047  39.8249805  65.4951590  23.3338042  39.7853826
  64.1897700  23.7485845  39.7104292  64.9541818  23.9012693  39.8023531
  60.4456536  27.9012860  31.9746810  59.6367859  27.5779534  31.9280119
  60.9531445  27.1946082  31.9075058  60.4006203  27.7494177  31.9577104
  67.0649743  26.8018735  42.5126934  67.4904815  26.2793156  41.9597359
  66.7006663  27.3999572  41.9915557  67.0736346  26.8128962  42.3535944
  63.6528343  30.5152999  38.8428092  64.1239521  31.2293261  39.0118077
  63.9888521  29.9151749  39.3787961  63.7723458  30.5324463  38.9460467
  65.7405327  32.1254312  51.0220164  65.8502293  31.3362873  51.3776911
  66.0696224  32.0360248  50.2194502  65.8057733  31.9960165  50.9562554
  60.5697838  15.2880469  45.7986186  60.7025743  14.4911463  46.1267162
  60.9542990  15.8146872  46.3784462  60.6454167  15.2480386  45.9329689
  64.2902289  30.3070933  45.6055784  63.7423235  29.6828817  45.3375849
  64.7515318  30.4965205  44.8899864  64.2769499  30.2429983  45.4606215
  63.6430193  12.2110796  42.3967280  62.8376157  12.1008525  42.7135118
  63.5136928  12.3123251  41.5397145  63.5050326  12.2094466  42.3175320
  67.0996153  18.3756287  42.9906976  66.5159142  18.8765494  42.5784544
  67.4200447  17.8685844  42.3571300  67.0609329  18.3748122  42.8365484
  59.6390953  17.2896882  33.2665651  60.4606647  17.4595195  33.0247346
  59.1760603  17.4444143  32.5431949  59.6922115  17.3378615  33.1237296
  58.2286284  15.2839645  44.0464080  58.7730697  14.9430771  44.6368422
  58.2823220  16.1425106  44.1885365  58.3175404  15.3594904  44.1545953
  54.0416843  29.0456061  40.9202888  54.6461701  29.0051895  40.2916709
  53.8344156  29.8927213  40.9506944  54.1005741  29.1644063  40.8319004
  63.8560615  31.3122006  42.1365125  64.6758989  31.1684972  42.3981421
  63.5754693  31.9368205  42.6781563  63.9357359  31.3832358  42.2553065
  73.5273951  38.0562508  39.8560932  72.6711846  38.2171007  39.9070049
  73.5741604  37.1854572  39.8765993  73.4073062  37.9513310  39.8666998
  67.9115090  47.5925226  35.6198164  67.1597990  47.2140765  35.3914209
  68.3601102  47.6243660  34.8716974  67.8664757  47.5410833  35.4755666
  76.8367667  44.3249034  49.4621388  77.5434434  43.8301065  49.5908323
  77.0255603  44.7658116  48.7324046  76.9695573  44.3167384  49.3730434
  73.3640050  48.0150596  31.0483711  73.0291419  48.6927517  30.6127933
  73.8766921  47.6255907  30.4600582  73.3905631  48.0575174  30.8970502
  72.9044341  49.9664864  36.9894822  73.2883721  50.5351763  36.4499598
  72.8403483  49.2414375  36.5100638  72.9517769  49.9440328  36.8388685
  76.3725772  40.1154552  42.4992584  76.9181732  40.7939639  42.5586553
  76.3142648  39.9742013  41.6394165  76.4441686  40.1946554  42.3804644
  69.4899846  47.6043618  37.8860936  69.5910209  46.7943972  38.1958064
  68.8941592  47.5100565  37.2560615  69.4172385  47.4708647  37.8387175
  69.3300586  52.5221208  39.2875792  69.9738042  52.9634372  39.6771951
  69.6556842  51.7174634  39.2006051  69.4732415  52.4686402  39.3321270
  64.9854978  35.7949636  40.4097578  64.3660010  35.2042283  40.2407592
  64.8838842  36.3861071  39.7761901  64.8792654  35.7953718  40.2902567
  70.0321166  45.5333182  34.6595654  70.3537007  46.0738390  34.0556962
  70.6793262  44.9629954  34.7917944  70.1747221  45.5292358  34.5902689
  72.0822874  37.5349177  34.7430041  72.7803039  37.7137305  35.2351504
  72.3975206  37.0119517  34.1200430  72.2318211  37.4842950  34.7232051
  72.2710809  43.9219622  34.7309832  72.7104445  43.3136723  35.1764605
  72.1215472  43.5426996  33.9595297  72.3132275  43.7758094  34.6829000
  69.7382452  42.5163634  41.9328658  70.3831455  42.0236077  41.6139606
  69.9784229  42.6588421  42.7594736  69.8693037  42.4641076  42.0078191
  72.2768544  45.3618540  41.5835550  72.5591786  44.5669946  41.3622306
  73.0054704  45.8399128  41.6040611  72.4258107  45.3153137  41.5538565
  70.2549737  32.9041574  38.8251315  69.9253067  33.3552718  38.1555014
  69.5794739  32.8257737  39.3724322  70.1060174  32.9592709  38.8074539
  75.8720146  42.2746804  31.6840601  75.7871441  43.1307770  31.8290170
  76.3604529  41.9991128  32.3522761  75.9309043  42.3604125  31.8042683
  77.4626145  28.8927097  37.0700926  77.1479586  29.5830576  37.5021348
  76.9453087  28.8371879  36.3686427  77.3390616  28.9861986  37.0297875
  76.8038579  38.8931598  33.1838337  76.2750051  39.1091231  33.8435643
  77.3263599  39.5867736  33.1039306  76.8027032  39.0274735  33.2693936
  68.6938187  42.7894815  31.9845804  68.1095402  43.2944846  32.3911668
  68.2908282  42.5637202  31.2442396  68.5477491  42.8303063  31.9350830
  64.2482215  48.5049576  38.7869476  63.7649794  49.2300065  38.7629060
  65.0605534  48.8025706  38.8979634  64.2972963  48.6551930  38.7996755
  70.3196370  47.2981757  41.3919290  69.8023311  46.9389172  40.7880599
  71.0170761  46.7743931  41.4025357  70.3461951  47.1679444  41.3049549
  73.9759962  47.7476571  47.3535464  74.0643307  47.5602711  48.2013674
  74.4049674  47.1014000  46.9540310  74.0522064  47.6239578  47.4207215
  71.5430421  47.0307731  46.3353126  70.9801256  46.6180340  46.8592787
  72.3051445  46.9560636  46.7546269  71.5724870  46.9585131  46.4746126
  73.1515401  39.0360467  30.4614725  73.3911405  39.2438450  29.6490068
  73.4731242  38.2317975  30.5703670  73.2352559  38.9474568  30.3575278
  68.4605692  30.9653862  34.3074263  69.2151660  31.3332180  34.0691313
  68.2833226  31.3393417  35.0753443  68.5460170  31.0752050  34.3859152
  67.1026413  49.0205752  38.9389756  67.8046992  48.5057741  38.9962512
  67.0223896  49.3479903  39.7436631  67.1950173  48.9919978  39.0662548
  68.1505319  39.2581339  48.0670171  68.3225823  39.1487233  48.9155452
  68.6874677  39.9035744  47.8301363  68.2550323  39.3373340  48.1575268
  66.8162756  33.3724181  31.0052376  66.6338329  33.5896062  30.1793369
  67.6788369  33.4863194  31.0610990  66.9167346  33.4214079  30.8906863
  67.0529891  45.6312979  42.7488669  67.5928116  45.4884110  43.4192042
  66.3699837  46.0309730  43.1172696  67.0322045  45.6692650  42.9023091
  72.4962475  30.3750592  34.0401400  73.2248636  30.1966547  33.5939556
  72.5857368  31.2168672  34.2508578  72.6169137  30.4734471  34.0054917
  76.4770776  41.3103980  37.9433694  77.2328291  41.7435494  37.9822603
  76.5833100  40.6608749  38.5168330  76.6040947  41.2781463  38.0331719
  74.0880021  47.1785590  50.0179247  74.8720437  47.2916437  50.3834989
  73.8876615  46.3526727  50.2137933  74.1746046  47.0732309  50.1013633
  66.3624783  36.6498354  29.5174849  65.6482960  36.3636534  29.9297282
  66.8468752  36.9894980  30.1581237  66.3284147  36.6580004  29.6730484
  67.2065643  35.3891648  45.5490099  66.5137439  34.9188628  45.7950830
  67.8225970  35.1629952  46.1231806  67.1950173  35.2858780  45.6699251
  74.2450414  49.0895692  43.6645703  73.4465660  48.8495192  43.9219571
  74.6936426  49.1410085  44.4112750  74.1925025  49.0618083  43.8130627
  73.5372101  45.1528308  29.8936657  73.9523250  44.8213332  29.2021153
  72.7064031  44.9197210  29.7656794  73.4760110  45.0699564  29.7727505
  65.9306202  39.3557052  46.6916944  66.6546174  39.3410083  47.1781839
  66.0322338  40.0652407  46.1938912  66.0524411  39.4581755  46.6895731
  73.3051151  42.8356137  51.5565891  72.5124132  43.1499648  51.7418511
  73.4200078  43.0507605  50.7186676  73.2046562  42.9139973  51.4604226
  75.9782470  39.5590128  35.8460907  76.0729324  40.2979422  36.3000532
  75.3541313  39.1307603  36.2795471  75.8991500  39.6051448  35.9769054
  74.2334944  42.7376340  46.4951188  74.8073805  42.1003585  46.6499752
  74.1549748  42.7380423  45.6260845  74.3068179  42.6441452  46.3897598
  76.2305491  41.4038867  29.0797859  76.1485654  41.4741055  29.9452846
  76.8685212  41.9668611  28.8881599  76.3125329  41.4977839  29.1787808
  69.5898662  41.1699605  38.5472385  69.3317907  40.3371340  38.5203684
  69.6447145  41.3957218  37.7064885  69.5598440  41.0797377  38.4192522
  74.6699713  33.2728056  38.6476478  73.9656039  32.7837242  38.8060397
  74.7184687  33.2850531  37.7764922  74.5729764  33.2017704  38.5415817
  68.5633375  38.7237368  39.0337280  67.9882966  38.8829536  39.6701241
  68.1869051  38.0872777  38.5705730  68.4236187  38.6535181  39.0591838
  72.2306663  37.1960717  43.8929658  71.8421096  36.7714935  43.2381849
  71.5661362  37.4442867  44.4006685  72.0753591  37.1699438  43.8717526
  76.0533025  30.8935346  41.4053642  76.4343536  30.2113517  41.7921517
  75.2496309  30.6044948  41.2229307  75.9909486  30.7502394  41.4357698
  73.3345601  41.4259322  32.0906465  74.1486240  41.7174215  31.9789237
  73.2704743  40.7719184  31.5164758  73.4448340  41.3724517  31.9895302
  69.2053510  44.8980839  37.2178777  69.8427457  44.6592587  37.7630571
  69.6308581  45.1017998  36.4831938  69.3629676  44.8931849  37.1895935
  69.8456325  40.1183129  31.5553667  70.2301477  39.8990836  32.3070212
  69.5967945  40.9446074  31.6854743  69.8658397  40.2081275  31.6854743
  70.0124865  33.3989544  51.2716251  69.6978306  34.1689107  51.0085814
  69.6914798  32.8359800  50.6868478  69.9183784  33.4299813  51.1457601
  71.5874982  45.3753262  38.8972564  71.6613990  45.2128434  39.7514413
  72.4044488  45.5643451  38.6533045  71.7191340  45.3790004  38.9870589
  67.5656762  31.7880066  36.8862447  66.6979188  31.8602665  36.9520056
  67.8531966  32.5902145  37.0750422  67.4796510  31.9174213  36.9237214
  76.6889651  31.9357925  45.2173769  77.4343243  31.7467735  44.8037194
  76.2726955  32.4616163  44.6587625  76.7374625  31.9860070  45.0738342
  70.1279567  48.3388005  33.6286037  70.4177866  47.9476986  32.9045264
  70.8583048  48.5204710  34.0691312  70.2786452  48.3081819  33.5868844
  70.7174313  43.1405751  44.7139167  70.2186006  43.8521519  44.7924056
  71.5274537  43.4606417  44.6757330  70.7630419  43.2932599  44.7195736
  68.0685483  50.3155387  36.6946187  67.8485778  50.0252742  37.4872854
  67.8480005  49.6570342  36.1664099  68.0033077  50.1755096  36.7335095
  77.7680328  37.5463487  39.2783870  77.4245094  36.8253822  39.6291120
  77.8673370  37.3377338  38.4362228  77.7322371  37.4087690  39.2055550
  70.2353439  51.6884777  35.4776879  70.8877497  51.1561220  35.7067905
  69.5379047  51.3353430  35.8644753  70.2284157  51.5574300  35.5689047
  69.6441371  35.9986795  50.0101466  68.8341146  36.3044575  49.8991308
  70.1216057  36.7192378  50.1254050  69.5944849  36.1501396  50.0108537
  68.5032930  45.2132516  40.2584369  67.9813684  45.3532808  40.9436233
  68.8906950  44.4543181  40.4486486  68.4836631  45.1218040  40.3885445
  65.4924114  35.2638325  34.3279323  65.2048910  34.8939595  33.5911271
  66.1794582  35.7333180  34.0663028  65.5513011  35.2785294  34.1794399
  74.6999935  46.9527975  34.2444937  74.4586611  46.2195836  33.8372002
  74.8801268  47.5014832  33.5911271  74.6907559  46.9250367  34.0875160
  69.9299256  42.2436535  35.6565860  69.7342038  42.8511270  35.0626163
  70.1533601  41.5504479  35.1757534  69.9333897  42.2314061  35.4981941
  68.3277786  39.1291273  35.7746728  69.0500438  39.2932431  35.3150534
  67.8485779  39.8500938  35.6686068  68.3641516  39.2589503  35.6912342
  76.2871293  35.4655072  41.1543413  75.4482394  35.4916351  40.9181676
  76.3575661  36.1125807  41.7348760  76.1739687  35.5651198  41.2052530
  65.9785402  41.5349346  44.8800868  66.4906499  41.8133599  44.2309628
  65.6921745  42.2738640  45.2463681  66.0120266  41.6851699  44.8390746
  74.7340572  32.3640449  35.8871029  75.4366924  32.1648197  35.4090987
  74.4684760  31.5916391  36.1939872  74.7987204  32.2203415  35.8616471
  63.0652309  36.0419537  35.1764604  63.1668445  36.8445699  35.5045580
  63.8608196  35.8406873  34.8787685  63.1980214  36.1305436  35.1799960
  69.4969128  33.6275734  44.9401910  69.3052325  33.6430869  45.7901333
  70.3467724  33.8239408  44.9168564  69.5944850  33.6590085  45.0625204
  63.8816041  36.1566716  42.9185726  63.7401533  35.3050656  43.0430234
  64.1656604  36.1995376  42.0947932  63.9023887  36.0366466  42.8153350
  74.0354633  37.9933806  37.0630214  73.7889348  37.9129557  37.8967003
  74.3639756  37.2087274  36.8692742  74.0475877  37.8660071  37.1577737
  77.9302682  44.7017165  40.8516996  77.7917041  45.3998211  41.3565738
  77.1502680  44.5465822  40.4953177  77.7945909  44.7817332  40.8743270
  76.2680767  41.0013541  47.1039377  76.2628806  40.1293357  47.1081804
  76.9741761  41.2001710  46.6308833  76.3725771  40.9017415  47.0346413
  69.9951661  40.7290524  46.4753197  70.1395036  41.3091733  45.8396307
  70.3427309  41.1066821  47.1803052  70.0679122  40.8711228  46.4852192
  72.1671578  39.9280693  44.2578329  71.4194892  40.1211707  43.8526607
  72.3213103  39.1025912  44.0202450  72.0794005  39.8345804  44.1623735
  69.0679415  48.9193296  43.3414224  69.2168979  48.3596212  42.6887629
  69.8479418  48.9985298  43.7246743  69.2053509  48.8478862  43.3011173
  71.5932716  49.0907939  44.6198715  71.5176387  48.4216750  45.1749503
  71.5222575  49.7925727  45.1339381  71.5713323  49.0952846  44.7775563
  72.4073355  33.8231244  45.1473733  72.8645969  34.5555218  45.2746525
  72.4829684  33.3997709  45.9060989  72.4864325  33.8688482  45.2774809
  64.6506346  34.0697063  46.2363176  64.1148536  33.4577421  46.5523944
  64.7124111  34.6445199  46.8896843  64.5801979  34.0643991  46.3798603
  76.8800681  27.0021119  39.0167576  76.9984249  27.4597582  38.2834878
  76.7062857  26.1966380  38.7303793  76.8719852  26.9514891  38.8668509
  72.2502963  47.6108938  35.4522321  73.0152854  47.3418582  35.1304985
  72.1481053  47.1258948  36.1692384  72.3484459  47.4998503  35.5102149
  70.2855733  35.8133347  41.9915557  69.4951808  35.6324808  42.3132893
  70.6816356  35.0360300  41.9745851  70.2272609  35.6720808  42.0368105
  74.7721624  44.6421122  27.4322270  75.5394609  44.7021247  27.0228122
  74.3252933  44.0701563  26.9478589  74.8195051  44.5657697  27.2999981
  75.6699419  43.4475778  39.7175003  74.9944421  43.2161010  40.2188390
  75.6791795  42.8396961  39.0917108  75.5717924  43.3234703  39.6991155
  72.7993563  38.2893607  46.4739056  72.7352704  39.1503563  46.3459192
  72.9390751  37.9725600  45.6734607  72.8109033  38.3693773  46.3367269
  77.6716154  46.3040910  31.9485181  77.7535991  47.1107896  31.6246632
  78.1565896  46.3236869  32.6725954  77.7553312  46.4261572  32.0072079
  71.4812657  40.9825746  40.6155259  71.0574906  41.1830245  39.8794277
  71.3057512  40.1354594  40.7279558  71.3923538  40.8874527  40.5228949
  70.9824350  52.4976259  43.0776716  71.4720281  51.7987048  42.8952380
  70.4108583  52.2000129  43.6652773  70.9708880  52.3502483  43.1377757
  66.7695102  41.4777797  36.0483231  66.9259721  41.4124600  36.9039223
  67.1095695  42.2526350  35.8361911  66.8428337  41.5826995  36.1437825
  73.3074247  40.8535681  34.9176594  73.8489792  40.3506062  35.3815215
  73.6220806  40.8000876  34.1066080  73.4338644  40.7715102  34.8660406
  77.1791354  45.0638328  52.0303507  77.9926219  44.7923477  52.1908639
  77.0186320  44.7645868  51.2263702  77.2761302  44.9793254  51.9348912
  71.4760696  46.2453032  32.2016622  71.5453517  45.3867571  32.3409623
  72.2549151  46.4624913  31.8735647  71.6013546  46.1505896  32.1733780
  74.4563516  35.7471985  44.9698895  74.6705486  35.1082900  44.4162249
  73.8397415  36.1917809  44.5406757  74.3968845  35.7182129  44.8249326
  75.8668184  48.6690734  36.4153116  75.4747976  48.3657449  35.6975982
  76.0221256  49.5059824  36.2258069  75.8321774  48.7474570  36.2809613
  63.3429363  38.6612748  36.3643998  63.7228328  39.0797293  35.7004266
  62.7684728  39.2426204  36.6712842  63.3140688  38.8090607  36.3120739
  76.6202604  37.3561051  45.9082202  75.8079286  37.0486941  45.9895375
  77.0792539  36.8760051  46.4724914  76.5682989  37.2397543  46.0036796
  76.0307859  45.2340723  36.3559146  75.6722513  45.4055365  37.1323179
  75.5446569  45.6953928  35.7987145  75.9066556  45.3279694  36.3884415
  73.8478245  28.8571921  39.9586238  72.9771803  28.8310642  39.9119547
  74.1018586  28.6849113  39.1412083  73.7571805  28.8282065  39.8306374
  70.8196224  40.9139888  28.8959381  71.1088749  41.6904771  29.1702955
  70.9068023  40.4028619  29.5973880  70.8750480  40.9531806  29.0401878
  73.7156111  38.7621122  50.6910904  74.1855743  39.3863238  51.0778778
  73.7617992  38.0938098  51.2504119  73.7923987  38.7555802  50.8310976
  70.8727385  30.8678150  41.4159708  70.3565874  30.1758341  41.5411287
  70.3121314  31.5348927  41.3622307  70.7133898  30.8641407  41.4265774
  72.9419619  31.4071110  43.2452561  72.5551372  31.4320141  44.0266090
  72.4552556  30.8412788  42.7927077  72.8132127  31.3266860  43.2940464
  77.1912598  46.1244619  47.3026347  77.8292319  45.6304814  46.9688803
  76.5486690  46.0522019  46.7178574  77.1906825  46.0403627  47.1668702
  72.6076760  28.2938095  45.5362820  73.2369878  28.8298395  45.2583891
  72.7762623  28.2015454  46.3876386  72.7254555  28.3599457  45.6211349
  72.4090675  33.0809290  47.8089232  73.2364105  32.8094439  47.8647846
  72.4298521  33.8770131  48.1653050  72.5343525  33.1589044  47.8704415
  77.2466855  46.8164427  43.9431704  78.0359233  46.4653492  44.0633785
  77.4210452  47.6300815  43.6808338  77.3887136  46.8850284  43.9219572
  66.9860165  40.2273153  40.9959493  66.1448172  40.1277027  41.2038387
  67.1950173  40.9968633  41.3473813  66.8924858  40.3265196  41.0786808
  64.4635732  37.8492690  38.8244243  64.0692430  37.9235701  38.0494353
  63.9075849  38.2350636  39.3752605  64.3238544  37.9174464  38.7911903
  76.1000679  30.8273984  38.5048122  76.3050272  30.7596291  39.3505119
  75.7727103  31.6332805  38.4369300  76.0815927  30.9359924  38.6207777
  70.7976830  38.1554552  40.2457090  70.4939967  37.6010540  40.8467498
  70.0956251  38.3346762  39.7585124  70.6493040  38.0999334  40.2626796
  69.8542927  35.4655072  34.8101792  70.1302661  34.7473984  34.3979360
  70.4541596  36.0639991  34.6022898  69.9836192  35.4475442  34.7182553
  68.8595181  45.3704272  44.9529188  68.7515536  45.3806335  45.8191246
  69.0690962  46.1959053  44.7634142  68.8745292  45.4945347  45.0533280
  73.3553447  33.1368589  33.0848387  73.8097194  33.3079149  33.8096232
  73.8293493  32.5236700  32.6846163  73.4921768  33.0719474  33.1322149
  67.2729596  33.7818913  43.0819143  67.7331077  33.8557842  43.8194267
  67.3185702  34.5800167  42.7318965  67.3480151  33.9113060  43.1391900
  68.9212945  34.4485607  47.6491170  68.5298511  33.8018955  48.0846948
  69.0898808  35.0397043  48.2685426  68.8883856  34.4399875  47.8053876
  76.6358489  48.0726226  39.8483150  76.4378178  48.5617041  39.1539361
  76.0146200  48.2767468  40.4267283  76.5146054  48.1742765  39.8306373
  70.6966467  39.8411123  34.1893394  71.4408512  40.2285400  34.4276344
  70.8427164  38.9968549  34.3533882  70.8277053  39.7741596  34.2487364
  72.6146043  31.6361382  39.2225256  71.7682088  31.8084190  39.0966606
  72.6117175  30.8310726  39.5591084  72.4893193  31.5422411  39.2536383
  73.6844343  35.4136597  40.0887314  73.2104298  34.8878359  40.5992625
  74.0562479  34.8666069  39.5202175  73.6694232  35.2552593  40.0802461
  64.0617373  37.4108103  45.4570859  64.9242986  37.3103813  45.3708189
  63.7309156  36.8302813  44.8956432  64.1402570  37.3099730  45.3616265
  75.6127843  36.3073151  33.1513067  75.0850862  36.3901895  32.4618776
  76.0723551  37.0491023  33.1477712  75.6029693  36.4293814  33.0487763
  67.4219159  36.2350552  42.1181278  66.7972230  36.2468944  41.5107230
  67.0864754  36.7110727  42.7672518  67.2804651  36.3069069  42.1237846
  67.6060908  34.5775671  28.1753963  67.2573712  35.2295396  28.6385512
  67.1257354  34.5632784  27.4477834  67.4831152  34.6718724  28.1365054
  75.1664925  44.8776715  32.2822724  75.8899124  45.3434828  32.1387298
  74.7265517  44.9450324  31.5320322  75.2080618  44.9560551  32.1507506
  74.3351081  41.7374257  43.5323414  73.7208074  41.1932307  43.8272049
  74.8518365  41.2238493  43.0529230  74.3206743  41.5810666  43.5047642
  73.5747378  42.8078527  41.2667712  73.1474986  42.1828246  40.8333148
  73.5672322  42.5253449  42.0926719  73.5106519  42.6731308  41.3247540
  66.6909905  37.8443700  44.3356146  66.8503392  37.0887024  44.7407868
  66.5102798  38.3934640  44.9896884  66.6875264  37.8137514  44.4918852
  74.6330208  30.0104936  44.8906936  74.1370769  30.2068610  44.1998502
  75.3899270  30.4097604  44.7195737  74.6717032  30.0982669  44.7627072
  71.9033087  33.6847282  41.4810246  71.9275575  33.1507394  40.7923026
  72.1544561  33.1764590  42.1435837  71.9443006  33.5308186  41.4774891
  68.1834410  32.4118100  40.8615990  68.2232781  32.9127306  41.5750698
  67.3584074  32.5028494  40.5921914  68.0673936  32.4999916  40.9266529
  70.3664023  41.9778840  48.9636285  69.5159653  42.1150554  49.0993930
  70.5292150  41.2442618  49.4083987  70.2647886  41.8892941  49.0491884
  69.6048773  38.9278610  43.1589889  68.7740703  39.0952428  42.9525138
  69.5500290  38.5514560  43.9438775  69.4738188  38.8968341  43.2438418
  67.4132556  32.4187503  48.7946300  68.0385260  31.8749635  49.0675732
  66.9583036  31.9382420  48.2254091  67.4380817  32.2676984  48.7507894
  67.9784817  37.2034201  33.6880007  68.1187778  37.7006665  34.3908649
  68.4767350  36.5020496  33.8294221  68.0725898  37.1736180  33.8131586
  68.0085039  38.0701312  31.0172584  68.6430119  38.6661737  30.9522046
  68.0910650  37.7704770  31.8318454  68.1141590  38.1142220  31.1275671
  69.5864022  34.0015288  30.9918026  69.9079863  33.5218370  30.3377288
  69.8490966  34.8114934  30.8008838  69.6730048  34.0505186  30.8673518
  72.8160995  45.0234162  44.5116842  72.3086086  45.5770009  44.9557473
  72.5187641  45.0842452  43.6935617  72.6965880  45.1140473  44.4565299
  74.9823177  33.3887482  43.3541505  75.4078249  32.9360008  42.7425031
  74.3680170  32.8347552  43.6306293  74.9551822  33.2401458  43.3046530
  75.4268775  48.9397420  32.4420786  74.7098085  48.7658282  31.9768023
  76.0775513  48.7049992  31.9096272  75.4170626  48.8793212  32.2950003
  73.4217400  29.8602581  36.7632082  72.7785718  29.7100228  37.3317221
  73.0816807  29.6144927  35.9981187  73.2762477  29.8014704  36.7335097
  78.0116746  37.8162008  36.1862091  77.3407936  38.3591710  36.0575156
  78.7056497  38.2856864  35.9443785  78.0145614  37.9660279  36.1317618
  72.0603480  49.9558720  41.4173849  71.8369135  49.1977549  41.7857875
  71.5713323  49.9856741  40.6954289  71.9546929  49.8480945  41.3650590
  78.1744874  34.2717892  39.0952464  78.5272484  33.8447615  39.7698263
  77.3159675  34.1868735  39.2253540  78.0994318  34.1962632  39.2147474
  66.8728559  36.9025412  37.1535310  66.1540548  37.3189544  37.4208174
  67.2440921  37.4679650  36.6026949  66.8220491  37.0474693  37.1118117
  76.1728140  37.5353260  43.0437306  76.1526067  37.3536556  43.8972085
  76.2207340  38.4065279  43.0196890  76.1762781  37.6369799  43.1660601
  74.1174470  44.1240452  48.9685783  74.0770324  43.4790129  48.3830939
  74.9297788  44.0677070  49.2811195  74.2317623  44.0199419  48.9282732
  70.7081937  50.1759178  38.8710934  70.2942336  49.5133309  38.4814775
  71.3929311  50.3237037  38.3506628  70.7480309  50.0999836  38.7367431
  74.0747231  49.3349264  39.6234550  73.6763514  49.4451534  38.8555370
  73.4598451  49.5431330  40.2061110  73.9246120  49.3822832  39.5965850
  72.6475133  35.9423411  32.4908690  72.0539973  36.2640408  31.9393257
  72.6850411  35.0964507  32.2829796  72.5649522  35.8647740  32.3791461
  75.5232950  35.9002916  35.9210440  75.2946643  35.9235617  35.0788798
  75.7831026  35.0760383  36.0405451  75.5279138  35.7818996  35.8135638
  69.8052178  37.7537389  45.5235540  69.2931081  37.1458572  45.8820572
  69.6331674  38.4693982  45.9909516  69.7041815  37.7700688  45.6451764
  64.6517893  36.1974964  48.1737902  64.4820483  36.8576339  47.6286109
  64.2083843  36.4081526  48.8950391  64.5617227  36.3260946  48.1999532
  68.5777712  34.4379462  37.2164636  69.0535079  34.7996542  36.5814817
  68.0766312  35.0935930  37.4964779  68.5743071  34.5873651  37.1641377
  73.6821249  35.6761634  47.9637796  74.2392679  35.4475443  47.3316261
  73.3582314  36.4367299  47.6873008  73.7167659  35.7545470  47.8294293
  71.4004366  38.7629287  48.9289803  72.1515693  39.0780964  49.2429357
  71.5926942  38.5608458  48.1023725  71.5395780  38.7796669  48.8533199
  70.6204365  36.5820662  30.5838020  71.0003330  36.6000291  29.7989135
  69.8796962  37.0274651  30.4628867  70.5673203  36.6502437  30.4501588
  78.2489656  34.8902853  36.1713598  78.2483882  34.7351510  37.0297875
  78.0445836  35.7365840  36.1154984  78.2189434  34.9923474  36.2901538
  75.9730508  39.5700355  39.8249805  76.4684173  38.8523350  39.7853826
  75.1630284  39.2671153  39.7104292  75.9274401  39.4198001  39.8023531
  71.4189120  43.4198168  31.9746810  70.6100442  43.0964842  31.9280119
  71.9264028  42.7131390  31.9075058  71.3738786  43.2679485  31.9577104
  78.0382327  42.3204043  42.5126934  78.4637398  41.7978464  41.9597359
  77.6739247  42.9184880  41.9915557  78.0468929  42.3314270  42.3535944
  67.6736407  50.6168260  41.2724280  67.9882966  51.4304648  41.2802061
  68.0829820  50.2318479  41.9406439  67.7804505  50.6796962  41.3728371
  74.6260926  46.0338307  38.8428092  75.0972105  46.7478569  39.0118077
  74.9621105  45.4337057  39.3787961  74.7456041  46.0509771  38.9460467
  76.7137911  47.6439620  51.0220164  76.8234876  46.8548181  51.3776911
  77.0428808  47.5545556  50.2194502  76.7790317  47.5145473  50.9562554
  71.5430421  30.8065777  45.7986186  71.6758327  30.0096771  46.1267162
  71.9275574  31.3332180  46.3784462  71.6186750  30.7665694  45.9329689
  75.2634873  45.8256241  45.6055784  74.7155819  45.2014125  45.3375849
  75.7247901  46.0150513  44.8899864  75.2502082  45.7615291  45.4606215
  74.6162776  27.7296103  42.3967280  73.8108740  27.6193833  42.7135118
  74.4869512  27.8308559  41.5397145  74.4782909  27.7279774  42.3175320
  78.0728737  33.8941595  42.9906976  77.4891726  34.3950802  42.5784544
  78.3933031  33.3871152  42.3571300  78.0341912  33.8933430  42.8365484
  70.6123536  32.8082190  33.2665651  71.4339231  32.9780503  33.0247346
  70.1493187  32.9629451  32.5431949  70.6654698  32.8563923  33.1237296
  69.2018868  30.8024952  44.0464080  69.7463281  30.4616079  44.6368422
  69.2555804  31.6610414  44.1885365  69.2907987  30.8780212  44.1545953
  74.8293199  46.8307314  42.1365125  75.6491573  46.6870280  42.3981421
  74.5487277  47.4553513  42.6781563  74.9089942  46.9017666  42.2553065
  73.6597474  59.1449213  37.5113270  73.4247659  58.3116865  37.4045539
  73.7983115  59.4253879  36.6974471  73.6453137  59.0632716  37.3755625
  75.9587562  51.3134944  40.4097578  75.3392593  50.7227591  40.2407592
  75.8571425  51.9046379  39.7761901  75.8525237  51.3139026  40.2902567
  75.6856695  54.8587225  42.6541147  75.5615392  55.4449671  43.2890965
  76.3374979  54.3647421  42.9553422  75.7630344  54.8726030  42.7927076
  75.2214799  64.0234884  38.7869476  74.7382377  64.7485373  38.7629060
  76.0338117  64.3211014  38.8979634  75.2705547  64.1737237  38.7996755
  77.7895340  48.8909489  31.0052376  77.6070913  49.1081370  30.1793369
  78.6520953  49.0048502  31.0610990  77.8899929  48.9399387  30.8906863
  77.4009772  60.7297412  38.4475364  78.2398671  60.9620344  38.4949126
  77.4321541  59.8601723  38.3782399  77.5291489  60.6354358  38.4440009
  78.0262475  61.1498287  42.7488669  78.5660700  61.0069418  43.4192042
  77.3432421  61.5495038  43.1172696  78.0054629  61.1877958  42.9023091
  73.4299620  57.3698578  42.9023091  73.1638035  56.5537694  43.0614081
  73.4438184  57.4151733  42.0318606  73.3924342  57.2555482  42.7976573
  77.3357367  52.1683662  29.5174849  76.6215544  51.8821842  29.9297282
  77.8201335  52.5080288  30.1581237  77.3016730  52.1765312  29.6730484
  73.8393033  58.1557357  40.1834835  73.6568607  58.1304243  39.3307127
  74.5742702  58.6256295  40.2223744  73.9207097  58.2218719  40.0632754
  76.9038785  54.8742360  46.6916944  77.6278757  54.8595391  47.1781839
  77.0054922  55.5837715  46.1938912  77.0256994  54.9767063  46.6895731
  73.8063944  55.0350858  40.3333902  74.3837446  54.8987308  40.9726147
  73.1078006  54.5786642  40.5879486  73.7884965  54.9473124  40.4656191
  69.2822777  53.8862751  37.0481720  69.3683029  53.5094619  37.8295250
  69.9098574  53.5123196  36.5701679  69.3879328  53.7748233  37.0927198
  74.8698736  62.6554484  41.1013081  74.9102881  62.9269335  40.2732861
  75.4293260  63.1796392  41.5170869  74.9582082  62.7730239  41.0404969
  76.3213322  61.2396433  35.9267007  75.4951440  61.4858170  35.8001286
  76.3825313  61.1608513  36.7929065  76.2087489  61.2641382  36.0355951
  76.4656698  50.7823633  34.3279323  76.1781493  50.4124903  33.5911271
  77.1527166  51.2518488  34.0663028  76.5245595  50.7970602  34.1794399
  76.9517986  57.0534653  44.8800868  77.4639083  57.3318907  44.2309628
  76.6654329  57.7923948  45.2463681  76.9852849  57.2037007  44.8390746
  74.0384892  51.5604845  35.1764604  74.1401029  52.3631007  35.5045580
  74.8340779  51.3592181  34.8787685  74.1712798  51.6490744  35.1799960
  74.8548624  51.6752024  42.9185726  74.7134116  50.8235964  43.0430234
  75.1389188  51.7180684  42.0947932  74.8756471  51.5551774  42.8153350
  75.6238930  49.5882371  46.2363176  75.0881119  48.9762729  46.5523944
  75.6856694  50.1630507  46.8896843  75.5534562  49.5829299  46.3798603
  77.7427686  56.9963105  36.0483231  77.8992305  56.9309908  36.9039223
  78.0828279  57.7711658  35.8361911  77.8160920  57.1012303  36.1437825
  74.3161947  54.1798056  36.3643998  74.6960912  54.5982601  35.7004266
  73.7417312  54.7611511  36.6712842  74.2873272  54.3275915  36.3120739
  77.9592749  55.7458460  40.9959493  77.1180755  55.6462335  41.2038387
  78.1682757  56.5153941  41.3473813  77.8657441  55.8450504  41.0786808
  75.4368316  53.3677997  38.8244243  75.0425013  53.4421009  38.0494353
  74.8808432  53.7535944  39.3752605  75.2971128  53.4359772  38.7911903
  77.8501556  58.1402223  42.4151126  77.2589490  58.7811721  42.3854141
  78.6122580  58.5639840  42.3882425  77.8749817  58.2978061  42.4066273
  78.2462179  49.3004221  43.0819143  78.7063661  49.3743150  43.8194267
  78.2918286  50.0985475  42.7318965  78.3212735  49.4298368  43.1391900
  75.0349957  52.9293411  45.4570859  75.8975570  52.8289120  45.3708189
  74.7041740  52.3488121  44.8956432  75.1135153  52.8285038  45.3616265
  78.3951743  51.7535860  42.1181278  77.7704813  51.7654252  41.5107230
  78.0597338  52.2296035  42.7672518  78.2537235  51.8254377  42.1237846
  78.5793492  50.0960979  28.1753963  78.2306296  50.7480704  28.6385512
  78.0989938  50.0818092  27.4477834  78.4563736  50.1904032  28.1365054
  75.1077419  59.8136320  43.5585042  74.5777343  59.1228759  43.6080017
  75.3802512  59.8046506  42.7297750  75.0702141  59.7103452  43.4432458
  77.6642488  53.3629008  44.3356146  77.8235975  52.6072332  44.7407868
  77.4835382  53.9119948  44.9896884  77.6607847  53.3322822  44.4918852
  70.3873261  56.4864084  40.9153390  70.2816710  56.4410929  40.0505474
  69.6373481  56.8317865  41.1967675  70.2608864  56.5304993  40.8290720
  75.4870611  55.7854461  34.2862130  75.9962840  56.3818968  34.6673436
  75.9604883  55.5180435  33.6038550  75.6313986  55.8340276  34.2416653
  77.8461142  52.4210719  37.1535310  77.1273132  52.8374852  37.4208174
  78.2173505  52.9864958  36.6026949  77.7953074  52.5660001  37.1118117
  75.6250477  51.7160272  48.1737902  75.4553067  52.3761647  47.6286109
  75.1816426  51.9266833  48.8950391  75.5349810  51.8446254  48.1999532
  72.5252541  54.6207138  43.4326392  71.9779260  53.9507783  43.5507260
  73.3144919  54.2536986  43.4969859  72.5604725  54.4672124  43.4595093
  71.2839511  53.8327946  40.5872415  71.1061272  53.3804555  41.3127331
  70.9958533  54.6354107  40.7710893  71.2152464  53.8850503  40.7215918
  73.0211980  56.3655669  37.6994174  72.1557500  56.3541360  37.5876945
  73.1210796  56.1785892  38.5465313  72.9086147  56.3361731  37.8083118
  75.9882010  60.0826676  40.9202888  76.5926868  60.0422511  40.2916709
  75.7809323  60.9297828  40.9506944  76.0470908  60.2014679  40.8319004
  71.2233293  59.0661294  40.7901811  71.1257571  58.2557565  41.0991868
  72.0062162  59.0453087  40.4048079  71.3249429  58.9428384  40.7788674
  56.6333331   9.0118050  22.5538211  55.8816230   8.6333588  22.3254256
  57.0819342   9.0436483  21.8057021  56.5882998   8.9603657  22.4095713
  62.0858291   9.4343419  17.9823758  61.7509659  10.1120341  17.5467980
  62.5985161   9.0448730  17.3940629  62.1123872   9.4767997  17.8310549
  61.6262582  11.3857688  23.9234869  62.0101961  11.9544586  23.3839644
  61.5621723  10.6607198  23.4440685  61.6736009  11.3633151  23.7728732
  58.2118087   9.0236442  24.8200983  58.3128450   8.2136796  25.1298111
  57.6159832   8.9293388  24.1900662  58.1390626   8.8901470  24.7727221
  58.0518826  13.9414031  26.2215839  58.6956282  14.3827195  26.6111997
  58.3775082  13.1367457  26.1346098  58.1950655  13.8879226  26.2661316
  51.4083131   5.0456728  24.4453317  51.1733316   4.2124381  24.3385585
  51.5468772   5.3261394  23.6314518  51.3938794   4.9640232  24.3095672
  58.7539406   6.9526006  21.5935701  59.0755247   7.4931213  20.9897009
  59.4011503   6.3822777  21.7257991  58.8965461   6.9485181  21.5242736
  60.9986784   6.7811363  28.5175597  61.2810027   5.9862769  28.2962353
  61.7272944   7.2591951  28.5380658  61.1476348   6.7345960  28.4878612
  52.9700456   9.9242399  25.7209523  52.4868034  10.6492889  25.6969106
  53.7823774  10.2218529  25.8319681  53.0191204  10.0744753  25.7336802
  59.0414610   8.7174580  28.3259337  58.5241552   8.3581995  27.7220645
  59.7389001   8.1936754  28.3365403  59.0680191   8.5872268  28.2389596
  62.6978202   9.1669394  34.2875510  62.7861548   8.9795534  35.1353721
  63.1267914   8.5206823  33.8880357  62.7740304   9.0432402  34.3547262
  60.2648662   8.4500554  33.2693173  59.7019496   8.0373164  33.7932834
  61.0269685   8.3753459  33.6886316  60.2943110   8.3777954  33.4086173
  55.8244653  10.4398575  25.8729803  56.5265232   9.9250564  25.9302559
  55.7442136  10.7672726  26.6776678  55.9168414  10.4112801  26.0002595
  55.1495429   6.6304927  25.3815411  55.9884328   6.8627860  25.4289172
  55.1807198   5.7609238  25.3122446  55.2777146   6.5361873  25.3780055
  55.7748132   7.0505802  29.6828716  56.3146356   6.9076933  30.3532089
  55.0918078   7.4502553  30.0512742  55.7540285   7.0885473  29.8363138
  62.8098261   8.5978413  36.9519294  63.5938678   8.7109261  37.3175036
  62.6094856   7.7719550  37.1477980  62.8964287   8.4925132  37.0353680
  51.1785277   3.2706093  29.8363138  50.9123692   2.4545210  29.9954128
  51.1923841   3.3159248  28.9658653  51.1409999   3.1562998  29.7316620
  62.9668654  10.5088515  30.5985750  62.1683900  10.2688015  30.8559618
  63.4154666  10.5602908  31.3452797  62.9143266  10.4810906  30.7470674
  51.5878690   4.0564872  27.1174882  51.4054263   4.0311758  26.2647174
  52.3228359   4.5263810  27.1563791  51.6692754   4.1226235  26.9972801
  57.9271750   6.3173662  24.1518824  58.5645697   6.0785410  24.6970617
  58.3526822   6.5210821  23.4171985  58.0847916   6.3124673  24.1235981
  52.6184392   8.5561999  28.0353128  52.6588538   8.8276850  27.2072907
  53.1778917   9.0803907  28.4510916  52.7067738   8.6737754  27.9745016
  60.3093222   6.7946085  25.8312610  60.3832230   6.6321257  26.6854460
  61.1262728   6.9836275  25.5873092  60.4409581   6.7982827  25.9210636
  54.0698979   7.1403948  22.8607054  53.2437096   7.3865685  22.7341333
  54.1310970   7.0616029  23.7269112  53.9573146   7.1648897  22.9695998
  58.8497808   9.7580828  20.5626084  59.1396106   9.3669809  19.8385310
  59.5801289   9.9397533  21.0031359  59.0004692   9.7274642  20.5208891
  56.7903723  11.7348211  23.6286233  56.5704019  11.4445565  24.4212900
  56.5698245  11.0763166  23.1004146  56.7251318  11.5947919  23.6675142
  58.9571679  13.1077601  22.4116926  59.6095737  12.5754043  22.6407952
  58.2597288  12.7546253  22.7984800  58.9502397  12.9767124  22.5029094
  55.9052944   5.4616778  21.8184300  56.6598912   5.8429817  22.0319763
  55.3123557   5.9127922  22.2730997  55.9289657   5.5845606  21.9167179
  57.2251171   6.6325339  27.1924416  56.7031924   6.7725631  27.8776280
  57.6125191   5.8736004  27.3826533  57.2054871   6.5410863  27.3225492
  63.4218175   8.3720799  21.1784984  63.1804851   7.6388659  20.7712049
  63.6019508   8.9207656  20.5251318  63.4125799   8.3443190  21.0215207
  57.7897656  10.3386119  30.2754271  57.9387220   9.7789035  29.6227676
  58.5697658  10.4178121  30.6586790  57.9271750  10.2671685  30.2351220
  60.3150957  10.5100762  31.5538762  60.2394628   9.8409573  32.1089550
  60.2440816  11.2118551  32.0679428  60.2931563  10.5145670  31.7115610
  60.9721203   9.0301761  22.3862368  61.7371095   8.7611405  22.0645032
  60.8699293   8.5451772  23.1032431  61.0702699   8.9191326  22.4442195
  59.7042591  13.9169082  30.0116763  60.1938521  13.2179871  29.8292427
  59.1326823  13.6192952  30.5992820  59.6927121  13.7695306  30.0717803
  60.1978937   7.6645856  19.1356669  60.2671757   6.8060394  19.2749670
  60.9767392   7.8817737  18.8075694  60.3231787   7.5698720  19.1073826
  64.5886424  10.0883557  23.3493162  64.1966216   9.7850272  22.6316029
  64.7439496  10.9252647  23.1598116  64.5540014  10.1667394  23.2149660
  65.9685095   8.2357250  30.8771751  66.7577473   7.8846315  30.9973832
  66.1428693   9.0493639  30.6148384  66.1105377   8.3043107  30.8559619
  57.5813421   6.7897096  31.8869235  57.4733776   6.7999158  32.7531293
  57.7909203   7.6151876  31.6974189  57.5963532   6.9138171  31.9873326
  55.5987213   4.0409738  29.3491172  55.0075146   4.6819236  29.3194187
  56.3608237   4.4647355  29.3222472  55.6235474   4.1985577  29.3406320
  65.3576729   9.4919050  26.7823197  65.1596418   9.9809864  26.0879408
  64.7364441   9.6960291  27.3607330  65.2364294   9.5935588  26.7646420
  52.8563075   5.7143836  30.4925089  52.3263000   5.0236275  30.5420063
  53.1288169   5.7054021  29.6637797  52.8187798   5.6110967  30.3772505
  48.1358918   2.3871600  27.8493437  48.0302367   2.3418444  26.9845521
  47.3859138   2.7325380  28.1307722  48.0094521   2.4312508  27.7630767
  61.5379235   6.4426985  31.4456889  61.0304326   6.9962832  31.8897519
  61.2405881   6.5035275  30.6275663  61.4184120   6.5333296  31.3905346
  64.1487016  10.3590243  19.3760832  63.4316325  10.1851105  18.9108070
  64.7993753  10.1242815  18.8436318  64.1388866  10.2986035  19.2290050
  60.7821720  11.3751543  28.3513896  60.5587375  10.6170373  28.7197922
  60.2931564  11.4049565  27.6294335  60.6765170  11.2673768  28.2990637
  59.4300177  11.5952002  25.8050980  59.0160576  10.9326132  25.4154822
  60.1147552  11.7429860  25.2846675  59.4698549  11.5192660  25.6707478
  62.7965472  10.7542087  26.5574597  62.3981755  10.8644357  25.7895417
  62.1816691  10.9624153  27.1401157  62.6464361  10.8015655  26.5305896
  56.3954647  12.0361083  28.2064326  56.7101206  12.8497472  28.2142108
  56.8048060  11.6511302  28.8746486  56.5022745  12.0989786  28.3068418
  63.3479167   7.4531130  25.7768138  63.8190345   8.1671393  25.9458124
  63.6839345   6.8529880  26.3128008  63.4674282   7.4702594  25.8800514
  65.4356151   9.0632443  37.9560210  65.5453117   8.2741004  38.3116958
  65.7647048   8.9738380  37.1534548  65.5008557   8.9338296  37.8902601
  53.7367667   5.9834192  27.8542935  54.3412525   5.9430026  27.2256756
  53.5294980   6.8305344  27.8846991  53.7956564   6.1022194  27.7659051
  63.5511439   8.2500137  29.0705172  64.3709813   8.1063103  29.3321467
  63.2705517   8.8746336  29.6121610  63.6308183   8.3210489  29.1893112
  48.9718949   4.9668809  27.7241858  48.8743228   4.1565081  28.0331915
  49.7547819   4.9460603  27.3388126  49.0735086   4.8435899  27.7128721
  73.2224775  14.9940640  26.7900979  72.3662670  15.1549138  26.8410096
  73.2692428  14.1232704  26.8106040  73.1023886  14.8891441  26.8007045
  67.6065914  24.5303357  22.5538211  66.8548814  24.1518896  22.3254256
  68.0551926  24.5621791  21.8057021  67.5615581  24.4788965  22.4095713
  76.5318491  21.2627165  36.3961435  77.2385258  20.7679196  36.5248370
  76.7206427  21.7036247  35.6664093  76.6646397  21.2545516  36.3070481
  73.0590874  24.9528727  17.9823758  72.7242243  25.6305649  17.5467980
  73.5717745  24.5634038  17.3940629  73.0856455  24.9953305  17.8310549
  72.5995165  26.9042996  23.9234869  72.9834545  27.4729894  23.3839644
  72.5354307  26.1792506  23.4440685  72.6468593  26.8818459  23.7728732
  76.0676596  17.0532684  29.4332631  76.6132556  17.7317770  29.4926600
  76.0093472  16.9120144  28.5734212  76.1392510  17.1324685  29.3144691
  69.1850670  24.5421750  24.8200983  69.2861033  23.7322104  25.1298111
  68.5892416  24.4478696  24.1900662  69.1123209  24.4086778  24.7727221
  77.8441664  18.4817291  20.3066358  77.7281190  19.2324977  20.7358496
  78.6397551  18.2241244  20.5562445  77.9446254  18.5552138  20.4070450
  69.0251410  29.4599339  26.2215839  69.6688866  29.9012503  26.6111997
  69.3507666  28.6552765  26.1346098  69.1683239  29.4064534  26.2661316
  62.3815715  20.5642036  24.4453317  62.1465899  19.7309689  24.3385585
  62.5201355  20.8446702  23.6314518  62.3671377  20.4825540  24.3095672
  64.6805802  12.7327767  27.3437624  64.0610834  12.1420414  27.1747639
  64.5789666  13.3239202  26.7101948  64.5743478  12.7331849  27.2242614
  69.7271990  22.4711314  21.5935701  70.0487831  23.0116521  20.9897009
  70.3744086  21.9008085  21.7257991  69.8698045  22.4670489  21.5242736
  71.7773698  14.4727309  21.6770087  72.4753863  14.6515436  22.1691551
  72.0926030  13.9497648  21.0540477  71.9269035  14.4221081  21.6572098
  64.4074935  16.2780049  29.5881193  64.2833632  16.8642494  30.2231012
  65.0593220  15.7840244  29.8893468  64.4848585  16.2918853  29.7267123
  71.9661633  20.8597754  21.6649879  72.4055269  20.2514854  22.1104652
  71.8166296  20.4805127  20.8935344  72.0083099  20.7136225  21.6169046
  69.4333276  19.4541765  28.8668704  70.0782279  18.9614209  28.5479653
  69.6735053  19.5966552  29.6934783  69.5643861  19.4019208  28.9418238
  71.9719368  22.2996671  28.5175597  72.2542610  21.5048077  28.2962353
  72.7005528  22.7777259  28.5380658  72.1208931  22.2531268  28.4878612
  69.9500561   9.8419705  25.7591362  69.6203891  10.2930849  25.0895061
  69.2745563   9.7635869  26.3064369  69.8010998   9.8970840  25.7414585
  75.5670970  19.2124935  18.6180648  75.4822265  20.0685902  18.7630217
  76.0555353  18.9369259  19.2862807  75.6259867  19.2982256  18.7382730
  76.4989403  15.8309729  20.1178383  75.9700874  16.0469363  20.7775690
  77.0214423  16.5245868  20.0379353  76.4977856  15.9652866  20.2033983
  68.3889011  19.7272946  18.9185851  67.8046226  20.2322977  19.3251715
  67.9859106  19.5015333  18.1782443  68.2428315  19.7681194  18.8690877
  63.9433039  25.4427707  25.7209523  63.4600618  26.1678197  25.6969106
  64.7556358  25.7403837  25.8319681  63.9923787  25.5930061  25.7336802
  70.0147193  24.2359888  28.3259337  69.4974135  23.8767303  27.7220645
  70.7121585  23.7122062  28.3365403  70.0412775  24.1057576  28.2389596
  73.6710785  24.6854702  34.2875510  73.7594131  24.4980842  35.1353721
  74.1000498  24.0392131  33.8880357  73.7472888  24.5617709  34.3547262
  71.2381245  23.9685862  33.2693173  70.6752080  23.5558472  33.7932834
  72.0002269  23.8938767  33.6886316  71.2675694  23.8963262  33.4086173
  66.7977237  25.9583883  25.8729803  67.4997816  25.4435872  25.9302559
  66.7174720  26.2858034  26.6776678  66.8900997  25.9298109  26.0002595
  67.8456143  16.1959470  35.0010218  68.0176647  16.0865364  35.8495499
  68.3825501  16.8413875  34.7641410  67.9501147  16.2751471  35.0915314
  66.5113580  10.3102313  17.9392423  66.3289153  10.5274193  17.1133416
  67.3739193  10.4241325  17.9951037  66.6118170  10.3592211  17.8246910
  66.1228012  22.1490235  25.3815411  66.9616912  22.3813168  25.4289172
  66.1539781  21.2794546  25.3122446  66.2509730  22.0547181  25.3780055
  66.7480715  22.5691110  29.6828716  67.2878940  22.4262241  30.3532089
  66.0650661  22.9687861  30.0512742  66.7272869  22.6070781  29.8363138
  76.1721600  18.2482111  24.8773741  76.9279115  18.6813625  24.9162649
  76.2783924  17.5986880  25.4508377  76.2991771  18.2159595  24.9671766
  73.7830845  24.1163721  36.9519294  74.5671261  24.2294569  37.3175036
  73.5827439  23.2904858  37.1477980  73.8696870  24.0110440  37.0353680
  62.1517860  18.7891401  29.8363138  61.8856275  17.9730518  29.9954128
  62.1656424  18.8344556  28.9658653  62.1142582  18.6748306  29.7316620
  66.0575607  13.5876485  16.4514896  65.3433784  13.3014665  16.8637328
  66.5419576  13.9273111  17.0921283  66.0234970  13.5958135  16.6070531
  66.9016467  12.3269779  32.4830145  66.2088263  11.8566759  32.7290877
  67.5176794  12.1008084  33.0571853  66.8900996  12.2236911  32.6039298
  73.9401238  26.0273823  30.5985750  73.1416484  25.7873323  30.8559618
  74.3887250  26.0788216  31.3452797  73.8875849  25.9996214  30.7470674
  73.2322925  22.0906439  16.8276704  73.6474074  21.7591463  16.1361200
  72.4014855  21.8575341  16.6996841  73.1710934  22.0077695  16.7067551
  62.5611274  19.5750180  27.1174882  62.3786847  19.5497066  26.2647174
  63.2960943  20.0449118  27.1563791  62.6425338  19.6411542  26.9972801
  65.6257025  16.2935183  33.6256991  66.3496998  16.2788214  34.1121885
  65.7273162  17.0030538  33.1278959  65.7475235  16.3959886  33.6235777
  73.0001975  19.7734268  38.4905938  72.2074956  20.0877780  38.6758557
  73.1150902  19.9885736  37.6526722  72.8997385  19.8518104  38.3944272
  75.6733294  16.4968259  22.7800954  75.7680148  17.2357553  23.2340579
  75.0492137  16.0685734  23.2135518  75.5942324  16.5429579  22.9109101
  73.9285768  19.6754471  33.4291234  74.5024629  19.0381716  33.5839798
  73.8500571  19.6758554  32.5600892  74.0019003  19.5819583  33.3237645
  62.5282184  16.4543681  27.2673949  63.1055687  16.3180132  27.9066194
  61.8296246  15.9979465  27.5219533  62.5103206  16.3665947  27.3996238
  69.2849486  18.1077737  25.4812432  69.0268731  17.2749471  25.4543731
  69.3397969  18.3335350  24.6404932  69.2549264  18.0175508  25.3532569
  68.2584198  15.6615499  25.9677327  67.6833790  15.8207667  26.6041288
  67.8819875  15.0250908  25.5045777  68.1187011  15.5913312  25.9931885
  71.9257487  14.1338848  30.8269705  71.5371920  13.7093066  30.1721896
  71.2612185  14.3820998  31.3346732  71.7704415  14.1077569  30.8057573
  58.0041017  15.3055574  23.9821767  58.0901269  14.9287442  24.7635297
  58.6316815  14.9316019  23.5041725  58.1097568  15.1941056  24.0267244
  73.0296425  18.3637453  19.0246512  73.8437064  18.6552346  18.9129283
  72.9655567  17.7097315  18.4504805  73.1399164  18.3102648  18.9235349
  68.9004334  21.8358970  24.1518824  69.5378281  21.5970718  24.6970617
  69.3259405  22.0396129  23.4171985  69.0580500  21.8309981  24.1235981
  63.5916976  24.0747307  28.0353128  63.6321121  24.3462158  27.2072907
  64.1511500  24.5989215  28.4510916  63.6800322  24.1923062  27.9745016
  69.5407149  17.0561260  18.4893713  69.9252301  16.8368967  19.2410259
  69.2918769  17.8824206  18.6194790  69.5609221  17.1459406  18.6194790
  69.7075689  10.3367675  38.2056298  69.3929130  11.1067238  37.9425860
  69.3865622   9.7737931  37.6208525  69.6134608  10.3677944  38.0797648
  71.2825806  22.3131393  25.8312610  71.3564814  22.1506565  26.6854460
  72.0995312  22.5021583  25.5873092  71.4142164  22.3168135  25.9210636
  65.0431562  22.6589256  22.8607054  64.2169680  22.9050993  22.7341333
  65.1043554  22.5801337  23.7269112  64.9305729  22.6834205  22.9695998
  67.2607586   8.7258197  23.8202494  66.3930011   8.7980796  23.8860103
  67.5482790   9.5280276  24.0090469  67.1747334   8.8552344  23.8577261
  69.8230391  25.2766136  20.5626084  70.1128690  24.8855117  19.8385310
  70.5533872  25.4582841  21.0031359  69.9737276  25.2459950  20.5208891
  70.4125137  20.0783882  31.6479214  69.9136830  20.7899650  31.7264103
  71.2225361  20.3984549  31.6097377  70.4581243  20.2310731  31.6535783
  67.7636307  27.2533519  23.6286233  67.5436602  26.9630873  24.4212900
  67.5430829  26.5948474  23.1004146  67.6983901  27.1133227  23.6675142
  66.6753254  19.3406835  25.8941935  66.3866503  18.7144306  26.4287662
  67.5436602  19.2827122  25.9606616  66.7613506  19.2394379  25.9832890
  77.4631152  14.4841618  26.2123917  77.1195918  13.7631954  26.5631167
  77.5624194  14.2755470  25.3702275  77.4273195  14.3465822  26.1395597
  69.9304263  28.6262908  22.4116926  70.5828321  28.0939351  22.6407952
  69.2329871  28.2731561  22.7984800  69.9234981  28.4952431  22.5029094
  66.8785527  20.9802086  21.8184300  67.6331495  21.3615125  22.0319763
  66.2856140  21.4313230  22.2730997  66.9022241  21.1030913  21.9167179
  77.9244181  20.9467322  21.7547905  78.4902214  21.6060532  21.6706448
  77.2772084  21.2917021  22.2264307  77.9122937  21.0949264  21.8120662
  69.3392194  12.9364926  36.9441512  68.5291970  13.2422706  36.8331355
  69.8166881  13.6570509  37.0594097  69.2895673  13.0879528  36.9448584
  68.1983754  22.1510647  27.1924416  67.6764508  22.2910939  27.8776280
  68.5857774  21.3921312  27.3826533  68.1787455  22.0596171  27.3225492
  65.1874938  12.2016456  21.2619370  64.8999734  11.8317727  20.5251318
  65.8745406  12.6711311  21.0003075  65.2463835  12.2163426  21.1134446
  74.3950759  23.8906107  21.1784984  74.1537435  23.1573967  20.7712049
  74.5752092  24.4392964  20.5251318  74.3858383  23.8628498  21.0215207
  69.6250080  19.1814666  22.5905907  69.4292862  19.7889401  21.9966210
  69.8484425  18.4882610  22.1097581  69.6284721  19.1692192  22.4321987
  68.0228610  16.0669404  22.7086775  68.7451262  16.2310562  22.2490581
  67.5436602  16.7879069  22.6026115  68.0592340  16.1967634  22.6252389
  75.9822117  12.4033203  28.0883460  75.1433218  12.4294482  27.8521723
  76.0526485  13.0503939  28.6688807  75.8690511  12.5029329  28.1392577
  65.6736226  18.4727477  31.8140915  66.1857323  18.7511730  31.1649675
  65.3872569  19.2116771  32.1803728  65.7071090  18.6229830  31.7730793
  62.7603133  12.9797669  22.1104651  62.8619269  13.7823830  22.4385627
  63.5559019  12.7785005  21.8127732  62.8931038  13.0683567  22.1140007
  69.1919952  10.5653865  31.8741956  69.0003149  10.5809000  32.7241380
  70.0418548  10.7617540  31.8508611  69.2895674  10.5968217  31.9965251
  63.5766865  13.0944847  29.8525773  63.4352357  12.2428787  29.9770281
  63.8607428  13.1373507  29.0287979  63.5974711  12.9744597  29.7493397
  73.7305457  14.9311937  23.9970261  73.4840171  14.8507688  24.8307050
  74.0590580  14.1465405  23.8032789  73.7426701  14.8038202  24.0917784
  77.6253506  21.6395296  27.7857042  77.4867865  22.3376342  28.2905785
  76.8453504  21.4843953  27.4293224  77.4896733  21.7195463  27.8083317
  75.9631591  17.9391672  34.0379424  75.9579630  17.0671488  34.0421851
  76.6692585  18.1379841  33.5648880  76.0676595  17.8395546  33.9686459
  69.6902484  17.6668656  33.4093244  69.8345860  18.2469864  32.7736354
  70.0378133  18.0444952  34.1143099  69.7629946  17.8089360  33.4192239
  71.8622402  16.8658824  31.1918376  71.1145716  17.0589838  30.7866654
  72.0163927  16.0404044  30.9542497  71.7744829  16.7723935  31.0963782
  68.7630239  25.8571427  30.2754271  68.9119803  25.2974343  29.6227676
  69.5430242  25.9363429  30.6586790  68.9004333  25.7856993  30.2351220
  71.2883540  26.0286070  31.5538762  71.2127211  25.3594881  32.1089550
  71.2173399  26.7303858  32.0679428  71.2664147  26.0330978  31.7115610
  72.1024179  10.7609375  32.0813780  72.5596793  11.4933349  32.2086572
  72.1780508  10.3375840  32.8401035  72.1815149  10.8066613  32.2114856
  64.3457170  11.0075194  33.1703223  63.8099360  10.3955553  33.4863991
  64.4074935  11.5823330  33.8236890  64.2752803  11.0022122  33.3138650
  71.9453787  24.5487069  22.3862368  72.7103678  24.2796713  22.0645032
  71.8431877  24.0637080  23.1032431  72.0435282  24.4376634  22.4442195
  69.9806557  12.7511479  28.9255604  69.1902632  12.5702939  29.2472939
  70.3767180  11.9738431  28.9085898  69.9223433  12.6098940  28.9708152
  75.3650243  20.3853909  26.6515049  74.6895245  20.1539141  27.1528437
  75.3742619  19.7775092  26.0257155  75.2668748  20.2612834  26.6331202
  72.4944387  15.2271738  33.4079103  72.4303528  16.0881694  33.2799239
  72.6341575  14.9103731  32.6074654  72.5059857  15.3071904  33.2707315
  77.3666978  23.2419041  18.8825227  77.4486815  24.0486027  18.5586678
  77.8516720  23.2615000  19.6066001  77.4504136  23.3639704  18.9412126
  71.1763481  17.9203877  27.5495305  70.7525730  18.1208376  26.8134324
  71.0008336  17.0732725  27.6619605  71.0874362  17.8252659  27.4568996
  70.6775174  29.4354390  30.0116763  71.1671105  28.7365179  29.8292427
  70.1059407  29.1378260  30.5992820  70.6659704  29.2880614  30.0717803
  66.4645926  18.4155929  22.9823278  66.6210545  18.3502731  23.8379270
  66.8046519  19.1904481  22.7701958  66.5379161  18.5205127  23.0777872
  73.0025071  17.7913812  21.8516641  73.5440616  17.2884193  22.3155262
  73.3171630  17.7379007  21.0406126  73.1289468  17.7093233  21.8000453
  76.8742178  22.0016459  38.9643553  77.6877043  21.7301608  39.1248686
  76.7137144  21.7023999  38.1603749  76.9712126  21.9171385  38.8688959
  71.1711520  23.1831164  19.1356669  71.2404341  22.3245702  19.2749670
  71.9499975  23.4003045  18.8075694  71.2964370  23.0884028  19.1073826
  74.1514340  12.6850117  31.9038942  74.3656309  12.0461031  31.3502296
  73.5348239  13.1295940  31.4746803  74.0919669  12.6560260  31.7589373
  75.5619008  25.6068865  23.3493162  75.1698800  25.3035580  22.6316029
  75.7172080  26.4437955  23.1598116  75.5272598  25.6852702  23.2149660
  63.0380187  15.5990879  23.2984045  63.4179152  16.0175424  22.6344312
  62.4635552  16.1804335  23.6052888  63.0091512  15.7468738  23.2460786
  76.3153428  14.2939182  32.8422249  75.5030110  13.9865072  32.9235421
  76.7743362  13.8138182  33.4064961  76.2633813  14.1775674  32.9376843
  75.7258683  22.1718854  23.2899193  75.3673337  22.3433497  24.0663225
  75.2397393  22.6332059  22.7327192  75.6017379  22.2657825  23.3224462
  70.5147048  17.8518019  15.8299427  70.8039573  18.6282902  16.1043002
  70.6018847  17.3406751  16.5313927  70.5701304  17.8909938  15.9741925
  73.4106935  15.6999253  37.6250951  73.8806567  16.3241370  38.0118825
  73.4568816  15.0316229  38.1844166  73.4874811  15.6933934  37.7651022
  76.8863422  23.0622750  34.2366394  77.5243142  22.5682945  33.9028850
  76.2437513  22.9900150  33.6518621  76.8857648  22.9781758  34.1008749
  78.6120422  14.9111896  28.8032310  78.1848030  14.8238244  28.0480409
  77.9746475  15.0189671  29.3887154  78.4550029  14.9144556  28.7777751
  76.9417679  23.7542558  30.8771751  77.7310057  23.4031623  30.9973832
  77.1161276  24.5678946  30.6148384  77.0837960  23.8228415  30.8559619
  66.6810989  17.1651284  27.9299539  65.8398996  17.0655158  28.1378433
  66.8900997  17.9346764  28.2813860  66.5875682  17.2643327  28.0126854
  64.1586556  14.7870821  25.7584290  63.7643254  14.8613833  24.9834400
  63.6026673  15.1728767  26.3092652  64.0189368  14.8552595  25.7251950
  70.4927654  15.0932683  27.1797137  70.1890791  14.5388671  27.7807545
  69.7907075  15.2724893  26.6925171  70.3443864  15.0377465  27.1966843
  69.5493751  12.4033203  21.7441839  69.8253485  11.6852115  21.3319406
  70.1492420  13.0018123  21.5362945  69.6787016  12.3853573  21.6522600
  68.5546005  22.3082404  31.8869235  68.4466360  22.3184466  32.7531293
  68.7641786  23.1337184  31.6974189  68.5696116  22.4323478  31.9873326
  66.5719797  19.5595046  29.3491172  65.9807730  20.2004544  29.3194187
  67.3340820  19.9832663  29.3222472  66.5968057  19.7170884  29.3406320
  66.9680420  10.7197044  30.0159190  67.4281901  10.7935973  30.7534314
  67.0136526  11.5178298  29.6659011  67.0430975  10.8491191  30.0731946
  68.6163769  11.3863739  34.5831217  68.2249334  10.7397086  35.0186995
  68.7849632  11.9775174  35.2025472  68.5834680  11.3778007  34.7393923
  76.3309313  25.0104358  26.7823197  76.1329002  25.4995172  26.0879408
  75.7097024  25.2145599  27.3607330  76.2096877  25.1120896  26.7646420
  70.3917291  16.7789254  21.1233441  71.1359336  17.1663531  21.3616391
  70.5377988  15.9346680  21.2873929  70.5227877  16.7119727  21.1827411
  73.3795167  12.3514728  27.0227360  72.9055122  11.8256490  27.5332671
  73.7513303  11.8044201  26.4542222  73.3645056  12.1930724  27.0142508
  63.7568197  14.3486234  32.3910906  64.6193810  14.2481944  32.3048236
  63.4259980  13.7680944  31.8296478  63.8353394  14.2477861  32.2956312
  67.1169983  13.1728683  29.0521324  66.4923054  13.1847075  28.4447277
  66.7815578  13.6488859  29.7012565  66.9755475  13.2447200  29.0577893
  67.3011732  11.5153802  15.1094009  66.9524536  12.1673527  15.5725559
  66.8208178  11.5010915  14.3817881  67.1781976  11.6096856  15.0705101
  63.8295659  21.2329144  30.4925089  63.2995583  20.5421583  30.5420063
  64.1020752  21.2239329  29.6637797  63.7920381  21.1296275  30.3772505
  74.8615749  21.8154846  19.2162771  75.5849948  22.2812959  19.0727345
  74.4216340  21.8828456  18.4660368  74.9031442  21.8938683  19.0847553
  74.0301904  18.6752388  30.4663460  73.4158898  18.1310438  30.7612096
  74.5469189  18.1616625  29.9869276  74.0157567  18.5188797  30.4387689
  73.2698202  19.7456658  28.2007759  72.8425810  19.1206377  27.7673194
  73.2623146  19.4631580  29.0266766  73.2057343  19.6109439  28.2587586
  66.3860729  14.7821831  31.2696193  66.5454215  14.0265155  31.6747915
  66.2053622  15.3312771  31.9236931  66.3826088  14.7515645  31.4258899
  71.5983911  10.6225413  28.4150293  71.6226399  10.0885525  27.7263073
  71.8495385  10.1142722  29.0775884  71.6393830  10.4686317  28.4114938
  59.1091501  17.9056908  27.8493437  59.0034950  17.8603752  26.9845521
  58.3591721  18.2510688  28.1307722  58.9827104  17.9497816  27.7630767
  67.8785234   9.3496231  27.7956037  67.9183605   9.8505438  28.5090745
  67.0534898   9.4406625  27.5261960  67.7624760   9.4378047  27.8606575
  70.0614846  18.9156971  35.8976332  69.2110477  19.0528685  36.0333977
  70.2242974  18.1820749  36.3424034  69.9598710  18.8271072  35.9831931
  69.2999597  15.8656741  30.0929936  68.4691527  16.0330559  29.8865184
  69.2451114  15.4892692  30.8778822  69.1689012  15.8346472  30.1778464
  67.1083380   9.3565634  35.7286347  67.7336084   8.8127767  36.0015779
  66.6533860   8.8760551  35.1594137  67.1331641   9.2055115  35.6847941
  67.6735641  14.1412332  20.6220054  67.8138602  14.6384797  21.3248695
  68.1718174  13.4398627  20.7634268  67.7676722  14.1114311  20.7471633
  67.7035863  15.0079443  17.9512631  68.3380943  15.6039868  17.8862093
  67.7861474  14.7082901  18.7658501  67.8092414  15.0520352  18.0615717
  69.2814846  10.9393419  17.9258073  69.6030687  10.4596501  17.2717335
  69.5441790  11.7493065  17.7348884  69.3680871  10.9883317  17.8013565
  72.5111819  21.9612293  31.4456889  72.0036910  22.5148140  31.8897519
  72.2138465  22.0220583  30.6275663  72.3916704  22.0518604  31.3905346
  64.2088851  17.2047284  21.2202177  64.7181080  17.8011792  21.6013482
  64.6823123  16.9373258  20.5378596  64.3532227  17.2533100  21.1756700
  75.1219599  25.8775551  19.3760832  74.4048909  25.7036413  18.9108070
  75.7726337  25.6428123  18.8436318  75.1121450  25.8171343  19.2290050
  77.7067570  14.7540139  23.1202137  77.0358760  15.2969842  22.9915203
  78.4007321  15.2234995  22.8783832  77.7096438  14.9038411  23.0657665
  71.7554304  26.8936851  28.3513896  71.5319958  26.1355681  28.7197922
  71.2664147  26.9234873  27.6294335  71.6497753  26.7859076  28.2990637
  66.5679383  13.8403543  24.0875357  65.8491372  14.2567675  24.3548221
  66.9391745  14.4057781  23.5366995  66.5171315  13.9852824  24.0458164
  75.8678964  14.4731392  29.9777353  75.8476891  14.2914687  30.8312132
  75.9158164  15.3443410  29.9536937  75.8713605  14.5747930  30.1000648
  73.8125293  21.0618584  35.9025829  73.7721148  20.4168261  35.3170985
  74.6248612  21.0055201  36.2151242  73.9268447  20.9577550  35.8622779
  70.4032761  27.1137310  25.8050980  69.9893160  26.4511440  25.4154822
  71.0880135  27.2615168  25.2846675  70.4431133  27.0377968  25.6707478
  73.7698055  26.2727395  26.5574597  73.3714338  26.3829665  25.7895417
  73.1549275  26.4809461  27.1401157  73.6196944  26.3200963  26.5305896
  72.3425957  12.8801543  19.4248737  71.7490796  13.2018539  18.8733304
  72.3801235  12.0342638  19.2169843  72.2600346  12.8025871  19.3131508
  75.2183774  12.8381047  22.8550487  74.9897467  12.8613749  22.0128845
  75.4781850  12.0138514  22.9745497  75.2229962  12.7197127  22.7475685
  69.5003002  14.6915520  32.4575587  68.9881905  14.0836703  32.8160618
  69.3282498  15.4072113  32.9249563  69.3992639  14.7078819  32.5791811
  64.3468717  13.1353095  35.1077949  64.1771307  13.7954470  34.5626156
  63.9034667  13.3459657  35.8290438  64.2568050  13.2639078  35.1339578
  68.2728536  11.3757593  24.1504683  68.7485903  11.7374673  23.5154864
  67.7717136  12.0314061  24.4304825  68.2693895  11.5251782  24.0981424
  73.3772073  12.6139765  34.8977843  73.9343503  12.3853574  34.2656308
  73.0533138  13.3745430  34.6213055  73.4118483  12.6923601  34.7634340
  61.2470781  16.0399961  30.3666439  60.6997501  15.3700607  30.4847307
  62.0363160  15.6729809  30.4309906  61.2822965  15.8864947  30.3935139
  71.0955190  15.7007418  35.8629850  71.8466517  16.0159095  36.1769404
  71.2877766  15.4986589  35.0363772  71.2346604  15.7174800  35.7873246
  70.3155189  13.5198793  17.5178067  70.6954154  13.5378422  16.7329181
  69.5747785  13.9652782  17.3968914  70.2624027  13.5880568  17.3841635
  60.0057751  15.2520769  27.5212462  59.8279512  14.7997378  28.2467377
  59.7176773  16.0546930  27.7050939  59.9370704  15.3043327  27.6555965
  75.6681332  16.5078486  26.7589852  76.1634997  15.7901481  26.7193872
  74.8581108  16.2049284  26.6444339  75.6225225  16.3576132  26.7363578
  71.1139943  20.3576299  18.9086857  70.3051266  20.0342973  18.8620166
  71.6214852  19.6509522  18.8415105  71.0689610  20.2057616  18.8917151
  61.7430221  17.7848493  24.6334221  60.8775740  17.7734183  24.5216992
  61.8429037  17.5978715  25.4805360  61.6304388  17.7554554  24.7423165
  77.7333151  19.2582174  29.4466981  78.1588222  18.7356596  28.8937406
  77.3690071  19.8563011  28.9255604  77.7419753  19.2692401  29.2875991
  67.3687231  27.5546391  28.2064326  67.6833790  28.3682780  28.2142108
  67.7780644  27.1696610  28.8746486  67.4755329  27.6175094  28.3068418
  74.3211750  22.9716438  25.7768138  74.7922928  23.6856701  25.9458124
  74.6571929  22.3715188  26.3128008  74.4406865  22.9887902  25.8800514
  76.4088735  24.5817751  37.9560210  76.5185700  23.7926312  38.3116958
  76.7379631  24.4923688  37.1534548  76.4741141  24.4523604  37.8902601
  74.9585697  22.7634372  32.5395831  74.4106643  22.1392256  32.2715896
  75.4198725  22.9528644  31.8239910  74.9452906  22.6993422  32.3946262
  70.3074360   9.7460321  20.2005698  71.1290054   9.9158634  19.9587393
  69.8444011   9.9007582  19.4771996  70.3605522   9.7942054  20.0577342
  64.7100251  21.5019500  27.8542935  65.3145108  21.4615334  27.2256756
  64.5027563  22.3490652  27.8846991  64.7689148  21.6207502  27.7659051
  74.5244023  23.7685445  29.0705172  75.3442397  23.6248411  29.3321467
  74.2438101  24.3931644  29.6121610  74.6040766  23.8395797  29.1893112
  59.9451533  20.4854117  27.7241858  59.8475811  19.6750389  28.0331915
  60.7280403  20.4645911  27.3388126  60.0467670  20.3621207  27.7128721
  73.3548298  36.0827344  24.4453317  73.1198483  35.2494996  24.3385585
  73.4933939  36.3632010  23.6314518  73.3403961  36.0010848  24.3095672
  75.6538386  28.2513075  27.3437624  75.0343417  27.6605722  27.1747639
  75.5522249  28.8424510  26.7101948  75.5476061  28.2517157  27.2242614
  75.3807519  31.7965356  29.5881193  75.2566216  32.3827802  30.2231012
  76.0325803  31.3025552  29.8893468  75.4581168  31.8104161  29.7267123
  74.9165623  40.9613015  25.7209523  74.4333201  41.6863505  25.6969106
  75.7288941  41.2589145  25.8319681  74.9656371  41.1115369  25.7336802
  77.7709820  41.4769191  25.8729803  78.4730400  40.9621180  25.9302559
  77.6907303  41.8043342  26.6776678  77.8633581  41.4483417  26.0002595
  77.4846164  25.8287621  17.9392423  77.3021737  26.0459501  17.1133416
  78.3471777  25.9426633  17.9951037  77.5850753  25.8777518  17.8246910
  77.0960596  37.6675543  25.3815411  77.9349495  37.8998476  25.4289172
  77.1272365  36.7979854  25.3122446  77.2242313  37.5732489  25.3780055
  77.7213299  38.0876418  29.6828716  78.2611524  37.9447549  30.3532089
  77.0383245  38.4873169  30.0512742  77.7005453  38.1256089  29.8363138
  73.1250444  34.3076709  29.8363138  72.8588859  33.4915825  29.9954128
  73.1389008  34.3529864  28.9658653  73.0875166  34.1933614  29.7316620
  77.0308191  29.1061793  16.4514896  76.3166368  28.8199973  16.8637328
  77.5152159  29.4458419  17.0921283  76.9967554  29.1143443  16.6070531
  77.8749050  27.8455087  32.4830145  77.1820847  27.3752067  32.7290877
  78.4909377  27.6193392  33.0571853  77.8633580  27.7422219  32.6039298
  73.5343857  35.0935488  27.1174882  73.3519431  35.0682374  26.2647174
  74.2693526  35.5634426  27.1563791  73.6157921  35.1596850  26.9972801
  76.5989609  31.8120491  33.6256991  77.3229581  31.7973522  34.1121885
  76.7005746  32.5215846  33.1278959  76.7207818  31.9145194  33.6235777
  73.5014768  31.9728989  27.2673949  74.0788270  31.8365440  27.9066194
  72.8028829  31.5164773  27.5219533  73.4835789  31.8851255  27.3996238
  68.9773601  30.8240882  23.9821767  69.0633853  30.4472750  24.7635297
  69.6049398  30.4501327  23.5041725  69.0830152  30.7126364  24.0267244
  74.5649560  39.5932615  28.0353128  74.6053705  39.8647466  27.2072907
  75.1244084  40.1174523  28.4510916  74.6532906  39.7108370  27.9745016
  76.0164146  38.1774564  22.8607054  75.1902264  38.4236301  22.7341333
  76.0776137  38.0986645  23.7269112  75.9038313  38.2019513  22.9695998
  78.2340170  24.2443505  23.8202494  77.3662595  24.3166104  23.8860103
  78.5215374  25.0465584  24.0090469  78.1479918  24.3737652  23.8577261
  78.7368890  42.7718826  23.6286233  78.5169186  42.4816181  24.4212900
  78.5163413  42.1133781  23.1004146  78.6716485  42.6318535  23.6675142
  77.6485838  34.8592143  25.8941935  77.3599086  34.2329614  26.4287662
  78.5169186  34.8012430  25.9606616  77.7346090  34.7579687  25.9832890
  77.8518111  36.4987394  21.8184300  78.6064079  36.8800433  22.0319763
  77.2588724  36.9498538  22.2730997  77.8754825  36.6216221  21.9167179
  76.1607522  27.7201764  21.2619370  75.8732317  27.3503035  20.5251318
  76.8477990  28.1896619  21.0003075  76.2196419  27.7348733  21.1134446
  76.6468810  33.9912785  31.8140915  77.1589907  34.2697038  31.1649675
  76.3605153  34.7302079  32.1803728  76.6803673  34.1415138  31.7730793
  73.7335716  28.4982977  22.1104651  73.8351853  29.3009138  22.4385627
  74.5291603  28.2970312  21.8127732  73.8663622  28.5868875  22.1140007
  74.5499448  28.6130155  29.8525773  74.4084940  27.7614095  29.9770281
  74.8340012  28.6558815  29.0287979  74.5707294  28.4929905  29.7493397
  75.3189754  26.5260502  33.1703223  74.7831943  25.9140861  33.4863991
  75.3807518  27.1008638  33.8236890  75.2485386  26.5207430  33.3138650
  77.4378509  33.9341236  22.9823278  77.5943129  33.8688039  23.8379270
  77.7779103  34.7089789  22.7701958  77.5111744  34.0390435  23.0777872
  74.0112771  31.1176187  23.2984045  74.3911736  31.5360732  22.6344312
  73.4368136  31.6989643  23.6052888  73.9824096  31.2654046  23.2460786
  77.6543573  32.6836592  27.9299539  76.8131579  32.5840466  28.1378433
  77.8633580  33.4532072  28.2813860  77.5608265  32.7828635  28.0126854
  75.1319139  30.3056129  25.7584290  74.7375837  30.3799140  24.9834400
  74.5759256  30.6914075  26.3092652  74.9921952  30.3737903  25.7251950
  77.5452380  35.0780354  29.3491172  76.9540314  35.7189852  29.3194187
  78.3073404  35.5017971  29.3222472  77.5700641  35.2356192  29.3406320
  77.9413003  26.2382352  30.0159190  78.4014485  26.3121281  30.7534314
  77.9869110  27.0363606  29.6659011  78.0163559  26.3676499  30.0731946
  74.7300781  29.8671542  32.3910906  75.5926394  29.7667252  32.3048236
  74.3992564  29.2866252  31.8296478  74.8085977  29.7663169  32.2956312
  78.0902567  28.6913991  29.0521324  77.4655637  28.7032383  28.4447277
  77.7548162  29.1674167  29.7012565  77.9488059  28.7632508  29.0577893
  78.2744316  27.0339110  15.1094009  77.9257120  27.6858835  15.5725559
  77.7940761  27.0196223  14.3817881  78.1514560  27.1282163  15.0705101
  74.8028242  36.7514452  30.4925089  74.2728167  36.0606890  30.5420063
  75.0753336  36.7424637  29.6637797  74.7652965  36.6481583  30.3772505
  77.3593312  30.3007139  31.2696193  77.5186799  29.5450463  31.6747915
  77.1786206  30.8498079  31.9236931  77.3558671  30.2700953  31.4258899
  70.0824085  33.4242216  27.8493437  69.9767534  33.3789060  26.9845521
  69.3324305  33.7695996  28.1307722  69.9559688  33.4683124  27.7630767
  78.0815964  24.8750942  35.7286347  78.7068667  24.3313074  36.0015779
  77.6266444  24.3945859  35.1594137  78.1064224  24.7240423  35.6847941
  75.1821435  32.7232592  21.2202177  75.6913664  33.3197100  21.6013482
  75.6555707  32.4558566  20.5378596  75.3264810  32.7718408  21.1756700
  77.5411966  29.3588851  24.0875357  76.8223955  29.7752983  24.3548221
  77.9124329  29.9243089  23.5366995  77.4903898  29.5038132  24.0458164
  75.3201300  28.6538403  35.1077949  75.1503891  29.3139778  34.5626156
  74.8767250  28.8644965  35.8290438  75.2300634  28.7824386  35.1339578
  72.2203365  31.5585269  30.3666439  71.6730084  30.8885915  30.4847307
  73.0095743  31.1915117  30.4309906  72.2555549  31.4050255  30.3935139
  70.9790334  30.7706077  27.5212462  70.8012096  30.3182686  28.2467377
  70.6909357  31.5732238  27.7050939  70.9103288  30.8228635  27.6555965
  72.7162804  33.3033800  24.6334221  71.8508324  33.2919491  24.5216992
  72.8161620  33.1164023  25.4805360  72.6036971  33.2739862  24.7423165
  78.3419814  43.0731699  28.2064326  78.6566373  43.8868088  28.2142108
  78.7513228  42.6881918  28.8746486  78.4487912  43.1360402  28.3068418
  75.6832834  37.0204808  27.8542935  76.2877692  36.9800642  27.2256756
  75.4760147  37.8675960  27.8846991  75.7421732  37.1392810  27.7659051
  70.9184117  36.0039425  27.7241858  70.8208395  35.1935697  28.0331915
  71.7012986  35.9831218  27.3388126  71.0200253  35.8806515  27.7128721
   4.5110066  22.7456019  60.9593269   4.4804070  23.6000655  61.1311538
   5.1091415  22.4451311  61.5179412   4.5947224  22.8272515  61.0668071
   2.3326641  25.3208321  59.2311578   2.2166167  26.0716007  59.6603716
   3.1282527  25.0632274  59.4807665   2.4331230  25.3943167  59.3315670
   0.9874379  22.6700759  59.0423603   0.4585851  22.8860393  59.7020910
   1.5099399  23.3636897  58.9624573   0.9862832  22.8043896  59.1279203
   6.4422432  28.2447063  64.4156648   5.6120135  28.4557707  64.5790064
   6.3931685  27.4184118  64.1398931   6.3129168  28.1536670  64.3994013
   3.6986748  28.9146418  64.5521364   3.2621979  28.9183160  65.3080335
   3.3649663  29.5951917  64.1200941   3.5849367  29.0158874  64.6002196
   6.8331094  25.6327338  63.4441001   7.4947528  25.0718006  63.3436909
   6.1922506  25.1379369  63.7693692   6.8359961  25.4763747  63.4773341
   3.1195924  26.6492720  63.1852990   3.3551514  26.7937919  62.3579840
   3.2685488  27.4135128  63.5784503   3.1761728  26.7831775  63.1216593
   4.9486381  25.4894386  61.0222593   5.2794598  26.0222026  60.4162688
   5.5219469  25.5433274  61.6784544   5.0820060  25.5763955  61.0300375
   2.4129157  27.7858352  60.6793125   2.9787190  28.4451562  60.5951668
   1.7657061  28.1308051  61.1509527   2.4007914  27.9340294  60.7365882
   3.6091855  27.8364580  57.4718762   3.2298664  27.0501718  57.4648051
   2.9458101  28.3851437  57.3290406   3.4550330  27.8009404  57.4499559
   1.8551954  30.0810071  57.8070447   1.9371791  30.8877057  57.4831898
   2.3401696  30.1006030  58.5311221   1.9389112  30.2030734  57.8657346
   5.9924874  27.6870391  58.8662908   6.3758480  28.4361748  59.0961005
   5.1968988  27.9336211  58.6074897   5.9318656  27.8340085  58.8620481
  15.4842650  38.2641326  60.9593269  15.4536654  39.1185963  61.1311538
  16.0823998  37.9636619  61.5179412  15.5679808  38.3457823  61.0668071
   8.6842335  37.3516977  65.7146199   7.8280230  37.5125476  65.7655316
   8.7309988  36.4809041  65.7351260   8.5641446  37.2467779  65.7252265
   3.0683474  46.8879695  61.4783431   2.3166374  46.5095234  61.2499476
   3.5169486  46.9198129  60.7302241   3.0233141  46.8365302  61.3340933
  11.9936051  43.6203503  75.3206655  12.7002818  43.1255534  75.4493590
  12.1823987  44.0612585  74.5909313  12.1263957  43.6121853  75.2315701
   8.5208434  47.3105065  56.9068978   8.1859803  47.9881986  56.4713200
   9.0335305  46.9210376  56.3185849   8.5474015  47.3529643  56.7555769
   8.0612725  49.2619334  62.8480089   8.4452105  49.8306232  62.3084864
   7.9971867  48.5368844  62.3685905   8.1086153  49.2394797  62.6973952
  11.5294156  39.4109021  68.3577851  12.0750116  40.0894108  68.4171820
  11.4711032  39.2696482  67.4979432  11.6010070  39.4901023  68.2389911
   4.6468230  46.8998088  63.7446203   4.7478593  46.0898441  64.0543331
   4.0509976  46.8055034  63.1145882   4.5740769  46.7663116  63.6972441
  13.3059224  40.8393628  59.2311578  13.1898750  41.5901315  59.6603716
  14.1015111  40.5817582  59.4807665  13.4063814  40.9128475  59.3315670
   4.4868970  51.8175677  65.1461059   5.1306426  52.2588841  65.5357217
   4.8125226  51.0129103  65.0591318   4.6300799  51.7640871  65.1906536
   5.1889550  44.8287652  60.5180921   5.5105391  45.3692859  59.9142229
   5.8361646  44.2584423  60.6503211   5.3315605  44.8246827  60.4487956
   7.2391258  36.8303646  60.6015308   7.9371423  37.0091774  61.0936771
   7.5543590  36.3073986  59.9785697   7.3886595  36.7797419  60.5817318
   7.4279193  43.2174091  60.5895099   7.8672829  42.6091192  61.0349872
   7.2783856  42.8381465  59.8180564   7.4700659  43.0712563  60.5414266
   4.8950836  41.8118103  67.7913924   5.5399839  41.3190546  67.4724873
   5.1352613  41.9542890  68.6180003   5.0261421  41.7595546  67.8663458
   7.4336928  44.6573009  67.4420817   7.7160170  43.8624415  67.2207573
   8.1623088  45.1353597  67.4625878   7.5826491  44.6107606  67.4123832
   5.4118121  32.1996043  64.6836582   5.0821451  32.6507187  64.0140281
   4.7363123  32.1212206  65.2309589   5.2628558  32.2547178  64.6659805
  11.0288530  41.5701273  57.5425868  10.9439825  42.4262239  57.6875437
  11.5172913  41.2945597  58.2108027  11.0877427  41.6558594  57.6627950
  12.6194529  28.1881566  62.9286193  12.3047970  28.8785045  63.3606615
  12.1021471  28.1326348  62.2271693  12.4959000  28.2816455  62.8883142
  11.9606963  38.1886067  59.0423603  11.4318434  38.4045700  59.7020910
  12.4831983  38.8822205  58.9624573  11.9595416  38.3229204  59.1279203
  17.4155016  43.7632371  64.4156648  16.5852719  43.9743015  64.5790064
  17.3664268  42.9369426  64.1398931  17.2861751  43.6721978  64.3994013
   3.8506571  42.0849284  57.8431071   3.2663786  42.5899315  58.2496935
   3.4476666  41.8591671  57.1027663   3.7045875  42.1257532  57.7936097
   5.4764753  46.5936226  67.2504557   4.9591695  46.2343641  66.6465865
   6.1739145  46.0698400  67.2610623   5.5030335  46.4633914  67.1634816
   9.1328345  47.0431040  73.2120730   9.2211691  46.8557180  74.0598941
   9.5618058  46.3968469  72.8125577   9.2090448  46.9194047  73.2792482
   8.3083785  38.3314936  56.3199992   8.5479789  38.5392920  55.5075335
   8.6299626  37.5272444  56.4288936   8.3920943  38.2429037  56.2160545
   3.6174075  30.2608332  60.1659530   4.3720044  30.6286649  59.9276580
   3.4401610  30.6347886  60.9338709   3.7028554  30.3706519  60.2444418
   2.2594797  48.3160221  64.7975023   2.9615376  47.8012210  64.8547779
   2.1792280  48.6434372  65.6021898   2.3518557  48.2874447  64.9247815
  16.9108974  36.4102772  68.2107069  16.0737395  36.4804959  68.4454664
  16.8797205  36.4127267  67.3381371  16.7827257  36.4212999  68.1166617
   1.9731140  32.6678651  56.8637643   1.7906713  32.8850531  56.0378636
   2.8356753  32.7817663  56.9196257   2.0735730  32.7168548  56.7492130
   1.5845572  44.5066573  64.3060631   2.4234472  44.7389506  64.3534392
   1.6157341  43.6370884  64.2367666   1.7127290  44.4123519  64.3025275
   2.2098275  44.9267448  68.6073936   2.7496500  44.7838579  69.2777309
   1.5268221  45.3264199  68.9757962   2.1890429  44.9647119  68.7608358
   7.6530859  29.6705061  59.8986667   8.3817020  29.4921016  59.4524823
   7.7425752  30.5123141  60.1093845   7.7737521  29.7688940  59.8640184
  11.6339160  40.6058449  63.8018961  12.3896675  41.0389963  63.8407869
  11.7401484  39.9563218  64.3753597  11.7609331  40.5735932  63.8916986
  14.6719331  44.4331726  64.5521364  14.2354563  44.4368468  65.3080335
  14.3382247  45.1137225  64.1200941  14.5581951  44.5344182  64.6002196
  14.5916814  31.4745554  66.7950792  15.2342722  31.5443658  67.3812707
  14.8439835  30.8074777  66.2930333  14.7238946  31.3871902  66.8078071
   1.5193167  35.9452823  55.3760116   0.8051344  35.6591003  55.7882548
   2.0037136  36.2849449  56.0166503   1.4852530  35.9534473  55.5315751
   9.4018798  48.3850161  69.5230970   8.6034044  48.1449661  69.7804838
   9.8504810  48.4364554  70.2698017   9.3493409  48.3572552  69.6715894
  17.8063677  41.1512646  63.4441001  18.4680111  40.5903314  63.3436909
  17.1655089  40.6564676  63.7693692  17.8092545  40.9949055  63.4773341
   8.6940485  44.4482777  55.7521924   9.1091634  44.1167801  55.0606420
   7.8632415  44.2151679  55.6242061   8.6328494  44.3654033  55.6312771
  14.0928508  42.1678028  63.1852990  14.3284097  42.3123227  62.3579840
  14.2418072  42.9320436  63.5784503  14.1494311  42.3017083  63.1216593
  15.9218965  41.0079694  61.0222593  16.2527182  41.5407334  60.4162688
  16.4952053  41.0618582  61.6784544  16.0552644  41.0949263  61.0300375
  11.1350854  38.8544597  61.7046174  11.2297708  39.5933891  62.1585799
  10.5109697  38.4262072  62.1380738  11.0559884  38.9005917  61.8354321
   9.3903328  42.0330809  72.3536454   9.9642189  41.3958054  72.5085018
   9.3118131  42.0334892  71.4846112   9.4636563  41.9395921  72.2482865
  11.3873875  40.6993337  54.9383126  11.3054038  40.7695524  55.8038113
  12.0253596  41.2623080  54.7466866  11.4693713  40.7932308  55.0373075
   4.7467046  40.4654074  64.4057652   4.4886291  39.6325809  64.3788951
   4.8015529  40.6911687  63.5650152   4.7166824  40.3751846  64.2777789
   9.8268097  32.5682525  64.5061744   9.1224423  32.0791711  64.6645664
   9.8753071  32.5805000  63.6350189   9.7298148  32.4972173  64.4001084
   3.7201758  38.0191837  64.8922547   3.1451350  38.1784005  65.5286508
   3.3437435  37.3827246  64.4290997   3.5804571  37.9489650  64.9177105
   7.3875047  36.4915186  69.7514925   6.9989480  36.0669404  69.0967116
   6.7229745  36.7397336  70.2591952   7.2321975  36.4653907  69.7302793
  17.0298316  36.2490191  62.5262755  16.7734881  35.4370132  62.3360638
  17.8727630  36.2567758  62.2992942  17.1164342  36.1302188  62.4647572
  11.2101409  30.1889815  67.2638909  11.5911920  29.5067986  67.6506783
  10.4064693  29.8999417  67.0814574  11.1477870  30.0456864  67.2942965
   8.4913985  40.7213791  57.9491732   9.3054624  41.0128684  57.8374503
   8.4273127  40.0673653  57.3750025   8.6016724  40.6678986  57.8480569
  14.7123476  43.4039787  72.3621308  14.4762113  42.5727852  72.2433368
  15.3566704  43.3525394  72.9476152  14.7718146  43.2737475  72.4307201
   4.3621894  44.1935308  63.0764044   4.9995841  43.9547056  63.6215837
   4.7876965  44.3972467  62.3417205   4.5198060  44.1886318  63.0481201
   5.0024709  39.4137598  57.4138933   5.3869861  39.1945305  58.1655479
   4.7536329  40.2400543  57.5440010   5.0226781  39.5035744  57.5440010
  15.7359896  43.1884236  68.4249602  15.4305713  43.9212293  68.7862918
  15.0166112  42.7822165  68.1442388  15.5847238  43.2365969  68.4362739
   6.7443366  44.6707731  64.7557830   6.8182374  44.5082903  65.6099680
   7.5612872  44.8597920  64.5118312   6.8759724  44.6744473  64.8455856
  21.4361688  39.8277236  67.7517946  21.3686189  39.8473196  66.8820533
  21.4217351  40.6707564  67.9773617  21.4240445  39.9550971  67.6570423
   2.7225146  31.0834535  62.7447714   1.8547571  31.1557134  62.8105323
   3.0100350  31.8856614  62.9335689   2.6364894  31.2128682  62.7822481
  11.8458035  31.2312394  71.0759036  12.5911627  31.0422205  70.6622461
  11.4295339  31.7570632  70.5172892  11.8943009  31.2814540  70.9323609
   5.2847951  47.6342474  59.4871304   5.5746250  47.2431455  58.7630530
   6.0151432  47.8159179  59.9276579   5.4354836  47.6036288  59.4454111
  19.2220306  38.6021623  66.0264541  19.7728227  37.9689692  66.2661633
  19.2064421  39.1337015  66.7180045  19.3005502  38.5870571  66.1643399
   5.8742697  42.4360220  70.5724434   5.3754390  43.1475988  70.6509323
   6.6842921  42.7560886  70.5342597   5.9198803  42.5887068  70.5781003
   3.2253867  49.6109856  62.5531453   3.0054162  49.3207211  63.3458120
   3.0048389  48.9524811  62.0249366   3.1601461  49.4709565  62.5920362
   2.1370814  41.6983173  64.8187155   1.8484063  41.0720644  65.3532882
   3.0054162  41.6403460  64.8851836   2.2231066  41.5970717  64.9078110
  12.9248712  36.8417956  65.1369137  12.5813478  36.1208291  65.4876387
  13.0241754  36.6331807  64.2947495  12.8890755  36.7042160  65.0640817
   5.3921823  50.9839246  61.3362146   6.0445881  50.4515689  61.5653172
   4.6947431  50.6307899  61.7230020   5.3852541  50.8528769  61.4274314
   2.3403087  43.3378424  60.7429520   3.0949055  43.7191463  60.9564983
   1.7473700  43.7889568  61.1976217   2.3639801  43.4607251  60.8412399
  13.3861741  43.3043660  60.6793125  13.9519774  43.9636870  60.5951668
  12.7389644  43.6493358  61.1509527  13.3740497  43.4525602  60.7365882
   3.6601314  44.5086985  66.1169636   3.1382068  44.6487277  66.8021500
   4.0475334  43.7497650  66.3071753   3.6405015  44.4172509  66.2470712
   9.8568319  46.2482445  60.1030204   9.6154995  45.5150305  59.6957269
  10.0369652  46.7969302  59.4496538   9.8475943  46.2204836  59.9460427
   5.0867640  41.5391004  61.5151127   4.8910422  42.1465739  60.9211430
   5.3101985  40.8458948  61.0342801   5.0902281  41.5268530  61.3567207
   3.4846170  38.4245742  61.6331995   4.2068822  38.5886900  61.1735801
   3.0054162  39.1455407  61.5271335   3.5209900  38.5543972  61.5497609
  11.4439677  34.7609541  67.0128680  10.6050778  34.7870820  66.7766943
  11.5144045  35.4080276  67.5934027  11.3308071  34.8605667  67.0637797
   9.8908956  31.6594918  61.7456296  10.5935308  31.4602666  61.2676254
   9.6253144  30.8870860  62.0525139   9.9555588  31.5157884  61.7201737
  15.3197201  39.9677528  64.2989922  15.2331176  40.1232954  65.1524700
  14.8647681  40.6115603  63.9249327  15.2400458  40.0853283  64.3697028
   9.1923017  37.2888275  62.9215481   8.9457731  37.2084026  63.7552270
   9.5208140  36.5041743  62.7278009   9.2044261  37.1614540  63.0163004
  13.0871066  43.9971634  66.7102262  12.9485425  44.6952680  67.2151005
  12.3071064  43.8420291  66.3538444  12.9514293  44.0771801  66.7328537
  11.4249151  40.2968010  72.9624644  11.4197190  39.4247826  72.9667071
  12.1310145  40.4956179  72.4894100  11.5294155  40.1971884  72.8931679
   5.1520044  40.0244993  72.3338464   5.2963420  40.6046202  71.6981574
   5.4995693  40.4021290  73.0388319   5.2247506  40.1665698  72.3437459
   7.3239962  39.2235162  70.1163596   6.5763276  39.4166176  69.7111874
   7.4781487  38.3980381  69.8787717   7.2362389  39.1300273  70.0209002
   4.2247799  48.2147765  69.1999491   4.3737363  47.6550681  68.5472896
   5.0047802  48.2939767  69.5832010   4.3621893  48.1433331  69.1596440
  14.5824439  43.3549888  57.4718762  14.2031248  42.5687026  57.4648051
  13.9190684  43.9036745  57.3290406  14.4282914  43.3194712  57.4499559
   6.7501100  48.3862408  70.4783982   6.6744771  47.7171219  71.0334770
   6.6790959  49.0880196  70.9924648   6.7281707  48.3907316  70.6360830
  12.0369065  26.2975588  64.8752843  12.1552633  26.7552051  64.1420145
  11.8631240  25.4920849  64.5889060  12.0288236  26.2469360  64.7253776
   7.4071347  46.9063407  61.3107588   8.1721238  46.6373051  60.9890252
   7.3049437  46.4213417  62.0277651   7.5052842  46.7952972  61.3687415
   5.4424117  35.1087817  67.8500824   4.6520192  34.9279277  68.1718159
   5.8384740  34.3314769  67.8331118   5.3840993  34.9675277  67.8953372
   9.9290008  43.9375591  53.2907537  10.6962993  43.9975716  52.8813389
   9.4821317  43.3656032  52.8063856   9.9763435  43.8612167  53.1585248
  10.8267803  42.7430247  65.5760270  10.1512805  42.5115479  66.0773657
  10.8360179  42.1351430  64.9502375  10.7286308  42.6189172  65.5576422
   7.9561947  37.5848076  72.3324323   7.8921088  38.4458032  72.2044459
   8.0959135  37.2680069  71.5319874   7.9677417  37.6648242  72.1952535
  12.8284538  45.5995379  57.8070447  12.9104375  46.4062365  57.4831898
  13.3134280  45.6191338  58.5311221  12.9121696  45.7216041  57.8657346
   6.6381041  40.2780215  66.4740525   6.2143290  40.4784714  65.7379544
   6.4625896  39.4309063  66.5864825   6.5491922  40.1828996  66.3814216
   1.9263486  40.7732266  61.9068498   2.0828105  40.7079069  62.7624490
   2.2664079  41.5480819  61.6947178   1.9996721  40.8781465  62.0023092
  12.3359738  44.3592797  77.8888773  13.1494603  44.0877946  78.0493906
  12.1754704  44.0600337  77.0848969  12.4329686  44.2747723  77.7934179
   6.6329080  45.5407502  58.0601889   6.7021901  44.6822040  58.1994890
   7.4117535  45.7579382  57.7320914   6.7581930  45.4460366  58.0319046
   9.6131900  35.0426455  70.8284162   9.8273869  34.4037369  70.2747516
   8.9965799  35.4872278  70.3992023   9.5537229  35.0136598  70.6834593
  11.0236568  47.9645203  62.2738382  10.6316360  47.6611918  61.5561249
  11.1789640  48.8014293  62.0843336  10.9890158  48.0429040  62.1394880
  11.7770988  36.6515520  71.7667469  10.9647670  36.3441410  71.8480641
  12.2360922  36.1714520  72.3310181  11.7251373  36.5352012  71.8622063
  11.1876243  44.5295192  62.2144413  10.8290897  44.7009835  62.9908445
  10.7014953  44.9908397  61.6572412  11.0634939  44.6234163  62.2469682
   9.0046629  28.1526390  65.8171504   8.1340186  28.1265111  65.7704814
   9.2586970  27.9803582  64.9997350   8.9140189  28.1236534  65.6891641
   5.9764608  40.2094357  54.7544647   6.2657133  40.9859240  55.0288222
   6.0636407  39.6983089  55.4559147   6.0318864  40.2486275  54.8987145
   6.0295769  30.1632619  67.2744975   5.5134258  29.4712810  67.3996554
   5.4689698  30.8303396  67.2207574   5.8702282  30.1595876  67.2851041
  12.3480982  45.4199088  73.1611614  12.9860702  44.9259283  72.8274070
  11.7055074  45.3476488  72.5763841  12.3475208  45.3358096  73.0253969
  14.0737982  37.2688234  67.7277530  13.6465590  37.1814582  66.9725629
  13.4364035  37.3766009  68.3132374  13.9167589  37.2720893  67.7022971
  12.4035239  46.1118896  69.8016971  13.1927617  45.7607961  69.9219052
  12.5778836  46.9255284  69.5393604  12.5455520  46.1804753  69.7804839
   2.1428549  39.5227622  66.8544760   1.3016556  39.4231496  67.0623653
   2.3518557  40.2923102  67.2059080   2.0493242  39.6219665  66.9372074
  11.2569063  30.1228453  64.3633389  11.4618656  30.0550760  65.2090386
  10.9295487  30.9287274  64.2954567  11.2384311  30.2314393  64.4793044
   5.9545214  37.4509021  66.1042357   5.6508351  36.8965009  66.7052765
   5.2524635  37.6301231  65.6170391   5.8061424  37.3953803  66.1212063
   5.0111311  34.7609541  60.6687059   5.2871045  34.0428453  60.2564626
   5.6109980  35.3594461  60.4608165   5.1404576  34.7429911  60.5767820
  14.5102750  30.6760217  63.8436155  13.8977064  31.1630619  64.2289886
  14.6066925  30.0003708  64.3873806  14.4340648  30.6478526  63.9815013
   8.5121831  32.4323058  58.9433654   8.9665578  32.6033618  59.6681498
   8.9861877  31.8191169  58.5431430   8.6490152  32.3673943  58.9907415
   2.0337357  41.9171384  68.2736392   1.4425290  42.5580882  68.2439407
   2.7958380  42.3409001  68.2467692   2.0585617  42.0747222  68.2651540
  18.1527778  41.7477154  69.2713671  18.2110902  42.1963802  70.0173647
  17.5194246  42.1575966  68.8343751  18.0679073  41.8750888  69.3166219
  11.7926873  47.3680696  65.7068417  11.5946562  47.8571510  65.0124628
  11.1714584  47.5721937  66.2852550  11.6714437  47.4697234  65.6891640
   5.8534851  39.1365592  60.0478661   6.5976896  39.5239869  60.2861611
   5.9995548  38.2923018  60.2119149   5.9845437  39.0696065  60.1072631
   7.7714427  30.9315851  65.0810523   6.9250472  31.1038659  64.9551872
   7.7685559  30.1265195  65.4176351   7.6461577  30.8376880  65.1121650
   8.8412727  34.7091066  65.9472580   8.3672682  34.1832828  66.4577891
   9.2130863  34.1620539  65.3787442   8.8262616  34.5507062  65.9387728
  15.1049458  39.7693441  67.3579361  14.8647681  38.9299856  67.3621787
  15.5841465  39.8493608  68.0820134  15.1401642  39.6574841  67.4654163
  10.7696227  35.6027620  59.0098334  10.2419246  35.6856364  58.3204043
  11.2291935  36.3445492  59.0062979  10.7598077  35.7248283  58.9073029
  17.1054645  36.5494899  65.3108620  16.8664415  36.5090733  64.4729405
  17.2688546  37.3966051  65.4374341  17.0944948  36.6686984  65.2062102
  13.7100675  40.9344848  71.2413665  14.4334874  40.4817374  71.0624685
  13.4450637  41.2149514  70.4585993  13.7781948  40.9095816  71.0992381
   2.5787543  35.5305021  67.9766544   1.9540614  35.5423413  67.3692497
   2.2433138  36.0065196  68.6257785   2.4373035  35.6023538  67.9823113
   2.7629292  33.8730140  54.0339229   2.4142096  34.5249865  54.4970779
   2.2825738  33.8587253  53.3063101   2.6399536  33.9673193  53.9950321
  10.3233309  44.1731184  58.1407991  11.0467508  44.6389297  57.9972565
   9.8833900  44.2404793  57.3905588  10.3649002  44.2515021  58.0092773
   9.4919464  41.0328726  69.3908680   8.8776458  40.4886776  69.6857316
  10.0086749  40.5192963  68.9114496   9.4775127  40.8765135  69.3632909
   8.7315762  42.1032996  67.1252979   8.3043370  41.4782715  66.6918414
   8.7240706  41.8207918  67.9511986   8.6674903  41.9685777  67.1832806
   7.0601471  32.9801751  67.3395513   7.0843959  32.4461863  66.6508293
   7.3112945  32.4719059  68.0021104   7.1011390  32.8262655  67.3360158
   3.3402794  31.7072569  66.7201257   3.3801165  32.2081775  67.4335965
   2.5152458  31.7982963  66.4507180   3.2242320  31.7954385  66.7851795
   4.7617157  38.2233079  69.0175156   3.9309087  38.3906897  68.8110404
   4.7068674  37.8469030  69.8024042   4.6306572  38.1922810  69.1023684
   3.1353201  36.4988670  59.5465274   3.2756162  36.9961134  60.2493915
   3.6335734  35.7974965  59.6879488   3.2294282  36.4690649  59.6716853
   3.1653423  37.3655781  56.8757851   3.7998503  37.9616206  56.8107313
   3.2479034  37.0659239  57.6903721   3.2709974  37.4096689  56.9860937
  16.1435989  39.8971259  69.7444215  16.7353829  40.5368509  69.7762413
  16.5794983  39.1994295  70.0336282  16.2954420  39.8889609  69.7925048
   7.9729379  44.3188631  70.3702109   7.4654470  44.8724478  70.8142739
   7.6756025  44.3796921  69.5520883   7.8534264  44.4094942  70.3150566
  10.1391561  32.6841951  69.2126772  10.5646633  32.2314477  68.6010298
   9.5248554  32.1302021  69.4891559  10.1120206  32.5355927  69.1631797
  10.5837159  48.2351889  58.3006052   9.8666469  48.0612751  57.8353290
  11.2343897  48.0004461  57.7681538  10.5739010  48.1747681  58.1535270
   8.5785784  29.1557050  62.6217349   7.9354102  29.0054697  63.1902487
   8.2385191  28.9099396  61.8566454   8.4330861  29.0969173  62.5920364
  13.1685130  37.1116477  62.0447357  12.4976320  37.6546180  61.9160423
  13.8624881  37.5811333  61.8029052  13.1713998  37.2614748  61.9902885
   7.2171864  49.2513189  67.2759116   6.9937519  48.4932019  67.6443142
   6.7281707  49.2811210  66.5539555   7.1115313  49.1435414  67.2235857
  13.3313258  33.5672361  64.9537731  13.6840868  33.1402084  65.6283529
  12.4728059  33.4823204  65.0838807  13.2562702  33.4917102  65.0732741
   2.0296943  36.1979881  63.0120577   1.3108932  36.6144013  63.2793441
   2.4009305  36.7634119  62.4612215   1.9788875  36.3429162  62.9703384
  11.3296524  36.8307729  68.9022573  11.3094451  36.6491025  69.7557352
  11.3775724  37.7019748  68.8782157  11.3331165  36.9324268  69.0245868
   9.2742853  43.4194921  74.8271050   9.2338708  42.7744598  74.2416205
  10.0866172  43.3631539  75.1396462   9.3886007  43.3153888  74.7867999
   5.8650321  49.4713647  64.7296200   5.4510720  48.8087778  64.3400042
   6.5497695  49.6191506  64.2091895   5.9048693  49.3954306  64.5952698
   9.2315615  48.6303733  65.4819817   8.8331898  48.7406003  64.7140637
   8.6166835  48.8385799  66.0646377   9.0814504  48.6777301  65.4551116
   7.8043517  35.2377880  58.3493957   7.2108356  35.5594877  57.7978524
   7.8418795  34.3918976  58.1415063   7.7217906  35.1602209  58.2376728
  14.7637318  28.6890773  65.8822043  14.2568183  27.9819912  65.8143221
  15.5604752  28.3583962  66.0123120  14.8064557  28.5363924  65.8921038
  10.6801334  35.1957385  61.7795707  10.4515027  35.2190086  60.9374065
  10.9399410  34.3714852  61.8990717  10.6847522  35.0773465  61.6720905
   3.7346096  33.7333931  63.0749903   4.2103463  34.0951011  62.4400084
   3.2334696  34.3890399  63.3550045   3.7311455  33.8828120  63.0226644
  16.9657458  43.2055699  58.8662908  17.3491064  43.9547056  59.0961005
  16.1701571  43.4521519  58.6074897  16.9051240  43.3525393  58.8620481
   5.7772749  35.8775131  56.4423287   6.1571714  35.8954760  55.6574401
   5.0365345  36.3229120  56.3214134   5.7241587  35.9456906  56.3086855
  13.4058040  34.1857322  62.0298865  13.4052266  34.0305979  62.8883142
  13.2014220  35.0320309  61.9740251  13.3757818  34.2877943  62.1486805
  11.1298892  38.8654824  65.6835072  11.6252557  38.1477819  65.6439092
  10.3198668  38.5625622  65.5689559  11.0842785  38.7152470  65.6608798
   6.5757503  42.7152637  57.8332077   5.7668826  42.3919311  57.7865386
   7.0832412  42.0085859  57.7660325   6.5307170  42.5633954  57.8162371
  13.1950711  41.6158512  68.3712201  13.6205782  41.0932933  67.8182626
  12.8307631  42.2139349  67.8500824  13.2037313  41.6268739  68.2121211
   2.8304791  49.9122729  67.1309546   3.1451350  50.7259118  67.1387328
   3.2398204  49.5272948  67.7991706   2.9372889  49.9751431  67.2313638
   9.7829310  45.3292776  64.7013358  10.2540488  46.0433038  64.8703344
  10.1189489  44.7291526  65.2373228   9.9024425  45.3464240  64.8045734
  10.4203257  45.1210710  71.4641051   9.8724203  44.4968594  71.1961116
  10.8816285  45.3104982  70.7485130  10.4070466  45.0569760  71.3191482
  13.2297121  33.1896064  68.8492243  12.6460110  33.6905271  68.4369811
  13.5501415  32.6825621  68.2156567  13.1910296  33.1887899  68.6950750
   5.7691920  32.1036659  59.1250918   6.5907614  32.2734972  58.8832613
   5.3061571  32.2583920  58.4017216   5.8223082  32.1518392  58.9822562
   9.9861583  46.1261783  67.9950392  10.8059957  45.9824749  68.2566687
   9.7055661  46.7507982  68.5366830  10.0658326  46.1972135  68.1138332
  26.4575233  53.7826634  60.9593269  26.4269238  54.6371271  61.1311538
  27.0556582  53.4821927  61.5179412  26.5412391  53.8643131  61.0668071
  19.6574918  52.8702285  65.7146199  18.8012814  53.0310784  65.7655316
  19.7042572  51.9994349  65.7351260  19.5374030  52.7653087  65.7252265
  14.0416058  62.4065003  61.4783431  13.2898957  62.0280542  61.2499476
  14.4902070  62.4383437  60.7302241  13.9965725  62.3550610  61.3340933
  22.9668635  59.1388811  75.3206655  23.6735402  58.6440842  75.4493590
  23.1556570  59.5797893  74.5909313  23.0996540  59.1307161  75.2315701
  19.4941018  62.8290373  56.9068978  19.1592386  63.5067294  56.4713200
  20.0067888  62.4395684  56.3185849  19.5206599  62.8714951  56.7555769
  19.0345309  64.7804641  62.8480089  19.4184688  65.3491540  62.3084864
  18.9704450  64.0554152  62.3685905  19.0818736  64.7580105  62.6973952
  22.5026739  54.9294329  68.3577851  23.0482699  55.6079416  68.4171820
  22.4443615  54.7881790  67.4979432  22.5742654  55.0086331  68.2389911
  15.6200814  62.4183395  63.7446203  15.7211177  61.6083749  64.0543331
  15.0242559  62.3240342  63.1145882  15.5473353  62.2848424  63.6972441
  24.2791808  56.3578936  59.2311578  24.1631334  57.1086623  59.6603716
  25.0747694  56.1002890  59.4807665  24.3796397  56.4313783  59.3315670
  15.4601554  67.3360985  65.1461059  16.1039009  67.7774149  65.5357217
  15.7857809  66.5314411  65.0591318  15.6033382  67.2826179  65.1906536
   8.8165858  58.4403682  63.3698537   8.5816043  57.6071334  63.2630805
   8.9551499  58.7208348  62.5559738   8.8021521  58.3587185  63.2340892
  11.1155946  50.6089413  66.2682844  10.4960977  50.0182060  66.0992859
  11.0139809  51.2000848  65.6347168  11.0093621  50.6093495  66.1487834
  16.1622133  60.3472959  60.5180921  16.4837974  60.8878167  59.9142229
  16.8094230  59.7769731  60.6503211  16.3048189  60.3432135  60.4487956
  18.2123841  52.3488954  60.6015308  18.9104006  52.5277082  61.0936771
  18.5276174  51.8259294  59.9785697  18.3619179  52.2982727  60.5817318
  10.8425079  54.1541694  68.5126413  10.7183776  54.7404140  69.1476232
  11.4943363  53.6601890  68.8138688  10.9198728  54.1680499  68.6512343
  18.4011777  58.7359399  60.5895099  18.8405412  58.1276500  61.0349872
  18.2516440  58.3566773  59.8180564  18.4433242  58.5897871  60.5414266
  15.8683420  57.3303411  67.7913924  16.5132422  56.8375854  67.4724873
  16.1085197  57.4728198  68.6180003  15.9994005  57.2780853  67.8663458
  18.4069511  60.1758317  67.4420817  18.6892754  59.3809723  67.2207573
  19.1355672  60.6538905  67.4625878  18.5559075  60.1292914  67.4123832
  16.3850705  47.7181351  64.6836582  16.0554035  48.1692495  64.0140281
  15.7095707  47.6397514  65.2309589  16.2361141  47.7732486  64.6659805
  22.0021113  57.0886581  57.5425868  21.9172408  57.9447547  57.6875437
  22.4905497  56.8130905  58.2108027  22.0610011  57.1743902  57.6627950
  23.5927113  43.7066874  62.9286193  23.2780554  44.3970353  63.3606615
  23.0754054  43.6511656  62.2271693  23.4691583  43.8001763  62.8883142
  22.9339547  53.7071375  59.0423603  22.4051018  53.9231008  59.7020910
  23.4564566  54.4007513  58.9624573  22.9328000  53.8414512  59.1279203
  28.3887599  59.2817679  64.4156648  27.5585303  59.4928323  64.5790064
  28.3396852  58.4554734  64.1398931  28.2594335  59.1907286  64.3994013
  14.8239154  57.6034592  57.8431071  14.2396370  58.1084623  58.2496935
  14.4209250  57.3776979  57.1027663  14.6778458  57.6442840  57.7936097
  10.3783183  63.3189353  64.6454743   9.8950761  64.0439842  64.6214326
  11.1906501  63.6165483  64.7564901  10.4273931  63.4691706  64.6582022
  16.4497337  62.1121533  67.2504557  15.9324279  61.7528948  66.6465865
  17.1471728  61.5883708  67.2610623  16.4762918  61.9819221  67.1634816
  20.1060929  62.5616348  73.2120730  20.1944275  62.3742488  74.0598941
  20.5350642  61.9153777  72.8125577  20.1823031  62.4379355  73.2792482
  19.2816369  53.8500244  56.3199992  19.5212372  54.0578227  55.5075335
  19.6032210  53.0457752  56.4288936  19.3653527  53.7614345  56.2160545
  14.5906659  45.7793639  60.1659530  15.3452627  46.1471957  59.9276580
  14.4134194  46.1533194  60.9338709  14.6761137  45.8891827  60.2444418
  13.2327380  63.8345529  64.7975023  13.9347960  63.3197518  64.8547779
  13.1524863  64.1619680  65.6021898  13.3251141  63.8059755  64.9247815
  27.8841558  51.9288080  68.2107069  27.0469979  51.9990267  68.4454664
  27.8529789  51.9312575  67.3381371  27.7559840  51.9398307  68.1166617
  14.2806287  54.0721116  73.9255438  14.4526791  53.9627010  74.7740719
  14.8175644  54.7175521  73.6886630  14.3851291  54.1513117  74.0160534
  12.9463724  48.1863958  56.8637643  12.7639297  48.4035839  56.0378636
  13.8089337  48.3002971  56.9196257  13.0468313  48.2353856  56.7492130
  12.5578156  60.0251881  64.3060631  13.3967055  60.2574813  64.3534392
  12.5889925  59.1556192  64.2367666  12.6859873  59.9308827  64.3025275
  13.1830859  60.4452756  68.6073936  13.7229084  60.3023887  69.2777309
  12.5000805  60.8449507  68.9757962  13.1623013  60.4832427  68.7608358
  18.6263443  45.1890369  59.8986667  19.3549603  45.0106324  59.4524823
  18.7158336  46.0308449  60.1093845  18.7470105  45.2874248  59.8640184
  22.6071744  56.1243757  63.8018961  23.3629259  56.5575271  63.8407869
  22.7134068  55.4748526  64.3753597  22.7341914  56.0921240  63.8916986
  25.6451915  59.9517034  64.5521364  25.2087147  59.9553776  65.3080335
  25.3114830  60.6322533  64.1200941  25.5314535  60.0529490  64.6002196
  25.5649398  46.9930862  66.7950792  26.2075306  47.0628966  67.3812707
  25.8172418  46.3260084  66.2930333  25.6971530  46.9057210  66.8078071
  12.4925751  51.4638131  55.3760116  11.7783928  51.1776311  55.7882548
  12.9769719  51.8034757  56.0166503  12.4585114  51.4719781  55.5315751
  13.3366610  50.2031425  71.4075365  12.6438407  49.7328405  71.6536097
  13.9526937  49.9769729  71.9817073  13.3251140  50.0998557  71.5284518
  20.3751382  63.9035469  69.5230970  19.5766627  63.6634969  69.7804838
  20.8237393  63.9549862  70.2698017  20.3225993  63.8757860  69.6715894
  28.7796261  56.6697954  63.4441001  29.4412695  56.1088622  63.3436909
  28.1387673  56.1749984  63.7693692  28.7825128  56.5134363  63.4773341
  19.6673069  59.9668085  55.7521924  20.0824217  59.6353109  55.0606420
  18.8364998  59.7336987  55.6242061  19.6061077  59.8839341  55.6312771
   8.9961417  57.4511826  66.0420102   8.8136991  57.4258712  65.1892394
   9.7311086  57.9210764  66.0809011   9.0775481  57.5173188  65.9218021
  25.0661092  57.6863336  63.1852990  25.3016681  57.8308535  62.3579840
  25.2150655  58.4505744  63.5784503  25.1226895  57.8202390  63.1216593
  12.0607169  54.1696829  72.5502211  12.7847141  54.1549860  73.0367105
  12.1623306  54.8792184  72.0524179  12.1825378  54.2721532  72.5480997
  26.8951548  56.5265002  61.0222593  27.2259765  57.0592642  60.4162688
  27.4684636  56.5803890  61.6784544  27.0285227  56.6134571  61.0300375
  22.1083437  54.3729905  61.7046174  22.2030292  55.1119199  62.1585799
  21.4842281  53.9447380  62.1380738  22.0292468  54.4191225  61.8354321
  20.3635911  57.5516117  72.3536454  20.9374773  56.9143362  72.5085018
  20.2850715  57.5520200  71.4846112  20.4369146  57.4581229  72.2482865
   8.9632328  54.3305327  66.1919169   9.5405830  54.1941778  66.8311414
   8.2646389  53.8741111  66.4464753   8.9453349  54.2427593  66.3241458
  22.3606459  56.2178644  54.9383126  22.2786621  56.2880832  55.8038113
  22.9986179  56.7808388  54.7466866  22.4426296  56.3117616  55.0373075
  15.7199630  55.9839382  64.4057652  15.4618874  55.1511117  64.3788951
  15.7748113  56.2096995  63.5650152  15.6899408  55.8937154  64.2777789
  20.8000680  48.0867833  64.5061744  20.0957007  47.5977019  64.6645664
  20.8485654  48.0990308  63.6350189  20.7030732  48.0157481  64.4001084
  14.6934342  53.5377145  64.8922547  14.1183933  53.6969313  65.5286508
  14.3170018  52.9012554  64.4290997  14.5537154  53.4674958  64.9177105
  18.3607631  52.0100494  69.7514925  17.9722063  51.5854712  69.0967116
  17.6962329  52.2582644  70.2591952  18.2054558  51.9839215  69.7302793
  28.0030900  51.7675499  62.5262755  27.7467465  50.9555440  62.3360638
  28.8460214  51.7753066  62.2992942  28.0896925  51.6487496  62.4647572
   4.4391161  53.1817220  62.9066987   4.5251413  52.8049088  63.6880517
   5.0666958  52.8077665  62.4286945   4.5447712  53.0702702  62.9512465
  22.1833992  45.7075123  67.2638909  22.5644504  45.0253294  67.6506783
  21.3797277  45.4184725  67.0814574  22.1210454  45.5642171  67.2942965
  19.4646569  56.2399099  57.9491732  20.2787208  56.5313992  57.8374503
  19.4005710  55.5858961  57.3750025  19.5749308  56.1864294  57.8480569
  25.6856059  58.9225095  72.3621308  25.4494697  58.0913160  72.2433368
  26.3299288  58.8710702  72.9476152  25.7450730  58.7922783  72.4307201
  15.3354477  59.7120616  63.0764044  15.9728424  59.4732364  63.6215837
  15.7609549  59.9157775  62.3417205  15.4930643  59.7071626  63.0481201
  15.9757292  54.9322906  57.4138933  16.3602445  54.7130613  58.1655479
  15.7268913  55.7585851  57.5440010  15.9959365  55.0221052  57.5440010
  16.1425833  48.2129321  77.1301518  15.8279274  48.9828884  76.8671080
  15.8215765  47.6499577  76.5453745  16.0484752  48.2439590  77.0042868
  26.7092480  58.7069544  68.4249602  26.4038297  59.4397601  68.7862918
  25.9898695  58.3007473  68.1442388  26.5579822  58.7551277  68.4362739
  17.7175949  60.1893039  64.7557830  17.7914957  60.0268211  65.6099680
  18.5345456  60.3783228  64.5118312  17.8492308  60.1929781  64.8455856
  32.4094272  55.3462544  67.7517946  32.3418772  55.3658503  66.8820533
  32.3949934  56.1892872  67.9773617  32.3973028  55.4736279  67.6570423
  11.4781706  60.5350902  61.7852274  10.6519824  60.7812639  61.6586553
  11.5393697  60.4562983  62.6514332  11.3655873  60.5595851  61.8941218
  13.6957730  46.6019843  62.7447714  12.8280155  46.6742442  62.8105323
  13.9832934  47.4041922  62.9335689  13.6097478  46.7313990  62.7822481
  22.8190618  46.7497702  71.0759036  23.5644210  46.5607512  70.6622461
  22.4027923  47.2755940  70.5172892  22.8675593  46.7999847  70.9323609
  16.2580535  63.1527782  59.4871304  16.5478833  62.7616763  58.7630530
  16.9884016  63.3344487  59.9276579  16.4087419  63.1221596  59.4454111
  30.1952889  54.1206931  66.0264541  30.7460811  53.4875000  66.2661633
  30.1797005  54.6522323  66.7180045  30.2738086  54.1055879  66.1643399
  16.8475280  57.9545528  70.5724434  16.3486974  58.6661296  70.6509323
  17.6575504  58.2746194  70.5342597  16.8931387  58.1072376  70.5781003
  14.1986450  65.1295164  62.5531453  13.9786746  64.8392519  63.3458120
  13.9780973  64.4710119  62.0249366  14.1334045  64.9894873  62.5920362
  13.1103398  57.2168481  64.8187155  12.8216646  56.5905952  65.3532882
  13.9786746  57.1588768  64.8851836  13.1963650  57.1156025  64.9078110
  23.8981295  52.3603264  65.1369137  23.5546061  51.6393599  65.4876387
  23.9974338  52.1517115  64.2947495  23.8623338  52.2227467  65.0640817
  16.3654406  66.5024554  61.3362146  17.0178464  65.9700997  61.5653172
  15.6680015  66.1493207  61.7230020  16.3585124  66.3714077  61.4274314
  13.3135671  58.8563732  60.7429520  14.0681639  59.2376771  60.9564983
  12.7206284  59.3074876  61.1976217  13.3372385  58.9792559  60.8412399
  24.3594325  58.8228968  60.6793125  24.9252357  59.4822178  60.5951668
  23.7122228  59.1678666  61.1509527  24.3473081  58.9710910  60.7365882
  15.7742338  50.8126572  75.8686733  14.9642114  51.1184352  75.7576575
  16.2517025  51.5332155  75.9839317  15.7245817  50.9641173  75.8693804
  14.6333898  60.0272293  66.1169636  14.1114651  60.1672585  66.8021500
  15.0207918  59.2682958  66.3071753  14.6137599  59.9357817  66.2470712
  11.6225082  50.0778102  60.1864590  11.3349877  49.7079372  59.4496538
  12.3095550  50.5472957  59.9248295  11.6813979  50.0925071  60.0379666
  20.8300903  61.7667752  60.1030204  20.5887579  61.0335613  59.6957269
  21.0102236  62.3154609  59.4496538  20.8208527  61.7390144  59.9460427
  16.0600223  57.0576312  61.5151127  15.8643006  57.6651047  60.9211430
  16.2834569  56.3644256  61.0342801  16.0634864  57.0453838  61.3567207
  14.4578753  53.9431050  61.6331995  15.1801405  54.1072208  61.1735801
  13.9786746  54.6640715  61.5271335  14.4942484  54.0729280  61.5497609
  22.4172261  50.2794849  67.0128680  21.5783361  50.3056128  66.7766943
  22.4876628  50.9265584  67.5934027  22.3040654  50.3790975  67.0637797
  20.8641539  47.1780226  61.7456296  21.5667892  46.9787974  61.2676254
  20.5985728  46.4056168  62.0525139  20.9288171  47.0343192  61.7201737
  26.2929785  55.4862836  64.2989922  26.2063759  55.6418262  65.1524700
  25.8380265  56.1300911  63.9249327  26.2133041  55.6038591  64.3697028
   9.1953276  50.8559314  61.0349871   9.2969413  51.6585476  61.3630847
   9.9909163  50.6546650  60.7372952   9.3281182  50.9445213  61.0385227
  15.6270095  48.4415511  70.7987176  15.4353292  48.4570646  71.6486600
  16.4768691  48.6379185  70.7753831  15.7245817  48.4729862  70.9210471
  10.0117008  50.9706493  68.7770993   9.8702500  50.1190433  68.9015501
  10.2957572  51.0135153  67.9533199  10.0324854  50.8506243  68.6738617
  20.1655601  52.8073583  62.9215481  19.9190315  52.7269334  63.7552270
  20.4940724  52.0227051  62.7278009  20.1776844  52.6799848  63.0163004
  24.0603650  59.5156942  66.7102262  23.9218009  60.2137988  67.2151005
  23.2803647  59.3605599  66.3538444  23.9246876  59.5957109  66.7328537
  22.3981735  55.8153318  72.9624644  22.3929773  54.9433134  72.9667071
  23.1042729  56.0141487  72.4894100  22.5026739  55.7157192  72.8931679
  16.1252628  55.5430301  72.3338464  16.2696004  56.1231510  71.6981574
  16.4728277  55.9206598  73.0388319  16.1980089  55.6851005  72.3437459
  18.2972545  54.7420470  70.1163596  17.5495859  54.9351484  69.7111874
  18.4514071  53.9165689  69.8787717  18.2094973  54.6485581  70.0209002
  15.1980383  63.7333073  69.1999491  15.3469947  63.1735989  68.5472896
  15.9780385  63.8125075  69.5832010  15.3354477  63.6618639  69.1596440
  25.5557022  58.8735196  57.4718762  25.1763831  58.0872334  57.4648051
  24.8923268  59.4222053  57.3290406  25.4015497  58.8380020  57.4499559
  17.7233684  63.9047716  70.4783982  17.6477355  63.2356527  71.0334770
  17.6523543  64.6065504  70.9924648  17.7014291  63.9092623  70.6360830
  18.5374322  48.6371021  71.0059000  18.9946937  49.3694995  71.1331792
  18.6130651  48.2137486  71.7646255  18.6165292  48.6828259  71.1360076
  10.7807314  48.8836840  72.0948443  10.2449503  48.2717198  72.4109211
  10.8425078  49.4584976  72.7482110  10.7102946  48.8783768  72.2383870
  23.0101648  41.8160896  64.8752843  23.1285216  42.2737359  64.1420145
  22.8363824  41.0106157  64.5889060  23.0020819  41.7654668  64.7253776
  18.3803931  62.4248715  61.3107588  19.1453822  62.1558359  60.9890252
  18.2782021  61.9398725  62.0277651  18.4785426  62.3138280  61.3687415
  16.4156700  50.6273124  67.8500824  15.6252775  50.4464585  68.1718159
  16.8117323  49.8500077  67.8331118  16.3573577  50.4860585  67.8953372
  20.9022591  59.4560899  53.2907537  21.6695576  59.5161024  52.8813389
  20.4553900  58.8841340  52.8063856  20.9496018  59.3797474  53.1585248
  21.8000387  58.2615555  65.5760270  21.1245388  58.0300787  66.0773657
  21.8092763  57.6536738  64.9502375  21.7018891  58.1374480  65.5576422
  18.9294531  53.1033384  72.3324323  18.8653672  53.9643340  72.2044459
  19.0691718  52.7865377  71.5319874  18.9410001  53.1833550  72.1952535
  23.8017121  61.1180687  57.8070447  23.8836959  61.9247673  57.4831898
  24.2866863  61.1376646  58.5311221  23.8854279  61.2401349  57.8657346
  17.6113625  55.7965523  66.4740525  17.1875874  55.9970022  65.7379544
  17.4358480  54.9494371  66.5864825  17.5224505  55.7014304  66.3814216
  12.8996069  56.2917574  61.9068498  13.0560689  56.2264377  62.7624490
  13.2396663  57.0666127  61.6947178  12.9729304  56.3966772  62.0023092
  19.4375214  55.6675458  60.7761861  19.9790760  55.1645839  61.2400482
  19.7521773  55.6140653  59.9651346  19.5639611  55.5854879  60.7245673
  23.3092322  59.8778105  77.8888773  24.1227187  59.6063254  78.0493906
  23.1487288  59.5785645  77.0848969  23.4062270  59.7933031  77.7934179
  17.6061664  61.0592809  58.0601889  17.6754484  60.2007348  58.1994890
  18.3850119  61.2764690  57.7320914  17.7314514  60.9645673  58.0319046
  20.5864483  50.5611762  70.8284162  20.8006453  49.9222677  70.2747516
  19.9698383  51.0057586  70.3992023  20.5269813  50.5321906  70.6834593
  21.9969151  63.4830511  62.2738382  21.6048943  63.1797226  61.5561249
  22.1522224  64.3199601  62.0843336  21.9622741  63.5614347  62.1394880
   9.4730331  53.4752525  62.2229265   9.8529296  53.8937070  61.5589532
   8.8985696  54.0565981  62.5298108   9.4441656  53.6230384  62.1706006
  22.7503571  52.1700828  71.7667469  21.9380253  51.8626718  71.8480641
  23.2093506  51.6899828  72.3310181  22.6983956  52.0537320  71.8622063
  22.1608826  60.0480500  62.2144413  21.8023481  60.2195142  62.9908445
  21.6747537  60.5093705  61.6572412  22.0367523  60.1419471  62.2469682
  19.9779212  43.6711698  65.8171504  19.1072770  43.6450419  65.7704814
  20.2319553  43.4988890  64.9997350  19.8872772  43.6421842  65.6891641
  16.9497192  55.7279665  54.7544647  17.2389716  56.5044547  55.0288222
  17.0368990  55.2168396  55.4559147  17.0051448  55.7671583  54.8987145
  19.8457079  53.5760899  76.5496171  20.3156710  54.2003015  76.9364045
  19.8918959  52.9077875  77.1089386  19.9224955  53.5695579  76.6896242
  17.0028353  45.6817927  67.2744975  16.4866841  44.9898118  67.3996554
  16.4422282  46.3488704  67.2207574  16.8434866  45.6781184  67.2851041
  19.0720586  46.2210887  69.1037827  18.6852339  46.2459918  69.8851357
  18.5853523  45.6552565  68.6512344  18.9433095  46.1406637  69.1525731
  23.3213566  60.9384396  73.1611614  23.9593286  60.4444591  72.8274070
  22.6787657  60.8661796  72.5763841  23.3207792  60.8543404  73.0253969
  25.0470566  52.7873542  67.7277530  24.6198174  52.6999890  66.9725629
  24.4096619  52.8951317  68.3132374  24.8900173  52.7906201  67.7022971
  18.7377728  43.1077872  71.3948087  19.3670846  43.6438172  71.1169158
  18.9063591  43.0155231  72.2461653  18.8555522  43.1739234  71.4796615
  18.5391643  47.8949067  73.6674499  19.3665072  47.6234216  73.7233113
  18.5599489  48.6909908  74.0238317  18.6644493  47.9728821  73.7289682
  23.3767822  61.6304204  69.8016971  24.1660200  61.2793269  69.9219052
  23.5511420  62.4440592  69.5393604  23.5188104  61.6990061  69.7804839
  13.1161133  55.0412930  66.8544760  12.2749139  54.9416804  67.0623653
  13.3251140  55.8108410  67.2059080  13.0225825  55.1404973  66.9372074
  10.5936699  52.6632466  64.6829510  10.1993397  52.7375478  63.9079620
  10.0376816  53.0490413  65.2337872  10.4539512  52.7314241  64.6497170
  22.2301646  45.6413761  64.3633389  22.4351240  45.5736068  65.2090386
  21.9028070  46.4472582  64.2954567  22.2116894  45.7499701  64.4793044
  16.9277797  52.9694329  66.1042357  16.6240935  52.4150317  66.7052765
  16.2257218  53.1486539  65.6170391  16.7794007  52.9139111  66.1212063
  15.9843894  50.2794849  60.6687059  16.2603629  49.5613761  60.2564626
  16.5842564  50.8779768  60.4608165  16.1137159  50.2615219  60.5767820
  25.4835334  46.1945525  63.8436155  24.8709648  46.6815927  64.2289886
  25.5799509  45.5189016  64.3873806  25.4073232  46.1663834  63.9815013
  19.4854415  47.9508366  58.9433654  19.9398162  48.1218926  59.6681498
  19.9594461  47.3376477  58.5431430  19.6222735  47.8859251  58.9907415
  13.0069940  57.4356692  68.2736392  12.4157874  58.0766190  68.2439407
  13.7690964  57.8594309  68.2467692  13.0318201  57.5932530  68.2651540
  13.4030563  48.5958690  68.9404410  13.8632045  48.6697619  69.6779534
  13.4486670  49.3939944  68.5904231  13.4781119  48.7252837  68.9977167
  15.0513913  49.2625384  73.5076437  14.6599478  48.6158732  73.9432215
  15.2199776  49.8536820  74.1270693  15.0184823  49.2539652  73.6639143
  29.1260362  57.2662462  69.2713671  29.1843486  57.7149110  70.0173647
  28.4926830  57.6761274  68.8343751  29.0411657  57.3936196  69.3166219
  22.7659457  62.8866003  65.7068417  22.5679145  63.3756818  65.0124628
  22.1447168  63.0907245  66.2852550  22.6447021  62.9882542  65.6891640
  16.8267435  54.6550900  60.0478661  17.5709480  55.0425177  60.2861611
  16.9728131  53.8108326  60.2119149  16.9578020  54.5881373  60.1072631
  18.7447010  46.4501159  65.0810523  17.8983056  46.6223967  64.9551872
  18.7418143  45.6450503  65.4176351  18.6194160  46.3562188  65.1121650
  19.8145311  50.2276374  65.9472580  19.3405265  49.7018136  66.4577891
  20.1863447  49.6805846  65.3787442  19.7995200  50.0692370  65.9387728
  10.1918341  52.2247880  71.3156126  11.0543954  52.1243589  71.2293456
   9.8610124  51.6442590  70.7541698  10.2703537  52.1239507  71.2201532
  26.0782041  55.2878749  67.3579361  25.8380264  54.4485164  67.3621787
  26.5574049  55.3678916  68.0820134  26.1134225  55.1760149  67.4654163
  21.7428811  51.1212928  59.0098334  21.2151829  51.2041672  58.3204043
  22.2024519  51.8630800  59.0062979  21.7330661  51.2433591  58.9073029
  28.0787228  52.0680206  65.3108620  27.8396998  52.0276041  64.4729405
  28.2421130  52.9151358  65.4374341  28.0677532  52.1872291  65.2062102
  24.6833259  56.4530156  71.2413665  25.4067457  56.0002682  71.0624685
  24.4183221  56.7334821  70.4585993  24.7514532  56.4281124  71.0992381
  13.5520127  51.0490329  67.9766544  12.9273197  51.0608721  67.3692497
  13.2165722  51.5250504  68.6257785  13.4105619  51.1208846  67.9823113
  13.7361876  49.3915448  54.0339229  13.3874680  50.0435173  54.4970779
  13.2558321  49.3772561  53.3063101  13.6132120  49.4858501  53.9950321
  21.2965893  59.6916492  58.1407991  22.0200092  60.1574605  57.9972565
  20.8566484  59.7590101  57.3905588  21.3381585  59.7700328  58.0092773
  20.4652048  56.5514034  69.3908680  19.8509041  56.0072084  69.6857316
  20.9819333  56.0378270  68.9114496  20.4507710  56.3950443  69.3632909
  19.7048345  57.6218304  67.1252979  19.2775953  56.9968023  66.6918414
  19.6973290  57.3393226  67.9511986  19.6407486  57.4871085  67.1832806
  12.8210872  52.6583477  70.1941413  12.9804359  51.9026801  70.5993135
  12.6403766  53.2074417  70.8482151  12.8176231  52.6277291  70.3504119
  20.7631175  44.8244713  70.7492202  20.2671737  45.0208387  70.0583769
  21.5200237  45.2237381  70.5781004  20.8018000  44.9122446  70.6212339
  18.0334055  48.4987059  67.3395513  18.0576542  47.9647171  66.6508293
  18.2845529  47.9904367  68.0021104  18.0743974  48.3447963  67.3360158
  14.3135377  47.2257877  66.7201257  14.3533749  47.7267083  67.4335965
  13.4885042  47.3168270  66.4507180  14.1974903  47.3139693  66.7851795
  15.7349741  53.7418387  69.0175156  14.9041670  53.9092205  68.8110404
  15.6801258  53.3654337  69.8024042  15.6039155  53.7108118  69.1023684
  13.5433524  47.2327280  74.6531567  14.1686227  46.6889412  74.9260999
  13.0884004  46.7522197  74.0839357  13.5681784  47.0816761  74.6093161
  14.1085784  52.0173978  59.5465274  14.2488745  52.5146442  60.2493915
  14.6068317  51.3160273  59.6879488  14.2026865  51.9875957  59.6716853
  14.1386007  52.8841089  56.8757851  14.7731086  53.4801514  56.8107313
  14.2211618  52.5844547  57.6903721  14.2442558  52.9281997  56.9860937
  27.1168573  55.4156567  69.7444215  27.7086413  56.0553817  69.7762413
  27.5527567  54.7179603  70.0336282  27.2687004  55.4074917  69.7925048
  15.7164990  48.8155065  56.8503293  16.0380831  48.3358147  56.1962555
  15.9791933  49.6254711  56.6594104  15.8031015  48.8644963  56.7258785
  18.9461962  59.8373939  70.3702109  18.4387053  60.3909786  70.8142739
  18.6488609  59.8982229  69.5520883  18.8266847  59.9280250  70.3150566
  21.1124145  48.2027259  69.2126772  21.5379216  47.7499785  68.6010298
  20.4981138  47.6487329  69.4891559  21.0852790  48.0541235  69.1631797
  10.6438995  55.0808930  60.1447397  11.1531224  55.6773438  60.5258702
  11.1173267  54.8134904  59.4623816  10.7882370  55.1294745  60.1001920
  21.5569743  63.7537197  58.3006052  20.8399052  63.5798059  57.8353290
  22.2076480  63.5189769  57.7681538  21.5471593  63.6932989  58.1535270
  19.5518367  44.6742358  62.6217349  18.9086685  44.5240005  63.1902487
  19.2117774  44.4284704  61.8566454  19.4063445  44.6154481  62.5920364
  24.1417714  52.6301785  62.0447357  23.4708904  53.1731487  61.9160423
  24.8357464  53.0996641  61.8029052  24.1446581  52.7800056  61.9902885
  18.1904448  64.7698497  67.2759116  17.9670102  64.0117326  67.6443142
  17.7014291  64.7996518  66.5539555  18.0847897  64.6620722  67.2235857
  24.3045841  49.0857669  64.9537731  24.6573451  48.6587392  65.6283529
  23.4460643  49.0008512  65.0838807  24.2295286  49.0102409  65.0732741
  13.0029526  51.7165189  63.0120577  12.2841515  52.1329321  63.2793441
  13.3741889  52.2819427  62.4612215  12.9521458  51.8614470  62.9703384
  22.3029107  52.3493037  68.9022573  22.2827034  52.1676333  69.7557352
  22.3508308  53.2205056  68.8782157  22.3063748  52.4509576  69.0245868
  20.2475437  58.9380229  74.8271050  20.2071292  58.2929906  74.2416205
  21.0598755  58.8816847  75.1396462  20.3618591  58.8339196  74.7867999
  16.8382905  64.9898955  64.7296200  16.4243303  64.3273086  64.3400042
  17.5230279  65.1376814  64.2091895  16.8781276  64.9139613  64.5952698
  20.2048199  64.1489041  65.4819817  19.8064482  64.2591311  64.7140637
  19.5899418  64.3571107  66.0646377  20.0547088  64.1962609  65.4551116
  18.7776101  50.7563188  58.3493957  18.1840940  51.0780185  57.7978524
  18.8151378  49.9104284  58.1415063  18.6950490  50.6787517  58.2376728
  25.7369901  44.2076081  65.8822043  25.2300766  43.5005220  65.8143221
  26.5337335  43.8769270  66.0123120  25.7797141  44.0549232  65.8921038
  21.6533917  50.7142693  61.7795707  21.4247610  50.7375394  60.9374065
  21.9131994  49.8900160  61.8990717  21.6580105  50.5958773  61.6720905
  15.9353146  52.5677166  71.3820807  15.4232049  51.9598349  71.7405839
  15.7632642  53.2833759  71.8494783  15.8342783  52.5840465  71.5037031
  14.7078680  49.2519239  63.0749903  15.1836046  49.6136319  62.4400084
  14.2067279  49.9075707  63.3550045  14.7044039  49.4013428  63.0226644
  27.9390041  58.7241007  58.8662908  28.3223647  59.4732363  59.0961005
  27.1434155  58.9706827  58.6074897  27.8783824  58.8710701  58.8620481
  19.8122216  50.4901411  73.8223063  20.3693646  50.2615220  73.1901528
  19.4883281  51.2507076  73.5458275  19.8468626  50.5685247  73.6879560
  17.5305333  53.5769064  74.7875070  18.2816660  53.8920741  75.1014624
  17.7227910  53.3748235  73.9608992  17.6696748  53.5936446  74.7118466
  16.7505333  51.3960439  56.4423287  17.1304298  51.4140068  55.6574401
  16.0097929  51.8414428  56.3214134  16.6974171  51.4642214  56.3086855
  24.3790624  49.7042630  62.0298865  24.3784850  49.5491287  62.8883142
  24.1746804  50.5505617  61.9740251  24.3490401  49.8063251  62.1486805
   6.4407894  53.1282415  66.4457682   6.2629656  52.6759024  67.1712597
   6.1526917  53.9308576  66.6296159   6.3720848  53.1804972  66.5801185
  22.1031476  54.3840132  65.6835072  22.5985141  53.6663127  65.6439092
  21.2931251  54.0810930  65.5689559  22.0575369  54.2337778  65.6608798
  17.5490087  58.2337945  57.8332077  16.7401410  57.9104619  57.7865386
  18.0564996  57.5271167  57.7660325  17.5039754  58.0819262  57.8162371
   8.1780364  55.6610138  63.5579441   7.3125884  55.6495829  63.4462212
   8.2779180  55.4740361  64.4050580   8.0654531  55.6316200  63.6668385
  24.1683294  57.1343820  68.3712201  24.5938366  56.6118241  67.8182626
  23.8040214  57.7324657  67.8500824  24.1769897  57.1454047  68.2121211
  13.8037374  65.4308037  67.1309546  14.1183933  66.2444425  67.1387328
  14.2130788  65.0458256  67.7991706  13.9105472  65.4936739  67.2313638
  20.7561894  60.8478084  64.7013358  21.2273072  61.5618346  64.8703344
  21.0922072  60.2476834  65.2373228  20.8757009  60.8649548  64.8045734
  17.6731389  45.6205554  71.6571453  17.8059294  44.8236548  71.9852429
  18.0576542  46.1471957  72.2369729  17.7487718  45.5805471  71.7914956
  21.3935840  60.6396018  71.4641051  20.8456786  60.0153902  71.1961116
  21.8548869  60.8290290  70.7485130  21.3803050  60.5755068  71.3191482
  20.7463744  42.5435880  68.2552546  19.9409708  42.4333610  68.5720385
  20.6170479  42.6448336  67.3982412  20.6083877  42.5419551  68.1760587
  24.2029705  48.7081372  68.8492243  23.6192693  49.2090579  68.4369811
  24.5233999  48.2010929  68.2156567  24.1642880  48.7073207  68.6950750
  16.7424504  47.6221967  59.1250918  17.5640198  47.7920280  58.8832613
  16.2794155  47.7769228  58.4017216  16.7955666  47.6703700  58.9822562
  15.3319836  45.6164729  69.9049347  15.8764249  45.2755856  70.4953689
  15.3856771  46.4750191  70.0470631  15.4208955  45.6919989  70.0131220
  11.1450394  59.3781145  66.7788155  11.7495252  59.3376980  66.1501976
  10.9377707  60.2252297  66.8092211  11.2039292  59.4969148  66.6904271
  20.9594166  61.6447091  67.9950392  21.7792540  61.5010057  68.2566687
  20.6788244  62.2693289  68.5366830  21.0390910  61.7157443  68.1138332
  37.4307817  69.3011942  60.9593269  37.4001821  70.1556579  61.1311538
  38.0289166  69.0007235  61.5179412  37.5144975  69.3828439  61.0668071
  30.6307502  68.3887593  65.7146199  29.7745397  68.5496092  65.7655316
  30.6775155  67.5179657  65.7351260  30.5106613  68.2838395  65.7252265
  33.4759323  70.4479637  68.3577851  34.0215283  71.1264724  68.4171820
  33.4176199  70.3067098  67.4979432  33.5475237  70.5271639  68.2389911
  35.2524391  71.8764244  59.2311578  35.1363917  72.6271930  59.6603716
  36.0480278  71.6188198  59.4807665  35.3528981  71.9499091  59.3315670
  19.7898442  73.9588990  63.3698537  19.5548626  73.1256642  63.2630805
  19.9284083  74.2393656  62.5559738  19.7754104  73.8772493  63.2340892
  22.0888529  66.1274721  66.2682844  21.4693561  65.5367368  66.0992859
  21.9872393  66.7186156  65.6347168  21.9826205  66.1278803  66.1487834
  27.1354717  75.8658267  60.5180921  27.4570558  76.4063475  59.9142229
  27.7826813  75.2955039  60.6503211  27.2780772  75.8617443  60.4487956
  29.1856425  67.8674262  60.6015308  29.8836590  68.0462390  61.0936771
  29.5008757  67.3444602  59.9785697  29.3351762  67.8168034  60.5817318
  21.8157662  69.6727002  68.5126413  21.6916359  70.2589448  69.1476232
  22.4675947  69.1787198  68.8138688  21.8931312  69.6865807  68.6512343
  29.3744360  74.2544707  60.5895099  29.8137996  73.6461808  61.0349872
  29.2249023  73.8752081  59.8180564  29.4165826  74.1083178  60.5414266
  26.8416003  72.8488719  67.7913924  27.4865006  72.3561162  67.4724873
  27.0817780  72.9913506  68.6180003  26.9726588  72.7966161  67.8663458
  29.3802095  75.6943625  67.4420817  29.6625338  74.8995031  67.2207573
  30.1088255  76.1724213  67.4625878  29.5291658  75.6478222  67.4123832
  27.3583289  63.2366659  64.6836582  27.0286619  63.6877803  64.0140281
  26.6828290  63.1582822  65.2309589  27.2093725  63.2917794  64.6659805
  32.9753697  72.6071889  57.5425868  32.8904992  73.4632855  57.6875437
  33.4638080  72.3316213  58.2108027  33.0342594  72.6929210  57.6627950
  34.5659696  59.2252182  62.9286193  34.2513137  59.9155660  63.3606615
  34.0486638  59.1696964  62.2271693  34.4424167  59.3187070  62.8883142
  33.9072130  69.2256683  59.0423603  33.3783602  69.4416316  59.7020910
  34.4297150  69.9192821  58.9624573  33.9060583  69.3599820  59.1279203
  39.3620183  74.8002987  64.4156648  38.5317886  75.0113631  64.5790064
  39.3129435  73.9740042  64.1398931  39.2326918  74.7092594  64.3994013
  25.7971738  73.1219900  57.8431071  25.2128953  73.6269931  58.2496935
  25.3941833  72.8962286  57.1027663  25.6511042  73.1628148  57.7936097
  30.2548952  69.3685552  56.3199992  30.4944956  69.5763535  55.5075335
  30.5764793  68.5643060  56.4288936  30.3386110  69.2799653  56.2160545
  25.5639243  61.2978947  60.1659530  26.3185211  61.6657264  59.9276580
  25.3866777  61.6718502  60.9338709  25.6493721  61.4077135  60.2444418
  38.8574141  67.4473388  68.2107069  38.0202562  67.5175575  68.4454664
  38.8262372  67.4497883  67.3381371  38.7292424  67.4583615  68.1166617
  25.2538870  69.5906424  73.9255438  25.4259374  69.4812318  74.7740719
  25.7908228  70.2360829  73.6886630  25.3583874  69.6698425  74.0160534
  23.9196307  63.7049266  56.8637643  23.7371880  63.9221147  56.0378636
  24.7821920  63.8188279  56.9196257  24.0200897  63.7539164  56.7492130
  23.5310739  75.5437189  64.3060631  24.3699639  75.7760121  64.3534392
  23.5622508  74.6741500  64.2367666  23.6592457  75.4494135  64.3025275
  29.5996026  60.7075677  59.8986667  30.3282187  60.5291632  59.4524823
  29.6890919  61.5493757  60.1093845  29.7202689  60.8059555  59.8640184
  33.5804327  71.6429064  63.8018961  34.3361842  72.0760579  63.8407869
  33.6866652  70.9933834  64.3753597  33.7074498  71.6106548  63.8916986
  36.6184498  75.4702342  64.5521364  36.1819730  75.4739084  65.3080335
  36.2847414  76.1507841  64.1200941  36.5047118  75.5714797  64.6002196
  36.5381981  62.5116170  66.7950792  37.1807890  62.5814274  67.3812707
  36.7905002  61.8445392  66.2930333  36.6704113  62.4242518  66.8078071
  23.4658334  66.9823439  55.3760116  22.7516511  66.6961619  55.7882548
  23.9502303  67.3220065  56.0166503  23.4317698  66.9905089  55.5315751
  24.3099194  65.7216733  71.4075365  23.6170990  65.2513713  71.6536097
  24.9259521  65.4955037  71.9817073  24.2983724  65.6183865  71.5284518
  39.7528844  72.1883262  63.4441001  40.4145279  71.6273930  63.3436909
  39.1120256  71.6935292  63.7693692  39.7557712  72.0319671  63.4773341
  30.6405652  75.4853393  55.7521924  31.0556801  75.1538417  55.0606420
  29.8097582  75.2522295  55.6242061  30.5793661  75.4024649  55.6312771
  19.9694001  72.9697134  66.0420102  19.7869574  72.9444020  65.1892394
  20.7043670  73.4396072  66.0809011  20.0508065  73.0358496  65.9218021
  36.0393675  73.2048644  63.1852990  36.2749264  73.3493843  62.3579840
  36.1883239  73.9691052  63.5784503  36.0959478  73.3387698  63.1216593
  23.0339753  69.6882137  72.5502211  23.7579725  69.6735168  73.0367105
  23.1355889  70.3977492  72.0524179  23.1557962  69.7906840  72.5480997
  37.8684132  72.0450310  61.0222593  38.1992349  72.5777950  60.4162688
  38.4417220  72.0989198  61.6784544  38.0017811  72.1319879  61.0300375
  33.0816021  69.8915213  61.7046174  33.1762875  70.6304507  62.1585799
  32.4574865  69.4632688  62.1380738  33.0025051  69.9376533  61.8354321
  19.9364911  69.8490635  66.1919169  20.5138414  69.7127085  66.8311414
  19.2378973  69.3926419  66.4464753  19.9185933  69.7612901  66.3241458
  33.3339042  71.7363952  54.9383126  33.2519205  71.8066140  55.8038113
  33.9718763  72.2993696  54.7466866  33.4158880  71.8302923  55.0373075
  26.6932213  71.5024690  64.4057652  26.4351458  70.6696425  64.3788951
  26.7480696  71.7282303  63.5650152  26.6631991  71.4122462  64.2777789
  31.7733264  63.6053141  64.5061744  31.0689590  63.1162327  64.6645664
  31.8218238  63.6175615  63.6350189  31.6763315  63.5342789  64.4001084
  25.6666926  69.0562453  64.8922547  25.0916517  69.2154621  65.5286508
  25.2902602  68.4197862  64.4290997  25.5269738  68.9860266  64.9177105
  29.3340214  67.5285802  69.7514925  28.9454647  67.1040020  69.0967116
  28.6694913  67.7767952  70.2591952  29.1787142  67.5024523  69.7302793
  38.9763483  67.2860807  62.5262755  38.7200048  66.4740748  62.3360638
  39.8192797  67.2938374  62.2992942  39.0629509  67.1672804  62.4647572
  15.4123745  68.7002528  62.9066987  15.4983996  68.3234396  63.6880517
  16.0399542  68.3262973  62.4286945  15.5180296  68.5888010  62.9512465
  33.1566576  61.2260431  67.2638909  33.5377088  60.5438602  67.6506783
  32.3529860  60.9370033  67.0814574  33.0943038  61.0827479  67.2942965
  30.4379153  71.7584407  57.9491732  31.2519791  72.0499299  57.8374503
  30.3738294  71.1044269  57.3750025  30.5481892  71.7049601  57.8480569
  26.3087061  75.2305924  63.0764044  26.9461008  74.9917672  63.6215837
  26.7342132  75.4343083  62.3417205  26.4663227  75.2256934  63.0481201
  26.9489876  70.4508214  57.4138933  27.3335029  70.2315921  58.1655479
  26.7001496  71.2771159  57.5440010  26.9691948  70.5406360  57.5440010
  27.1158416  63.7314629  77.1301518  26.8011857  64.5014192  76.8671080
  26.7948349  63.1684885  76.5453745  27.0217335  63.7624898  77.0042868
  28.6908533  75.7078347  64.7557830  28.7647541  75.5453519  65.6099680
  29.5078039  75.8968536  64.5118312  28.8224891  75.7115089  64.8455856
  24.6690313  62.1205151  62.7447714  23.8012739  62.1927750  62.8105323
  24.9565518  62.9227230  62.9335689  24.5830061  62.2499298  62.7822481
  33.7923202  62.2683010  71.0759036  34.5376794  62.0792820  70.6622461
  33.3760507  62.7941248  70.5172892  33.8408176  62.3185155  70.9323609
  41.1685473  69.6392238  66.0264541  41.7193394  69.0060308  66.2661633
  41.1529588  70.1707631  66.7180045  41.2470669  69.6241187  66.1643399
  27.8207864  73.4730836  70.5724434  27.3219557  74.1846603  70.6509323
  28.6308088  73.7931502  70.5342597  27.8663970  73.6257684  70.5781003
  24.0835981  72.7353789  64.8187155  23.7949230  72.1091260  65.3532882
  24.9519329  72.6774076  64.8851836  24.1696233  72.6341333  64.9078110
  24.2868255  74.3749040  60.7429520  25.0414223  74.7562079  60.9564983
  23.6938867  74.8260183  61.1976217  24.3104968  74.4977867  60.8412399
  35.3326908  74.3414276  60.6793125  35.8984941  75.0007486  60.5951668
  34.6854812  74.6863974  61.1509527  35.3205665  74.4896218  60.7365882
  26.7474922  66.3311880  75.8686733  25.9374697  66.6369660  75.7576575
  27.2249608  67.0517462  75.9839317  26.6978400  66.4826481  75.8693804
  25.6066481  75.5457601  66.1169636  25.0847235  75.6857893  66.8021500
  25.9940502  74.7868265  66.3071753  25.5870182  75.4543125  66.2470712
  22.5957665  65.5963410  60.1864590  22.3082461  65.2264680  59.4496538
  23.2828134  66.0658265  59.9248295  22.6546563  65.6110379  60.0379666
  31.8033486  77.2853060  60.1030204  31.5620162  76.5520921  59.6957269
  31.9834819  77.8339917  59.4496538  31.7941110  77.2575452  59.9460427
  27.0332807  72.5761620  61.5151127  26.8375589  73.1836355  60.9211430
  27.2567152  71.8829564  61.0342801  27.0367448  72.5639146  61.3567207
  25.4311337  69.4616358  61.6331995  26.1533989  69.6257516  61.1735801
  24.9519330  70.1826023  61.5271335  25.4675068  69.5914588  61.5497609
  33.3904844  65.7980157  67.0128680  32.5515945  65.8241436  66.7766943
  33.4609212  66.4450892  67.5934027  33.2773238  65.8976283  67.0637797
  31.8374123  62.6965534  61.7456296  32.5400476  62.4973282  61.2676254
  31.5718311  61.9241476  62.0525139  31.9020755  62.5528500  61.7201737
  37.2662368  71.0048144  64.2989922  37.1796343  71.1603570  65.1524700
  36.8112848  71.6486219  63.9249327  37.1865625  71.1223899  64.3697028
  20.1685860  66.3744622  61.0349871  20.2701996  67.1770784  61.3630847
  20.9641747  66.1731958  60.7372952  20.3013766  66.4630521  61.0385227
  26.6002679  63.9600819  70.7987176  26.4085876  63.9755954  71.6486600
  27.4501275  64.1564493  70.7753831  26.6978401  63.9915170  70.9210471
  20.9849592  66.4891801  68.7770993  20.8435084  65.6375741  68.9015501
  21.2690155  66.5320461  67.9533199  21.0057438  66.3691551  68.6738617
  31.1388184  68.3258891  62.9215481  30.8922899  68.2454642  63.7552270
  31.4673307  67.5412359  62.7278009  31.1509428  68.1985156  63.0163004
  35.0336233  75.0342250  66.7102262  34.8950592  75.7323296  67.2151005
  34.2536231  74.8790907  66.3538444  34.8979460  75.1142417  66.7328537
  27.0985212  71.0615609  72.3338464  27.2428587  71.6416818  71.6981574
  27.4460860  71.4391906  73.0388319  27.1712673  71.2036313  72.3437459
  29.2705129  70.2605778  70.1163596  28.5228443  70.4536792  69.7111874
  29.4246654  69.4350997  69.8787717  29.1827557  70.1670889  70.0209002
  36.5289606  74.3920504  57.4718762  36.1496415  73.6057642  57.4648051
  35.8655851  74.9407361  57.3290406  36.3748081  74.3565328  57.4499559
  29.5106906  64.1556328  71.0059000  29.9679520  64.8880303  71.1331792
  29.5863235  63.7322794  71.7646255  29.5897876  64.2013567  71.1360076
  21.7539897  64.4022148  72.0948443  21.2182087  63.7902506  72.4109211
  21.8157662  64.9770284  72.7482110  21.6835530  64.3969076  72.2383870
  33.9834232  57.3346204  64.8752843  34.1017800  57.7922667  64.1420145
  33.8096408  56.5291465  64.5889060  33.9753403  57.2839976  64.7253776
  27.3889284  66.1458432  67.8500824  26.5985359  65.9649892  68.1718159
  27.7849907  65.3685385  67.8331118  27.3306160  66.0045893  67.8953372
  31.8755175  74.9746207  53.2907537  32.6428160  75.0346332  52.8813389
  31.4286484  74.4026648  52.8063856  31.9228602  74.8982782  53.1585248
  32.7732970  73.7800863  65.5760270  32.0977972  73.5486095  66.0773657
  32.7825346  73.1722045  64.9502375  32.6751475  73.6559788  65.5576422
  29.9027114  68.6218692  72.3324323  29.8386255  69.4828648  72.2044459
  30.0424302  68.3050685  71.5319874  29.9142584  68.7018858  72.1952535
  34.7749705  76.6365995  57.8070447  34.8569542  77.4432981  57.4831898
  35.2599447  76.6561954  58.5311221  34.8586863  76.7586657  57.8657346
  28.5846208  71.3150831  66.4740525  28.1608457  71.5155330  65.7379544
  28.4091063  70.4679679  66.5864825  28.4957089  71.2199612  66.3814216
  23.8728653  71.8102882  61.9068498  24.0293272  71.7449685  62.7624490
  24.2129246  72.5851435  61.6947178  23.9461888  71.9152080  62.0023092
  30.4107798  71.1860766  60.7761861  30.9523343  70.6831147  61.2400482
  30.7254357  71.1325961  59.9651346  30.5372195  71.1040187  60.7245673
  28.5794247  76.5778117  58.0601889  28.6487068  75.7192656  58.1994890
  29.3582703  76.7949998  57.7320914  28.7047097  76.4830981  58.0319046
  31.5597067  66.0797070  70.8284162  31.7739037  65.4407985  70.2747516
  30.9430966  66.5242894  70.3992023  31.5002396  66.0507214  70.6834593
  20.4462915  68.9937833  62.2229265  20.8261879  69.4122378  61.5589532
  19.8718279  69.5751288  62.5298108  20.4174239  69.1415692  62.1706006
  33.7236155  67.6886136  71.7667469  32.9112837  67.3812026  71.8480641
  34.1826090  67.2085136  72.3310181  33.6716540  67.5722628  71.8622063
  33.1341410  75.5665808  62.2144413  32.7756064  75.7380450  62.9908445
  32.6480121  76.0279013  61.6572412  33.0100107  75.6604779  62.2469682
  30.9511796  59.1897006  65.8171504  30.0805354  59.1635727  65.7704814
  31.2052137  59.0174198  64.9997350  30.8605356  59.1607150  65.6891641
  27.9229775  71.2464973  54.7544647  28.2122300  72.0229855  55.0288222
  28.0101574  70.7353704  55.4559147  27.9784031  71.2856891  54.8987145
  27.9760936  61.2003234  67.2744975  27.4599425  60.5083426  67.3996554
  27.4154865  61.8674012  67.2207574  27.8167449  61.1966492  67.2851041
  30.0453170  61.7396194  69.1037827  29.6584923  61.7645226  69.8851357
  29.5586107  61.1737873  68.6512344  29.9165679  61.6591945  69.1525731
  36.0203149  68.3058849  67.7277530  35.5930757  68.2185198  66.9725629
  35.3829202  68.4136625  68.3132374  35.8632756  68.3091509  67.7022971
  29.7110311  58.6263180  71.3948087  30.3403429  59.1623480  71.1169158
  29.8796174  58.5340539  72.2461653  29.8288106  58.6924542  71.4796615
  29.5124226  63.4134375  73.6674499  30.3397656  63.1419524  73.7233113
  29.5332072  64.2095216  74.0238317  29.6377076  63.4914129  73.7289682
  24.0893716  70.5598237  66.8544760  23.2481723  70.4602112  67.0623653
  24.2983724  71.3293718  67.2059080  23.9958409  70.6590281  66.9372074
  21.5669283  68.1817774  64.6829510  21.1725981  68.2560786  63.9079620
  21.0109400  68.5675721  65.2337872  21.4272095  68.2499549  64.6497170
  33.2034230  61.1599068  64.3633389  33.4083823  61.0921376  65.2090386
  32.8760654  61.9657890  64.2954567  33.1849478  61.2685009  64.4793044
  27.9010381  68.4879637  66.1042357  27.5973518  67.9335625  66.7052765
  27.1989802  68.6671847  65.6170391  27.7526591  68.4324419  66.1212063
  26.9576478  65.7980156  60.6687059  27.2336212  65.0799069  60.2564626
  27.5575147  66.3965076  60.4608165  27.0869743  65.7800527  60.5767820
  36.4567918  61.7130833  63.8436155  35.8442231  62.2001235  64.2289886
  36.5532092  61.0374324  64.3873806  36.3805815  61.6849141  63.9815013
  30.4586999  63.4693674  58.9433654  30.9130745  63.6404234  59.6681498
  30.9327044  62.8561785  58.5431430  30.5955319  63.4044559  58.9907415
  23.9802524  72.9542000  68.2736392  23.3890457  73.5951498  68.2439407
  24.7423548  73.3779617  68.2467692  24.0050785  73.1117838  68.2651540
  24.3763147  64.1143998  68.9404410  24.8364628  64.1882927  69.6779534
  24.4219253  64.9125252  68.5904231  24.4513702  64.2438145  68.9977167
  26.0246497  64.7810692  73.5076437  25.6332062  64.1344040  73.9432215
  26.1932359  65.3722128  74.1270693  25.9917407  64.7724960  73.6639143
  33.7392040  78.4051311  65.7068417  33.5411729  78.8942126  65.0124628
  33.1179751  78.6092553  66.2852550  33.6179605  78.5067850  65.6891640
  27.8000019  70.1736208  60.0478661  28.5442064  70.5610484  60.2861611
  27.9460715  69.3293634  60.2119149  27.9310604  70.1066681  60.1072631
  29.7179594  61.9686467  65.0810523  28.8715639  62.1409275  64.9551872
  29.7150726  61.1635811  65.4176351  29.5926744  61.8747496  65.1121650
  30.7877894  65.7461681  65.9472580  30.3137849  65.2203444  66.4577891
  31.1596030  65.1991154  65.3787442  30.7727783  65.5877678  65.9387728
  21.1650925  67.7433188  71.3156126  22.0276538  67.6428897  71.2293456
  20.8342708  67.1627897  70.7541698  21.2436121  67.6424815  71.2201532
  37.0514625  70.8064057  67.3579361  36.8112848  69.9670472  67.3621787
  37.5306632  70.8864224  68.0820134  37.0866809  70.6945457  67.4654163
  32.7161394  66.6398236  59.0098334  32.1884413  66.7226980  58.3204043
  33.1757102  67.3816108  59.0062979  32.7063245  66.7618898  58.9073029
  39.0519812  67.5865514  65.3108620  38.8129582  67.5461349  64.4729405
  39.2153713  68.4336666  65.4374341  39.0410115  67.7057599  65.2062102
  24.5252711  66.5675637  67.9766544  23.9005781  66.5794029  67.3692497
  24.1898305  67.0435812  68.6257785  24.3838202  66.6394154  67.9823113
  24.7094459  64.9100756  54.0339229  24.3607264  65.5620481  54.4970779
  24.2290905  64.8957869  53.3063101  24.5864703  65.0043809  53.9950321
  32.2698477  75.2101800  58.1407991  32.9932675  75.6759913  57.9972565
  31.8299068  75.2775409  57.3905588  32.3114169  75.2885636  58.0092773
  31.4384632  72.0699342  69.3908680  30.8241625  71.5257392  69.6857316
  31.9551917  71.5563578  68.9114496  31.4240294  71.9135751  69.3632909
  30.6780929  73.1403612  67.1252979  30.2508537  72.5153331  66.6918414
  30.6705873  72.8578534  67.9511986  30.6140070  73.0056393  67.1832806
  23.7943456  68.1768785  70.1941413  23.9536943  67.4212109  70.5993135
  23.6136350  68.7259725  70.8482151  23.7908815  68.1462599  70.3504119
  31.7363759  60.3430021  70.7492202  31.2404320  60.5393695  70.0583769
  32.4932821  60.7422689  70.5781004  31.7750584  60.4307754  70.6212339
  29.0066638  64.0172366  67.3395513  29.0309126  63.4832479  66.6508293
  29.2578112  63.5089675  68.0021104  29.0476557  63.8633270  67.3360158
  25.2867961  62.7443185  66.7201257  25.3266332  63.2452391  67.4335965
  24.4617625  62.8353578  66.4507180  25.1707487  62.8325001  66.7851795
  26.7082324  69.2603695  69.0175156  25.8774254  69.4277513  68.8110404
  26.6533841  68.8839645  69.8024042  26.5771739  69.2293426  69.1023684
  24.5166107  62.7512587  74.6531567  25.1418811  62.2074720  74.9260999
  24.0616587  62.2707505  74.0839357  24.5414368  62.6002069  74.6093161
  25.0818368  67.5359286  59.5465274  25.2221329  68.0331750  60.2493915
  25.5800901  66.8345581  59.6879488  25.1759449  67.5061265  59.6716853
  25.1118590  68.4026397  56.8757851  25.7463670  68.9986822  56.8107313
  25.1944201  68.1029855  57.6903721  25.2175141  68.4467305  56.9860937
  26.6897573  64.3340373  56.8503293  27.0113414  63.8543455  56.1962555
  26.9524517  65.1440019  56.6594104  26.7763599  64.3830270  56.7258785
  29.9194546  75.3559247  70.3702109  29.4119637  75.9095094  70.8142739
  29.6221192  75.4167537  69.5520883  29.7999431  75.4465558  70.3150566
  32.0856728  63.7212567  69.2126772  32.5111800  63.2685093  68.6010298
  31.4713721  63.1672637  69.4891559  32.0585374  63.5726543  69.1631797
  21.6171578  70.5994238  60.1447397  22.1263808  71.1958745  60.5258702
  22.0905850  70.3320212  59.4623816  21.7614954  70.6480053  60.1001920
  30.5250951  60.1927666  62.6217349  29.8819269  60.0425313  63.1902487
  30.1850358  59.9470012  61.8566454  30.3796028  60.1339789  62.5920364
  35.1150297  68.1487093  62.0447357  34.4441487  68.6916795  61.9160423
  35.8090048  68.6181948  61.8029052  35.1179165  68.2985364  61.9902885
  35.2778425  64.6042977  64.9537731  35.6306035  64.1772700  65.6283529
  34.4193226  64.5193820  65.0838807  35.2027870  64.5287717  65.0732741
  23.9762110  67.2350496  63.0120577  23.2574099  67.6514629  63.2793441
  24.3474472  67.8004735  62.4612215  23.9254042  67.3799778  62.9703384
  33.2761691  67.8678345  68.9022573  33.2559618  67.6861641  69.7557352
  33.3240891  68.7390364  68.8782157  33.2796332  67.9694884  69.0245868
  29.7508684  66.2748496  58.3493957  29.1573524  66.5965493  57.7978524
  29.7883962  65.4289592  58.1415063  29.6683073  66.1972825  58.2376728
  36.7102485  59.7261389  65.8822043  36.2033350  59.0190528  65.8143221
  37.5069919  59.3954577  66.0123120  36.7529724  59.5734540  65.8921038
  32.6266501  66.2328001  61.7795707  32.3980194  66.2560702  60.9374065
  32.8864577  65.4085468  61.8990717  32.6312689  66.1144081  61.6720905
  26.9085729  68.0862474  71.3820807  26.3964632  67.4783657  71.7405839
  26.7365225  68.8019066  71.8494783  26.8075366  68.1025773  71.5037031
  25.6811263  64.7704547  63.0749903  26.1568630  65.1321627  62.4400084
  25.1799863  65.4261015  63.3550045  25.6776622  64.9198736  63.0226644
  38.9122625  74.2426315  58.8662908  39.2956231  74.9917671  59.0961005
  38.1166738  74.4892135  58.6074897  38.8516407  74.3896009  58.8620481
  30.7854800  66.0086719  73.8223063  31.3426230  65.7800528  73.1901528
  30.4615865  66.7692384  73.5458275  30.8201210  66.0870555  73.6879560
  27.7237917  66.9145747  56.4423287  28.1036881  66.9325376  55.6574401
  26.9830513  67.3599736  56.3214134  27.6706754  66.9827522  56.3086855
  35.3523207  65.2227938  62.0298865  35.3517433  65.0676595  62.8883142
  35.1479387  66.0690925  61.9740251  35.3222985  65.3248559  62.1486805
  17.4140478  68.6467723  66.4457682  17.2362239  68.1944332  67.1712597
  17.1259500  69.4493884  66.6296159  17.3453431  68.6990280  66.5801185
  33.0764059  69.9025440  65.6835072  33.5717724  69.1848435  65.6439092
  32.2663835  69.5996238  65.5689559  33.0307952  69.7523086  65.6608798
  28.5222671  73.7523253  57.8332077  27.7133993  73.4289927  57.7865386
  29.0297580  73.0456475  57.7660325  28.4772337  73.6004570  57.8162371
  19.1512948  71.1795446  63.5579441  18.2858467  71.1681137  63.4462212
  19.2511764  70.9925669  64.4050580  19.0387115  71.1501508  63.6668385
  35.1415878  72.6529127  68.3712201  35.5670950  72.1303549  67.8182626
  34.7772798  73.2509965  67.8500824  35.1502481  72.6639354  68.2121211
  31.7294477  76.3663392  64.7013358  32.2005656  77.0803654  64.8703344
  32.0654656  75.7662142  65.2373228  31.8489592  76.3834856  64.8045734
  28.6463972  61.1390862  71.6571453  28.7791878  60.3421856  71.9852429
  29.0309125  61.6657265  72.2369729  28.7220301  61.0990779  71.7914956
  31.7196328  58.0621188  68.2552546  30.9142291  57.9518918  68.5720385
  31.5903063  58.1633644  67.3982412  31.5816460  58.0604858  68.1760587
  35.1762288  64.2266680  68.8492243  34.5925277  64.7275887  68.4369811
  35.4966582  63.7196237  68.2156567  35.1375463  64.2258515  68.6950750
  27.7157087  63.1407275  59.1250918  28.5372782  63.3105588  58.8832613
  27.2526738  63.2954536  58.4017216  27.7688250  63.1889008  58.9822562
  26.3052419  61.1350037  69.9049347  26.8496832  60.7941164  70.4953689
  26.3589355  61.9935499  70.0470631  26.3941539  61.2105297  70.0131220
  31.9326750  77.1632399  67.9950392  32.7525124  77.0195365  68.2566687
  31.6520828  77.7878597  68.5366830  32.0123493  77.2342751  68.1138332
  38.3315872  78.7551967  64.6836582  38.0019202  79.2063110  64.0140281
  37.6560874  78.6768130  65.2309589  38.1826308  78.8103102  64.6659805
  45.5392280  74.7437490  62.9286193  45.2245721  75.4340968  63.3606615
  45.0219222  74.6882272  62.2271693  45.4156750  74.8372378  62.8883142
  36.5371826  76.8164255  60.1659530  37.2917794  77.1842572  59.9276580
  36.3599361  77.1903810  60.9338709  36.6226305  76.9262443  60.2444418
  34.8928891  79.2234574  56.8637643  34.7104464  79.4406455  56.0378636
  35.7554504  79.3373587  56.9196257  34.9933480  79.2724472  56.7492130
  40.5728610  76.2260985  59.8986667  41.3014770  76.0476940  59.4524823
  40.6623503  77.0679065  60.1093845  40.6935272  76.3244863  59.8640184
  35.6422897  77.6390459  62.7447714  34.7745322  77.7113058  62.8105323
  35.9298101  78.4412537  62.9335689  35.5562645  77.7684606  62.7822481
  42.8106706  78.2150842  61.7456296  43.5133059  78.0158590  61.2676254
  42.5450895  77.4426784  62.0525139  42.8753339  78.0713808  61.7201737
  44.9566816  72.8531512  64.8752843  45.0750384  73.3107975  64.1420145
  44.7828991  72.0476773  64.5889060  44.9485986  72.8025284  64.7253776
  41.9244379  74.7082314  65.8171504  41.0537937  74.6821035  65.7704814
  42.1784721  74.5359506  64.9997350  41.8337939  74.6792458  65.6891641
  41.4319582  78.9878982  58.9433654  41.8863329  79.1589542  59.6681498
  41.9059628  78.3747092  58.5431430  41.5687902  78.9229867  58.9907415
  40.6912178  77.4871775  65.0810523  39.8448223  77.6594583  64.9551872
  40.6883310  76.6821119  65.4176351  40.5659328  77.3932804  65.1121650
  43.6893978  82.1583544  59.0098334  43.1616996  82.2412288  58.3204043
  44.1489686  82.9001415  59.0062979  43.6795828  82.2804206  58.9073029
  37.6630157  79.8525680  56.8503293  37.9845998  79.3728763  56.1962555
  37.9257101  80.6625327  56.6594104  37.7496182  79.9015578  56.7258785
  41.4983535  75.7112974  62.6217349  40.8551853  75.5610621  63.1902487
  41.1582942  75.4655319  61.8566454  41.3528612  75.6525097  62.5920364
  38.6889671  78.6592583  59.1250918  39.5105365  78.8290896  58.8832613
  38.2259322  78.8139844  58.4017216  38.7420833  78.7074316  58.9822562
  15.1793474  15.2019458  47.8933315  15.1487478  16.0564094  48.0651585
  15.7774822  14.9014750  48.4519459  15.2630632  15.2835954  48.0008118
   8.3793159  14.2895109  52.6486246   7.5231054  14.4503607  52.6995363
   8.4260812  13.4187173  52.6691307   8.2592270  14.1845911  52.6592312
   2.7634298  23.8257827  48.4123477   2.0117198  23.4473365  48.1839522
   3.2120310  23.8576260  47.6642288   2.7183965  23.7743434  48.2680980
  11.6886875  20.5581634  62.2546702  12.3953642  20.0633665  62.3833636
  11.8774810  20.9990716  61.5249360  11.8214781  20.5499985  62.1655747
   8.2159258  24.2483196  43.8409024   7.8810627  24.9260118  43.4053247
   8.7286129  23.8588507  43.2525896   8.2424839  24.2907774  43.6895816
   7.7563549  26.1997465  49.7820136   8.1402929  26.7684363  49.2424911
   7.6922691  25.4746975  49.3025952   7.8036977  26.1772928  49.6313999
  11.2244980  16.3487153  55.2917897  11.7700940  17.0272239  55.3511867
  11.1661856  16.2074613  54.4319479  11.2960894  16.4279154  55.1729958
   4.3419054  23.8376219  50.6786250   4.4429417  23.0276573  50.9883378
   3.7460800  23.7433165  50.0485928   4.2691593  23.7041247  50.6312488
  13.0010048  17.7771760  46.1651625  12.8849574  18.5279446  46.5943763
  13.7965935  17.5195713  46.4147712  13.1014638  17.8506607  46.2655717
   4.1819794  28.7553808  52.0801106   4.8257249  29.1966972  52.4697264
   4.5076050  27.9507234  51.9931365   4.3251623  28.7019003  52.1246583
   4.8840374  21.7665783  47.4520968   5.2056215  22.3070990  46.8482276
   5.5312470  21.1962554  47.5843257   5.0266429  21.7624958  47.3828003
   6.9342082  13.7681778  47.5355354   7.6322246  13.9469905  48.0276818
   7.2494414  13.2452117  46.9125744   7.0837419  13.7175550  47.5157364
   7.1230017  20.1552223  47.5235146   7.5623653  19.5469323  47.9689919
   6.9734680  19.7759596  46.7520611   7.1651483  20.0090694  47.4754313
   4.5901660  18.7496235  54.7253971   5.2350663  18.2568678  54.4064920
   4.8303437  18.8921021  55.5520050   4.7212245  18.6973677  54.8003504
   7.1287752  21.5951140  54.3760864   7.4110994  20.8002546  54.1547620
   7.8573912  22.0731728  54.3965925   7.2777315  21.5485737  54.3463879
  10.7239354  18.5079404  44.4765915  10.6390649  19.3640371  44.6215484
  11.2123737  18.2323728  45.1448074  10.7828251  18.5936725  44.5967997
  12.3145353   5.1259697  49.8626240  11.9998794   5.8163176  50.2946662
  11.7972295   5.0704479  49.1611740  12.1909824   5.2194586  49.8223189
  11.6557787  15.1264198  45.9763650  11.1269258  15.3423832  46.6360956
  12.1782807  15.8200337  45.8964619  11.6546240  15.2607335  46.0619249
  17.1105840  20.7010503  51.3496695  16.2803543  20.9121146  51.5130111
  17.0615092  19.8747557  51.0738978  16.9812575  20.6100109  51.3334060
   3.5457395  19.0227415  44.7771118   2.9614610  19.5277446  45.1836982
   3.1427490  18.7969802  44.0367710   3.3996699  19.0635663  44.7276143
   5.1715577  23.5314357  54.1844604   4.6542519  23.1721772  53.5805912
   5.8689969  23.0076531  54.1950670   5.1981159  23.4012045  54.0974863
   8.8279169  23.9809171  60.1460777   8.9162515  23.7935311  60.9938988
   9.2568882  23.3346600  59.7465624   8.9041272  23.8572179  60.2132529
   6.3949629  23.2640331  59.1278439   5.8320464  22.8512941  59.6518101
   7.1570653  23.1893236  59.5471583   6.4244078  23.1917731  59.2671440
   8.0034609  15.2693067  43.2540039   8.2430613  15.4771051  42.4415382
   8.3250450  14.4650576  43.3628983   8.0871767  15.1807168  43.1500592
   1.9545621  25.2538352  51.7315069   2.6566200  24.7390341  51.7887826
   1.8743104  25.5812503  52.5361945   2.0469381  25.2252578  51.8587862
  16.6059798  13.3480903  55.1447116  15.7688219  13.4183090  55.3794710
  16.5748029  13.3505398  54.2721418  16.4778081  13.3591130  55.0506664
   1.2796396  21.4444704  51.2400678   2.1185295  21.6767637  51.2874439
   1.3108165  20.5749015  51.1707713   1.4078114  21.3501650  51.2365322
   1.9049099  21.8645579  55.5413983   2.4447324  21.7216710  56.2117355
   1.2219045  22.2642330  55.9098009   1.8841253  21.9025250  55.6948405
  11.3289984  17.5436580  50.7359007  12.0847499  17.9768094  50.7747916
  11.4352308  16.8941349  51.3093643  11.4560155  17.5114064  50.8257033
  14.3670155  21.3709857  51.4861410  13.9305387  21.3746599  52.2420382
  14.0333071  22.0515356  51.0540988  14.2532775  21.4722313  51.5342243
   8.9399229  23.4118190  62.8104561   9.7239645  23.5249038  63.1760303
   8.7395823  22.5859327  63.0063247   9.0265254  23.3064909  62.8938947
  14.2867638   8.4123685  53.7290838  14.9293546   8.4821789  54.3152754
  14.5390659   7.7452908  53.2270380  14.4189770   8.3250033  53.7418118
   1.2143991  12.8830954  42.3100163   0.5002168  12.5969134  42.7222595
   1.6987960  13.2227580  42.9506550   1.1803354  12.8912604  42.4655798
   9.0969622  25.3228292  56.4571016   8.2984868  25.0827792  56.7144885
   9.5455634  25.3742685  57.2038064   9.0444233  25.2950683  56.6055941
  17.5014501  18.0890777  50.3781048  18.1630935  17.5281445  50.2776956
  16.8605913  17.5942808  50.7033739  17.5043369  17.9327186  50.4113388
   8.3891309  21.3860908  42.6861971   8.8042457  21.0545932  41.9946467
   7.5583239  21.1529811  42.5582108   8.3279318  21.3032164  42.5652818
  13.7879332  19.1056159  50.1193036  14.0234921  19.2501358  49.2919887
  13.9368896  19.8698567  50.5124550  13.8445135  19.2395214  50.0556640
  15.6169789  17.9457825  47.9562640  15.9478006  18.4785465  47.3502735
  16.1902877  17.9996713  48.6124591  15.7503468  18.0327394  47.9640422
  10.8301678  15.7922728  48.6386220  10.9248532  16.5312022  49.0925846
  10.2060521  15.3640203  49.0720785  10.7510708  15.8384049  48.7694368
   9.0854152  18.9708941  59.2876501   9.6593013  18.3336185  59.4425065
   9.0068955  18.9713023  58.4186159   9.1587387  18.8774052  59.1822912
  11.0824699  17.6371468  41.8723172  11.0004862  17.7073655  42.7378159
  11.7204420  18.2001212  41.6806913  11.1644537  17.7310439  41.9713122
   4.4417870  17.4032206  51.3397699   4.1837115  16.5703941  51.3128998
   4.4966353  17.6289819  50.4990199   4.4117648  17.3129977  51.2117835
   9.5218920   9.5060656  51.4401791   8.8175247   9.0169842  51.5985710
   9.5703895   9.5183131  50.5690236   9.4248972   9.4350304  51.3341131
   3.4152582  14.9569968  51.8262593   2.8402174  15.1162137  52.4626554
   3.0388259  14.3205377  51.3631044   3.2755395  14.8867781  51.8517152
   7.0825871  13.4293317  56.6854972   6.6940304  13.0047535  56.0307163
   6.4180569  13.6775467  57.1931998   6.9272799  13.4032039  56.6642840
  16.7249140  13.1868322  49.4602802  16.4685705  12.3748264  49.2700685
  17.5678454  13.1945889  49.2332989  16.8115166  13.0680320  49.3987619
  10.9052233   7.1267946  54.1978956  11.2862744   6.4446117  54.5846830
  10.1015517   6.8377548  54.0154621  10.8428694   6.9834995  54.2283012
   8.1864809  17.6591922  44.8831779   9.0005448  17.9506815  44.7714550
   8.1223951  17.0051784  44.3090072   8.2967548  17.6057117  44.7820616
  14.4074299  20.3417918  59.2961354  14.1712937  19.5105983  59.1773415
  15.0517528  20.2903525  59.8816199  14.4668970  20.2115606  59.3647248
   4.0572718  21.1313439  50.0104091   4.6946665  20.8925187  50.5555884
   4.4827789  21.3350598  49.2757251   4.2148884  21.1264450  49.9821248
   4.6975533  16.3515729  44.3478980   5.0820685  16.1323436  45.0995525
   4.4487153  17.1778675  44.4780057   4.7177605  16.4413875  44.4780057
  15.4310720  20.1262367  55.3589649  15.1256537  20.8590424  55.7202965
  14.7116936  19.7200296  55.0782435  15.2798062  20.1744100  55.3702786
   6.4394190  21.6085862  51.6897877   6.5133198  21.4461034  52.5439727
   7.2563696  21.7976052  51.4458359   6.5710548  21.6122604  51.7795903
  21.1312512  16.7655368  54.6857993  21.0637013  16.7851327  53.8160580
  21.1168175  17.6085695  54.9113664  21.1191269  16.8929102  54.5910470
   4.9798775  24.5720605  46.4211351   5.2697074  24.1809586  45.6970577
   5.7102256  24.7537310  46.8616626   5.1305659  24.5414419  46.3794158
  18.9171130  15.5399754  52.9604588  19.4679051  14.9067823  53.2001680
  18.9015245  16.0715147  53.6520092  18.9956326  15.5248702  53.0983446
   5.5693520  19.3738351  57.5064481   5.0705214  20.0854119  57.5849369
   6.3793745  19.6939018  57.4682643   5.6149627  19.5265200  57.5121050
   2.9204691  26.5487988  49.4871500   2.7004986  26.2585342  50.2798167
   2.6999213  25.8902943  48.9589413   2.8552285  26.4087696  49.5260409
   1.8321638  18.6361304  51.7527202   1.5434887  18.0098775  52.2872929
   2.7004986  18.5781592  51.8191882   1.9181890  18.5348848  51.8418157
  12.6199536  13.7796087  52.0709184  12.2764302  13.0586423  52.4216433
  12.7192578  13.5709939  51.2287542  12.5841579  13.6420291  51.9980864
   5.0872647  27.9217378  48.2702193   5.7396705  27.3893820  48.4993219
   4.3898255  27.5686030  48.6570067   5.0803365  27.7906900  48.3614360
   2.0353911  20.2756555  47.6769567   2.7899879  20.6569594  47.8905030
   1.4424524  20.7267699  48.1316264   2.0590625  20.3985383  47.7752445
  13.0812565  20.2421792  47.6133172  13.6470598  20.9015001  47.5291715
  12.4340468  20.5871490  48.0849574  13.0691321  20.3903733  47.6705928
   3.3552138  21.4465116  53.0509682   2.8332892  21.5865408  53.7361547
   3.7426158  20.6875781  53.2411800   3.3355839  21.3550640  53.1810759
   9.5519143  23.1860576  47.0370251   9.3105819  22.4528436  46.6297316
   9.7320476  23.7347433  46.3836584   9.5426767  23.1582967  46.8800474
   3.1796994  15.3623873  48.5672042   3.9019646  15.5265032  48.1075848
   2.7004986  16.0833538  48.4611382   3.2160724  15.4922103  48.4837656
  11.1390501  11.6987672  53.9468727  10.3001602  11.7248951  53.7106990
  11.2094869  12.3458408  54.5274073  11.0258895  11.7983798  53.9977844
   0.8304610  17.7681946  57.6726182   1.3425707  18.0466199  57.0234941
   0.5440953  18.5071240  58.0388995   0.8639473  17.9184300  57.6316060
   9.5859780   8.5973049  48.6796343  10.2886132   8.3980798  48.2016301
   9.3203968   7.8248992  48.9865186   9.6506412   8.4536015  48.6541784
  15.0148025  16.9055659  51.2329968  14.9282000  17.0611085  52.0864747
  14.5598505  17.5493735  50.8589374  14.9351282  17.0231414  51.3037075
   8.8873841  14.2266406  49.8555528   8.6408555  14.1462157  50.6892317
   9.2158964  13.4419874  49.6618055   8.8995085  14.0992671  49.9503051
  12.7821890  20.9349765  53.6442309  12.6436249  21.6330811  54.1491052
  12.0021888  20.7798422  53.2878491  12.6465117  21.0149932  53.6668583
  11.1199975  17.2346141  59.8964691  11.1148014  16.3625957  59.9007117
  11.8260969  17.4334310  59.4234147  11.2244979  17.1350015  59.8271726
   4.8470868  16.9623125  59.2678511   4.9914244  17.5424333  58.6321621
   5.1946517  17.3399421  59.9728366   4.9198330  17.1043829  59.2777506
   7.0190786  16.1613293  57.0503643   6.2714100  16.3544307  56.6451921
   7.1732311  15.3358513  56.8127764   6.9313213  16.0678404  56.9549048
   3.9198623  25.1525896  56.1339538   4.0688187  24.5928812  55.4812942
   4.6998625  25.2317898  56.5172057   4.0572717  25.0811462  56.0936487
  14.2775263  20.2928019  44.4058808  13.8982072  19.5065157  44.3988098
  13.6141508  20.8414876  44.2630453  14.1233738  20.2572843  44.3839605
   6.4451924  25.3240539  57.4124029   6.3695595  24.6549350  57.9674817
   6.3741783  26.0258328  57.9264695   6.4232531  25.3285447  57.5700877
   7.1022171  23.8441538  48.2447635   7.8672062  23.5751182  47.9230299
   7.0000261  23.3591549  48.9617697   7.2003666  23.7331103  48.3027462
   5.1374941  12.0465948  54.7840870   4.3471015  11.8657408  55.1058206
   5.5335564  11.2692900  54.7671165   5.0791817  11.9053409  54.8293419
   9.6240831  20.8753722  40.2247584  10.3913817  20.9353847  39.8153436
   9.1772140  20.3034163  39.7403903   9.6714259  20.7990298  40.0925294
  10.5218627  19.6808378  52.5100316   9.8463629  19.4493610  53.0113703
  10.5311003  19.0729561  51.8842421  10.4237132  19.5567303  52.4916469
   7.6512771  14.5226207  59.2664369   7.5871912  15.3836163  59.1384506
   7.7909959  14.2058200  58.4659921   7.6628241  14.6026373  59.1292582
  12.5235362  22.5373510  44.7410494  12.6055199  23.3440496  44.4171945
  13.0085104  22.5569469  45.4651268  12.6072519  22.6594173  44.7997393
   6.3331865  17.2158346  53.4080572   5.9094114  17.4162845  52.6719591
   6.1576720  16.3687194  53.5204872   6.2442745  17.1207128  53.3154262
   5.8343558  28.7308859  55.8702030   6.3239489  28.0319648  55.6877694
   5.2627791  28.4332729  56.4578087   5.8228088  28.5835083  55.9303070
   1.6214310  17.7110398  48.8408545   1.7778929  17.6457200  49.6964537
   1.9614903  18.4858950  48.6287224   1.6947545  17.8159596  48.9363139
   8.1593454  17.0868281  47.7101908   8.7009000  16.5838662  48.1740529
   8.4740013  17.0333476  46.8991393   8.2857852  17.0047702  47.6585720
  12.0310562  21.2970929  64.8228820  12.8445427  21.0256077  64.9833953
  11.8705528  20.9978468  64.0189016  12.1280510  21.2125855  64.7274226
   6.3279904  22.4785633  44.9941936   6.3972724  21.6200171  45.1334936
   7.1068359  22.6957514  44.6660961   6.4532754  22.3838497  44.9659093
   9.3082724  11.9804586  57.7624208   9.5224693  11.3415500  57.2087562
   8.6916623  12.4250410  57.3332070   9.2488053  11.9514729  57.6174640
  10.7187392  24.9023334  49.2078429  10.3267183  24.5990049  48.4901295
  10.8740464  25.7392424  49.0183383  10.6840982  24.9807171  49.0734926
  11.4721812  13.5893651  58.7007516  10.6598494  13.2819541  58.7820688
  11.9311746  13.1092651  59.2650228  11.4202197  13.4730143  58.7962110
  10.8827067  21.4673323  49.1484460  10.5241721  21.6387966  49.9248492
  10.3965777  21.9286528  48.5912458  10.7585763  21.5612294  49.1809729
   5.6715432  17.1472488  41.6884694   5.9607957  17.9237371  41.9628269
   5.7587231  16.6361220  42.3899194   5.7269688  17.1864407  41.8327192
  12.0431806  22.3577219  60.0951661  12.6811526  21.8637414  59.7614117
  11.4005897  22.2854619  59.5103888  12.0426032  22.2736227  59.9594016
  13.7688806  14.2066365  54.6617576  13.3416414  14.1192713  53.9065676
  13.1314859  14.3144140  55.2472420  13.6118413  14.2099025  54.6363018
  12.0986062  23.0497027  56.7357017  12.8878441  22.6986092  56.8559099
  12.2729660  23.8633415  56.4733651  12.2406344  23.1182884  56.7144885
   1.8379373  16.4605753  53.7884806   0.9967379  16.3609627  53.9963700
   2.0469381  17.2301233  54.1399127   1.7444065  16.5597796  53.8712121
  10.9519887   7.0606584  51.2973436  11.1569480   6.9928892  52.1430433
  10.6246311   7.8665405  51.2294613  10.9335135   7.1692524  51.4133091
   5.6496038  14.3887152  53.0382404   5.3459175  13.8343140  53.6392812
   4.9475459  14.5679362  52.5510438   5.5012248  14.3331934  53.0552109
   4.7062135  11.6987672  47.6027106   4.9821869  10.9806584  47.1904673
   5.3060804  12.2972592  47.3948212   4.8355399  11.6808043  47.5107867
   3.7114389  21.6036873  57.7454502   3.6034744  21.6138935  58.6116560
   3.9210170  22.4291653  57.5559455   3.7264500  21.7277948  57.8458593
  14.2053574   7.6138348  50.7776201  13.5927888   8.1008750  51.1629933
  14.3017749   6.9381839  51.3213853  14.1291472   7.5856657  50.9155060
   8.2072655   9.3701189  45.8773701   8.6616402   9.5411750  46.6021545
   8.6812701   8.7569300  45.4771476   8.3440975   9.3052074  45.9247462
   1.7288181  18.8549515  55.2076439   1.1376114  19.4959013  55.1779454
   2.4909204  19.2787132  55.1807739   1.7536441  19.0125354  55.1991586
  17.8478602  18.6855285  56.2053717  17.9061726  19.1341934  56.9513694
  17.2145070  19.0954098  55.7683797  17.7629897  18.8129019  56.2506266
  11.4877697  24.3058827  52.6408464  11.2897386  24.7949641  51.9464675
  10.8665408  24.5100068  53.2192597  11.3665261  24.4075365  52.6231687
   5.5485675  16.0743724  46.9818708   6.2927720  16.4618000  47.2201658
   5.6946372  15.2301149  47.1459196   5.6796260  16.0074196  47.0412678
   8.5363551  11.6469197  52.8812627   8.0623505  11.1210959  53.3917938
   8.9081687  11.0998670  52.3127489   8.5213440  11.4885193  52.8727774
  14.8000282  16.7071573  54.2919408  14.5598505  15.8677988  54.2961834
  15.2792289  16.7871739  55.0160181  14.8352465  16.5952972  54.3994210
  10.4647051  12.5405751  45.9438381   9.9370069  12.6234495  45.2544090
  10.9242759  13.2823623  45.9403026  10.4548901  12.6626414  45.8413076
  16.8005469  13.4873030  52.2448667  16.5615239  13.4468864  51.4069452
  16.9639370  14.3344182  52.3714388  16.7895772  13.6065115  52.1402149
  13.4051499  17.8722979  58.1753712  14.1285698  17.4195505  57.9964732
  13.1401461  18.1527645  57.3926040  13.4732772  17.8473948  58.0332427
   2.2738367  12.4683153  54.9106591   1.6491437  12.4801545  54.3032544
   1.9383962  12.9443328  55.5597831   2.1323859  12.5401670  54.9163160
  10.0184133  21.1109315  45.0748038  10.7418332  21.5767428  44.9312611
   9.5784724  21.1782925  44.3245635  10.0599826  21.1893152  44.9432820
   9.1870288  17.9706857  56.3248727   8.5727282  17.4264908  56.6197362
   9.7037573  17.4571094  55.8454543   9.1725951  17.8143266  56.2972956
   8.4266586  19.0411127  54.0593026   7.9994194  18.4160846  53.6258461
   8.4191530  18.7586049  54.8852033   8.3625727  18.9063908  54.1172853
   6.7552295   9.9179882  54.2735560   6.7794782   9.3839994  53.5848340
   7.0063769   9.4097191  54.9361150   6.7962214   9.7640786  54.2700204
   4.4567981  15.1611210  55.9515203   3.6259911  15.3285028  55.7450451
   4.4019498  14.7847161  56.7364088   4.3257396  15.1300941  56.0363731
   2.8304025  13.4366801  46.4805321   2.9706986  13.9339266  47.1833962
   3.3286558  12.7353096  46.6219534   2.9245106  13.4068780  46.6056900
   2.8604247  14.3033912  43.8097898   3.4949327  14.8994338  43.7447359
   2.9429858  14.0037370  44.6243768   2.9660798  14.3474821  43.9200984
  15.8386813  16.8349390  56.6784262  16.4304653  17.4746641  56.7102460
  16.2745807  16.1372427  56.9676329  15.9905244  16.8267740  56.7265094
   4.4383230  10.2347888  43.7843340   4.7599071   9.7550970  43.1302602
   4.7010174  11.0447534  43.5934151   4.5249255  10.2837786  43.6598832
   7.6680203  21.2566762  57.3042156   7.1605294  21.8102609  57.7482786
   7.3706849  21.3175052  56.4860930   7.5485088  21.3473073  57.2490612
   9.8342385   9.6220082  56.1466819  10.2597457   9.1692608  55.5350345
   9.2199378   9.0680153  56.4231606   9.8071030   9.4734058  56.0971844
  10.2787983  25.1730020  45.2346099   9.5617293  24.9990882  44.7693337
  10.9294721  24.9382592  44.7021585  10.2689834  25.1125812  45.0875317
  12.8635954  14.0494608  48.9787404  12.1927144  14.5924311  48.8500470
  13.5575705  14.5189464  48.7369099  12.8664822  14.1992880  48.9242932
   6.9122688  26.1891320  54.2099163   6.6888342  25.4310150  54.5783189
   6.4232531  26.2189342  53.4879602   6.8066137  26.0813545  54.1575904
  13.0264082  10.5050492  51.8877778  13.3791692  10.0780215  52.5623576
  12.1678883  10.4201336  52.0178854  12.9513526  10.4295233  52.0072788
   1.7247767  13.1358012  49.9460624   1.0059756  13.5522144  50.2133488
   2.0960129  13.7012251  49.3952262   1.6739699  13.2807293  49.9043431
  11.0247348  13.7685861  55.8362620  11.0045275  13.5869156  56.6897399
  11.0726548  14.6397879  55.8122203  11.0281989  13.8702399  55.9585914
   8.9693677  20.3573053  61.7611096   8.9289532  19.7122730  61.1756252
   9.7816996  20.3009670  62.0736508   9.0836831  20.2532020  61.7208045
   5.5601145  26.4091779  51.6636247   5.1461544  25.7465909  51.2740089
   6.2448519  26.5569637  51.1431941   5.5999517  26.3332437  51.5292744
   8.9266439  25.5681864  52.4159864   8.5282722  25.6784134  51.6480684
   8.3117659  25.7763930  52.9986424   8.7765328  25.6155432  52.3891163
   7.4994341  12.1756012  45.2834004   6.9059180  12.4973008  44.7318571
   7.5369619  11.3297107  45.0755110   7.4168730  12.0980340  45.1716775
  14.4588142   5.6268904  52.8162090  13.9519006   4.9198044  52.7483267
  15.2555576   5.2962093  52.9463167  14.5015381   5.4742055  52.8261085
  10.3752158  12.1335516  48.7135754  10.1465851  12.1568218  47.8714112
  10.6350234  11.3092983  48.8330764  10.3798346  12.0151596  48.6060951
   3.4296920  10.6712062  50.0089949   3.9054286  11.0329142  49.3740131
   2.9285520  11.3268530  50.2890092   3.4262279  10.8206251  49.9566690
  16.6608282  20.1433831  45.8002954  17.0441888  20.8925187  46.0301051
  15.8652395  20.3899650  45.5414943  16.6002064  20.2903524  45.7960528
   5.4723573  12.8153262  43.3763333   5.8522538  12.8332891  42.5914448
   4.7316169  13.2607251  43.2554181   5.4192411  12.8835037  43.2426902
  13.1008864  11.1235453  48.9638912  13.1003090  10.9684110  49.8223188
  12.8965044  11.9698441  48.9080298  13.0708642  11.2256074  49.0826851
  10.8249716  15.8032955  52.6175119  11.3203381  15.0855950  52.5779139
  10.0149492  15.5003753  52.5029606  10.7793609  15.6530602  52.5948845
   6.2708327  19.6530769  44.7672123   5.4619650  19.3297442  44.7205433
   6.7783236  18.9463991  44.7000372   6.2257994  19.5012085  44.7502418
  12.8901535  18.5536643  55.3052248  13.3156606  18.0311065  54.7522673
  12.5258455  19.1517480  54.7840871  12.8988137  18.5646870  55.1461257
   2.5255615  26.8500860  54.0649593   2.8402174  27.6637249  54.0727375
   2.9349028  26.4651079  54.7331752   2.6323713  26.9129563  54.1653685
   9.4780134  22.2670907  51.6353405   9.9491312  22.9811170  51.8043390
   9.8140313  21.6669657  52.1713275   9.5975249  22.2842371  51.7385781
  11.5657119  23.8772220  63.8145477  11.6754084  23.0880781  64.1702224
  11.8948015  23.7878157  63.0119815  11.6309525  23.7478073  63.7487868
  10.1154081  22.0588841  58.3981098   9.5675027  21.4346725  58.1301163
  10.5767109  22.2483113  57.6825177  10.1021290  21.9947891  58.2531529
  12.9247945  10.1274196  55.7832290  12.3410934  10.6283402  55.3709857
  13.2452239   9.6203752  55.1496613  12.8861120  10.1266031  55.6290797
   5.4642744   9.0414790  46.0590965   6.2858438   9.2113103  45.8172660
   5.0012395   9.1962051  45.3357262   5.5173906   9.0896523  45.9162609
   9.6812407  23.0639914  54.9290439  10.5010781  22.9202880  55.1906734
   9.4006485  23.6886113  55.4706877   9.7609150  23.1350266  55.0478378
  26.1526057  30.7204766  47.8933315  26.1220062  31.5749402  48.0651585
  26.7507406  30.4200058  48.4519459  26.2363215  30.8021262  48.0008118
  19.3525742  29.8080417  52.6486246  18.4963638  29.9688915  52.6995363
  19.3993396  28.9372481  52.6691307  19.2324854  29.7031218  52.6592312
  13.7366882  39.3443134  48.4123477  12.9849781  38.9658673  48.1839522
  14.1852893  39.3761568  47.6642288  13.6916549  39.2928742  48.2680980
  22.6619459  36.0766942  62.2546702  23.3686226  35.5818973  62.3833636
  22.8507394  36.5176024  61.5249360  22.7947364  36.0685293  62.1655747
  19.1891842  39.7668504  43.8409024  18.8543210  40.4445426  43.4053247
  19.7018712  39.3773815  43.2525896  19.2157423  39.8093082  43.6895816
  18.7296133  41.7182773  49.7820136  19.1135512  42.2869671  49.2424911
  18.6655274  40.9932283  49.3025952  18.7769560  41.6958236  49.6313999
  22.1977563  31.8672461  55.2917897  22.7433523  32.5457547  55.3511867
  22.1394439  31.7259921  54.4319479  22.2693477  31.9464462  55.1729958
  15.3151638  39.3561527  50.6786250  15.4162001  38.5461881  50.9883378
  14.7193383  39.2618473  50.0485928  15.2424177  39.2226555  50.6312488
  23.9742632  33.2957068  46.1651625  23.8582158  34.0464754  46.5943763
  24.7698518  33.0381021  46.4147712  24.0747221  33.3691915  46.2655717
  15.1552378  44.2739116  52.0801106  15.7989833  44.7152280  52.4697264
  15.4808633  43.4692542  51.9931365  15.2984206  44.2204311  52.1246583
   8.5116682  35.3781813  50.3038584   8.2766867  34.5449466  50.1970852
   8.6502323  35.6586479  49.4899784   8.4972345  35.2965317  50.1680938
  10.8106770  27.5467544  53.2022891  10.1911801  26.9560191  53.0332906
  10.7090633  28.1378979  52.5687214  10.7044445  27.5471626  53.0827881
  15.8572957  37.2851091  47.4520968  16.1788798  37.8256298  46.8482276
  16.5045054  36.7147862  47.5843257  15.9999012  37.2810266  47.3828003
  17.9074665  29.2867086  47.5355354  18.6054830  29.4655213  48.0276818
  18.2226998  28.7637425  46.9125744  18.0570003  29.2360858  47.5157364
  10.5375903  31.0919825  55.4466460  10.4134600  31.6782271  56.0816279
  11.1894187  30.5980021  55.7478735  10.6149552  31.1058630  55.5852389
  18.0962601  35.6737531  47.5235146  18.5356236  35.0654631  47.9689919
  17.9467264  35.2944904  46.7520611  18.1384066  35.5276002  47.4754313
  15.5634244  34.2681542  54.7253971  16.2083246  33.7753986  54.4064920
  15.8036021  34.4106329  55.5520050  15.6944829  34.2158985  54.8003504
  18.1020335  37.1136448  54.3760864  18.3843578  36.3187854  54.1547620
  18.8306495  37.5917036  54.3965925  18.2509899  37.0671045  54.3463879
  16.0801529  24.6559482  51.6176629  15.7504859  25.1070626  50.9480328
  15.4046531  24.5775646  52.1649635  15.9311965  24.7110617  51.5999852
  21.6971937  34.0264712  44.4765915  21.6123232  34.8825679  44.6215484
  22.1856321  33.7509036  45.1448074  21.7560835  34.1122033  44.5967997
  23.2877937  20.6445005  49.8626240  22.9731378  21.3348484  50.2946662
  22.7704878  20.5889787  49.1611740  23.1642407  20.7379894  49.8223189
  22.6290370  30.6449506  45.9763650  22.1001842  30.8609140  46.6360956
  23.1515390  31.3385645  45.8964619  22.6278823  30.7792643  46.0619249
  14.5189978  34.5412723  44.7771118  13.9347194  35.0462754  45.1836982
  14.1160073  34.3155110  44.0367710  14.3729282  34.5820971  44.7276143
  10.0734007  40.2567484  51.5794790   9.5901585  40.9817974  51.5554373
  10.8857325  40.5543614  51.6904947  10.1224755  40.4069838  51.5922069
  16.1448161  39.0499665  54.1844604  15.6275103  38.6907080  53.5805912
  16.8422552  38.5261839  54.1950670  16.1713742  38.9197353  54.0974863
  19.8011753  39.4994479  60.1460777  19.8895099  39.3120619  60.9938988
  20.2301466  38.8531908  59.7465624  19.8773855  39.3757486  60.2132529
  17.3682213  38.7825639  59.1278439  16.8053048  38.3698249  59.6518101
  18.1303236  38.7078544  59.5471583  17.3976661  38.7103039  59.2671440
  18.9767193  30.7878375  43.2540039  19.2163196  30.9956359  42.4415382
  19.2983034  29.9835884  43.3628983  19.0604351  30.6992476  43.1500592
  14.2857483  22.7171771  47.0999577  15.0403451  23.0850088  46.8616627
  14.1085018  23.0911325  47.8678756  14.3711961  22.8269959  47.1784465
  12.9278204  40.7723660  51.7315069  13.6298783  40.2575649  51.7887826
  12.8475687  41.0997811  52.5361945  13.0201965  40.7437886  51.8587862
  27.5792382  28.8666211  55.1447116  26.7420803  28.9368398  55.3794710
  27.5480613  28.8690706  54.2721418  27.4510664  28.8776438  55.0506664
  13.9757111  31.0099247  60.8595485  14.1477614  30.9005141  61.7080766
  14.5126468  31.6553652  60.6226677  14.0802115  31.0891248  60.9500581
  12.6414548  25.1242090  43.7977690  12.4590121  25.3413970  42.9718682
  13.5040161  25.2381102  43.8536304  12.7419137  25.1731988  43.6832177
  12.2528980  36.9630012  51.2400678  13.0917879  37.1952945  51.2874439
  12.2840749  36.0934323  51.1707713  12.3810697  36.8686958  51.2365322
  12.8781683  37.3830887  55.5413983  13.4179908  37.2402018  56.2117355
  12.1951629  37.7827638  55.9098009  12.8573837  37.4210558  55.6948405
  18.3214267  22.1268500  46.8326713  19.0500427  21.9484455  46.3864870
  18.4109160  22.9686580  47.0433892  18.4420929  22.2252379  46.7980231
  22.3022568  33.0621888  50.7359007  23.0580083  33.4953402  50.7747916
  22.4084892  32.4126657  51.3093643  22.4292738  33.0299372  50.8257033
  25.3402739  36.8895165  51.4861410  24.9037971  36.8931907  52.2420382
  25.0065654  37.5700664  51.0540988  25.2265359  36.9907621  51.5342243
  19.9131812  38.9303498  62.8104561  20.6972229  39.0434346  63.1760303
  19.7128407  38.1044635  63.0063247  19.9997838  38.8250217  62.8938947
   8.2818828  33.6031178  55.6948405   8.0157243  32.7870295  55.8539395
   8.2957392  33.6484333  54.8243920   8.2443550  33.4888083  55.5901887
  25.2600222  23.9308993  53.7290838  25.9026130  24.0007097  54.3152754
  25.5123242  23.2638216  53.2270380  25.3922354  23.8435341  53.7418118
  12.1876575  28.4016262  42.3100163  11.4734752  28.1154442  42.7222595
  12.6720543  28.7412888  42.9506550  12.1535938  28.4097912  42.4655798
  13.0317434  27.1409556  58.3415412  12.3389231  26.6706536  58.5876144
  13.6477761  26.9147861  58.9157119  13.0201964  27.0376688  58.4624565
  20.0702206  40.8413600  56.4571016  19.2717451  40.6013100  56.7144885
  20.5188217  40.8927993  57.2038064  20.0176817  40.8135991  56.6055941
  19.3623893  36.9046216  42.6861971  19.7775041  36.5731240  41.9946467
  18.5315822  36.6715118  42.5582108  19.3011901  36.8217472  42.5652818
   8.6912241  34.3889957  52.9760149   8.5087815  34.3636843  52.1232441
   9.4261910  34.8588895  53.0149058   8.7726305  34.4551319  52.8558067
  24.7611916  34.6241467  50.1193036  24.9967505  34.7686666  49.2919887
  24.9101479  35.3883875  50.5124550  24.8177719  34.7580522  50.0556640
  11.7557993  31.1074960  59.4842258  12.4797965  31.0927991  59.9707152
  11.8574130  31.8170315  58.9864226  11.8776202  31.2099663  59.4821044
  26.5902372  33.4643133  47.9562640  26.9210589  33.9970773  47.3502735
  27.1635460  33.5182021  48.6124591  26.7236051  33.5512702  47.9640422
  19.1302942  34.5874045  64.3491205  18.3375923  34.9017557  64.5343824
  19.2451870  34.8025513  63.5111989  19.0298353  34.6657881  64.2529539
  21.8034261  31.3108036  48.6386220  21.8981116  32.0497330  49.0925846
  21.1793105  30.8825511  49.0720785  21.7243292  31.3569356  48.7694368
  20.0586735  34.4894248  59.2876501  20.6325597  33.8521493  59.4425065
  19.9801539  34.4898331  58.4186159  20.1319970  34.3959360  59.1822912
   8.6583152  31.2683458  53.1259215   9.2356654  31.1319909  53.7651461
   7.9597213  30.8119242  53.3804800   8.6404173  31.1805724  53.2581505
  22.0557283  33.1556776  41.8723172  21.9737445  33.2258963  42.7378159
  22.6937003  33.7186520  41.6806913  22.1377120  33.2495747  41.9713122
  15.4150454  32.9217514  51.3397699  15.1569698  32.0889248  51.3128998
  15.4698937  33.1475127  50.4990199  15.3850232  32.8315285  51.2117835
  20.4951504  25.0245964  51.4401791  19.7907831  24.5355150  51.5985710
  20.5436478  25.0368439  50.5690236  20.3981556  24.9535612  51.3341131
  14.3885166  30.4755276  51.8262593  13.8134757  30.6347444  52.4626554
  14.0120842  29.8390685  51.3631044  14.2487978  30.4053089  51.8517152
  18.0558455  28.9478625  56.6854972  17.6672887  28.5232843  56.0307163
  17.3913153  29.1960775  57.1931998  17.9005382  28.9217346  56.6642840
  27.6981724  28.7053630  49.4602802  27.4418289  27.8933572  49.2700685
  28.5411038  28.7131197  49.2332989  27.7847749  28.5865628  49.3987619
   4.1341985  30.1195351  49.8407034   4.2202237  29.7427219  50.6220564
   4.7617782  29.7455796  49.3626992   4.2398536  30.0080833  49.8852511
  21.8784816  22.6453254  54.1978956  22.2595328  21.9631425  54.5846830
  21.0748100  22.3562856  54.0154621  21.8161278  22.5020303  54.2283012
  19.1597393  33.1777230  44.8831779  19.9738032  33.4692123  44.7714550
  19.0956534  32.5237092  44.3090072  19.2700132  33.1242425  44.7820616
  25.3806883  35.8603226  59.2961354  25.1445520  35.0291291  59.1773415
  26.0250112  35.8088833  59.8816199  25.4401554  35.7300914  59.3647248
  15.0305301  36.6498747  50.0104091  15.6679248  36.4110495  50.5555884
  15.4560373  36.8535906  49.2757251  15.1881467  36.6449758  49.9821248
   9.7217944  38.8887084  53.8938395   9.7622089  39.1601935  53.0658174
  10.2812468  39.4128992  54.3096183   9.8101289  39.0062839  53.8330283
  15.6708116  31.8701037  44.3478980  16.0553269  31.6508744  45.0995525
  15.4219737  32.6963983  44.4780057  15.6910189  31.9599183  44.4780057
  15.8376657  25.1507452  64.0641565  15.5230098  25.9207015  63.8011127
  15.5166589  24.5877708  63.4793791  15.7435576  25.1817721  63.9382914
  17.4126773  37.1271170  51.6897877  17.4865781  36.9646342  52.5439727
  18.2296279  37.3161360  51.4458359  17.5443132  37.1307912  51.7795903
  11.1732530  37.4729033  48.7192321  10.3470647  37.7190770  48.5926599
  11.2344521  37.3941114  49.5854379  11.0606697  37.4973982  48.8281265
  13.3908554  23.5397974  49.6787761  12.5230979  23.6120573  49.7445370
  13.6783758  24.3420053  49.8675736  13.3048302  23.6692121  49.7162527
  22.5141442  23.6875833  58.0099083  23.2595034  23.4985644  57.5962508
  22.0978747  24.2134071  57.4512939  22.5626417  23.7377979  57.8663656
  15.9531359  40.0905913  46.4211351  16.2429657  39.6994894  45.6970577
  16.6834840  40.2722618  46.8616626  16.1038243  40.0599727  46.3794158
  16.5426104  34.8923659  57.5064481  16.0437798  35.6039427  57.5849369
  17.3526328  35.2124326  57.4682643  16.5882211  35.0450508  57.5121050
  13.8937274  42.0673296  49.4871500  13.6737570  41.7770650  50.2798167
  13.6731796  41.4088251  48.9589413  13.8284869  41.9273004  49.5260409
  12.8054222  34.1546612  51.7527202  12.5167470  33.5284083  52.2872929
  13.6737570  34.0966899  51.8191882  12.8914474  34.0534156  51.8418157
  23.5932119  29.2981395  52.0709184  23.2496885  28.5771731  52.4216433
  23.6925162  29.0895247  51.2287542  23.5574162  29.1605599  51.9980864
  16.0605230  43.4402685  48.2702193  16.7129288  42.9079128  48.4993219
  15.3630839  43.0871338  48.6570067  16.0535948  43.3092208  48.3614360
  13.0086495  35.7941863  47.6769567  13.7632463  36.1754902  47.8905030
  12.4157108  36.2453007  48.1316264  13.0323209  35.9170690  47.7752445
  24.0545148  35.7607099  47.6133172  24.6203181  36.4200309  47.5291715
  23.4073052  36.1056798  48.0849574  24.0423905  35.9089041  47.6705928
  15.4693162  27.7504703  62.8026779  14.6592938  28.0562483  62.6916622
  15.9467849  28.4710286  62.9179363  15.4196641  27.9019305  62.8033850
  14.3284722  36.9650424  53.0509682  13.8065475  37.1050716  53.7361547
  14.7158742  36.2061089  53.2411800  14.3088423  36.8735948  53.1810759
  11.3175906  27.0156233  47.1204637  11.0300701  26.6457504  46.3836584
  12.0046374  27.4851088  46.8588342  11.3764803  27.0303203  46.9719713
  20.5251727  38.7045884  47.0370251  20.2838402  37.9713744  46.6297316
  20.7053059  39.2532741  46.3836584  20.5159351  38.6768275  46.8800474
  15.7551047  33.9954443  48.4491173  15.5593830  34.6029178  47.8551476
  15.9785393  33.3022387  47.9682847  15.7585688  33.9831969  48.2907254
  14.1529577  30.8809181  48.5672042  14.8752229  31.0450339  48.1075848
  13.6737570  31.6018846  48.4611382  14.1893308  31.0107411  48.4837656
  22.1123085  27.2172980  53.9468727  21.2734185  27.2434259  53.7106990
  22.1827452  27.8643716  54.5274073  21.9991478  27.3169106  53.9977844
  11.8037194  33.2867254  57.6726182  12.3158291  33.5651507  57.0234941
  11.5173537  34.0256548  58.0388995  11.8372057  33.4369607  57.6316060
  20.5592363  24.1158357  48.6796343  21.2618716  23.9166105  48.2016301
  20.2936552  23.3434300  48.9865186  20.6238995  23.9721323  48.6541784
   8.8904100  27.7937446  47.9689918   8.9920237  28.5963607  48.2970894
   9.6859987  27.5924782  47.6712999   9.0232006  27.8823344  47.9725273
  15.3220919  25.3793642  57.7327223  15.1304116  25.3948777  58.5826647
  16.1719515  25.5757317  57.7093878  15.4196641  25.4107994  57.8550518
   9.7067832  27.9084624  55.7111040   9.5653324  27.0568564  55.8355548
   9.9908396  27.9513284  54.8873246   9.7275678  27.7884374  55.6078664
  19.8606425  29.7451714  49.8555528  19.6141139  29.6647465  50.6892317
  20.1891548  28.9605182  49.6618055  19.8727668  29.6177979  49.9503051
  22.0932559  32.7531449  59.8964691  22.0880597  31.8811265  59.9007117
  22.7993553  32.9519618  59.4234147  22.1977563  32.6535323  59.8271726
  15.8203452  32.4808433  59.2678511  15.9646828  33.0609641  58.6321621
  16.1679101  32.8584729  59.9728366  15.8930913  32.6229137  59.2777506
  17.9923369  31.6798601  57.0503643  17.2446683  31.8729615  56.6451921
  18.1464895  30.8543821  56.8127764  17.9045797  31.5863712  56.9549048
  14.8931207  40.6711204  56.1339538  15.0420771  40.1114120  55.4812942
  15.6731209  40.7503206  56.5172057  15.0305301  40.5996770  56.0936487
  25.2507846  35.8113327  44.4058808  24.8714655  35.0250465  44.3988098
  24.5874092  36.3600184  44.2630453  25.0966321  35.7758151  44.3839605
  17.4184508  40.8425847  57.4124029  17.3428179  40.1734658  57.9674817
  17.3474367  41.5443635  57.9264695  17.3965114  40.8470755  57.5700877
  18.2325146  25.5749152  57.9399046  18.6897760  26.3073126  58.0671839
  18.3081475  25.1515617  58.6986302  18.3116116  25.6206390  58.0700123
  10.4758138  25.8214971  59.0288490   9.9400327  25.2095330  59.3449257
  10.5375902  26.3963107  59.6822157  10.4053770  25.8161899  59.1723917
  22.7052472  18.7539027  51.8092889  22.8236040  19.2115490  51.0760192
  22.5314648  17.9484288  51.5229107  22.6971643  18.7032799  51.6593823
  18.0754755  39.3626846  48.2447635  18.8404646  39.0936490  47.9230299
  17.9732845  38.8776857  48.9617697  18.1736250  39.2516411  48.3027462
  16.1107524  27.5651256  54.7840870  15.3203599  27.3842716  55.1058206
  16.5068147  26.7878208  54.7671165  16.0524400  27.4238717  54.8293419
  21.4951211  35.1993686  52.5100316  20.8196212  34.9678918  53.0113703
  21.5043587  34.5914869  51.8842421  21.3969715  35.0752611  52.4916469
  18.6245355  30.0411515  59.2664369  18.5604496  30.9021471  59.1384506
  18.7642542  29.7243508  58.4659921  18.6360825  30.1211681  59.1292582
  17.3064448  32.7343654  53.4080572  16.8826698  32.9348153  52.6719591
  17.1309304  31.8872502  53.5204872  17.2175329  32.6392436  53.3154262
  16.8076142  44.2494167  55.8702030  17.2972072  43.5504956  55.6877694
  16.2360374  43.9518037  56.4578087  16.7960672  44.1020391  55.9303070
  12.5946893  33.2295706  48.8408545  12.7511513  33.1642508  49.6964537
  12.9347487  34.0044258  48.6287224  12.6680128  33.3344904  48.9363139
  19.1326038  32.6053589  47.7101908  19.6741584  32.1023970  48.1740529
  19.4472597  32.5518784  46.8991393  19.2590435  32.5233010  47.6585720
  23.0043145  36.8156236  64.8228820  23.8178011  36.5441385  64.9833953
  22.8438112  36.5163776  64.0189016  23.1013094  36.7311162  64.7274226
  17.3012488  37.9970941  44.9941936  17.3705308  37.1385479  45.1334936
  18.0800943  38.2142822  44.6660961  17.4265338  37.9023805  44.9659093
  20.2815307  27.4989894  57.7624208  20.4957277  26.8600808  57.2087562
  19.6649207  27.9435717  57.3332070  20.2220637  27.4700037  57.6174640
  21.6919975  40.4208642  49.2078429  21.2999767  40.1175357  48.4901295
  21.8473048  41.2577732  49.0183383  21.6573565  40.4992479  49.0734926
   9.1681155  30.4130656  49.1569312   9.5480120  30.8315201  48.4929579
   8.5936520  30.9944112  49.4638155   9.1392480  30.5608515  49.1046053
  22.4454395  29.1078959  58.7007516  21.6331077  28.8004849  58.7820688
  22.9044330  28.6277959  59.2650228  22.3934780  28.9915451  58.7962110
  21.8559650  36.9858631  49.1484460  21.4974305  37.1573274  49.9248492
  21.3698361  37.4471836  48.5912458  21.7318347  37.0797602  49.1809729
  19.6730036  20.6089829  52.7511551  18.8023594  20.5828550  52.7044861
  19.9270377  20.4367021  51.9337397  19.5823596  20.5799973  52.6231688
  16.6448015  32.6657796  41.6884694  16.9340540  33.4422679  41.9628269
  16.7319814  32.1546528  42.3899194  16.7002272  32.7049715  41.8327192
  19.5407903  30.5139030  63.4836218  20.0107534  31.1381147  63.8704092
  19.5869783  29.8456006  64.0429433  19.6175779  30.5073711  63.6236289
  16.6979177  22.6196058  54.2085022  16.1817665  21.9276249  54.3336601
  16.1373105  23.2866835  54.1547620  16.5385690  22.6159315  54.2191088
  18.7671410  23.1589018  56.0377874  18.3803163  23.1838049  56.8191404
  18.2804347  22.5930696  55.5852391  18.6383919  23.0784769  56.0865778
  23.0164389  37.8762527  60.0951661  23.6544110  37.3822722  59.7614117
  22.3738481  37.8039927  59.5103888  23.0158616  37.7921535  59.9594016
  24.7421390  29.7251673  54.6617576  24.3148998  29.6378021  53.9065676
  24.1047442  29.8329448  55.2472420  24.5850997  29.7284333  54.6363018
  18.4328552  20.0456003  58.3288134  19.0621670  20.5816303  58.0509204
  18.6014414  19.9533362  59.1801700  18.5506346  20.1117365  58.4136662
  18.2342467  24.8327198  60.6014546  19.0615896  24.5612347  60.6573160
  18.2550313  25.6288040  60.9578364  18.3595317  24.9106952  60.6629729
  23.0718646  38.5682335  56.7357017  23.8611024  38.2171400  56.8559099
  23.2462244  39.3818723  56.4733651  23.2138928  38.6368192  56.7144885
  12.8111956  31.9791061  53.7884806  11.9699963  31.8794935  53.9963700
  13.0201964  32.7486541  54.1399127  12.7176649  32.0783104  53.8712121
  10.2887523  29.6010598  51.6169557   9.8944221  29.6753610  50.8419667
   9.7327640  29.9868544  52.1677919  10.1490336  29.6692372  51.5837217
  21.9252470  22.5791892  51.2973436  22.1302064  22.5114200  52.1430433
  21.5978894  23.3850713  51.2294613  21.9067718  22.6877832  51.4133091
  16.6228621  29.9072460  53.0382404  16.3191759  29.3528448  53.6392812
  15.9208042  30.0864670  52.5510438  16.4744831  29.8517242  53.0552109
  15.6794718  27.2172980  47.6027106  15.9554453  26.4991892  47.1904673
  16.2793388  27.8157900  47.3948212  15.8087983  27.1993350  47.5107867
  14.6846972  37.1222181  57.7454502  14.5767327  37.1324243  58.6116560
  14.8942754  37.9476961  57.5559455  14.6997083  37.2463255  57.8458593
  25.1786158  23.1323656  50.7776201  24.5660472  23.6194058  51.1629933
  25.2750333  22.4567147  51.3213853  25.1024056  23.1041965  50.9155060
  19.1805239  24.8886497  45.8773701  19.6348985  25.0597058  46.6021545
  19.6545285  24.2754608  45.4771476  19.3173559  24.8237382  45.9247462
  12.7020764  34.3734823  55.2076439  12.1108698  35.0144321  55.1779454
  13.4641788  34.7972440  55.1807739  12.7269025  34.5310661  55.1991586
  13.0981387  25.5336821  55.8744457  13.5582869  25.6075750  56.6119581
  13.1437494  26.3318075  55.5244278  13.1731942  25.6630968  55.9317213
  14.7464737  26.2003516  60.4416484  14.3550302  25.5536863  60.8772262
  14.9150600  26.7914951  61.0610739  14.7135647  26.1917784  60.5979190
  22.4610281  39.8244135  52.6408464  22.2629969  40.3134949  51.9464675
  21.8397992  40.0285376  53.2192597  22.3397845  39.9260673  52.6231687
  16.5218259  31.5929031  46.9818708  17.2660304  31.9803308  47.2201658
  16.6678955  30.7486457  47.1459196  16.6528844  31.5259504  47.0412678
  18.4397834  23.3879290  52.0150569  17.5933879  23.5602098  51.8891919
  18.4368967  22.5828634  52.3516398  18.3144984  23.2940319  52.0461696
  19.5096135  27.1654505  52.8812627  19.0356089  26.6396267  53.3917938
  19.8814271  26.6183978  52.3127489  19.4946024  27.0070501  52.8727774
   9.8869165  29.1626011  58.2496173  10.7494778  29.0621721  58.1633503
   9.5560948  28.5820721  57.6881745   9.9654361  29.0617638  58.1541579
  21.4379634  28.0591059  45.9438381  20.9102653  28.1419803  45.2544090
  21.8975343  28.8008931  45.9403026  21.4281485  28.1811722  45.8413076
  27.7738052  29.0058338  52.2448667  27.5347822  28.9654172  51.4069452
  27.9371954  29.8529490  52.3714388  27.7628356  29.1250423  52.1402149
  24.3784082  33.3908287  58.1753712  25.1018281  32.9380813  57.9964732
  24.1134045  33.6712953  57.3926040  24.4465356  33.3659255  58.0332427
  13.2470951  27.9868460  54.9106591  12.6224021  27.9986852  54.3032544
  12.9116546  28.4628636  55.5597831  13.1056443  28.0586977  54.9163160
  13.4312700  26.3293579  40.9679276  13.0825504  26.9813304  41.4310826
  12.9509145  26.3150692  40.2403147  13.3082944  26.4236633  40.9290368
   9.9596626  36.0468921  56.3510356   9.4296551  35.3561359  56.4005330
  10.2321720  36.0379106  55.5223064   9.9221349  35.9436052  56.2357771
  20.9916717  36.6294623  45.0748038  21.7150916  37.0952736  44.9312611
  20.5517308  36.6968233  44.3245635  21.0332409  36.7078460  44.9432820
  20.1602872  33.4892165  56.3248727  19.5459865  32.9450215  56.6197362
  20.6770157  32.9756402  55.8454543  20.1458534  33.3328574  56.2972956
  19.3999169  34.5596435  54.0593026  18.9726777  33.9346154  53.6258461
  19.3924114  34.2771357  54.8852033  19.3358310  34.4249216  54.1172853
  12.5161696  29.5961608  57.1281460  12.6755183  28.8404932  57.5333182
  12.3354590  30.1452548  57.7822197  12.5127055  29.5655422  57.2844166
  20.4581999  21.7622844  57.6832249  19.9622561  21.9586518  56.9923816
  21.2151061  22.1615512  57.5121051  20.4968824  21.8500578  57.5552386
  17.7284879  25.4365190  54.2735560  17.7527366  24.9025302  53.5848340
  17.9796352  24.9282499  54.9361150  17.7694798  25.2826094  54.2700204
   5.2392469  32.7196685  53.7078704   5.1335918  32.6743529  52.8430788
   4.4892689  33.0650465  53.9892989   5.1128072  32.7637593  53.6216034
  14.0086201  24.1636008  53.6541304  14.0484573  24.6645215  54.3676011
  13.1835866  24.2546402  53.3847227  13.8925727  24.2517824  53.7191842
  16.1915814  33.7296748  61.7561599  15.3411445  33.8668462  61.8919244
  16.3543942  32.9960526  62.2009300  16.0899677  33.6410849  61.8417198
  15.4300564  30.6796518  55.9515203  14.5992494  30.8470336  55.7450451
  15.3752082  30.3032469  56.7364088  15.2989979  30.6486249  56.0363731
  13.2384348  24.1705411  61.5871614  13.8637051  23.6267544  61.8601046
  12.7834828  23.6900328  61.0179404  13.2632608  24.0194892  61.5433208
  13.8036608  28.9552109  46.4805321  13.9439569  29.4524574  47.1833962
  14.3019141  28.2538404  46.6219534  13.8977689  28.9254088  46.6056900
  13.8336831  29.8219220  43.8097898  14.4681910  30.4179645  43.7447359
  13.9162441  29.5222678  44.6243768  13.9393382  29.8660129  43.9200984
  26.8119396  32.3534698  56.6784262  27.4037237  32.9931948  56.7102460
  27.2478391  31.6557734  56.9676329  26.9637828  32.3453048  56.7265094
  15.4115814  25.7533196  43.7843340  15.7331655  25.2736278  43.1302602
  15.6742757  26.5632842  43.5934151  15.4981839  25.8023094  43.6598832
  18.6412786  36.7752070  57.3042156  18.1337877  37.3287917  57.7482786
  18.3439433  36.8360360  56.4860930  18.5217671  36.8658381  57.2490612
  20.8074969  25.1405390  56.1466819  21.2330040  24.6877916  55.5350345
  20.1931962  24.5865460  56.4231606  20.7803614  24.9919366  56.0971844
  10.3389819  32.0187061  47.0787444  10.8482048  32.6151569  47.4598749
  10.8124091  31.7513035  46.3963863  10.4833194  32.0672877  47.0341966
  21.2520567  40.6915328  45.2346099  20.5349876  40.5176190  44.7693337
  21.9027304  40.4567900  44.7021585  21.2422417  40.6311120  45.0875317
  19.2469191  21.6120490  49.5557396  18.6037509  21.4618136  50.1242534
  18.9068598  21.3662835  48.7906500  19.1014269  21.5532612  49.5260411
  23.8368538  29.5679916  48.9787404  23.1659728  30.1109619  48.8500470
  24.5308288  30.0374772  48.7369099  23.8397405  29.7178188  48.9242932
  17.8855272  41.7076628  54.2099163  17.6620926  40.9495458  54.5783189
  17.3965115  41.7374650  53.4879602  17.7798721  41.5998853  54.1575904
  23.9996665  26.0235800  51.8877778  24.3524275  25.5965523  52.5623576
  23.1411467  25.9386644  52.0178854  23.9246110  25.9480541  52.0072788
  12.6980350  28.6543320  49.9460624  11.9792339  29.0707452  50.2133488
  13.0692713  29.2197558  49.3952262  12.6472282  28.7992601  49.9043431
  21.9979931  29.2871169  55.8362620  21.9777858  29.1054464  56.6897399
  22.0459132  30.1583187  55.8122203  22.0014572  29.3887707  55.9585914
  19.9426261  35.8758361  61.7611096  19.9022116  35.2308038  61.1756252
  20.7549579  35.8194978  62.0736508  20.0569415  35.7717327  61.7208045
  16.5333729  41.9277086  51.6636247  16.1194127  41.2651217  51.2740089
  17.2181103  42.0754945  51.1431941  16.5732100  41.8517745  51.5292744
  19.8999023  41.0867172  52.4159864  19.5015306  41.1969442  51.6480684
  19.2850242  41.2949238  52.9986424  19.7497912  41.1340740  52.3891163
  18.4726925  27.6941320  45.2834004  17.8791764  28.0158316  44.7318571
  18.5102202  26.8482415  45.0755110  18.3901314  27.6165648  45.1716775
  25.4320725  21.1454212  52.8162090  24.9251590  20.4383351  52.7483267
  26.2288159  20.8147401  52.9463167  25.4747965  20.9927363  52.8261085
  21.3484741  27.6520824  48.7135754  21.1198434  27.6753526  47.8714112
  21.6082817  26.8278291  48.8330764  21.3530929  27.5336904  48.6060951
  15.6303970  29.5055297  58.3160854  15.1182873  28.8976480  58.6745885
  15.4583466  30.2211890  58.7834830  15.5293607  29.5218596  58.4377078
  10.4769684  27.9492872  60.9663216  10.3072275  28.6094247  60.4211422
  10.0335634  28.1599434  61.6875705  10.3869018  28.0778855  60.9924845
  14.4029504  26.1897370  50.0089949  14.8786870  26.5514450  49.3740131
  13.9018103  26.8453838  50.2890092  14.3994863  26.3391559  49.9566690
  27.6340865  35.6619138  45.8002954  28.0174471  36.4110495  46.0301051
  26.8384979  35.9084958  45.5414943  27.5734648  35.8088832  45.7960528
  19.5073040  27.4279542  60.7563109  20.0644470  27.1993351  60.1241575
  19.1834105  28.1885207  60.4798322  19.5419450  27.5063378  60.6219607
   7.3771749  30.8539738  56.2251706   6.8298468  30.1840384  56.3432574
   8.1664127  30.4869586  56.2895173   7.4123933  30.7004724  56.2520406
  17.2256157  30.5147195  61.7215117  17.9767484  30.8298872  62.0354671
  17.4178734  30.3126366  60.8949038  17.3647571  30.5314577  61.6458512
  16.4456157  28.3338570  43.3763333  16.8255122  28.3518199  42.5914448
  15.7048753  28.7792559  43.2554181  16.3924995  28.4020345  43.2426902
  24.0741447  26.6420761  48.9638912  24.0735674  26.4869418  49.8223188
  23.8697627  27.4883748  48.9080298  24.0441225  26.7441382  49.0826851
   6.1358718  30.0660546  53.3797729   5.9580479  29.6137155  54.1052644
   5.8477741  30.8686707  53.5636206   6.0671672  30.1183104  53.5141231
  21.7982299  31.3218263  52.6175119  22.2935965  30.6041258  52.5779139
  20.9882075  31.0189061  52.5029606  21.7526193  31.1715909  52.5948845
  17.2440911  35.1716076  44.7672123  16.4352234  34.8482750  44.7205433
  17.7515820  34.4649299  44.7000372  17.1990578  35.0197393  44.7502418
   7.8731188  32.5988270  50.4919488   7.0076708  32.5873960  50.3802259
   7.9730004  32.4118492  51.3390627   7.7605355  32.5694331  50.6008432
  23.8634118  34.0721951  55.3052248  24.2889190  33.5496373  54.7522673
  23.4991038  34.6702788  54.7840871  23.8720721  34.0832178  55.1461257
  13.4988198  42.3686168  54.0649593  13.8134757  43.1822557  54.0727375
  13.9081612  41.9836387  54.7331752  13.6056296  42.4314871  54.1653685
  20.4512718  37.7856215  51.6353405  20.9223896  38.4996478  51.8043390
  20.7872896  37.1854965  52.1713275  20.5707833  37.8027679  51.7385781
  22.5389702  39.3957528  63.8145477  22.6486668  38.6066089  64.1702224
  22.8680599  39.3063465  63.0119815  22.6042108  39.2663381  63.7487868
  17.3682213  22.5583686  58.5911500  17.5010118  21.7614679  58.9192475
  17.7527366  23.0850089  59.1709776  17.4438542  22.5183602  58.7255003
  21.0886664  37.5774149  58.3981098  20.5407610  36.9532033  58.1301163
  21.5499693  37.7668421  57.6825177  21.0753874  37.5133199  58.2531529
  20.4414568  19.4814012  55.1892593  19.6360532  19.3711741  55.5060432
  20.3121303  19.5826467  54.3322459  20.3034701  19.4797682  55.1100634
  23.8980528  25.6459504  55.7832290  23.3143517  26.1468710  55.3709857
  24.2184823  25.1389060  55.1496613  23.8593704  25.6451339  55.6290797
  16.4375328  24.5600098  46.0590965  17.2591022  24.7298411  45.8172660
  15.9744979  24.7147359  45.3357262  16.4906490  24.6081831  45.9162609
  15.0270660  22.5542861  56.8389394  15.5715073  22.2133987  57.4293735
  15.0807595  23.4128322  56.9810678  15.1159779  22.6298120  56.9471267
  10.8401218  36.3159277  53.7128202  11.4446076  36.2755111  53.0842022
  10.6328531  37.1630429  53.7432257  10.8990116  36.4347279  53.6244318
  20.6544990  38.5825222  54.9290439  21.4743364  38.4388188  55.1906734
  20.3739068  39.2071421  55.4706877  20.7341734  38.6535574  55.0478378
   6.0752501  35.2993894  53.5827125   5.9776779  34.4890166  53.8917181
   6.8581370  35.2785688  53.1973393   6.1768637  35.1760984  53.5713988
  30.3258326  45.3265725  52.6486246  29.4696221  45.4874223  52.6995363
  30.3725979  44.4557788  52.6691307  30.2057437  45.2216526  52.6592312
  24.7099465  54.8628442  48.4123477  23.9582365  54.4843981  48.1839522
  25.1585477  54.8946876  47.6642288  24.6649132  54.8114050  48.2680980
  33.6352042  51.5952250  62.2546702  34.3418809  51.1004281  62.3833636
  33.8239978  52.0361332  61.5249360  33.7679948  51.5870600  62.1655747
  30.1624425  55.2853812  43.8409024  29.8275794  55.9630733  43.4053247
  30.6751296  54.8959123  43.2525896  30.1890006  55.3278390  43.6895816
  29.7028717  57.2368081  49.7820136  30.0868096  57.8054979  49.2424911
  29.6387858  56.5117591  49.3025952  29.7502144  57.2143544  49.6313999
  33.1710147  47.3857768  55.2917897  33.7166107  48.0642855  55.3511867
  33.1127023  47.2445229  54.4319479  33.2426061  47.4649770  55.1729958
  26.2884222  54.8746835  50.6786250  26.3894584  54.0647188  50.9883378
  25.6925967  54.7803781  50.0485928  26.2156760  54.7411863  50.6312488
  26.1284961  59.7924424  52.0801106  26.7722417  60.2337588  52.4697264
  26.4541217  58.9877850  51.9931365  26.2716790  59.7389618  52.1246583
  19.4849266  50.8967121  50.3038584  19.2499450  50.0634773  50.1970852
  19.6234907  51.1771787  49.4899784  19.4704928  50.8150625  50.1680938
  21.7839353  43.0652852  53.2022891  21.1644385  42.4745499  53.0332906
  21.6823217  43.6564287  52.5687214  21.6777029  43.0656934  53.0827881
  26.8305541  52.8036399  47.4520968  27.1521382  53.3441606  46.8482276
  27.4777637  52.2333170  47.5843257  26.9731596  52.7995574  47.3828003
  21.5108486  46.6105133  55.4466460  21.3867183  47.1967579  56.0816279
  22.1626771  46.1165329  55.7478735  21.5882136  46.6243938  55.5852389
  29.0695184  51.1922839  47.5235146  29.5088820  50.5839939  47.9689919
  28.9199847  50.8130212  46.7520611  29.1116650  51.0461310  47.4754313
  26.5366827  49.7866850  54.7253971  27.1815830  49.2939293  54.4064920
  26.7768604  49.9291637  55.5520050  26.6677412  49.7344293  54.8003504
  29.0752919  52.6321756  54.3760864  29.3576162  51.8373162  54.1547620
  29.8039079  53.1102344  54.3965925  29.2242482  52.5856353  54.3463879
  32.6704521  49.5450020  44.4765915  32.5855816  50.4010986  44.6215484
  33.1588904  49.2694344  45.1448074  32.7293418  49.6307341  44.5967997
  25.4922562  50.0598031  44.7771118  24.9079777  50.5648062  45.1836982
  25.0892657  49.8340418  44.0367710  25.3461866  50.1006279  44.7276143
  21.0466590  55.7752792  51.5794790  20.5634169  56.5003282  51.5554373
  21.8589909  56.0728922  51.6904947  21.0957338  55.9255146  51.5922069
  27.1180745  54.5684973  54.1844604  26.6007686  54.2092388  53.5805912
  27.8155136  54.0447147  54.1950670  27.1446326  54.4382661  54.0974863
  30.7744337  55.0179787  60.1460777  30.8627682  54.8305927  60.9938988
  31.2034049  54.3717216  59.7465624  30.8506439  54.8942794  60.2132529
  28.3414796  54.3010947  59.1278439  27.7785631  53.8883556  59.6518101
  29.1035820  54.2263852  59.5471583  28.3709245  54.2288347  59.2671440
  23.9010788  56.2908968  51.7315069  24.6031367  55.7760957  51.7887826
  23.8208271  56.6183119  52.5361945  23.9934548  56.2623194  51.8587862
  24.9489694  46.5284555  60.8595485  25.1210198  46.4190449  61.7080766
  25.4859052  47.1738960  60.6226677  25.0534698  46.6076556  60.9500581
  23.2261563  52.4815320  51.2400678  24.0650463  52.7138253  51.2874439
  23.2573332  51.6119631  51.1707713  23.3543281  52.3872266  51.2365322
  23.8514266  52.9016195  55.5413983  24.3912491  52.7587326  56.2117355
  23.1684212  53.3012946  55.9098009  23.8306420  52.9395866  55.6948405
  33.2755151  48.5807196  50.7359007  34.0312666  49.0138710  50.7747916
  33.3817476  47.9311965  51.3093643  33.4025322  48.5484679  50.8257033
  36.3135322  52.4080473  51.4861410  35.8770554  52.4117215  52.2420382
  35.9798238  53.0885972  51.0540988  36.1997942  52.5092929  51.5342243
  30.8864396  54.4488806  62.8104561  31.6704812  54.5619653  63.1760303
  30.6860990  53.6229943  63.0063247  30.9730421  54.3435525  62.8938947
  19.2551411  49.1216486  55.6948405  18.9889826  48.3055602  55.8539395
  19.2689975  49.1669641  54.8243920  19.2176134  49.0073391  55.5901887
  24.0050018  42.6594864  58.3415412  23.3121814  42.1891844  58.5876144
  24.6210345  42.4333169  58.9157119  23.9934548  42.5561996  58.4624565
  31.0434789  56.3598908  56.4571016  30.2450035  56.1198408  56.7144885
  31.4920801  56.4113301  57.2038064  30.9909400  56.3321299  56.6055941
  30.3356476  52.4231524  42.6861971  30.7507625  52.0916548  41.9946467
  29.5048406  52.1900426  42.5582108  30.2744485  52.3402780  42.5652818
  19.6644825  49.9075265  52.9760149  19.4820398  49.8822151  52.1232441
  20.3994494  50.3774203  53.0149058  19.7458889  49.9736627  52.8558067
  22.7290577  46.6260268  59.4842258  23.4530549  46.6113299  59.9707152
  22.8306713  47.3355623  58.9864226  22.8508786  46.7284971  59.4821044
  30.1035526  50.1059353  64.3491205  29.3108507  50.4202864  64.5343824
  30.2184453  50.3210821  63.5111989  30.0030937  50.1843189  64.2529539
  31.0319319  50.0079556  59.2876501  31.6058180  49.3706801  59.4425065
  30.9534123  50.0083639  58.4186159  31.1052554  49.9144668  59.1822912
  19.6315735  46.7868766  53.1259215  20.2089238  46.6505217  53.7651461
  18.9329797  46.3304550  53.3804800  19.6136757  46.6991032  53.2581505
  26.3883037  48.4402822  51.3397699  26.1302282  47.6074556  51.3128998
  26.4431520  48.6660435  50.4990199  26.3582815  48.3500593  51.2117835
  25.3617750  45.9940584  51.8262593  24.7867341  46.1532752  52.4626554
  24.9853426  45.3575993  51.3631044  25.2220562  45.9238397  51.8517152
  29.0291038  44.4663933  56.6854972  28.6405471  44.0418151  56.0307163
  28.3645737  44.7146083  57.1931998  28.8737966  44.4402654  56.6642840
  15.1074568  45.6380659  49.8407034  15.1934820  45.2612527  50.6220564
  15.7350366  45.2641104  49.3626992  15.2131119  45.5266141  49.8852511
  30.1329976  48.6962538  44.8831779  30.9470615  48.9877431  44.7714550
  30.0689118  48.0422400  44.3090072  30.2432716  48.6427733  44.7820616
  36.3539467  51.3788534  59.2961354  36.1178104  50.5476599  59.1773415
  36.9982696  51.3274141  59.8816199  36.4134137  51.2486222  59.3647248
  26.0037885  52.1684055  50.0104091  26.6411832  51.9295803  50.5555884
  26.4292956  52.3721214  49.2757251  26.1614051  52.1635066  49.9821248
  20.6950527  54.4072392  53.8938395  20.7354672  54.6787243  53.0658174
  21.2545051  54.9314300  54.3096183  20.7833873  54.5248147  53.8330283
  26.8109240  40.6692760  64.0641565  26.4962681  41.4392323  63.8011127
  26.4899173  40.1063016  63.4793791  26.7168159  40.7003029  63.9382914
  37.3775887  51.1632983  55.3589649  37.0721704  51.8961040  55.7202965
  36.6582103  50.7570912  55.0782435  37.2263230  51.2114716  55.3702786
  28.3859357  52.6456478  51.6897877  28.4598365  52.4831650  52.5439727
  29.2028863  52.8346668  51.4458359  28.5175715  52.6493220  51.7795903
  22.1465113  52.9914341  48.7192321  21.3203231  53.2376078  48.5926599
  22.2077105  52.9126422  49.5854379  22.0339280  53.0159290  48.8281265
  24.3641137  39.0583282  49.6787761  23.4963563  39.1305881  49.7445370
  24.6516341  39.8605361  49.8675736  24.2780885  39.1877429  49.7162527
  33.4874026  39.2061141  58.0099083  34.2327618  39.0170952  57.5962508
  33.0711331  39.7319379  57.4512939  33.5359000  39.2563287  57.8663656
  26.9263942  55.6091221  46.4211351  27.2162241  55.2180202  45.6970577
  27.6567423  55.7907926  46.8616626  27.0770827  55.5785035  46.3794158
  27.5158688  50.4108967  57.5064481  27.0170381  51.1224735  57.5849369
  28.3258912  50.7309634  57.4682643  27.5614794  50.5635816  57.5121050
  24.8669858  57.5858603  49.4871500  24.6470153  57.2955958  50.2798167
  24.6464380  56.9273558  48.9589413  24.8017452  57.4458312  49.5260409
  23.7786805  49.6731920  51.7527202  23.4900054  49.0469391  52.2872929
  24.6470153  49.6152207  51.8191882  23.8647057  49.5719464  51.8418157
  27.0337814  58.9587993  48.2702193  27.6861872  58.4264436  48.4993219
  26.3363422  58.6056646  48.6570067  27.0268532  58.8277516  48.3614360
  23.9819079  51.3127171  47.6769567  24.7365047  51.6940210  47.8905030
  23.3889691  51.7638315  48.1316264  24.0055792  51.4355998  47.7752445
  35.0277732  51.2792407  47.6133172  35.5935765  51.9385617  47.5291715
  34.3805635  51.6242105  48.0849574  35.0156488  51.4274349  47.6705928
  26.4425746  43.2690011  62.8026779  25.6325521  43.5747791  62.6916622
  26.9200432  43.9895594  62.9179363  26.3929224  43.4204612  62.8033850
  25.3017305  52.4835732  53.0509682  24.7798059  52.6236024  53.7361547
  25.6891325  51.7246397  53.2411800  25.2821006  52.3921256  53.1810759
  22.2908489  42.5341541  47.1204637  22.0033285  42.1642812  46.3836584
  22.9778957  43.0036396  46.8588342  22.3497387  42.5488510  46.9719713
  31.4984310  54.2231192  47.0370251  31.2570986  53.4899052  46.6297316
  31.6785643  54.7718049  46.3836584  31.4891934  54.1953583  46.8800474
  26.7283631  49.5139751  48.4491173  26.5326413  50.1214486  47.8551476
  26.9517976  48.8207695  47.9682847  26.7318272  49.5017277  48.2907254
  25.1262161  46.3994489  48.5672042  25.8484813  46.5635647  48.1075848
  24.6470154  47.1204154  48.4611382  25.1625891  46.5292719  48.4837656
  33.0855668  42.7358288  53.9468727  32.2466769  42.7619567  53.7106990
  33.1560036  43.3829024  54.5274073  32.9724062  42.8354414  53.9977844
  22.7769777  48.8052562  57.6726182  23.2890874  49.0836815  57.0234941
  22.4906120  49.5441856  58.0388995  22.8104641  48.9554915  57.6316060
  19.8636684  43.3122754  47.9689918  19.9652820  44.1148915  48.2970894
  20.6592571  43.1110089  47.6712999  19.9964589  43.4008652  47.9725273
  26.2953503  40.8978950  57.7327223  26.1036700  40.9134085  58.5826647
  27.1452099  41.0942625  57.7093878  26.3929225  40.9293301  57.8550518
  20.6800416  43.4269932  55.7111040  20.5385908  42.5753872  55.8355548
  20.9640979  43.4698592  54.8873246  20.7008262  43.3069682  55.6078664
  34.7287057  51.9720381  53.6442309  34.5901416  52.6701427  54.1491052
  33.9487055  51.8169038  53.2878491  34.5930284  52.0520548  53.6668583
  33.0665142  48.2716757  59.8964691  33.0613181  47.3996573  59.9007117
  33.7726136  48.4704926  59.4234147  33.1710146  48.1720631  59.8271726
  26.7936036  47.9993741  59.2678511  26.9379411  48.5794949  58.6321621
  27.1411684  48.3770037  59.9728366  26.8663497  48.1414445  59.2777506
  28.9655953  47.1983909  57.0503643  28.2179267  47.3914923  56.6451921
  29.1197478  46.3729128  56.8127764  28.8778380  47.1049020  56.9549048
  25.8663791  56.1896512  56.1339538  26.0153354  55.6299428  55.4812942
  26.6463793  56.2688514  56.5172057  26.0037884  56.1182078  56.0936487
  28.3917091  56.3611155  57.4124029  28.3160762  55.6919966  57.9674817
  28.3206950  57.0628943  57.9264695  28.3697698  56.3656063  57.5700877
  29.2057730  41.0934460  57.9399046  29.6630344  41.8258434  58.0671839
  29.2814059  40.6700925  58.6986302  29.2848700  41.1391698  58.0700123
  21.4490721  41.3400279  59.0288490  20.9132911  40.7280638  59.3449257
  21.5108486  41.9148415  59.6822157  21.3786354  41.3347207  59.1723917
  29.0487338  54.8812154  48.2447635  29.8137229  54.6121798  47.9230299
  28.9465428  54.3962164  48.9617697  29.1468834  54.7701719  48.3027462
  27.0840108  43.0836564  54.7840870  26.2936183  42.9028024  55.1058206
  27.4800731  42.3063516  54.7671165  27.0256984  42.9424024  54.8293419
  32.4683794  50.7178994  52.5100316  31.7928796  50.4864226  53.0113703
  32.4776170  50.1100177  51.8842421  32.3702299  50.5937919  52.4916469
  29.5977938  45.5596823  59.2664369  29.5337079  46.4206779  59.1384506
  29.7375126  45.2428816  58.4659921  29.6093408  45.6396989  59.1292582
  34.4700529  53.5744126  44.7410494  34.5520366  54.3811112  44.4171945
  34.9550271  53.5940085  45.4651268  34.5537687  53.6964788  44.7997393
  28.2797032  48.2528962  53.4080572  27.8559281  48.4533461  52.6719591
  28.1041887  47.4057810  53.5204872  28.1907913  48.1577743  53.3154262
  27.7808725  59.7679475  55.8702030  28.2704656  59.0690264  55.6877694
  27.2092958  59.4703345  56.4578087  27.7693255  59.6205699  55.9303070
  23.5679477  48.7481013  48.8408545  23.7244096  48.6827816  49.6964537
  23.9080070  49.5229566  48.6287224  23.6412712  48.8530212  48.9363139
  30.1058622  48.1238897  47.7101908  30.6474167  47.6209278  48.1740529
  30.4205181  48.0704092  46.8991393  30.2323019  48.0418318  47.6585720
  33.9775729  52.3341544  64.8228820  34.7910594  52.0626693  64.9833953
  33.8170695  52.0349084  64.0189016  34.0745677  52.2496470  64.7274226
  28.2745071  53.5156249  44.9941936  28.3437892  52.6570787  45.1334936
  29.0533526  53.7328129  44.6660961  28.3997921  53.4209113  44.9659093
  31.2547891  43.0175202  57.7624208  31.4689861  42.3786116  57.2087562
  30.6381790  43.4621025  57.3332070  31.1953220  42.9885345  57.6174640
  32.6652559  55.9393950  49.2078429  32.2732351  55.6360665  48.4901295
  32.8205631  56.7763040  49.0183383  32.6306149  56.0177787  49.0734926
  20.1413739  45.9315964  49.1569312  20.5212703  46.3500509  48.4929579
  19.5669103  46.5129420  49.4638155  20.1125063  46.0793823  49.1046053
  33.4186979  44.6264267  58.7007516  32.6063661  44.3190157  58.7820688
  33.8776914  44.1463267  59.2650228  33.3667364  44.5100759  58.7962110
  32.8292234  52.5043939  49.1484460  32.4706888  52.6758582  49.9248492
  32.3430944  52.9657144  48.5912458  32.7050931  52.5982910  49.1809729
  30.5140487  46.0324338  63.4836218  30.9840118  46.6566455  63.8704092
  30.5602367  45.3641314  64.0429433  30.5908362  46.0259018  63.6236289
  29.7403994  38.6774326  56.0377874  29.3535747  38.7023357  56.8191404
  29.2536931  38.1116004  55.5852391  29.6116503  38.5970077  56.0865778
  33.9896973  53.3947835  60.0951661  34.6276694  52.9008030  59.7614117
  33.3471065  53.3225235  59.5103888  33.9891200  53.3106843  59.9594016
  29.4061135  35.5641311  58.3288134  30.0354253  36.1001611  58.0509204
  29.5746998  35.4718670  59.1801700  29.5238930  35.6302673  58.4136662
  29.2075050  40.3512506  60.6014546  30.0348480  40.0797655  60.6573160
  29.2282896  41.1473348  60.9578364  29.3327900  40.4292260  60.6629729
  34.0451230  54.0867643  56.7357017  34.8343608  53.7356708  56.8559099
  34.2194827  54.9004031  56.4733651  34.1871511  54.1553500  56.7144885
  23.7844540  47.4976369  53.7884806  22.9432547  47.3980243  53.9963700
  23.9934548  48.2671849  54.1399127  23.6909233  47.5968412  53.8712121
  21.2620107  45.1195906  51.6169557  20.8676805  45.1938917  50.8419667
  20.7060224  45.5053852  52.1677919  21.1222919  45.1877680  51.5837217
  27.5961205  45.4257768  53.0382404  27.2924342  44.8713756  53.6392812
  26.8940626  45.6049978  52.5510438  27.4477415  45.3702550  53.0552109
  25.6579556  52.6407489  57.7454502  25.5499911  52.6509551  58.6116560
  25.8675337  53.4662269  57.5559455  25.6729667  52.7648563  57.8458593
  23.6753348  49.8920131  55.2076439  23.0841281  50.5329629  55.1779454
  24.4374371  50.3157748  55.1807739  23.7001609  50.0495969  55.1991586
  24.0713971  41.0522129  55.8744457  24.5315452  41.1261058  56.6119581
  24.1170077  41.8503383  55.5244278  24.1464526  41.1816276  55.9317213
  25.7197320  41.7188824  60.4416484  25.3282886  41.0722171  60.8772262
  25.8883183  42.3100259  61.0610739  25.6868231  41.7103091  60.5979190
  33.4342864  55.3429443  52.6408464  33.2362553  55.8320257  51.9464675
  32.8130575  55.5470684  53.2192597  33.3130429  55.4445981  52.6231687
  27.4950842  47.1114339  46.9818708  28.2392887  47.4988616  47.2201658
  27.6411539  46.2671765  47.1459196  27.6261428  47.0444812  47.0412678
  20.8601748  44.6811319  58.2496173  21.7227362  44.5807029  58.1633503
  20.5293532  44.1006029  57.6881745  20.9386945  44.5802946  58.1541579
  24.2203534  43.5053768  54.9106591  23.5956605  43.5172160  54.3032544
  23.8849129  43.9813944  55.5597831  24.0789026  43.5772285  54.9163160
  20.9329210  51.5654228  56.3510356  20.4029135  50.8746667  56.4005330
  21.2054303  51.5564414  55.5223064  20.8953932  51.4621360  56.2357771
  31.9649301  52.1479931  45.0748038  32.6883499  52.6138044  44.9312611
  31.5249892  52.2153540  44.3245635  32.0064993  52.2263768  44.9432820
  31.1335456  49.0077473  56.3248727  30.5192449  48.4635523  56.6197362
  31.6502741  48.4941710  55.8454543  31.1191118  48.8513882  56.2972956
  30.3731753  50.0781743  54.0593026  29.9459361  49.4531462  53.6258461
  30.3656697  49.7956665  54.8852033  30.3090894  49.9434524  54.1172853
  23.4894280  45.1146916  57.1281460  23.6487767  44.3590240  57.5333182
  23.3087173  45.6637856  57.7822197  23.4859639  45.0840730  57.2844166
  31.4314583  37.2808152  57.6832249  30.9355144  37.4771826  56.9923816
  32.1883645  37.6800820  57.5121051  31.4701408  37.3685886  57.5552386
  28.7017462  40.9550498  54.2735560  28.7259950  40.4210610  53.5848340
  28.9528936  40.4467806  54.9361150  28.7427381  40.8011402  54.2700204
  16.2125052  48.2381993  53.7078704  16.1068501  48.1928837  52.8430788
  15.4625272  48.5835773  53.9892989  16.0860655  48.2822901  53.6216034
  24.9818785  39.6821316  53.6541304  25.0217156  40.1830523  54.3676011
  24.1568449  39.7731710  53.3847227  24.8658311  39.7703132  53.7191842
  27.1648398  49.2482056  61.7561599  26.3144028  49.3853770  61.8919244
  27.3276525  48.5145834  62.2009300  27.0632261  49.1596157  61.8417198
  26.4033148  46.1981826  55.9515203  25.5725078  46.3655644  55.7450451
  26.3484665  45.8217777  56.7364088  26.2722563  46.1671557  56.0363731
  24.2116931  39.6890719  61.5871614  24.8369635  39.1452851  61.8601046
  23.7567411  39.2085636  61.0179404  24.2365192  39.5380200  61.5433208
  29.6145370  52.2937378  57.3042156  29.1070461  52.8473225  57.7482786
  29.3172016  52.3545668  56.4860930  29.4950255  52.3843689  57.2490612
  31.7807552  40.6590698  56.1466819  32.2062624  40.2063224  55.5350345
  31.1664545  40.1050768  56.4231606  31.7536197  40.5104674  56.0971844
  21.3122402  47.5372369  47.0787444  21.8214631  48.1336877  47.4598749
  21.7856674  47.2698343  46.3963863  21.4565778  47.5858185  47.0341966
  32.2253150  56.2100636  45.2346099  31.5082460  56.0361498  44.7693337
  32.8759888  55.9753208  44.7021585  32.2155001  56.1496428  45.0875317
  28.8587855  57.2261936  54.2099163  28.6353510  56.4680766  54.5783189
  28.3697698  57.2559958  53.4879602  28.7531304  57.1184161  54.1575904
  23.6712934  44.1728628  49.9460624  22.9524923  44.5892760  50.2133488
  24.0425296  44.7382866  49.3952262  23.6204866  44.3177909  49.9043431
  32.9712515  44.8056477  55.8362620  32.9510442  44.6239772  56.6897399
  33.0191715  45.6768495  55.8122203  32.9747156  44.9073015  55.9585914
  30.9158845  51.3943669  61.7611096  30.8754699  50.7493345  61.1756252
  31.7282163  51.3380286  62.0736508  31.0301998  51.2902635  61.7208045
  27.5066312  57.4462394  51.6636247  27.0926711  56.7836525  51.2740089
  28.1913686  57.5940253  51.1431941  27.5464684  57.3703053  51.5292744
  30.8731606  56.6052480  52.4159864  30.4747889  56.7154750  51.6480684
  30.2582826  56.8134546  52.9986424  30.7230496  56.6526048  52.3891163
  26.6036553  45.0240605  58.3160854  26.0915456  44.4161788  58.6745885
  26.4316049  45.7397198  58.7834830  26.5026190  45.0403904  58.4377078
  21.4502268  43.4678180  60.9663216  21.2804858  44.1279555  60.4211422
  21.0068218  43.6784742  61.6875705  21.3601602  43.5964163  60.9924845
  18.3504332  46.3725046  56.2251706  17.8031052  45.7025692  56.3432574
  19.1396711  46.0054894  56.2895173  18.3856516  46.2190032  56.2520406
  28.1988741  46.0332503  61.7215117  28.9500068  46.3484180  62.0354671
  28.3911317  45.8311674  60.8949038  28.3380155  46.0499885  61.6458512
  17.1091302  45.5845854  53.3797729  16.9313063  45.1322463  54.1052644
  16.8210324  46.3872015  53.5636206  17.0404255  45.6368412  53.5141231
  32.7714883  46.8403571  52.6175119  33.2668548  46.1226566  52.5779139
  31.9614659  46.5374369  52.5029606  32.7258776  46.6901217  52.5948845
  28.2173495  50.6901384  44.7672123  27.4084817  50.3668058  44.7205433
  28.7248403  49.9834606  44.7000372  28.1723161  50.5382701  44.7502418
  18.8463772  48.1173577  50.4919488  17.9809291  48.1059268  50.3802259
  18.9462588  47.9303800  51.3390627  18.7337939  48.0879639  50.6008432
  34.8366702  49.5907259  55.3052248  35.2621773  49.0681680  54.7522673
  34.4723622  50.1888096  54.7840871  34.8453304  49.6017486  55.1461257
  24.4720782  57.8871476  54.0649593  24.7867341  58.7007865  54.0727375
  24.8814195  57.5021695  54.7331752  24.5788880  57.9500178  54.1653685
  31.4245301  53.3041523  51.6353405  31.8956480  54.0181785  51.8043390
  31.7605480  52.7040273  52.1713275  31.5440416  53.3212987  51.7385781
  33.5122286  54.9142836  63.8145477  33.6219251  54.1251397  64.1702224
  33.8413183  54.8248772  63.0119815  33.5774692  54.7848689  63.7487868
  28.3414796  38.0768993  58.5911500  28.4742702  37.2799987  58.9192475
  28.7259949  38.6035396  59.1709776  28.4171125  38.0368910  58.7255003
  32.0619248  53.0959457  58.3981098  31.5140194  52.4717341  58.1301163
  32.5232276  53.2853729  57.6825177  32.0486457  53.0318507  58.2531529
  34.8713112  41.1644811  55.7832290  34.2876101  41.6654018  55.3709857
  35.1917406  40.6574368  55.1496613  34.8326287  41.1636647  55.6290797
  26.0003243  38.0728169  56.8389394  26.5447656  37.7319295  57.4293735
  26.0540179  38.9313630  56.9810678  26.0892362  38.1483428  56.9471267
  21.8133802  51.8344585  53.7128202  22.4178659  51.7940419  53.0842022
  21.6061114  52.6815737  53.7432257  21.8722699  51.9532587  53.6244318
  31.6277574  54.1010530  54.9290439  32.4475948  53.9573496  55.1906734
  31.3471652  54.7256729  55.4706877  31.7074317  54.1720882  55.0478378
  17.0485084  50.8179202  53.5827125  16.9509362  50.0075474  53.8917181
  17.8313954  50.7970995  53.1973393  17.1501221  50.6946292  53.5713988
  48.0991224  61.7575381  47.8933315  48.0685229  62.6120018  48.0651585
  48.6972573  61.4570674  48.4519459  48.1828382  61.8391878  48.0008118
  41.2990909  60.8451032  52.6486246  40.4428805  61.0059531  52.6995363
  41.3458563  59.9743096  52.6691307  41.1790021  60.7401834  52.6592312
  35.6832049  70.3813750  48.4123477  34.9314948  70.0029289  48.1839522
  36.1318061  70.4132184  47.6642288  35.6381716  70.3299357  48.2680980
  44.6084626  67.1137558  62.2546702  45.3151393  66.6189589  62.3833636
  44.7972561  67.5546640  61.5249360  44.7412531  67.1055908  62.1655747
  41.1357009  70.8039120  43.8409024  40.8008377  71.4816041  43.4053247
  41.6483879  70.4144431  43.2525896  41.1622590  70.8463698  43.6895816
  40.6761300  72.7553388  49.7820136  41.0600679  73.3240287  49.2424911
  40.6120441  72.0302899  49.3025952  40.7234727  72.7328852  49.6313999
  44.1442730  62.9043076  55.2917897  44.6898690  63.5828163  55.3511867
  44.0859607  62.7630537  54.4319479  44.2158645  62.9835078  55.1729958
  37.2616805  70.3932142  50.6786250  37.3627168  69.5832496  50.9883378
  36.6658550  70.2989089  50.0485928  37.1889344  70.2597171  50.6312488
  45.9207799  64.3327683  46.1651625  45.8047325  65.0835370  46.5943763
  46.7163686  64.0751637  46.4147712  46.0212388  64.4062530  46.2655717
  37.1017545  75.3109732  52.0801106  37.7455000  75.7522896  52.4697264
  37.4273800  74.5063158  51.9931365  37.2449373  75.2574926  52.1246583
  30.4581849  66.4152429  50.3038584  30.2232034  65.5820081  50.1970852
  30.5967490  66.6957095  49.4899784  30.4437512  66.3335932  50.1680938
  32.7571937  58.5838160  53.2022891  32.1376968  57.9930807  53.0332906
  32.6555800  59.1749595  52.5687214  32.6509612  58.5842242  53.0827881
  37.8038124  68.3221706  47.4520968  38.1253965  68.8626914  46.8482276
  38.4510221  67.7518478  47.5843257  37.9464180  68.3180882  47.3828003
  39.8539832  60.3237701  47.5355354  40.5519997  60.5025829  48.0276818
  40.1692165  59.8008041  46.9125744  40.0035170  60.2731474  47.5157364
  32.4841070  62.1290441  55.4466460  32.3599767  62.7152887  56.0816279
  33.1359354  61.6350637  55.7478735  32.5614719  62.1429246  55.5852389
  40.0427768  66.7108146  47.5235146  40.4821403  66.1025247  47.9689919
  39.8932431  66.3315520  46.7520611  40.0849234  66.5646618  47.4754313
  37.5099411  65.3052158  54.7253971  38.1548413  64.8124601  54.4064920
  37.7501188  65.4476945  55.5520050  37.6409996  65.2529600  54.8003504
  40.0485502  68.1507064  54.3760864  40.3308745  67.3558470  54.1547620
  40.7771663  68.6287652  54.3965925  40.1975066  68.1041661  54.3463879
  38.0266696  55.6930098  51.6176629  37.6970026  56.1441242  50.9480328
  37.3511698  55.6146261  52.1649635  37.8777132  55.7481233  51.5999852
  43.6437104  65.0635328  44.4765915  43.5588400  65.9196294  44.6215484
  44.1321488  64.7879652  45.1448074  43.7026002  65.1492649  44.5967997
  44.5755538  61.6820122  45.9763650  44.0467009  61.8979755  46.6360956
  45.0980558  62.3756260  45.8964619  44.5743991  61.8163259  46.0619249
  50.0303591  67.2566426  51.3496695  49.2001294  67.4677070  51.5130111
  49.9812843  66.4303481  51.0738978  49.9010326  67.1656033  51.3334060
  36.4655145  65.5783339  44.7771118  35.8812361  66.0833370  45.1836982
  36.0625241  65.3525726  44.0367710  36.3194449  65.6191587  44.7276143
  32.0199174  71.2938100  51.5794790  31.5366752  72.0188589  51.5554373
  32.8322492  71.5914230  51.6904947  32.0689922  71.4440454  51.5922069
  38.0913328  70.0870281  54.1844604  37.5740270  69.7277696  53.5805912
  38.7887719  69.5632455  54.1950670  38.1178909  69.9567968  54.0974863
  41.7476920  70.5365095  60.1460777  41.8360266  70.3491235  60.9938988
  42.1766633  69.8902524  59.7465624  41.8239022  70.4128102  60.2132529
  39.3147380  69.8196255  59.1278439  38.7518215  69.4068864  59.6518101
  40.0768403  69.7449160  59.5471583  39.3441828  69.7473655  59.2671440
  40.9232360  61.8248991  43.2540039  41.1628364  62.0326975  42.4415382
  41.2448201  61.0206499  43.3628983  41.0069518  61.7363092  43.1500592
  36.2322650  53.7542386  47.0999577  36.9868618  54.1220704  46.8616627
  36.0550185  54.1281941  47.8678756  36.3177129  53.8640574  47.1784465
  34.8743371  71.8094276  51.7315069  35.5763951  71.2946265  51.7887826
  34.7940854  72.1368427  52.5361945  34.9667132  71.7808502  51.8587862
  49.5257549  59.9036827  55.1447116  48.6885970  59.9739014  55.3794710
  49.4945780  59.9061322  54.2721418  49.3975831  59.9147054  55.0506664
  35.9222278  62.0469863  60.8595485  36.0942782  61.9375757  61.7080766
  36.4591635  62.6924268  60.6226677  36.0267282  62.1261864  60.9500581
  34.5879715  56.1612705  43.7977690  34.4055288  56.3784586  42.9718682
  35.4505328  56.2751718  43.8536304  34.6884304  56.2102603  43.6832177
  34.1994147  68.0000628  51.2400678  35.0383046  68.2323560  51.2874439
  34.2305916  67.1304939  51.1707713  34.3275864  67.9057574  51.2365322
  34.8246850  68.4201503  55.5413983  35.3645075  68.2772634  56.2117355
  34.1416796  68.8198254  55.9098009  34.8039004  68.4581174  55.6948405
  44.2487735  64.0992504  50.7359007  45.0045250  64.5324018  50.7747916
  44.3550059  63.4497273  51.3093643  44.3757905  64.0669987  50.8257033
  47.2867906  67.9265781  51.4861410  46.8503138  67.9302523  52.2420382
  46.9530821  68.6071280  51.0540988  47.1730526  68.0278237  51.5342243
  41.8596979  69.9674114  62.8104561  42.6437396  70.0804961  63.1760303
  41.6593574  69.1415251  63.0063247  41.9463005  69.8620833  62.8938947
  30.2283995  64.6401794  55.6948405  29.9622410  63.8240910  55.8539395
  30.2422559  64.6854949  54.8243920  30.1908717  64.5258698  55.5901887
  47.2065389  54.9679609  53.7290838  47.8491297  55.0377713  54.3152754
  47.4588409  54.3008832  53.2270380  47.3387521  54.8805957  53.7418118
  34.1341742  59.4386878  42.3100163  33.4199919  59.1525058  42.7222595
  34.6185711  59.7783504  42.9506550  34.1001105  59.4468528  42.4655798
  34.9782601  58.1780172  58.3415412  34.2854398  57.7077152  58.5876144
  35.5942929  57.9518477  58.9157119  34.9667131  58.0747304  58.4624565
  42.0167373  71.8784216  56.4571016  41.2182618  71.6383716  56.7144885
  42.4653384  71.9298609  57.2038064  41.9641984  71.8506607  56.6055941
  50.4212252  64.6446701  50.3781048  51.0828686  64.0837369  50.2776956
  49.7803664  64.1498731  50.7033739  50.4241119  64.4883110  50.4113388
  41.3089060  67.9416832  42.6861971  41.7240208  67.6101856  41.9946467
  40.4780989  67.7085734  42.5582108  41.2477068  67.8588088  42.5652818
  30.6377408  65.4260573  52.9760149  30.4552982  65.4007459  52.1232441
  31.3727077  65.8959511  53.0149058  30.7191472  65.4921935  52.8558067
  46.7077083  65.6612083  50.1193036  46.9432672  65.8057282  49.2919887
  46.8566646  66.4254491  50.5124550  46.7642886  65.7951137  50.0556640
  33.7023160  62.1445576  59.4842258  34.4263132  62.1298607  59.9707152
  33.8039297  62.8540931  58.9864226  33.8241369  62.2470279  59.4821044
  48.5367539  64.5013749  47.9562640  48.8675757  65.0341389  47.3502735
  49.1100628  64.5552637  48.6124591  48.6701219  64.5883318  47.9640422
  41.0768110  65.6244661  64.3491205  40.2841090  65.9388172  64.5343824
  41.1917037  65.8396129  63.5111989  40.9763520  65.7028497  64.2529539
  43.7499429  62.3478652  48.6386220  43.8446283  63.0867946  49.0925846
  43.1258272  61.9196127  49.0720785  43.6708459  62.3939972  48.7694368
  42.0051902  65.5264864  59.2876501  42.5790764  64.8892109  59.4425065
  41.9266706  65.5268947  58.4186159  42.0785137  65.4329976  59.1822912
  30.6048319  62.3054074  53.1259215  31.1821821  62.1690525  53.7651461
  29.9062381  61.8489858  53.3804800  30.5869340  62.2176340  53.2581505
  44.0022450  64.1927392  41.8723172  43.9202612  64.2629579  42.7378159
  44.6402170  64.7557135  41.6806913  44.0842287  64.2866363  41.9713122
  37.3615621  63.9588129  51.3397699  37.1034865  63.1259864  51.3128998
  37.4164104  64.1845742  50.4990199  37.3315399  63.8685901  51.2117835
  42.4416671  56.0616580  51.4401791  41.7372998  55.5725766  51.5985710
  42.4901645  56.0739055  50.5690236  42.3446723  55.9906228  51.3341131
  36.3350333  61.5125892  51.8262593  35.7599924  61.6718060  52.4626554
  35.9586009  60.8761301  51.3631044  36.1953146  61.4423705  51.8517152
  40.0023622  59.9849241  56.6854972  39.6138055  59.5603459  56.0307163
  39.3378320  60.2331391  57.1931998  39.8470550  59.9587962  56.6642840
  49.6446891  59.7424246  49.4602802  49.3883456  58.9304187  49.2700685
  50.4876205  59.7501813  49.2332989  49.7312916  59.6236243  49.3987619
  26.0807152  61.1565967  49.8407034  26.1667404  60.7797835  50.6220564
  26.7082950  60.7826412  49.3626992  26.1863703  61.0451449  49.8852511
  43.8249983  53.6823870  54.1978956  44.2060495  53.0002041  54.5846830
  43.0213268  53.3933472  54.0154621  43.7626445  53.5390918  54.2283012
  41.1062560  64.2147846  44.8831779  41.9203199  64.5062739  44.7714550
  41.0421701  63.5607708  44.3090072  41.2165299  64.1613041  44.7820616
  47.3272050  66.8973842  59.2961354  47.0910688  66.0661907  59.1773415
  47.9715279  66.8459449  59.8816199  47.3866721  66.7671530  59.3647248
  36.9770468  67.6869363  50.0104091  37.6144415  67.4481111  50.5555884
  37.4025540  67.8906522  49.2757251  37.1346635  67.6820373  49.9821248
  31.6683111  69.9257700  53.8938395  31.7087256  70.1972551  53.0658174
  32.2277635  70.4499608  54.3096183  31.7566457  70.0433455  53.8330283
  37.6173283  62.9071653  44.3478980  38.0018436  62.6879360  45.0995525
  37.3684904  63.7334598  44.4780057  37.6375356  62.9969799  44.4780057
  37.7841824  56.1878068  64.0641565  37.4695265  56.9577631  63.8011127
  37.4631756  55.6248324  63.4793791  37.6900743  56.2188337  63.9382914
  48.3508471  66.6818291  55.3589649  48.0454288  67.4146348  55.7202965
  47.6314687  66.2756220  55.0782435  48.1995813  66.7300024  55.3702786
  39.3591940  68.1641786  51.6897877  39.4330949  68.0016958  52.5439727
  40.1761447  68.3531975  51.4458359  39.4908299  68.1678528  51.7795903
  54.0510263  63.3211291  54.6857993  53.9834763  63.3407251  53.8160580
  54.0365925  64.1641619  54.9113664  54.0389019  63.4485026  54.5910470
  33.1197697  68.5099649  48.7192321  32.2935815  68.7561386  48.5926599
  33.1809688  68.4311730  49.5854379  33.0071864  68.5344598  48.8281265
  35.3373721  54.5768590  49.6787761  34.4696146  54.6491189  49.7445370
  35.6248925  55.3790669  49.8675736  35.2513469  54.7062737  49.7162527
  44.4606609  54.7246449  58.0099083  45.2060201  54.5356259  57.5962508
  44.0443914  55.2504687  57.4512939  44.5091584  54.7748594  57.8663656
  37.8996526  71.1276529  46.4211351  38.1894824  70.7365510  45.6970577
  38.6300007  71.3093234  46.8616626  38.0503410  71.0970343  46.3794158
  51.8368880  62.0955678  52.9604588  52.3876802  61.4623747  53.2001680
  51.8212996  62.6271070  53.6520092  51.9154077  62.0804626  53.0983446
  38.4891271  65.9294275  57.5064481  37.9902965  66.6410043  57.5849369
  39.2991495  66.2494941  57.4682643  38.5347378  66.0821123  57.5121050
  35.8402442  73.1043911  49.4871500  35.6202737  72.8141266  50.2798167
  35.6196964  72.4458866  48.9589413  35.7750036  72.9643620  49.5260409
  34.7519389  65.1917228  51.7527202  34.4632637  64.5654699  52.2872929
  35.6202737  65.1337515  51.8191882  34.8379641  65.0904772  51.8418157
  45.5397287  60.3352011  52.0709184  45.1962052  59.6142346  52.4216433
  45.6390329  60.1265862  51.2287542  45.5039329  60.1976214  51.9980864
  38.0070397  74.4773301  48.2702193  38.6594455  73.9449744  48.4993219
  37.3096006  74.1241954  48.6570067  38.0001115  74.3462824  48.3614360
  34.9551662  66.8312479  47.6769567  35.7097630  67.2125518  47.8905030
  34.3622275  67.2823623  48.1316264  34.9788376  66.9541306  47.7752445
  46.0010316  66.7977715  47.6133172  46.5668348  67.4570925  47.5291715
  45.3538219  67.1427413  48.0849574  45.9889072  66.9459657  47.6705928
  37.4158329  58.7875319  62.8026779  36.6058105  59.0933099  62.6916622
  37.8933016  59.5080902  62.9179363  37.3661808  58.9389920  62.8033850
  36.2749889  68.0021040  53.0509682  35.7530642  68.1421332  53.7361547
  36.6623909  67.2431705  53.2411800  36.2553590  67.9106564  53.1810759
  33.2641073  58.0526849  47.1204637  32.9765869  57.6828119  46.3836584
  33.9511541  58.5221704  46.8588342  33.3229970  58.0673818  46.9719713
  42.4716894  69.7416500  47.0370251  42.2303570  69.0084360  46.6297316
  42.6518227  70.2903356  46.3836584  42.4624518  69.7138891  46.8800474
  37.7016214  65.0325059  48.4491173  37.5058997  65.6399794  47.8551476
  37.9250560  64.3393003  47.9682847  37.7050855  65.0202585  48.2907254
  36.0994744  61.9179797  48.5672042  36.8217396  62.0820955  48.1075848
  35.6202737  62.6389462  48.4611382  36.1358475  62.0478027  48.4837656
  44.0588252  58.2543596  53.9468727  43.2199353  58.2804875  53.7106990
  44.1292619  58.9014331  54.5274073  43.9456645  58.3539722  53.9977844
  33.7502361  64.3237870  57.6726182  34.2623458  64.6022123  57.0234941
  33.4638704  65.0627164  58.0388995  33.7837224  64.4740223  57.6316060
  47.9345776  63.4611583  51.2329968  47.8479750  63.6167009  52.0864747
  47.4796256  64.1049658  50.8589374  47.8549032  63.5787338  51.3037075
  30.8369267  58.8308061  47.9689918  30.9385404  59.6334223  48.2970894
  31.6325154  58.6295397  47.6712999  30.9697173  58.9193960  47.9725273
  37.2686086  56.4164258  57.7327223  37.0769283  56.4319393  58.5826647
  38.1184682  56.6127932  57.7093878  37.3661808  56.4478609  57.8550518
  31.6532999  58.9455240  55.7111040  31.5118491  58.0939180  55.8355548
  31.9373563  58.9883900  54.8873246  31.6740846  58.8254990  55.6078664
  41.8071592  60.7822330  49.8555528  41.5606306  60.7018081  50.6892317
  42.1356715  59.9975798  49.6618055  41.8192835  60.6548595  49.9503051
  45.7019641  67.4905689  53.6442309  45.5634000  68.1886735  54.1491052
  44.9219639  67.3354346  53.2878491  45.5662868  67.5705856  53.6668583
  44.0397726  63.7902065  59.8964691  44.0345764  62.9181881  59.9007117
  44.7458720  63.9890234  59.4234147  44.1442730  63.6905939  59.8271726
  37.7668619  63.5179048  59.2678511  37.9111995  64.0980257  58.6321621
  38.1144268  63.8955345  59.9728366  37.8396080  63.6599752  59.2777506
  39.9388536  62.7169217  57.0503643  39.1911851  62.9100231  56.6451921
  40.0930062  61.8914436  56.8127764  39.8510964  62.6234328  56.9549048
  36.8396374  71.7081820  56.1339538  36.9885938  71.1484736  55.4812942
  37.6196376  71.7873822  56.5172057  36.9770468  71.6367386  56.0936487
  47.1973014  66.8483943  44.4058808  46.8179822  66.0621081  44.3988098
  46.5339259  67.3970800  44.2630453  47.0431488  66.8128767  44.3839605
  39.3649675  71.8796463  57.4124029  39.2893346  71.2105274  57.9674817
  39.2939534  72.5814251  57.9264695  39.3430282  71.8841370  57.5700877
  40.1790314  56.6119768  57.9399046  40.6362928  57.3443742  58.0671839
  40.2546642  56.1886233  58.6986302  40.2581283  56.6577006  58.0700123
  32.4223305  56.8585587  59.0288490  31.8865494  56.2465945  59.3449257
  32.4841069  57.4333723  59.6822157  32.3518937  56.8532515  59.1723917
  40.0219922  70.3997462  48.2447635  40.7869813  70.1307106  47.9230299
  39.9198012  69.9147472  48.9617697  40.1201417  70.2887027  48.3027462
  38.0572691  58.6021871  54.7840870  37.2668766  58.4213332  55.1058206
  38.4533314  57.8248824  54.7671165  37.9989568  58.4609332  54.8293419
  42.5438582  67.4309646  40.2247584  43.3111567  67.4909771  39.8153436
  42.0969891  66.8590087  39.7403903  42.5912009  67.3546222  40.0925294
  43.4416378  66.2364302  52.5100316  42.7661380  66.0049534  53.0113703
  43.4508754  65.6285485  51.8842421  43.3434882  66.1123227  52.4916469
  40.5710522  61.0782131  59.2664369  40.5069663  61.9392087  59.1384506
  40.7107709  60.7614124  58.4659921  40.5825992  61.1582297  59.1292582
  45.4433112  69.0929434  44.7410494  45.5252950  69.8996420  44.4171945
  45.9282854  69.1125393  45.4651268  45.5270270  69.2150096  44.7997393
  39.2529616  63.7714270  53.4080572  38.8291865  63.9718769  52.6719591
  39.0774471  62.9243118  53.5204872  39.1640496  63.6763051  53.3154262
  38.7541309  75.2864783  55.8702030  39.2437239  74.5875572  55.6877694
  38.1825541  74.9888653  56.4578087  38.7425839  75.1391007  55.9303070
  34.5412061  64.2666321  48.8408545  34.6976680  64.2013124  49.6964537
  34.8812654  65.0414874  48.6287224  34.6145295  64.3715520  48.9363139
  41.0791205  63.6424205  47.7101908  41.6206751  63.1394586  48.1740529
  41.3937764  63.5889400  46.8991393  41.2055602  63.5603626  47.6585720
  44.9508313  67.8526852  64.8228820  45.7643178  67.5812001  64.9833953
  44.7903279  67.5534392  64.0189016  45.0478261  67.7681778  64.7274226
  39.2477655  69.0341556  44.9941936  39.3170475  68.1756095  45.1334936
  40.0266110  69.2513437  44.6660961  39.3730505  68.9394420  44.9659093
  42.2280475  58.5360509  57.7624208  42.4422444  57.8971424  57.2087562
  41.6114374  58.9806333  57.3332070  42.1685804  58.5070653  57.6174640
  43.6385142  71.4579258  49.2078429  43.2464934  71.1545973  48.4901295
  43.7938215  72.2948348  49.0183383  43.6038732  71.5363094  49.0734926
  31.1146322  61.4501272  49.1569312  31.4945287  61.8685817  48.4929579
  30.5401687  62.0314728  49.4638155  31.0857647  61.5979131  49.1046053
  44.3919563  60.1449575  58.7007516  43.5796244  59.8375465  58.7820688
  44.8509497  59.6648575  59.2650228  44.3399947  60.0286067  58.7962110
  43.8024817  68.0229247  49.1484460  43.4439472  68.1943889  49.9248492
  43.3163528  68.4842452  48.5912458  43.6783514  68.1168218  49.1809729
  38.5913183  63.7028412  41.6884694  38.8805707  64.4793295  41.9628269
  38.6784981  63.1917143  42.3899194  38.6467439  63.7420330  41.8327192
  41.4873070  61.5509646  63.4836218  41.9572701  62.1751762  63.8704092
  41.5334950  60.8826622  64.0429433  41.5640946  61.5444326  63.6236289
  40.7136577  54.1959634  56.0377874  40.3268330  54.2208665  56.8191404
  40.2269514  53.6301312  55.5852391  40.5849086  54.1155384  56.0865778
  44.9629557  68.9133143  60.0951661  45.6009277  68.4193338  59.7614117
  44.3203648  68.8410543  59.5103888  44.9623783  68.8292151  59.9594016
  46.6886557  60.7622289  54.6617576  46.2614165  60.6748637  53.9065676
  46.0512610  60.8700064  55.2472420  46.5316164  60.7654948  54.6363018
  40.3793719  51.0826619  58.3288134  41.0086837  51.6186919  58.0509204
  40.5479582  50.9903978  59.1801700  40.4971513  51.1487981  58.4136662
  40.1807634  55.8697814  60.6014546  41.0081063  55.5982963  60.6573160
  40.2015480  56.6658655  60.9578364  40.3060484  55.9477568  60.6629729
  45.0183813  69.6052951  56.7357017  45.8076191  69.2542016  56.8559099
  45.1927411  70.4189339  56.4733651  45.1604095  69.6738808  56.7144885
  34.7577124  63.0161677  53.7884806  33.9165130  62.9165551  53.9963700
  34.9667132  63.7857157  54.1399127  34.6641816  63.1153720  53.8712121
  32.2352691  60.6381214  51.6169557  31.8409388  60.7124225  50.8419667
  31.6792807  61.0239160  52.1677919  32.0955503  60.7062988  51.5837217
  38.5693788  60.9443076  53.0382404  38.2656926  60.3899064  53.6392812
  37.8673209  61.1235286  52.5510438  38.4209998  60.8887858  53.0552109
  37.6259886  58.2543596  47.6027106  37.9019620  57.5362508  47.1904673
  38.2258555  58.8528516  47.3948212  37.7553150  58.2363966  47.5107867
  36.6312139  68.1592796  57.7454502  36.5232494  68.1694859  58.6116560
  36.8407921  68.9847577  57.5559455  36.6462251  68.2833871  57.8458593
  41.1270406  55.9257113  45.8773701  41.5814153  56.0967673  46.6021545
  41.6010452  55.3125224  45.4771476  41.2638726  55.8607998  45.9247462
  34.6485931  65.4105439  55.2076439  34.0573865  66.0514937  55.1779454
  35.4106955  65.8343056  55.1807739  34.6734192  65.5681277  55.1991586
  35.0446554  56.5707437  55.8744457  35.5048036  56.6446366  56.6119581
  35.0902661  57.3688691  55.5244278  35.1197110  56.7001584  55.9317213
  36.6929904  57.2374132  60.4416484  36.3015469  56.5907479  60.8772262
  36.8615767  57.8285567  61.0610739  36.6600814  57.2288399  60.5979190
  50.7676353  65.2411209  56.2053717  50.8259477  65.6897857  56.9513694
  50.1342821  65.6510021  55.7683797  50.6827648  65.3684943  56.2506266
  44.4075448  70.8614750  52.6408464  44.2095136  71.3505565  51.9464675
  43.7863159  71.0655992  53.2192597  44.2863012  70.9631289  52.6231687
  38.4683426  62.6299647  46.9818708  39.2125471  63.0173924  47.2201658
  38.6144122  61.7857073  47.1459196  38.5994011  62.5630120  47.0412678
  41.4561302  58.2025121  52.8812627  40.9821256  57.6766883  53.3917938
  41.8279438  57.6554593  52.3127489  41.4411191  58.0441117  52.8727774
  31.8334332  60.1996627  58.2496173  32.6959945  60.0992337  58.1633503
  31.5026115  59.6191337  57.6881745  31.9119528  60.0988254  58.1541579
  47.7198033  63.2627496  54.2919408  47.4796255  62.4233911  54.2961834
  48.1990040  63.3427663  55.0160181  47.7550216  63.1508896  54.3994210
  43.3844802  59.0961675  45.9438381  42.8567820  59.1790419  45.2544090
  43.8440510  59.8379547  45.9403026  43.3746652  59.2182338  45.8413076
  49.7203220  60.0428953  52.2448667  49.4812990  60.0024788  51.4069452
  49.8837121  60.8900106  52.3714388  49.7093523  60.1621038  52.1402149
  46.3249250  64.4278903  58.1753712  47.0483449  63.9751429  57.9964732
  46.0599212  64.7083568  57.3926040  46.3930523  64.4029871  58.0332427
  35.1936118  59.0239076  54.9106591  34.5689188  59.0357468  54.3032544
  34.8581713  59.4999251  55.5597831  35.0521610  59.0957593  54.9163160
  35.3777867  57.3664195  40.9679276  35.0290671  58.0183920  41.4310826
  34.8974313  57.3521308  40.2403147  35.2548111  57.4607248  40.9290368
  31.9061794  67.0839536  56.3510356  31.3761718  66.3931975  56.4005330
  32.1786887  67.0749722  55.5223064  31.8686516  66.9806668  56.2357771
  42.9381884  67.6665239  45.0748038  43.6616083  68.1323352  44.9312611
  42.4982475  67.7338848  44.3245635  42.9797576  67.7449075  44.9432820
  42.1068039  64.5262781  56.3248727  41.4925032  63.9820831  56.6197362
  42.6235324  64.0127017  55.8454543  42.0923702  64.3699190  56.2972956
  41.3464336  65.5967051  54.0593026  40.9191944  64.9716770  53.6258461
  41.3389281  65.3141973  54.8852033  41.2823478  65.4619832  54.1172853
  34.4626863  60.6332224  57.1281460  34.6220350  59.8775548  57.5333182
  34.2819757  61.1823164  57.7822197  34.4592222  60.6026038  57.2844166
  42.4047166  52.7993460  57.6832249  41.9087728  52.9957134  56.9923816
  43.1616228  53.1986128  57.5121051  42.4433991  52.8871193  57.5552386
  39.6750046  56.4735806  54.2735560  39.6992533  55.9395918  53.5848340
  39.9261520  55.9653114  54.9361150  39.7159965  56.3196710  54.2700204
  27.1857636  63.7567301  53.7078704  27.0801085  63.7114145  52.8430788
  26.4357856  64.1021081  53.9892989  27.0593239  63.8008209  53.6216034
  35.9551368  55.2006624  53.6541304  35.9949740  55.7015830  54.3676011
  35.1301033  55.2917018  53.3847227  35.8390894  55.2888440  53.7191842
  38.1380981  64.7667364  61.7561599  37.2876612  64.9039078  61.8919244
  38.3009109  64.0331142  62.2009300  38.0364845  64.6781465  61.8417198
  37.3765732  61.7167134  55.9515203  36.5457661  61.8840952  55.7450451
  37.3217249  61.3403084  56.7364088  37.2455147  61.6856865  56.0363731
  35.1849515  55.2076027  61.5871614  35.8102218  54.6638159  61.8601046
  34.7299995  54.7270944  61.0179404  35.2097776  55.0565508  61.5433208
  35.7501775  59.9922725  46.4805321  35.8904737  60.4895189  47.1833962
  36.2484308  59.2909020  46.6219534  35.8442856  59.9624704  46.6056900
  35.7801998  60.8589836  43.8097898  36.4147077  61.4550261  43.7447359
  35.8627609  60.5593294  44.6243768  35.8858549  60.9030744  43.9200984
  48.7584564  63.3905314  56.6784262  49.3502404  64.0302564  56.7102460
  49.1943558  62.6928350  56.9676329  48.9102995  63.3823664  56.7265094
  37.3580981  56.7903812  43.7843340  37.6796822  56.3106894  43.1302602
  37.6207924  57.6003458  43.5934151  37.4447006  56.8393710  43.6598832
  40.5877953  67.8122686  57.3042156  40.0803045  68.3658533  57.7482786
  40.2904600  67.8730976  56.4860930  40.4682838  67.9028997  57.2490612
  42.7540136  56.1776006  56.1466819  43.1795207  55.7248532  55.5350345
  42.1397129  55.6236076  56.4231606  42.7268781  56.0289982  56.0971844
  32.2854986  63.0557677  47.0787444  32.7947215  63.6522185  47.4598749
  32.7589258  62.7883651  46.3963863  32.4298361  63.1043492  47.0341966
  43.1985734  71.7285944  45.2346099  42.4815043  71.5546806  44.7693337
  43.8492471  71.4938516  44.7021585  43.1887584  71.6681736  45.0875317
  45.7833705  60.6050532  48.9787404  45.1124895  61.1480234  48.8500470
  46.4773455  61.0745388  48.7369099  45.7862573  60.7548803  48.9242932
  39.8320439  72.7447244  54.2099163  39.6086093  71.9866074  54.5783189
  39.3430282  72.7745265  53.4879602  39.7263888  72.6369469  54.1575904
  45.9461832  57.0606416  51.8877778  46.2989443  56.6336139  52.5623576
  45.0876634  56.9757259  52.0178854  45.8711277  56.9851157  52.0072788
  34.6445517  59.6913936  49.9460624  33.9257507  60.1078068  50.2133488
  35.0157880  60.2568174  49.3952262  34.5937449  59.8363217  49.9043431
  43.9445098  60.3241784  55.8362620  43.9243026  60.1425080  56.6897399
  43.9924299  61.1953803  55.8122203  43.9479739  60.4258323  55.9585914
  41.8891428  66.9128976  61.7611096  41.8487283  66.2678653  61.1756252
  42.7014746  66.8565594  62.0736508  42.0034582  66.8087943  61.7208045
  38.4798896  72.9647702  51.6636247  38.0659294  72.3021833  51.2740089
  39.1646270  73.1125561  51.1431941  38.5197267  72.8888361  51.5292744
  41.8464190  72.1237788  52.4159864  41.4480473  72.2340058  51.6480684
  41.2315409  72.3319854  52.9986424  41.6963079  72.1711356  52.3891163
  40.4192092  58.7311935  45.2834004  39.8256931  59.0528932  44.7318571
  40.4567370  57.8853031  45.0755110  40.3366481  58.6536264  45.1716775
  43.2949908  58.6891440  48.7135754  43.0663601  58.7124141  47.8714112
  43.5547985  57.8648907  48.8330764  43.2996096  58.5707520  48.6060951
  37.5769137  60.5425913  58.3160854  37.0648040  59.9347096  58.6745885
  37.4048633  61.2582506  58.7834830  37.4758774  60.5589212  58.4377078
  32.4234852  58.9863488  60.9663216  32.2537442  59.6464863  60.4211422
  31.9800801  59.1970050  61.6875705  32.3334185  59.1149470  60.9924845
  36.3494671  57.2267986  50.0089949  36.8252037  57.5885066  49.3740131
  35.8483271  57.8824454  50.2890092  36.3460030  57.3762175  49.9566690
  49.5806032  66.6989754  45.8002954  49.9639638  67.4481110  46.0301051
  48.7850146  66.9455574  45.5414943  49.5199815  66.8459448  45.7960528
  41.4538207  58.4650158  60.7563109  42.0109637  58.2363967  60.1241575
  41.1299272  59.2255823  60.4798322  41.4884617  58.5433994  60.6219607
  29.3236916  61.8910354  56.2251706  28.7763635  61.2210999  56.3432574
  30.1129294  61.5240202  56.2895173  29.3589100  61.7375340  56.2520406
  39.1721324  61.5517811  61.7215117  39.9232651  61.8669488  62.0354671
  39.3643901  61.3496982  60.8949038  39.3112739  61.5685193  61.6458512
  38.3921324  59.3709186  43.3763333  38.7720289  59.3888815  42.5914448
  37.6513920  59.8163175  43.2554181  38.3390162  59.4390961  43.2426902
  28.0823886  61.1031162  53.3797729  27.9045647  60.6507771  54.1052644
  27.7942908  61.9057323  53.5636206  28.0136839  61.1553719  53.5141231
  43.7447467  62.3588879  52.6175119  44.2401132  61.6411874  52.5779139
  42.9347242  62.0559677  52.5029606  43.6991360  62.2086525  52.5948845
  39.1906078  66.2086692  44.7672123  38.3817401  65.8853366  44.7205433
  39.6980987  65.5019914  44.7000372  39.1455745  66.0568009  44.7502418
  29.8196355  63.6358885  50.4919488  28.9541875  63.6244576  50.3802259
  29.9195171  63.4489108  51.3390627  29.7070522  63.6064947  50.6008432
  45.8099286  65.1092567  55.3052248  46.2354357  64.5866988  54.7522673
  45.4456205  65.7073404  54.7840871  45.8185888  65.1202794  55.1461257
  35.4453365  73.4056784  54.0649593  35.7599924  74.2193172  54.0727375
  35.8546779  73.0207003  54.7331752  35.5521463  73.4685486  54.1653685
  42.3977885  68.8226831  51.6353405  42.8689063  69.5367093  51.8043390
  42.7338063  68.2225581  52.1713275  42.5173000  68.8398295  51.7385781
  44.4854870  70.4328144  63.8145477  44.5951835  69.6436705  64.1702224
  44.8145766  70.3434080  63.0119815  44.5507275  70.3033997  63.7487868
  39.3147380  53.5954301  58.5911500  39.4475286  52.7985295  58.9192475
  39.6992533  54.1220704  59.1709776  39.3903709  53.5554218  58.7255003
  43.0351831  68.6144765  58.3981098  42.4872777  67.9902649  58.1301163
  43.4964860  68.8039037  57.6825177  43.0219041  68.5503815  58.2531529
  45.8445696  56.6830119  55.7832290  45.2608684  57.1839326  55.3709857
  46.1649990  56.1759676  55.1496613  45.8058871  56.6821954  55.6290797
  38.3840495  55.5970714  46.0590965  39.2056189  55.7669027  45.8172660
  37.9210146  55.7517975  45.3357262  38.4371657  55.6452447  45.9162609
  36.9735827  53.5913476  56.8389394  37.5180240  53.2504603  57.4293735
  37.0272762  54.4498938  56.9810678  37.0624946  53.6668736  56.9471267
  32.7866385  67.3529892  53.7128202  33.3911243  67.3125727  53.0842022
  32.5793698  68.2001045  53.7432257  32.8455283  67.4717895  53.6244318
  42.6010158  69.6195838  54.9290439  43.4208531  69.4758804  55.1906734
  42.3204235  70.2442037  55.4706877  42.6806901  69.6906190  55.0478378
  28.0217668  66.3364510  53.5827125  27.9241946  65.5260781  53.8917181
  28.8046537  66.3156303  53.1973393  28.1233804  66.2131600  53.5713988
  59.0723808  77.2760689  47.8933315  59.0417812  78.1305326  48.0651585
  59.6705157  76.9755982  48.4519459  59.1560966  77.3577186  48.0008118
  52.2723493  76.3636340  52.6486246  51.4161388  76.5244839  52.6995363
  52.3191147  75.4928404  52.6691307  52.1522604  76.2587142  52.6592312
  55.1175314  78.4228384  55.2917897  55.6631274  79.1013471  55.3511867
  55.0592190  78.2815845  54.4319479  55.1891228  78.5020386  55.1729958
  56.8940382  79.8512991  46.1651625  56.7779908  80.6020677  46.5943763
  57.6896269  79.5936945  46.4147712  56.9944972  79.9247838  46.2655717
  43.7304520  74.1023468  53.2022891  43.1109552  73.5116115  53.0332906
  43.6288384  74.6934903  52.5687214  43.6242196  74.1027550  53.0827881
  48.7770708  83.8407014  47.4520968  49.0986549  84.3812222  46.8482276
  49.4242805  83.2703786  47.5843257  48.9196763  83.8366190  47.3828003
  50.8272416  75.8423009  47.5355354  51.5252581  76.0211137  48.0276818
  51.1424749  75.3193349  46.9125744  50.9767753  75.7916781  47.5157364
  43.4573653  77.6475749  55.4466460  43.3332350  78.2338195  56.0816279
  44.1091938  77.1535945  55.7478735  43.5347303  77.6614554  55.5852389
  51.0160351  82.2293454  47.5235146  51.4553987  81.6210555  47.9689919
  50.8665014  81.8500828  46.7520611  51.0581817  82.0831926  47.4754313
  48.4831994  80.8237466  54.7253971  49.1280997  80.3309909  54.4064920
  48.7233771  80.9662253  55.5520050  48.6142580  80.7714908  54.8003504
  51.0218086  83.6692372  54.3760864  51.3041329  82.8743778  54.1547620
  51.7504246  84.1472960  54.3965925  51.1707650  83.6226969  54.3463879
  48.9999280  71.2115406  51.6176629  48.6702610  71.6626550  50.9480328
  48.3244281  71.1331569  52.1649635  48.8509716  71.2666541  51.5999852
  54.6169688  80.5820636  44.4765915  54.5320983  81.4381602  44.6215484
  55.1054071  80.3064960  45.1448074  54.6758585  80.6677957  44.5967997
  56.2075687  67.2000929  49.8626240  55.8929128  67.8904408  50.2946662
  55.6902629  67.1445711  49.1611740  56.0840158  67.2935817  49.8223189
  55.5488121  77.2005430  45.9763650  55.0199593  77.4165063  46.6360956
  56.0713141  77.8941568  45.8964619  55.5476574  77.3348567  46.0619249
  47.4387729  81.0968647  44.7771118  46.8544944  81.6018678  45.1836982
  47.0357824  80.8711034  44.0367710  47.2927033  81.1376895  44.7276143
  51.8964943  77.3434299  43.2540039  52.1360947  77.5512282  42.4415382
  52.2180784  76.5391807  43.3628983  51.9802101  77.2548400  43.1500592
  47.2055234  69.2727694  47.0999577  47.9601202  69.6406011  46.8616627
  47.0282768  69.6467249  47.8678756  47.2909712  69.3825882  47.1784465
  60.4990132  75.4222135  55.1447116  59.6618554  75.4924322  55.3794710
  60.4678363  75.4246630  54.2721418  60.3708415  75.4332362  55.0506664
  46.8954861  77.5655171  60.8595485  47.0675365  77.4561065  61.7080766
  47.4324219  78.2109576  60.6226677  46.9999865  77.6447172  60.9500581
  45.5612298  71.6798013  43.7977690  45.3787872  71.8969894  42.9718682
  46.4237911  71.7937026  43.8536304  45.6616888  71.7287911  43.6832177
  51.2412018  68.6824424  46.8326713  51.9698178  68.5040379  46.3864870
  51.3306910  69.5242504  47.0433892  51.3618680  68.7808302  46.7980231
  55.2220318  79.6177811  50.7359007  55.9777833  80.0509326  50.7747916
  55.3282643  78.9682581  51.3093643  55.3490489  79.5855295  50.8257033
  41.2016578  80.1587102  55.6948405  40.9354994  79.3426218  55.8539395
  41.2155143  80.2040257  54.8243920  41.1641301  80.0444006  55.5901887
  58.1797972  70.4864917  53.7290838  58.8223881  70.5563021  54.3152754
  58.4320993  69.8194139  53.2270380  58.3120104  70.3991265  53.7418118
  45.1074325  74.9572186  42.3100163  44.3932503  74.6710366  42.7222595
  45.5918294  75.2968812  42.9506550  45.0733689  74.9653836  42.4655798
  45.9515185  73.6965480  58.3415412  45.2586982  73.2262460  58.5876144
  46.5675512  73.4703784  58.9157119  45.9399715  73.5932612  58.4624565
  52.2821643  83.4602140  42.6861971  52.6972792  83.1287164  41.9946467
  51.4513573  83.2271042  42.5582108  52.2209652  83.3773396  42.5652818
  41.6109992  80.9445881  52.9760149  41.4285565  80.9192767  52.1232441
  42.3459661  81.4144819  53.0149058  41.6924056  81.0107243  52.8558067
  57.6809666  81.1797391  50.1193036  57.9165255  81.3242590  49.2919887
  57.8299230  81.9439799  50.5124550  57.7375470  81.3136445  50.0556640
  44.6755744  77.6630884  59.4842258  45.3995716  77.6483915  59.9707152
  44.7771880  78.3726239  58.9864226  44.7973953  77.7655587  59.4821044
  59.5100123  80.0199057  47.9562640  59.8408340  80.5526697  47.3502735
  60.0833211  80.0737945  48.6124591  59.6433802  80.1068626  47.9640422
  54.7232012  77.8663960  48.6386220  54.8178867  78.6053254  49.0925846
  54.0990856  77.4381435  49.0720785  54.6441042  77.9125280  48.7694368
  41.5780902  77.8239382  53.1259215  42.1554405  77.6875832  53.7651461
  40.8794964  77.3675166  53.3804800  41.5601924  77.7361648  53.2581505
  54.9755033  79.7112699  41.8723172  54.8935196  79.7814887  42.7378159
  55.6134754  80.2742443  41.6806913  55.0574871  79.8051671  41.9713122
  48.3348205  79.4773437  51.3397699  48.0767449  78.6445172  51.3128998
  48.3896687  79.7031050  50.4990199  48.3047982  79.3871209  51.2117835
  53.4149255  71.5801888  51.4401791  52.7105581  71.0911074  51.5985710
  53.4634229  71.5924363  50.5690236  53.3179306  71.5091536  51.3341131
  47.3082917  77.0311200  51.8262593  46.7332508  77.1903368  52.4626554
  46.9318593  76.3946609  51.3631044  47.1685729  76.9609013  51.8517152
  50.9756205  75.5034549  56.6854972  50.5870638  75.0788767  56.0307163
  50.3110904  75.7516699  57.1931998  50.8203133  75.4773270  56.6642840
  60.6179475  75.2609554  49.4602802  60.3616039  74.4489495  49.2700685
  61.4608788  75.2687121  49.2332989  60.7045500  75.1421551  49.3987619
  37.0539736  76.6751275  49.8407034  37.1399987  76.2983143  50.6220564
  37.6815533  76.3011720  49.3626992  37.1596287  76.5636757  49.8852511
  54.7982567  69.2009178  54.1978956  55.1793079  68.5187349  54.5846830
  53.9945851  68.9118780  54.0154621  54.7359029  69.0576226  54.2283012
  52.0795144  79.7333154  44.8831779  52.8935782  80.0248047  44.7714550
  52.0154285  79.0793016  44.3090072  52.1897883  79.6798348  44.7820616
  47.9503052  83.2054671  50.0104091  48.5876999  82.9666419  50.5555884
  48.3758123  83.4091830  49.2757251  48.1079218  83.2005681  49.9821248
  48.5905867  78.4256961  44.3478980  48.9751020  78.2064668  45.0995525
  48.3417487  79.2519906  44.4780057  48.6107940  78.5155107  44.4780057
  48.7574407  71.7063376  64.0641565  48.4427848  72.4762939  63.8011127
  48.4364340  71.1433632  63.4793791  48.6633326  71.7373645  63.9382914
  50.3324524  83.6827094  51.6897877  50.4063532  83.5202266  52.5439727
  51.1494030  83.8717283  51.4458359  50.4640882  83.6863836  51.7795903
  46.3106304  70.0953898  49.6787761  45.4428730  70.1676497  49.7445370
  46.5981509  70.8975977  49.8675736  46.2246052  70.2248045  49.7162527
  55.4339193  70.2431757  58.0099083  56.1792785  70.0541567  57.5962508
  55.0176498  70.7689995  57.4512939  55.4824167  70.2933902  57.8663656
  62.8101464  77.6140986  52.9604588  63.3609385  76.9809055  53.2001680
  62.7945579  78.1456378  53.6520092  62.8886660  77.5989934  53.0983446
  49.4623855  81.4479583  57.5064481  48.9635548  82.1595350  57.5849369
  50.2724079  81.7680249  57.4682643  49.5079961  81.6006431  57.5121050
  45.7251972  80.7102536  51.7527202  45.4365221  80.0840007  52.2872929
  46.5935320  80.6522823  51.8191882  45.8112224  80.6090080  51.8418157
  56.5129870  75.8537319  52.0709184  56.1694636  75.1327654  52.4216433
  56.6122913  75.6451170  51.2287542  56.4771913  75.7161522  51.9980864
  45.9284246  82.3497787  47.6769567  46.6830214  82.7310826  47.8905030
  45.3354858  82.8008930  48.1316264  45.9520959  82.4726614  47.7752445
  48.3890913  74.3060627  62.8026779  47.5790688  74.6118407  62.6916622
  48.8665599  75.0266210  62.9179363  48.3394392  74.4575228  62.8033850
  47.2482472  83.5206348  53.0509682  46.7263226  83.6606640  53.7361547
  47.6356493  82.7617012  53.2411800  47.2286173  83.4291872  53.1810759
  48.6748798  80.5510367  48.4491173  48.4791581  81.1585102  47.8551476
  48.8983144  79.8578311  47.9682847  48.6783439  80.5387893  48.2907254
  47.0727328  77.4365105  48.5672042  47.7949980  77.6006263  48.1075848
  46.5935321  78.1574770  48.4611382  47.1091059  77.5663335  48.4837656
  55.0320836  73.7728904  53.9468727  54.1931936  73.7990183  53.7106990
  55.1025203  74.4199639  54.5274073  54.9189229  73.8725030  53.9977844
  44.7234945  79.8423178  57.6726182  45.2356042  80.1207431  57.0234941
  44.4371287  80.5812472  58.0388995  44.7569808  79.9925531  57.6316060
  53.4790114  70.6714281  48.6796343  54.1816467  70.4722029  48.2016301
  53.2134303  69.8990223  48.9865186  53.5436746  70.5277247  48.6541784
  58.9078359  78.9796891  51.2329968  58.8212334  79.1352317  52.0864747
  58.4528839  79.6234966  50.8589374  58.8281616  79.0972646  51.3037075
  41.8101851  74.3493369  47.9689918  41.9117987  75.1519531  48.2970894
  42.6057738  74.1480705  47.6712999  41.9429757  74.4379268  47.9725273
  48.2418670  71.9349566  57.7327223  48.0501867  71.9504701  58.5826647
  49.0917266  72.1313240  57.7093878  48.3394392  71.9663917  57.8550518
  42.6265583  74.4640548  55.7111040  42.4851075  73.6124488  55.8355548
  42.9106146  74.5069208  54.8873246  42.6473429  74.3440298  55.6078664
  52.7804175  76.3007638  49.8555528  52.5338890  76.2203389  50.6892317
  53.1089298  75.5161106  49.6618055  52.7925419  76.1733903  49.9503051
  48.7401203  79.0364356  59.2678511  48.8844578  79.6165565  58.6321621
  49.0876851  79.4140653  59.9728366  48.8128664  79.1785060  59.2777506
  50.9121120  78.2354525  57.0503643  50.1644434  78.4285539  56.6451921
  51.0662645  77.4099744  56.8127764  50.8243548  78.1419636  56.9549048
  51.1522897  72.1305075  57.9399046  51.6095511  72.8629050  58.0671839
  51.2279226  71.7071541  58.6986302  51.2313867  72.1762314  58.0700123
  43.3955888  72.3770895  59.0288490  42.8598078  71.7651253  59.3449257
  43.4573653  72.9519031  59.6822157  43.3251521  72.3717823  59.1723917
  55.6250223  65.3094951  51.8092889  55.7433791  65.7671414  51.0760192
  55.4512399  64.5040212  51.5229107  55.6169394  65.2588723  51.6593823
  49.0305275  74.1207179  54.7840870  48.2401350  73.9398640  55.1058206
  49.4265898  73.3434132  54.7671165  48.9722151  73.9794640  54.8293419
  53.5171166  82.9494954  40.2247584  54.2844151  83.0095079  39.8153436
  53.0702475  82.3775395  39.7403903  53.5644593  82.8731529  40.0925294
  54.4148961  81.7549610  52.5100316  53.7393963  81.5234842  53.0113703
  54.4241337  81.1470792  51.8842421  54.3167466  81.6308535  52.4916469
  51.5443105  76.5967439  59.2664369  51.4802247  77.4577395  59.1384506
  51.6840293  76.2799432  58.4659921  51.5558575  76.6767605  59.1292582
  50.2262199  79.2899578  53.4080572  49.8024448  79.4904077  52.6719591
  50.0507054  78.4428426  53.5204872  50.1373080  79.1948359  53.3154262
  45.5144644  79.7851629  48.8408545  45.6709263  79.7198432  49.6964537
  45.8545237  80.5600182  48.6287224  45.5877879  79.8900827  48.9363139
  52.0523789  79.1609513  47.7101908  52.5939334  78.6579894  48.1740529
  52.3670348  79.1074708  46.8991393  52.1788186  79.0788934  47.6585720
  50.2210238  84.5526864  44.9941936  50.2903059  83.6941403  45.1334936
  50.9998694  84.7698745  44.6660961  50.3463089  84.4579728  44.9659093
  53.2013058  74.0545817  57.7624208  53.4155028  73.4156732  57.2087562
  52.5846957  74.4991641  57.3332070  53.1418387  74.0255961  57.6174640
  42.0878906  76.9686580  49.1569312  42.4677870  77.3871125  48.4929579
  41.5134270  77.5500035  49.4638155  42.0590231  77.1164439  49.1046053
  55.3652146  75.6634883  58.7007516  54.5528828  75.3560773  58.7820688
  55.8242081  75.1833883  59.2650228  55.3132531  75.5471375  58.7962110
  54.7757401  83.5414555  49.1484460  54.4172056  83.7129197  49.9248492
  54.2896112  84.0027760  48.5912458  54.6516098  83.6353526  49.1809729
  52.5927787  67.1645753  52.7511551  51.7221345  67.1384474  52.7044861
  52.8468128  66.9922945  51.9337397  52.5021347  67.1355897  52.6231688
  49.5645766  79.2213720  41.6884694  49.8538291  79.9978602  41.9628269
  49.6517565  78.7102451  42.3899194  49.6200022  79.2605638  41.8327192
  49.6176927  69.1751981  54.2085022  49.1015416  68.4832173  54.3336601
  49.0570856  69.8422759  54.1547620  49.4583441  69.1715239  54.2191088
  51.6869161  69.7144942  56.0377874  51.3000914  69.7393973  56.8191404
  51.2002098  69.1486620  55.5852391  51.5581670  69.6340692  56.0865778
  57.6619140  76.2807596  54.6617576  57.2346748  76.1933945  53.9065676
  57.0245193  76.3885372  55.2472420  57.5048748  76.2840256  54.6363018
  51.3526302  66.6011927  58.3288134  51.9819420  67.1372227  58.0509204
  51.5212165  66.5089286  59.1801700  51.4704097  66.6673289  58.4136662
  51.1540217  71.3883122  60.6014546  51.9813647  71.1168271  60.6573160
  51.1748063  72.1843963  60.9578364  51.2793067  71.4662876  60.6629729
  45.7309707  78.5346985  53.7884806  44.8897714  78.4350859  53.9963700
  45.9399715  79.3042465  54.1399127  45.6374400  78.6339028  53.8712121
  43.2085274  76.1566521  51.6169557  42.8141972  76.2309533  50.8419667
  42.6525391  76.5424468  52.1677919  43.0688087  76.2248296  51.5837217
  54.8450221  69.1347815  51.2973436  55.0499814  69.0670123  52.1430433
  54.5176645  69.9406637  51.2294613  54.8265469  69.2433756  51.4133091
  49.5426372  76.4628384  53.0382404  49.2389510  75.9084372  53.6392812
  48.8405793  76.6420594  52.5510438  49.3942582  76.4073166  53.0552109
  48.5992469  73.7728904  47.6027106  48.8752203  73.0547816  47.1904673
  49.1991138  74.3713823  47.3948212  48.7285734  73.7549274  47.5107867
  58.0983909  69.6879580  50.7776201  57.4858222  70.1749982  51.1629933
  58.1948084  69.0123071  51.3213853  58.0221806  69.6597888  50.9155060
  52.1002990  71.4442421  45.8773701  52.5546736  71.6152981  46.6021545
  52.5743035  70.8310532  45.4771476  52.2371310  71.3793306  45.9247462
  45.6218515  80.9290747  55.2076439  45.0306448  81.5700245  55.1779454
  46.3839539  81.3528364  55.1807739  45.6466776  81.0866585  55.1991586
  46.0179138  72.0892745  55.8744457  46.4780619  72.1631674  56.6119581
  46.0635245  72.8873999  55.5244278  46.0929693  72.2186892  55.9317213
  47.6662488  72.7559439  60.4416484  47.2748053  72.1092787  60.8772262
  47.8348350  73.3470875  61.0610739  47.6333398  72.7473707  60.5979190
  49.4416010  78.1484955  46.9818708  50.1858055  78.5359232  47.2201658
  49.5876706  77.3042381  47.1459196  49.5726595  78.0815428  47.0412678
  51.3595585  69.9435214  52.0150569  50.5131630  70.1158022  51.8891919
  51.3566718  69.1384558  52.3516398  51.2342735  69.8496243  52.0461696
  52.4293886  73.7210429  52.8812627  51.9553840  73.1952191  53.3917938
  52.8012021  73.1739901  52.3127489  52.4143774  73.5626425  52.8727774
  42.8066916  75.7181935  58.2496173  43.6692529  75.6177644  58.1633503
  42.4758699  75.1376645  57.6881745  42.8852112  75.6173562  58.1541579
  58.6930616  78.7812804  54.2919408  58.4528839  77.9419219  54.2961834
  59.1722623  78.8612971  55.0160181  58.7282800  78.6694204  54.3994210
  54.3577385  74.6146983  45.9438381  53.8300404  74.6975727  45.2544090
  54.8173093  75.3564855  45.9403026  54.3479236  74.7367646  45.8413076
  60.6935803  75.5614261  52.2448667  60.4545573  75.5210096  51.4069452
  60.8569704  76.4085413  52.3714388  60.6826107  75.6806346  52.1402149
  46.1668702  74.5424384  54.9106591  45.5421772  74.5542776  54.3032544
  45.8314297  75.0184559  55.5597831  46.0254193  74.6142901  54.9163160
  46.3510450  72.8849503  40.9679276  46.0023255  73.5369228  41.4310826
  45.8706896  72.8706616  40.2403147  46.2280694  72.9792556  40.9290368
  53.9114468  83.1850547  45.0748038  54.6348667  83.6508660  44.9312611
  53.4715059  83.2524156  44.3245635  53.9530160  83.2634383  44.9432820
  53.0800623  80.0448089  56.3248727  52.4657616  79.5006139  56.6197362
  53.5967908  79.5312325  55.8454543  53.0656285  79.8884498  56.2972956
  52.3196920  81.1152359  54.0593026  51.8924528  80.4902078  53.6258461
  52.3121864  80.8327281  54.8852033  52.2556061  80.9805140  54.1172853
  45.4359447  76.1517532  57.1281460  45.5952934  75.3960856  57.5333182
  45.2552341  76.7008472  57.7822197  45.4324806  76.1211346  57.2844166
  53.3779750  68.3178768  57.6832249  52.8820311  68.5142442  56.9923816
  54.1348812  68.7171436  57.5121051  53.4166575  68.4056501  57.5552386
  50.6482630  71.9921114  54.2735560  50.6725117  71.4581226  53.5848340
  50.8994103  71.4838422  54.9361150  50.6892548  71.8382017  54.2700204
  38.1590219  79.2752609  53.7078704  38.0533668  79.2299453  52.8430788
  37.4090439  79.6206389  53.9892989  38.0325822  79.3193517  53.6216034
  46.9283952  70.7191932  53.6541304  46.9682323  71.2201138  54.3676011
  46.1033616  70.8102325  53.3847227  46.8123478  70.8073748  53.7191842
  48.3498315  77.2352442  55.9515203  47.5190245  77.4026260  55.7450451
  48.2949832  76.8588392  56.7364088  48.2187730  77.2042173  56.0363731
  46.1582098  70.7261335  61.5871614  46.7834802  70.1823467  61.8601046
  45.7032578  70.2456252  61.0179404  46.1830359  70.5750816  61.5433208
  46.7234359  75.5108033  46.4805321  46.8637320  76.0080497  47.1833962
  47.2216892  74.8094328  46.6219534  46.8175440  75.4810012  46.6056900
  46.7534581  76.3775144  43.8097898  47.3879661  76.9735569  43.7447359
  46.8360192  76.0778602  44.6243768  46.8591132  76.4216052  43.9200984
  48.3313564  72.3089120  43.7843340  48.6529405  71.8292202  43.1302602
  48.5940508  73.1188766  43.5934151  48.4179590  72.3579017  43.6598832
  53.7272719  71.6961314  56.1466819  54.1527791  71.2433840  55.5350345
  53.1129712  71.1421384  56.4231606  53.7001365  71.5475290  56.0971844
  43.2587569  78.5742985  47.0787444  43.7679799  79.1707492  47.4598749
  43.7321842  78.3068959  46.3963863  43.4030945  78.6228800  47.0341966
  52.1666942  68.1676413  49.5557396  51.5235260  68.0174060  50.1242534
  51.8266349  67.9218759  48.7906500  52.0212019  68.1088536  49.5260411
  56.7566289  76.1235840  48.9787404  56.0857478  76.6665542  48.8500470
  57.4506039  76.5930695  48.7369099  56.7595156  76.2734111  48.9242932
  56.9194416  72.5791724  51.8877778  57.2722026  72.1521447  52.5623576
  56.0609218  72.4942567  52.0178854  56.8443861  72.5036464  52.0072788
  45.6178101  75.2099243  49.9460624  44.8990090  75.6263376  50.2133488
  45.9890463  75.7753482  49.3952262  45.5670033  75.3548525  49.9043431
  51.3924675  74.2497243  45.2834004  50.7989515  74.5714240  44.7318571
  51.4299953  73.4038339  45.0755110  51.3099065  74.1721572  45.1716775
  58.3518476  67.7010136  52.8162090  57.8449341  66.9939275  52.7483267
  59.1485910  67.3703324  52.9463167  58.3945715  67.5483287  52.8261085
  54.2682492  74.2076748  48.7135754  54.0396185  74.2309449  47.8714112
  54.5280568  73.3834215  48.8330764  54.2728680  74.0892828  48.6060951
  48.5501720  76.0611221  58.3160854  48.0380623  75.4532404  58.6745885
  48.3781217  76.7767813  58.7834830  48.4491357  76.0774520  58.4377078
  43.3967435  74.5048796  60.9663216  43.2270025  75.1650171  60.4211422
  42.9533385  74.7155357  61.6875705  43.3066769  74.6334778  60.9924845
  47.3227254  72.7453294  50.0089949  47.7984621  73.1070374  49.3740131
  46.8215854  73.4009762  50.2890092  47.3192613  72.8947483  49.9566690
  52.4270791  73.9835466  60.7563109  52.9842221  73.7549275  60.1241575
  52.1031856  74.7441131  60.4798322  52.4617201  74.0619302  60.6219607
  40.2969500  77.4095662  56.2251706  39.7496219  76.7396307  56.3432574
  41.0861878  77.0425510  56.2895173  40.3321683  77.2560648  56.2520406
  49.3653908  74.8894494  43.3763333  49.7452872  74.9074123  42.5914448
  48.6246504  75.3348483  43.2554181  49.3122745  74.9576269  43.2426902
  56.9939198  73.1976685  48.9638912  56.9933425  73.0425342  49.8223188
  56.7895378  74.0439672  48.9080298  56.9638976  73.2997306  49.0826851
  39.0556469  76.6216470  53.3797729  38.8778230  76.1693079  54.1052644
  38.7675491  77.4242631  53.5636206  38.9869422  76.6739027  53.5141231
  54.7180050  77.8774187  52.6175119  55.2133716  77.1597182  52.5779139
  53.9079826  77.5744985  52.5029606  54.6723944  77.7271833  52.5948845
  50.1638662  81.7272000  44.7672123  49.3549984  81.4038674  44.7205433
  50.6713571  81.0205222  44.7000372  50.1188329  81.5753317  44.7502418
  40.7928939  79.1544193  50.4919488  39.9274458  79.1429884  50.3802259
  40.8927755  78.9674416  51.3390627  40.6803106  79.1250255  50.6008432
  56.7831869  80.6277874  55.3052248  57.2086941  80.1052296  54.7522673
  56.4188789  81.2258712  54.7840871  56.7918472  80.6388102  55.1461257
  53.3710469  84.3412139  51.6353405  53.8421647  85.0552401  51.8043390
  53.7070647  83.7410889  52.1713275  53.4905584  84.3583603  51.7385781
  50.2879963  69.1139609  58.5911500  50.4207869  68.3170603  58.9192475
  50.6725116  69.6406012  59.1709776  50.3636292  69.0739526  58.7255003
  53.3612319  66.0369935  55.1892593  52.5558282  65.9267665  55.5060432
  53.2319054  66.1382391  54.3322459  53.2232452  66.0353606  55.1100634
  56.8178279  72.2015427  55.7832290  56.2341268  72.7024634  55.3709857
  57.1382573  71.6944984  55.1496613  56.7791455  72.2007262  55.6290797
  49.3573078  71.1156022  46.0590965  50.1788773  71.2854335  45.8172660
  48.8942729  71.2703283  45.3357262  49.4104241  71.1637755  45.9162609
  47.9468410  69.1098784  56.8389394  48.4912823  68.7689911  57.4293735
  48.0005346  69.9684246  56.9810678  48.0357530  69.1854044  56.9471267
  25.8476881   7.6582897  34.8273362  25.8170886   8.5127533  34.9991632
  26.4458230   7.3578189  35.3859506  25.9314039   7.7399393  34.9348164
  19.0476566   6.7458548  39.5826293  18.1914462   6.9067046  39.6335409
  19.0944220   5.8750612  39.6031354  18.9275677   6.6409350  39.5932359
  13.4317706  16.2821266  35.3463524  12.6800605  15.9036804  35.1179569
  13.8803717  16.3139699  34.5982334  13.3867373  16.2306873  35.2021026
  22.3570283  13.0145073  49.1886749  23.0637050  12.5197104  49.3173683
  22.5458218  13.4554155  48.4589407  22.4898188  13.0063424  49.0995794
  18.8842666  16.7046635  30.7749071  18.5494034  17.3823557  30.3393293
  19.3969536  16.3151946  30.1865943  18.9108247  16.7471213  30.6235863
  18.4246957  18.6560904  36.7160183  18.8086336  19.2247802  36.1764958
  18.3606098  17.9310414  36.2365999  18.4720384  18.6336367  36.5654045
  21.8928387   8.8050592  42.2257944  22.4384347   9.4835678  42.2851914
  21.8345263   8.6638053  41.3659526  21.9644301   8.8842593  42.1070005
  15.0102462  16.2939658  37.6126297  15.1112825  15.4840012  37.9223424
  14.4144207  16.1996604  36.9825975  14.9375001  16.1604686  37.5652535
  23.6693456  10.2335199  33.0991672  23.5532982  10.9842885  33.5283810
  24.4649342   9.9759152  33.3487759  23.7698045  10.3070046  33.1995764
  14.8503202  21.2117247  39.0141153  15.4940657  21.6530411  39.4037311
  15.1759457  20.4070673  38.9271411  14.9935030  21.1582442  39.0586630
   8.2067506  12.3159944  37.2378630   7.9717691  11.4827597  37.1310899
   8.3453147  12.5964610  36.4239831   8.1923169  12.2343448  37.1020985
  15.5523781  14.2229222  34.3861014  15.8739622  14.7634429  33.7822322
  16.1995878  13.6525993  34.5183304  15.6949836  14.2188397  34.3168050
  17.6025489   6.2245217  34.4695401  18.3005654   6.4033344  34.9616864
  17.9177822   5.7015556  33.8465790  17.7520826   6.1738989  34.4497411
  10.2326727   8.0297957  42.3806507  10.1085424   8.6160402  43.0156326
  10.8845011   7.5358152  42.6818782  10.3100376   8.0436761  42.5192436
  17.7913425  12.6115662  34.4575193  18.2307060  12.0032762  34.9029965
  17.6418088  12.2323035  33.6860658  17.8334890  12.4654133  34.4094360
  15.2585068  11.2059674  41.6594018  15.9034070  10.7132117  41.3404967
  15.4986845  11.3484460  42.4860096  15.3895653  11.1537116  41.7343551
  17.7971159  14.0514579  41.3100911  18.0794402  13.2565985  41.0887666
  18.5257319  14.5295167  41.3305972  17.9460723  14.0049176  41.2803926
  21.3922761  10.9642843  31.4105962  21.3074056  11.8203810  31.5555531
  21.8807144  10.6887167  32.0788121  21.4511658  11.0500164  31.5308043
  22.9828761  -2.4176864  36.7966286  22.6682202  -1.7273385  37.2286709
  22.4655702  -2.4732081  36.0951787  22.8593231  -2.3241975  36.7563236
  22.3241194   7.5827637  32.9103697  21.7952666   7.7987271  33.5701003
  22.8466214   8.2763776  32.8304666  22.3229647   7.7170774  32.9959296
  14.2140802  11.4790854  31.7111165  13.6298017  11.9840885  32.1177029
  13.8110897  11.2533241  30.9707757  14.0680106  11.5199102  31.6616190
   9.7684831  17.1945615  38.5134836   9.2852409  17.9196105  38.4894420
  10.5808149  17.4921745  38.6244994   9.8175579  17.3447969  38.5262116
  15.8398985  15.9877796  41.1184651  15.3225927  15.6285211  40.5145959
  16.5373376  15.4639970  41.1290717  15.8664566  15.8575484  41.0314910
  19.4962577  16.4372610  47.0800824  19.5845923  16.2498750  47.9279034
  19.9252289  15.7910039  46.6805671  19.5724679  16.3135618  47.1472575
  17.0633037  15.7203770  46.0618486  16.5003871  15.3076380  46.5858147
  17.8254060  15.6456676  46.4811629  17.0927485  15.6481170  46.2011487
  18.6718017   7.7256506  30.1880086  18.9114020   7.9334490  29.3755429
  18.9933858   6.9214015  30.2969030  18.7555175   7.6370607  30.0840639
  12.6229028  17.7101791  38.6655116  13.3249607  17.1953780  38.7227873
  12.5426511  18.0375942  39.4701991  12.7152789  17.6816017  38.7927909
  27.2743206   5.8044342  42.0787163  26.4371627   5.8746529  42.3134757
  27.2431437   5.8068837  41.2061465  27.1461488   5.8154569  41.9846711
  13.6707935   7.9477378  47.7935531  13.8428438   7.8383273  48.6420813
  14.2077292   8.5931783  47.5566724  13.7752939   8.0269380  47.8840628
  11.9479804  13.9008143  38.1740724  12.7868703  14.1331076  38.2214486
  11.9791573  13.0312454  38.1047760  12.0761521  13.8065089  38.1705369
  12.5732507  14.3209018  42.4754030  13.1130732  14.1780149  43.1457402
  11.8902453  14.7205769  42.8438056  12.5524660  14.3588689  42.6288452
  21.9973391  10.0000019  37.6699054  22.7530906  10.4331533  37.7087963
  22.1035716   9.3504789  38.2433690  22.1243562   9.9677503  37.7597080
  19.6082636  15.8681629  49.7444608  20.3923053  15.9812477  50.1100350
  19.4079231  15.0422766  49.9403293  19.6948662  15.7628348  49.8278994
   7.9769652  10.5409309  42.6288451   7.7108067   9.7248426  42.7879442
   7.9908216  10.5862465  41.7583967   7.9394374  10.4266214  42.5241933
  24.9551045   0.8687124  40.6630885  25.5976954   0.9385229  41.2492800
  25.2074066   0.2016347  40.1610427  25.0873178   0.7813473  40.6758164
  11.8827399   5.3394393  29.2440210  11.1685576   5.0532573  29.6562642
  12.3671367   5.6791019  29.8846597  11.8486762   5.3476043  29.3995844
  19.7653030  17.7791731  43.3911063  18.9668275  17.5391231  43.6484932
  20.2139041  17.8306124  44.1378111  19.7127641  17.7514122  43.5395987
  28.1697909  10.5454216  37.3121094  28.8314343   9.9844884  37.2117003
  27.5289321  10.0506247  37.6373786  28.1726776  10.3890625  37.3453435
  19.0574717  13.8424347  29.6202018  19.4725865  13.5109371  28.9286513
  18.2266646  13.6093250  29.4922154  18.9962725  13.7595603  29.4992865
   8.3863065  11.3268088  39.9100196   8.2038639  11.3014974  39.0572488
   9.1212734  11.7967026  39.9489104   8.4677129  11.3929451  39.7898114
  24.4562739  11.5619598  37.0533083  24.6918329  11.7064797  36.2259934
  24.6052303  12.3262006  37.4464597  24.5128543  11.6958653  36.9896687
  11.4508817   8.0453091  46.4182304  12.1748789   8.0306122  46.9047199
  11.5524953   8.7548447  45.9204273  11.5727026   8.1477795  46.4161091
  26.2853196  10.4021264  34.8902687  26.6161413  10.9348904  34.2842782
  26.8586284  10.4560152  35.5464638  26.4186875  10.4890833  34.8980469
  18.8253766  11.5252176  51.2831251  18.0326747  11.8395688  51.4683871
  18.9402693  11.7403644  50.4452036  18.7249177  11.6036013  51.1869586
  21.4985085   8.2486167  35.5726267  21.5931940   8.9875461  36.0265893
  20.8743929   7.8203643  36.0060832  21.4194115   8.2947488  35.7034415
  19.7537559  11.4272380  46.2216548  20.3276421  10.7899624  46.3765112
  19.6752363  11.4276462  45.3526206  19.8270794  11.3337491  46.1162959
   8.3533976   8.2061589  40.0599262   8.9307478   8.0698040  40.6991508
   7.6548037   7.7497373  40.3144847   8.3354997   8.1183855  40.1921552
  15.1101278   9.8595645  38.2737745  14.8520522   9.0267380  38.2469045
  15.1649761  10.0853258  37.4330246  15.0801056   9.7693416  38.1457882
  20.1902328   1.9624095  38.3741838  19.4858655   1.4733281  38.5325757
  20.2387302   1.9746570  37.5030283  20.0932380   1.8913743  38.2681178
  14.0835990   7.4133407  38.7602640  13.5085581   7.5725576  39.3966601
  13.7071666   6.7768816  38.2971091  13.9438802   7.3431220  38.7857199
  17.7509279   5.8856757  43.6195019  17.3623711   5.4610974  42.9647210
  17.0863977   6.1338906  44.1272045  17.5956206   5.8595478  43.5982887
  27.3932548   5.6431761  36.3942849  27.1369113   4.8311703  36.2040731
  28.2361862   5.6509328  36.1673036  27.4798573   5.5243759  36.3327666
  21.5735640  -0.4168615  41.1319003  21.9546152  -1.0990444  41.5186877
  20.7698924  -0.7059013  40.9494667  21.5112102  -0.5601566  41.1623059
  18.8548217  10.1155361  31.8171826  19.6688856  10.4070254  31.7054597
  18.7907358   9.4615223  31.2430119  18.9650956  10.0620556  31.7160663
  25.0757707  12.7981357  46.2301401  24.8396344  11.9669422  46.1113462
  25.7200936  12.7466964  46.8156245  25.1352378  12.6679045  46.2987295
  14.7256125  13.5876879  36.9444138  15.3630072  13.3488626  37.4895931
  15.1511197  13.7914037  36.2097298  14.8832291  13.5827889  36.9161295
   9.4168768  15.8265215  40.8278441   9.4572913  16.0980066  39.9998221
   9.9763292  16.3507123  41.2436229   9.5052113  15.9440970  40.7670330
  15.3658940   8.8079168  31.2819027  15.7504093   8.5886875  32.0335572
  15.1170560   9.6342114  31.4120103  15.3861013   8.8977315  31.4120104
  26.0994128  12.5825806  42.2929696  25.7939945  13.3153863  42.6543011
  25.3800343  12.1763736  42.0122482  25.9481470  12.6307539  42.3042833
  17.1077597  14.0649301  38.6237924  17.1816605  13.9024473  39.4779774
  17.9247103  14.2539491  38.3798406  17.2393956  14.0686044  38.7135950
  31.7995920   9.2218807  41.6198040  31.7320420   9.2414766  40.7500627
  31.7851582  10.0649134  41.8453711  31.7874676   9.3492541  41.5250517
  10.8683354  14.4107164  35.6532367  10.0421471  14.6568901  35.5266646
  10.9295345  14.3319245  36.5194426  10.7557521  14.4352113  35.7621312
  22.2092266   0.6253964  44.9439129  22.9545858   0.4363775  44.5302555
  21.7929571   1.1512202  44.3852986  22.2577240   0.6756110  44.8003703
  15.6482183  17.0284044  33.3551397  15.9380481  16.6373026  32.6310624
  16.3785664  17.2100749  33.7956673  15.7989067  16.9977858  33.3134204
  29.5854537   7.9963193  39.8944634  30.1362459   7.3631262  40.1341726
  29.5698652   8.5278586  40.5860139  29.6639733   7.9812141  40.0323493
  16.2376928  11.8301790  44.4404528  15.7388622  12.5417558  44.5189416
  17.0477152  12.1502457  44.4022690  16.2833035  11.9828639  44.4461096
  13.5888098  19.0051427  36.4211547  13.3688394  18.7148781  37.2138214
  13.3682620  18.3466382  35.8929459  13.5235693  18.8651135  36.4600456
  12.5005046  11.0924743  38.6867249  12.2118294  10.4662214  39.2212976
  13.3688394  11.0345031  38.7531929  12.5865297  10.9912287  38.7758203
  23.2882943   6.2359527  39.0049231  22.9447709   5.5149862  39.3556480
  23.3875986   6.0273378  38.1627589  23.2524986   6.0983730  38.9320911
  15.7556054  20.3780817  35.2042239  16.4080112  19.8457259  35.4333266
  15.0581663  20.0249469  35.5910114  15.7486772  20.2470340  35.2954407
  12.7037319  12.7319994  34.6109614  13.4583287  13.1133033  34.8245076
  12.1107932  13.1831138  35.0656310  12.7274033  12.8548822  34.7092492
  23.7495972  12.6985231  34.5473219  24.3154005  13.3578441  34.4631762
  23.1023876  13.0434929  35.0189621  23.7374729  12.8467172  34.6045975
  15.1643986   4.6882835  49.7366826  14.3543762   4.9940614  49.6256668
  15.6418673   5.4088417  49.8519410  15.1147465   4.8397436  49.7373897
  14.0235546  13.9028556  39.9849729  13.5016299  14.0428847  40.6701594
  14.4109566  13.1439220  40.1751847  14.0039246  13.8114079  40.1150806
  20.2202551  15.6424015  33.9710298  19.9789226  14.9091876  33.5637363
  20.4003883  16.1910872  33.3176631  20.2110174  15.6146406  33.8140521
  15.4501871  10.9332575  35.3831220  15.2544654  11.5407309  34.7891523
  15.6736217  10.2400519  34.9022894  15.4536512  10.9210100  35.2247301
  13.8480401   7.8187313  35.5012089  14.5703053   7.9828471  35.0415895
  13.3688394   8.5396977  35.3951428  13.8844132   7.9485542  35.4177703
  21.8073909   4.1551111  40.8808774  20.9685009   4.1812390  40.6447037
  21.8778276   4.8021847  41.4614120  21.6942302   4.2547237  40.9317890
  11.4988018  10.2245385  44.6066228  12.0109115  10.5029638  43.9574988
  11.2124360  10.9634679  44.9729041  11.5322881  10.3747739  44.5656107
  20.2543187   1.0536488  35.6136389  20.9569540   0.8544237  35.1356348
  19.9887376   0.2812431  35.9205233  20.3189819   0.9099454  35.5881831
  25.6831433   9.3619098  38.1670015  25.5965407   9.5174524  39.0204794
  25.2281913  10.0057174  37.7929420  25.6034689   9.4794853  38.2377122
  15.0171743   2.3171774  44.6667270  14.8254940   2.3326908  45.5166694
  15.8670339   2.5135448  44.6433925  15.1147465   2.3486125  44.7890565
  19.5557249   6.6829845  36.7895575  19.3091963   6.6025596  37.6232364
  19.8842372   5.8983313  36.5958102  19.5678492   6.5556111  36.8843098
  23.4505297  13.3913205  40.5782356  23.3119657  14.0894250  41.0831098
  22.6705295  13.2361861  40.2218538  23.3148524  13.4713371  40.6008630
  21.7883383   9.6909580  46.8304738  21.7831421   8.8189396  46.8347164
  22.4944376   9.8897749  46.3574193  21.8928387   9.5913454  46.7611773
  15.5154276   9.4186564  46.2018558  15.6597652   9.9987772  45.5661668
  15.8629924   9.7962861  46.9068412  15.5881737   9.5607268  46.2117553
  17.6874193   8.6176732  43.9843689  16.9397507   8.8107747  43.5791968
  17.8415719   7.7921952  43.7467811  17.5996621   8.5241844  43.8889095
  14.5882031  17.6089336  43.0679585  14.7371595  17.0492251  42.4152989
  15.3682033  17.6881337  43.4512104  14.7256125  17.5374901  43.0276534
  17.1135332  17.7803978  44.3464076  17.0379003  17.1112789  44.9014864
  17.0425191  18.4821767  44.8604742  17.0915938  17.7848886  44.5040924
  17.9275970   2.5127283  44.8739093  18.3848584   3.2451257  45.0011885
  18.0032299   2.0893748  45.6326349  18.0066940   2.5584521  45.0040170
  17.7705578  16.3004977  35.1787681  18.5355470  16.0314621  34.8570346
  17.6683668  15.8154988  35.8957744  17.8687074  16.1894542  35.2367509
  15.8058348   4.5029387  41.7180917  15.0154423   4.3220847  42.0398253
  16.2018971   3.7256339  41.7011212  15.7475224   4.3616848  41.7633466
  20.2924239  13.3317161  27.1587631  21.0597224  13.3917286  26.7493483
  19.8455548  12.7597603  26.6743949  20.3397666  13.2553737  27.0265341
  21.1902035  12.1371817  39.4440363  20.5147036  11.9057049  39.9453750
  21.1994411  11.5293000  38.8182468  21.0920539  12.0130742  39.4256515
  18.3196179   6.9789646  46.2004416  18.2555320   7.8399602  46.0724553
  18.4593366   6.6621639  45.3999967  18.3311649   7.0589813  46.0632629
  23.1918769  14.9936949  31.6750541  23.2738607  15.8003936  31.3511992
  23.6768511  15.0132909  32.3991315  23.2755927  15.1157612  31.7337440
  17.0015272   9.6721785  40.3420619  16.5777522   9.8726284  39.6059637
  16.8260128   8.8250633  40.4544919  16.9126153   9.5770567  40.2494309
  16.5026966  21.1872298  42.8042076  16.9922896  20.4883087  42.6217741
  15.9311198  20.8896168  43.3918134  16.4911496  21.0398522  42.8643117
  12.2897717  10.1673837  35.7748592  12.4462337  10.1020640  36.6304584
  12.6298310  10.9422389  35.5627271  12.3630952  10.2723035  35.8703186
  18.8276862   9.5431720  34.6441955  19.3692407   9.0402101  35.1080575
  19.1423421   9.4896915  33.8331440  18.9541259   9.4611141  34.5925767
  22.6993969  13.7534368  51.7568867  23.5128835  13.4819517  51.9173999
  22.5388936  13.4541908  50.9529063  22.7963918  13.6689294  51.6614273
  16.9963312  14.9349072  31.9281983  17.0656132  14.0763610  32.0674983
  17.7751767  15.1520953  31.6001007  17.1216162  14.8401936  31.8999140
  19.9766131   4.4368025  44.6964255  20.1908101   3.7978939  44.1427609
  19.3600031   4.8813849  44.2672117  19.9171461   4.4078168  44.5514686
  21.3870799  17.3586773  36.1418476  20.9950591  17.0553488  35.4241342
  21.5423871  18.1955863  35.9523430  21.3524389  17.4370610  36.0074973
   8.8631979   7.3508787  36.0909359   9.2430944   7.7693332  35.4269626
   8.2887344   7.9322243  36.3978202   8.8343304   7.4986646  36.0386100
  22.1405219   6.0457090  45.6347562  21.3281901   5.7382980  45.7160735
  22.5995154   5.5656090  46.1990275  22.0885604   5.9293582  45.7302156
  21.5510474  13.9236762  36.0824507  21.1925129  14.0951405  36.8588539
  21.0649185  14.3849968  35.5252505  21.4269171  14.0175733  36.1149776
  16.3398839   9.6035927  28.6224741  16.6291364  10.3800810  28.8968315
  16.4270638   9.0924659  29.3239240  16.3953096   9.6427846  28.7667239
  19.2358727   7.4517161  50.4176265  19.7058358   8.0759278  50.8044139
  19.2820607   6.7834137  50.9769479  19.3126603   7.4451842  50.5576336
  22.7115213  14.8140658  47.0291708  23.3494934  14.3200854  46.6954164
  22.0689305  14.7418058  46.4443934  22.7109440  14.7299666  46.8934063
  24.4372213   6.6629804  41.5957623  24.0099822   6.5756152  40.8405723
  23.7998266   6.7707579  42.1812467  24.2801821   6.6662464  41.5703065
  17.9293291   1.7705329  47.5354592  18.7566720   1.4990478  47.5913207
  17.9501137   2.5666171  47.8918411  18.0546141   1.8485083  47.5969775
  22.7669470  15.5060466  43.6697064  23.5561848  15.1549531  43.7899146
  22.9413068  16.3196855  43.4073698  22.9089752  15.5746323  43.6484932
  12.5062780   8.9169192  40.7224853  11.6650787   8.8173066  40.9303747
  12.7152788   9.6864672  41.0739174  12.4127473   9.0161235  40.8052168
   9.9838347   6.5388729  38.5509604   9.5895045   6.6131741  37.7759713
   9.4278464   6.9246675  39.1017966   9.8441160   6.6070503  38.5177264
  21.6203294  -0.4829977  38.2313483  21.8252888  -0.5507669  39.0770480
  21.2929718   0.3228844  38.1634660  21.6018542  -0.3744037  38.3473138
  16.3179445   6.8450591  39.9722451  16.0142583   6.2906579  40.5732858
  15.6158866   7.0242801  39.4850485  16.1695655   6.7895373  39.9892156
  15.3745542   4.1551111  34.5367153  15.6505277   3.4370023  34.1244720
  15.9744212   4.7536031  34.3288259  15.5038807   4.1371482  34.4447914
  14.3797796  14.0600312  44.6794548  14.2718151  14.0702374  45.5456607
  14.5893578  14.8855092  44.4899502  14.3947907  14.1841387  44.7798640
  24.8736982   0.0701787  37.7116248  24.2611295   0.5572189  38.0969980
  24.9701157  -0.6054722  38.2553899  24.7974879   0.0420096  37.8495106
  18.8756063   1.8264628  32.8113748  19.3299809   1.9975189  33.5361592
  19.3496109   1.2132739  32.4111523  19.0124383   1.7615514  32.8587509
  12.3971588  11.3112954  42.1416486  11.8059522  11.9522452  42.1119501
  13.1592612  11.7350571  42.1147786  12.4219849  11.4688793  42.1331633
  14.4415561   3.1381647  47.3756531  14.0501126   2.4914994  47.8112309
  14.6101424   3.7293082  47.9950786  14.4086471   3.1295915  47.5319237
  22.1561105  16.7622266  39.5748510  21.9580793  17.2513080  38.8804722
  21.5348816  16.9663507  40.1532644  22.0348669  16.8638804  39.5571734
  16.2169083   8.5307163  33.9158755  16.9611128   8.9181439  34.1541705
  16.3629779   7.6864588  34.0799243  16.3479668   8.4637635  33.9752724
  19.2046959   4.1032636  39.8152674  18.7306913   3.5774398  40.3257985
  19.5765095   3.5562109  39.2467536  19.1896848   3.9448633  39.8067821
  25.4683689   9.1635012  41.2259455  25.2281912   8.3241427  41.2301881
  25.9475696   9.2435178  41.9500228  25.5035873   9.0516411  41.3334257
  21.1330458   4.9969191  32.8778428  20.6053477   5.0797935  32.1884137
  21.5926167   5.7387062  32.8743073  21.1232309   5.1189853  32.7753123
  27.4688876   5.9436469  39.1788714  27.2298646   5.9032303  38.3409498
  27.6322778   6.7907621  39.3054435  27.4579180   6.0628554  39.0742196
  24.0734906  10.3286418  45.1093759  24.7969105   9.8758945  44.9304779
  23.8084869  10.6091084  44.3266087  24.1416180  10.3037387  44.9672474
  12.9421775   4.9246592  41.8446638  12.3174845   4.9364984  41.2372591
  12.6067370   5.4006767  42.4937878  12.8007267   4.9965109  41.8503207
   9.6547450  12.9847052  43.2850402   9.1247375  12.2939491  43.3345377
   9.9272544  12.9757237  42.4563111   9.6172173  12.8814184  43.1697818
  20.6867541  13.5672754  32.0088085  21.4101740  14.0330867  31.8652658
  20.2468132  13.6346364  31.2585682  20.7283233  13.6456591  31.8772866
  19.8553696  10.4270296  43.2588774  19.2410689   9.8828347  43.5537409
  20.3720981   9.9134533  42.7794590  19.8409358  10.2706705  43.2313002
  19.0949993  11.4974566  40.9933073  18.6677601  10.8724285  40.5598508
  19.0874937  11.2149488  41.8192080  19.0309134  11.3627347  41.0512900
  12.2112520   6.5339739  44.0621507  12.3706007   5.7783064  44.4673228
  12.0305414   7.0830679  44.7162244  12.2077879   6.5033553  44.2184213
  20.1532823  -1.2999025  44.6172296  19.6573384  -1.1035351  43.9263863
  20.9101885  -0.9006357  44.4461098  20.1919648  -1.2121291  44.4892433
  17.4235703   2.3743321  41.2075607  17.4478190   1.8403433  40.5188387
  17.6747176   1.8660630  41.8701197  17.4645621   2.2204225  41.2040251
   4.9343293   9.6574816  40.6418751   4.8286742   9.6121660  39.7770835
   4.1843513  10.0028596  40.9233036   4.8078896   9.7015724  40.5556080
  15.8866638  10.6674879  48.6901645  15.0362268  10.8046593  48.8259290
  16.0494766   9.9338657  49.1349347  15.7850501  10.5788980  48.7757245
  15.1251388   7.6174649  42.8855250  14.2943318   7.7848467  42.6790498
  15.0702906   7.2410600  43.6704135  14.9940803   7.5864380  42.9703778
  13.4987432   5.8930241  33.4145368  13.6390393   6.3902705  34.1174009
  13.9969965   5.1916535  33.5559581  13.5928513   5.8632219  33.5396947
  13.5287655   6.7597352  30.7437944  14.1632734   7.3557777  30.6787406
  13.6113265   6.4600809  31.5583815  13.6344206   6.8038260  30.8541031
  26.5070220   9.2912829  43.6124309  27.0988061   9.9310080  43.6442507
  26.9429215   8.5935866  43.9016375  26.6588652   9.2831179  43.6605141
  15.1066637   2.6911327  30.7183386  15.4282479   2.2114409  30.0642649
  15.3693581   3.5010973  30.5274198  15.1932663   2.7401225  30.5938878
  18.3363610  13.7130201  44.2382203  17.8288701  14.2666048  44.6822833
  18.0390256  13.7738491  43.4200977  18.2168495  13.8036513  44.1830659
  20.5025792   2.0783521  43.0806866  20.9280864   1.6256047  42.4690392
  19.8882786   1.5243592  43.3571653  20.4754438   1.9297497  43.0311891
  10.0340643   8.9565192  34.0127490  10.5432872   9.5529700  34.3938796
  10.5074915   8.6891166  33.3303910  10.1784018   9.0051008  33.9682013
  20.9471391  17.6293459  32.1686146  20.2300700  17.4554321  31.7033383
  21.5978128  17.3946031  31.6361632  20.9373241  17.5689252  32.0215364
  23.5319362   6.5058048  35.9127451  22.8610552   7.0487750  35.7840517
  24.2259112   6.9752903  35.6709146  23.5348229   6.6556319  35.8582979
  17.5806096  18.6454760  41.1439209  17.3571750  17.8873589  41.5123236
  17.0915939  18.6752781  40.4219649  17.4749545  18.5376984  41.0915950
  23.6947489   2.9613931  38.8217824  24.0475099   2.5343654  39.4963623
  22.8362291   2.8764775  38.9518901  23.6196934   2.8858672  38.9412835
  12.3931174   5.5921451  36.8800671  11.6743163   6.0085583  37.1473534
  12.7643537   6.1575690  36.3292309  12.3423106   5.7370732  36.8383478
  21.6930755   6.2249300  42.7702667  21.6728682   6.0432595  43.6237445
  21.7409956   7.0961318  42.7462250  21.6965396   6.3265838  42.8925961
  19.6377085  12.8136492  48.6951143  19.5972940  12.1686169  48.1096299
  20.4500403  12.7573109  49.0076555  19.7520238  12.7095459  48.6548092
  16.2284552  18.8655218  38.5976294  15.8144951  18.2029348  38.2080136
  16.9131927  19.0133076  38.0771988  16.2682924  18.7895876  38.4632791
  19.5949847  18.0245303  39.3499911  19.1966130  18.1347573  38.5820731
  18.9801066  18.2327369  39.9326470  19.4448736  18.0718871  39.3231210
  18.1677749   4.6319451  32.2174050  17.5742588   4.9536447  31.6658617
  18.2053026   3.7860546  32.0095156  18.0852138   4.5543779  32.1056822
  25.1271549  -1.9167657  39.7502137  24.6202414  -2.6238517  39.6823314
  25.9238983  -2.2474468  39.8803213  25.1698789  -2.0694506  39.7601132
  21.0435565   4.5898955  35.6475801  20.8149258   4.6131657  34.8054159
  21.3033641   3.7656422  35.7670811  21.0481753   4.4715035  35.5400998
  15.3254794   6.4433428  45.2500901  14.8133697   5.8354611  45.6085932
  15.1534290   7.1590021  45.7174877  15.2244431   6.4596728  45.3717124
  14.0980328   3.1275502  36.9429996  14.5737694   3.4892581  36.3080177
  13.5968927   3.7831969  37.2230139  14.0945687   3.2769690  36.8906737
  19.2023864   4.3657673  47.6903156  19.7595294   4.1371482  47.0581622
  18.8784929   5.1263339  47.4138369  19.2370274   4.4441510  47.5559653
  16.9206981   7.4525326  48.6555163  17.6718308   7.7677003  48.9694718
  17.1129558   7.2504497  47.8289085  17.0598395   7.4692708  48.5798559
  16.1406981   5.2716701  30.3103380  16.5205946   5.2896331  29.5254495
  15.3999577   5.7170690  30.1894227  16.0875819   5.3398476  30.1766948
  23.7692271   3.5798893  35.8978959  23.7686498   3.4247549  36.7563235
  23.5648451   4.4261880  35.8420344  23.7392049   3.6819513  36.0166898
  21.4933123   8.2596394  39.5515166  21.9886789   7.5419389  39.5119186
  20.6832899   7.9567192  39.4369653  21.4477017   8.1094041  39.5288892
  16.9391735  12.1094208  31.7012170  16.1303058  11.7860881  31.6545480
  17.4466644  11.4027430  31.6340419  16.8941402  11.9575524  31.6842465
   7.5682012   9.5366401  37.4259534   6.7027532   9.5252091  37.3142306
   7.6680828   9.3496624  38.2730674   7.4556179   9.5072462  37.5348479
  23.5584942  11.0100082  42.2392294  23.9840014  10.4874504  41.6862720
  23.1941862  11.6080919  41.7180917  23.5671545  11.0210309  42.0801304
  13.1939022  19.3064299  40.9989640  13.5085581  20.1200688  41.0067422
  13.6032435  18.9214518  41.6671799  13.3007120  19.3693002  41.0993732
  20.1463542  14.7234346  38.5693452  20.6174720  15.4374609  38.7383437
  20.4823720  14.1233096  39.1053321  20.2658657  14.7405810  38.6725828
  22.2340526  16.3335660  50.7485524  22.3437492  15.5444220  51.1042271
  22.5631423  16.2441596  49.9459862  22.2992932  16.2041512  50.6827915
  20.7837488  14.5152280  45.3321145  20.2358434  13.8910164  45.0641210
  21.2450517  14.7046552  44.6165224  20.7704698  14.4511330  45.1871576
  23.5931352   2.5837635  42.7172337  23.0094341   3.0846841  42.3049904
  23.9135646   2.0767191  42.0836660  23.5544528   2.5829470  42.5630844
  16.1326152   1.4978230  32.9931012  16.9541846   1.6676542  32.7512707
  15.6695802   1.6525491  32.2697309  16.1857314   1.5459963  32.8502656
  10.5352042  13.2537408  40.6468248  11.1396900  13.2133242  40.0182069
  10.3279355  14.1008560  40.6772304  10.5940940  13.3725410  40.5584365
  20.3495814  15.5203353  41.8630486  21.1694188  15.3766319  42.1246781
  20.0689892  16.1449552  42.4046924  20.4292558  15.5913705  41.9818425
   5.7703325  12.2372025  40.5167172   5.6727603  11.4268297  40.8257228
   6.5532194  12.2163819  40.1313440   5.8719461  12.1139116  40.5054034
  19.1800090  27.8345252  37.2378630  18.9450274  27.0012905  37.1310899
  19.3185730  28.1149918  36.4239831  19.1655752  27.7528756  37.1020985
  21.4790177  20.0030983  40.1362938  20.8595209  19.4123630  39.9672953
  21.3774041  20.5942418  39.5027261  21.3727853  20.0035065  40.0167928
  21.2059310  23.5483265  42.3806507  21.0818007  24.1345710  43.0156326
  21.8577595  23.0543460  42.6818782  21.2832960  23.5622069  42.5192436
  33.9561344  13.1008444  36.7966286  33.6414785  13.7911923  37.2286709
  33.4388286  13.0453226  36.0951787  33.8325815  13.1943333  36.7563236
  28.0365620  31.2389078  46.0618486  27.4736455  30.8261688  46.5858147
  28.7986644  31.1641983  46.4811629  28.0660069  31.1666478  46.2011487
  29.6450600  23.2441814  30.1880086  29.8846604  23.4519798  29.3755429
  29.9666441  22.4399323  30.2969030  29.7287758  23.1555915  30.0840639
  24.6440518  23.4662686  47.7935531  24.8161022  23.3568581  48.6420813
  25.1809876  24.1117091  47.5566724  24.7485522  23.5454688  47.8840628
  23.3097955  17.5805529  30.7317736  23.1273528  17.7977410  29.9058729
  24.1723568  17.6944541  30.7876351  23.4102545  17.6295427  30.6172223
  23.5465090  29.8394326  42.4754030  24.0863315  29.6965457  43.1457402
  22.8635036  30.2391077  42.8438056  23.5257244  29.8773997  42.6288452
  18.9502235  26.0594617  42.6288451  18.6840650  25.2433734  42.7879442
  18.9640799  26.1047773  41.7583967  18.9126958  25.9451522  42.5241933
  35.9283629  16.3872432  40.6630885  36.5709537  16.4570536  41.2492800
  36.1806650  15.7201655  40.1610427  36.0605761  16.2998781  40.6758164
  23.7000842  19.5972995  45.2755459  23.0072638  19.1269975  45.5216191
  24.3161169  19.3711300  45.8497166  23.6885372  19.4940127  45.3964612
  19.3595649  26.8453396  39.9100196  19.1771222  26.8200282  39.0572488
  20.0945318  27.3152334  39.9489104  19.4409713  26.9114759  39.7898114
  22.4241401  23.5638399  46.4182304  23.1481373  23.5491430  46.9047199
  22.5257537  24.2733754  45.9204273  22.5459610  23.6663102  46.4161091
  29.7986350  27.0437484  51.2831251  29.0059331  27.3580996  51.4683871
  29.9135277  27.2588952  50.4452036  29.6981760  27.1221321  51.1869586
  19.3266559  23.7246897  40.0599262  19.9040062  23.5883348  40.6991508
  18.6280621  23.2682681  40.3144847  19.3087581  23.6369163  40.1921552
  14.8025392  22.5758790  36.7747081  14.8885644  22.1990658  37.5560611
  15.4301190  22.2019236  36.2967039  14.9081943  22.4644272  36.8192558
  20.3901351  31.3450523  40.8278441  20.4305496  31.6165374  39.9998221
  20.9495875  31.8692431  41.2436229  20.4784697  31.4626278  40.7670330
  26.5060064  17.6070891  50.9981611  26.1913505  18.3770454  50.7351174
  26.1849997  17.0441148  50.4133838  26.4118983  17.6381160  50.8722961
  33.1824850  16.1439272  44.9439129  33.9278442  15.9549083  44.5302555
  32.7662154  16.6697510  44.3852986  33.2309824  16.1941418  44.8003703
  23.4737629  26.6110051  38.6867249  23.1850878  25.9847522  39.2212976
  24.3420977  26.5530339  38.7531929  23.5597881  26.5097595  38.7758203
  26.1376570  20.2068143  49.7366826  25.3276345  20.5125922  49.6256668
  26.6151256  20.9273725  49.8519410  26.0880048  20.3582744  49.7373897
  22.4720601  25.7430693  44.6066228  22.9841698  26.0214946  43.9574988
  22.1856944  26.4819987  44.9729041  22.5055465  25.8933047  44.5656107
  19.5587508  20.2500885  34.9029965  19.6603644  21.0527046  35.2310940
  20.3543395  20.0488221  34.6053045  19.6915413  20.3386784  34.9065320
  20.3751240  20.3648063  42.6451086  20.2336732  19.5132004  42.7695594
  20.6591803  20.4076724  41.8213293  20.3959086  20.2447813  42.5418711
  25.5614614  33.1274644  43.0679585  25.7104178  32.5677559  42.4152989
  26.3414617  33.2066645  43.4512104  25.6988708  33.0560209  43.0276534
  28.0867915  33.2989286  44.3464076  28.0111586  32.6298097  44.9014864
  28.0157774  34.0007075  44.8604742  28.0648522  33.3034194  44.5040924
  21.1441545  18.2778411  45.9628537  20.6083735  17.6658769  46.2789304
  21.2059310  18.8526547  46.6162204  21.0737178  18.2725338  46.1063964
  33.3735880  11.2102466  38.7432936  33.4919448  11.6678929  38.0100239
  33.1998056  10.4047727  38.4569154  33.3655051  11.1596238  38.5933870
  23.2630301  25.6859145  35.7748592  23.4194920  25.6205947  36.6304584
  23.6030894  26.4607697  35.5627271  23.3363536  25.7908343  35.8703186
  33.6726553  29.2719676  51.7568867  34.4861418  29.0004824  51.9173999
  33.5121519  28.9727216  50.9529063  33.7696501  29.1874602  51.6614273
  19.8364562  22.8694095  36.0909359  20.2163527  23.2878640  35.4269626
  19.2619927  23.4507551  36.3978202  19.8075887  23.0171954  36.0386100
  30.2091310  22.9702469  50.4176265  30.6790942  23.5944586  50.8044139
  30.2553191  22.3019445  50.9769479  30.2859186  22.9637150  50.5576336
  29.1011959  12.5019442  45.2628181  29.7305077  13.0379742  44.9849251
  29.2697822  12.4096801  46.1141747  29.2189754  12.5680805  45.3476709
  28.9025874  17.2890637  47.5354592  29.7299303  17.0175786  47.5913207
  28.9233720  18.0851479  47.8918411  29.0278724  17.3670391  47.5969775
  23.4795364  24.4354500  40.7224853  22.6383371  24.3358374  40.9303747
  23.6885372  25.2049980  41.0739174  23.3860057  24.5346543  40.8052168
  20.9570931  22.0574037  38.5509604  20.5627629  22.1317049  37.7759713
  20.4011048  22.4431983  39.1017966  20.8173743  22.1255811  38.5177264
  25.3530380  29.5785620  44.6794548  25.2450735  29.5887682  45.5456607
  25.5626161  30.4040400  44.4899502  25.3680491  29.7026695  44.7798640
  35.8469565  15.5887095  37.7116248  35.2343879  16.0757497  38.0969980
  35.9433740  14.9130586  38.2553899  35.7707463  15.5605404  37.8495106
  23.3704172  26.8298262  42.1416486  22.7792105  27.4707760  42.1119501
  24.1325195  27.2535879  42.1147786  23.3952432  26.9874101  42.1331633
  23.7664795  17.9900260  42.8084504  24.2266276  18.0639189  43.5459627
  23.8120901  18.7881514  42.4584325  23.8415350  18.1194407  42.8657260
  25.4148144  18.6566955  47.3756531  25.0233710  18.0100302  47.8112309
  25.5834007  19.2478390  47.9950786  25.3819055  18.6481223  47.5319237
  20.5552572  21.6189451  45.1836220  21.4178185  21.5185160  45.0973550
  20.2244355  21.0384160  44.6221792  20.6337769  21.5181077  45.0881626
  24.0996107  18.7857018  27.9019323  23.7508911  19.4376743  28.3650872
  23.6192553  18.7714131  27.1743194  23.9766351  18.8800072  27.8630414
  20.6280034  28.5032360  43.2850402  20.0979958  27.8124799  43.3345377
  20.9005127  28.4942545  42.4563111  20.5904756  28.3999491  43.1697818
  23.1845104  22.0525047  44.0621507  23.3438591  21.2968372  44.4673228
  23.0037997  22.6015987  44.7162244  23.1810463  22.0218861  44.2184213
  31.1265407  14.2186283  44.6172296  30.6305968  14.4149957  43.9263863
  31.8834469  14.6178951  44.4461098  31.1652231  14.3064017  44.4892433
  15.9075876  25.1760124  40.6418751  15.8019325  25.1306968  39.7770835
  15.1576096  25.5213904  40.9233036  15.7811479  25.2201032  40.5556080
  26.8599221  26.1860187  48.6901645  26.0094852  26.3231901  48.8259290
  27.0227349  25.4523965  49.1349347  26.7583085  26.0974288  48.7757245
  23.9067755  16.6268850  48.5211661  24.5320459  16.0830983  48.7941093
  23.4518235  16.1463767  47.9519451  23.9316016  16.4758331  48.4773254
  21.0073226  24.4750500  34.0127490  21.5165455  25.0715008  34.3938796
  21.4807498  24.2076474  33.3303910  21.1516602  24.5236316  33.9682013
  36.1004133  13.6017651  39.7502137  35.5934998  12.8946791  39.6823314
  36.8971567  13.2710840  39.8803213  36.1431372  13.4490802  39.7601132
  21.1453092  20.4056312  47.9003263  20.9755682  21.0657686  47.3551469
  20.7019042  20.6162873  48.6215752  21.0552426  20.5342294  47.9264892
  30.1756448  19.8842981  47.6903156  30.7327878  19.6556790  47.0581622
  29.8517513  20.6448647  47.4138369  30.2102858  19.9626818  47.5559653
  18.0455156  23.3103177  43.1591752  17.4981876  22.6403823  43.2772621
  18.8347535  22.9433025  43.2235220  18.0807340  23.1568164  43.1860453
  27.8939565  22.9710634  48.6555163  28.6450892  23.2862311  48.9694718
  28.0862141  22.7689805  47.8289085  28.0330979  22.9878016  48.5798559
  16.8042126  22.5223985  40.3137775  16.6263887  22.0700594  41.0392691
  16.5161148  23.3250146  40.4976253  16.7355079  22.5746543  40.4481278
  18.5414596  25.0551709  37.4259534  17.6760115  25.0437399  37.3142306
  18.6413412  24.8681932  38.2730674  18.4288763  25.0257770  37.5348479
  24.1671606  34.8249607  40.9989640  24.4818165  35.6385996  41.0067422
  24.5765019  34.4399826  41.6671799  24.2739704  34.8878310  41.0993732
  28.0365620  15.0147125  45.5251547  28.1693526  14.2178118  45.8532522
  28.4210773  15.5413528  46.1049822  28.1121949  14.9747041  45.6595050
  25.6954067  15.0106300  43.7729441  26.2398480  14.6697427  44.3633782
  25.7491003  15.8691761  43.9150725  25.7843186  15.0861559  43.8811314
  16.7435908  27.7557333  40.5167172  16.6460186  26.9453605  40.8257228
  17.5264778  27.7349127  40.1313440  16.8452045  27.6324423  40.5054034
  55.2768033  59.5700997  49.1886749  55.9834801  59.0753028  49.3173683
  55.4655969  60.0110079  48.4589407  55.4095939  59.5619348  49.0995794
  51.3444708  65.2116828  36.7160183  51.7284087  65.7803726  36.1764958
  51.2803849  64.4866338  36.2365999  51.3918135  65.1892291  36.5654045
  47.7700952  67.7673171  39.0141153  48.4138408  68.2086335  39.4037311
  48.0957208  66.9626597  38.9271411  47.9132781  67.7138365  39.0586630
  50.7168910  60.6070503  41.3100911  50.9992153  59.8121909  41.0887666
  51.4455070  61.0851091  41.3305972  50.8658473  60.5605100  41.2803926
  60.6986998  59.7129865  38.2836741  59.8684701  59.9240509  38.4470158
  60.6496250  58.8866920  38.0079025  60.5693733  59.6219472  38.2674107
  42.6882582  63.7501539  38.5134836  42.2050160  64.4752029  38.4894420
  43.5005900  64.0477669  38.6244994  42.7373329  63.9003893  38.5262116
  48.7596736  62.5433720  41.1184651  48.2423677  62.1841135  40.5145959
  49.4571127  62.0195894  41.1290717  48.7862317  62.4131408  41.0314910
  52.4160328  62.9928534  47.0800824  52.5043673  62.8054674  47.9279034
  52.8450040  62.3465963  46.6805671  52.4922430  62.8691541  47.1472575
  49.9830787  62.2759694  46.0618486  49.4201622  61.8632303  46.5858147
  50.7451811  62.2012599  46.4811629  50.0125236  62.2037094  46.2011487
  45.5426779  64.2657715  38.6655116  46.2447358  63.7509704  38.7227873
  45.4624262  64.5931866  39.4701991  45.6350539  64.2371941  38.7927909
  45.4930257  60.8764942  42.4754030  46.0328482  60.7336073  43.1457402
  44.8100204  61.2761693  42.8438056  45.4722411  60.9144613  42.6288452
  57.9551313  60.3829220  38.4201457  57.5186545  60.3865962  39.1760429
  57.6214229  61.0634719  37.9881035  57.8413933  60.4841676  38.4682290
  52.5280387  62.4237553  49.7444608  53.3120804  62.5368401  50.1100350
  52.3276981  61.5978690  49.9403293  52.6146412  62.3184272  49.8278994
  52.6850780  64.3347655  43.3911063  51.8866026  64.0947155  43.6484932
  53.1336792  64.3862048  44.1378111  52.6325391  64.3070046  43.5395987
  59.2050947  56.9577188  34.8902687  59.5359164  57.4904828  34.2842782
  59.7784035  57.0116076  35.5464638  59.3384626  57.0446757  34.8980469
  51.7451517  58.0808100  51.2831251  50.9524498  58.3951612  51.4683871
  51.8600444  58.2959568  50.4452036  51.6446928  58.1591936  51.1869586
  52.6735310  57.9828303  46.2216548  53.2474172  57.3455548  46.3765112
  52.5950114  57.9832386  45.3526206  52.7468545  57.8893415  46.1162959
  57.9955458  59.3537281  46.2301401  57.7594095  58.5225346  46.1113462
  58.6398687  59.3022888  46.8156245  58.0550128  59.2234969  46.2987295
  59.0191878  59.1381730  42.2929696  58.7137695  59.8709787  42.6543011
  58.2998094  58.7319659  42.0122482  58.8679221  59.1863463  42.3042833
  64.7193671  55.7774730  41.6198040  64.6518171  55.7970690  40.7500627
  64.7049333  56.6205058  41.8453711  64.7072427  55.9048465  41.5250517
  48.5679933  63.5839968  33.3551397  48.8578232  63.1928949  32.6310624
  49.2983414  63.7656673  33.7956673  48.7186818  63.5533782  33.3134204
  46.5085849  65.5607350  36.4211547  46.2886144  65.2704705  37.2138214
  46.2880371  64.9022306  35.8929459  46.4433443  65.4207059  36.4600456
  48.6753805  66.9336740  35.2042239  49.3277863  66.4013183  35.4333266
  47.9779414  66.5805393  35.5910114  48.6684523  66.8026263  35.2954407
  56.6693723  59.2541154  34.5473219  57.2351756  59.9134364  34.4631762
  56.0221627  59.5990853  35.0189621  56.6572480  59.4023096  34.6045975
  53.1400301  62.1979939  33.9710298  52.8986977  61.4647799  33.5637363
  53.3201634  62.7466796  33.3176631  53.1307925  62.1702330  33.8140521
  56.3703048  59.9469128  40.5782356  56.2317407  60.6450174  41.0831098
  55.5903046  59.7917785  40.2218538  56.2346275  60.0269295  40.6008630
  54.7081133  56.2465504  46.8304738  54.7029172  55.3745320  46.8347164
  55.4142127  56.4453673  46.3574193  54.8126137  56.1469378  46.7611773
  47.5079782  64.1645259  43.0679585  47.6569345  63.6048175  42.4152989
  48.2879784  64.2437261  43.4512104  47.6453875  64.0930825  43.0276534
  57.8656421  59.3047382  31.3398855  57.4863230  58.5184520  31.3328145
  57.2022666  59.8534239  31.1970499  57.7114896  59.2692206  31.3179652
  50.0333082  64.3359902  44.3464076  49.9576753  63.6668713  44.9014864
  49.9622941  65.0377690  44.8604742  50.0113689  64.3404810  44.5040924
  50.6903329  62.8560901  35.1787681  51.4553220  62.5870545  34.8570346
  50.5881419  62.3710911  35.8957744  50.7884825  62.7450466  35.2367509
  56.1116520  61.5492873  31.6750541  56.1936357  62.3559859  31.3511992
  56.5966262  61.5688832  32.3991315  56.1953678  61.6713536  31.7337440
  49.4224717  67.7428222  42.8042076  49.9120647  67.0439011  42.6217741
  48.8508949  67.4452092  43.3918134  49.4109247  67.5954446  42.8643117
  55.6191720  60.3090291  51.7568867  56.4326585  60.0375440  51.9173999
  55.4586686  60.0097831  50.9529063  55.7161669  60.2245217  51.6614273
  54.3068550  63.9142697  36.1418476  53.9148342  63.6109412  35.4241342
  54.4621622  64.7511787  35.9523430  54.2722140  63.9926534  36.0074973
  54.4708225  60.4792686  36.0824507  54.1122880  60.6507329  36.8588539
  53.9846936  60.9405891  35.5252505  54.3466922  60.5731657  36.1149776
  55.6312964  61.3696582  47.0291708  56.2692685  60.8756777  46.6954164
  54.9887056  61.2973982  46.4443934  55.6307191  61.2855590  46.8934063
  55.6867221  62.0616390  43.6697064  56.4759599  61.7105455  43.7899146
  55.8610819  62.8752778  43.4073698  55.8287502  62.1302247  43.6484932
  47.2995547  60.6156236  44.6794548  47.1915902  60.6258298  45.5456607
  47.5091329  61.4411016  44.4899502  47.3145658  60.7397310  44.7798640
  55.0758855  63.3178190  39.5748510  54.8778544  63.8069004  38.8804722
  54.4546566  63.5219431  40.1532644  54.9546420  63.4194728  39.5571734
  56.9932657  56.8842342  45.1093759  57.7166856  56.4314868  44.9304779
  56.7282620  57.1647008  44.3266087  57.0613930  56.8593310  44.9672474
  53.6065292  60.1228678  32.0088085  54.3299490  60.5886791  31.8652658
  53.1665883  60.1902288  31.2585682  53.6480984  60.2012515  31.8772866
  37.8541043  56.2130740  40.6418751  37.7484492  56.1677584  39.7770835
  37.1041263  56.5584520  40.9233036  37.7276646  56.2571648  40.5556080
  51.2561361  60.2686125  44.2382203  50.7486452  60.8221972  44.6822833
  50.9588007  60.3294415  43.4200977  51.1366246  60.3592436  44.1830659
  53.8669141  64.1849383  32.1686146  53.1498451  64.0110245  31.7033383
  54.5175879  63.9501955  31.6361632  53.8570992  64.1245175  32.0215364
  50.5003846  65.2010683  41.1439209  50.2769501  64.4429513  41.5123236
  50.0113690  65.2308705  40.4219649  50.3947295  65.0932908  41.0915950
  52.5574836  59.3692416  48.6951143  52.5170691  58.7242093  48.1096299
  53.3698154  59.3129033  49.0076555  52.6717989  59.2651382  48.6548092
  49.1482303  65.4211141  38.5976294  48.7342702  64.7585272  38.2080136
  49.8329677  65.5689000  38.0771988  49.1880675  65.3451800  38.4632791
  52.5147597  64.5801227  39.3499911  52.1163881  64.6903497  38.5820731
  51.8998817  64.7883293  39.9326470  52.3646487  64.6274795  39.3231210
  60.2489440  59.1553193  32.7343001  60.6323046  59.9044550  32.9641098
  59.4533553  59.4019013  32.4754990  60.1883222  59.3022887  32.7300575
  46.1136773  65.8620223  40.9989640  46.4283332  66.6756612  41.0067422
  46.5230186  65.4770442  41.6671799  46.2204871  65.9248926  41.0993732
  53.0661292  61.2790270  38.5693452  53.5372471  61.9930533  38.7383437
  53.4021471  60.6789020  39.1053321  53.1856408  61.2961734  38.6725828
  55.1538277  62.8891583  50.7485524  55.2635243  62.1000144  51.1042271
  55.4829174  62.7997519  49.9459862  55.2190683  62.7597436  50.6827915
  53.7035239  61.0708204  45.3321145  53.1556185  60.4466088  45.0641210
  54.1648268  61.2602476  44.6165224  53.6902448  61.0067254  45.1871576
  53.2693565  62.0759277  41.8630486  54.0891939  61.9322243  42.1246781
  52.9887643  62.7005476  42.4046924  53.3490308  62.1469629  41.9818425
  69.7407215  69.7324128  34.8273362  69.7101220  70.5868765  34.9991632
  70.3388564  69.4319421  35.3859506  69.8244373  69.8140625  34.9348164
  62.9406900  68.8199779  39.5826293  62.0844796  68.9808278  39.6335409
  62.9874554  67.9491843  39.6031354  62.8206012  68.7150581  39.5932359
  57.3248040  78.3562497  35.3463524  56.5730940  77.9778036  35.1179569
  57.7734052  78.3880931  34.5982334  57.2797707  78.3048104  35.2021026
  66.2500617  75.0886305  49.1886749  66.9567384  74.5938336  49.3173683
  66.4388552  75.5295387  48.4589407  66.3828522  75.0804655  49.0995794
  65.7858721  70.8791823  42.2257944  66.3314681  71.5576910  42.2851914
  65.7275598  70.7379284  41.3659526  65.8574636  70.9583825  42.1070005
  58.9032796  78.3680890  37.6126297  59.0043159  77.5581243  37.9223424
  58.3074541  78.2737836  36.9825975  58.8305335  78.2345918  37.5652535
  67.5623790  72.3076430  33.0991672  67.4463316  73.0584117  33.5283810
  68.3579677  72.0500384  33.3487759  67.6628379  72.3811277  33.1995764
  52.0997841  74.3901176  37.2378630  51.8648025  73.5568828  37.1310899
  52.2383481  74.6705842  36.4239831  52.0853503  74.3084679  37.1020985
  54.3987928  66.5586907  40.1362938  53.7792960  65.9679554  39.9672953
  54.2971792  67.1498342  39.5027261  54.2925603  66.5590989  40.0167928
  59.4454116  76.2970454  34.3861014  59.7669957  76.8375661  33.7822322
  60.0926212  75.7267225  34.5183304  59.5880171  76.2929629  34.3168050
  61.4955824  68.2986448  34.4695401  62.1935988  68.4774576  34.9616864
  61.8108156  67.7756788  33.8465790  61.6451161  68.2480221  34.4497411
  54.1257061  70.1039188  42.3806507  54.0015758  70.6901634  43.0156326
  54.7775345  69.6099384  42.6818782  54.2030710  70.1177993  42.5192436
  61.6843759  74.6856893  34.4575193  62.1237394  74.0773994  34.9029965
  61.5348422  74.3064267  33.6860658  61.7265225  74.5395365  34.4094360
  59.1515402  73.2800905  41.6594018  59.7964405  72.7873348  41.3404967
  59.3917179  73.4225692  42.4860096  59.2825987  73.2278348  41.7343551
  61.6901493  76.1255811  41.3100911  61.9724736  75.3307217  41.0887666
  62.4187654  76.6036399  41.3305972  61.8391057  76.0790408  41.2803926
  59.6682687  63.6678845  38.5516676  59.3386017  64.1189989  37.8820374
  58.9927689  63.5895008  39.0989682  59.5193123  63.7229980  38.5339899
  65.2853096  73.0384075  31.4105962  65.2004391  73.8945041  31.5555531
  65.7737479  72.7628399  32.0788121  65.3441993  73.1241396  31.5308043
  66.8759095  59.6564368  36.7966286  66.5612536  60.3467847  37.2286709
  66.3586037  59.6009150  36.0951787  66.7523565  59.7499257  36.7563236
  66.2171529  69.6568869  32.9103697  65.6883000  69.8728502  33.5701003
  66.7396549  70.3505007  32.8304666  66.2159982  69.7912006  32.9959296
  58.1071137  73.5532086  31.7111165  57.5228352  74.0582117  32.1177029
  57.7041232  73.3274473  30.9707757  57.9610440  73.5940334  31.6616190
  53.6615165  79.2686847  38.5134836  53.1782743  79.9937336  38.4894420
  54.4738483  79.5662977  38.6244994  53.7105913  79.4189201  38.5262116
  59.7329319  78.0619028  41.1184651  59.2156261  77.7026443  40.5145959
  60.4303710  77.5381202  41.1290717  59.7594900  77.9316716  41.0314910
  60.9563371  77.7945002  46.0618486  60.3934206  77.3817611  46.5858147
  61.7184394  77.7197907  46.4811629  60.9857820  77.7222402  46.2011487
  62.5648351  69.7997738  30.1880086  62.8044355  70.0075722  29.3755429
  62.8864192  68.9955246  30.2969030  62.6485509  69.7111839  30.0840639
  57.8738641  61.7291134  34.0339623  58.6284609  62.0969451  33.7956674
  57.6966176  62.1030688  34.8018803  57.9593120  61.8389321  34.1124512
  56.5159362  79.7843023  38.6655116  57.2179942  79.2695012  38.7227873
  56.4356846  80.1117174  39.4701991  56.6083123  79.7557249  38.7927909
  71.1673540  67.8785574  42.0787163  70.3301961  67.9487761  42.3134757
  71.1361771  67.8810069  41.2061465  71.0391822  67.8895801  41.9846711
  57.5638269  70.0218610  47.7935531  57.7358773  69.9124504  48.6420813
  58.1007627  70.6673015  47.5566724  57.6683273  70.1010611  47.8840628
  56.2295706  64.1361453  30.7317736  56.0471279  64.3533333  29.9058729
  57.0921319  64.2500465  30.7876351  56.3300295  64.1851350  30.6172223
  55.8410138  75.9749375  38.1740724  56.6799037  76.2072308  38.2214486
  55.8721907  75.1053686  38.1047760  55.9691855  75.8806321  38.1705369
  56.4662841  76.3950250  42.4754030  57.0061066  76.2521381  43.1457402
  55.7832787  76.7947001  42.8438056  56.4454995  76.4329921  42.6288452
  61.9095425  61.1387863  33.7666760  62.6381586  60.9603818  33.3204917
  61.9990318  61.9805943  33.9773938  62.0302087  61.2371742  33.7320278
  65.8903726  72.0741251  37.6699054  66.6461241  72.5072765  37.7087963
  65.9966050  71.4246020  38.2433690  66.0173896  72.0418734  37.7597080
  51.8699986  72.6150541  42.6288451  51.6038401  71.7989657  42.7879442
  51.8838550  72.6603696  41.7583967  51.8324708  72.5007446  42.5241933
  68.8481380  62.9428356  40.6630885  69.4907288  63.0126460  41.2492800
  69.1004400  62.2757579  40.1610427  68.9803512  62.8554704  40.6758164
  55.7757733  67.4135625  29.2440210  55.0615910  67.1273805  29.6562642
  56.2601702  67.7532251  29.8846597  55.7417096  67.4217275  29.3995844
  56.6198592  66.1528919  45.2755459  55.9270389  65.6825899  45.5216191
  57.2358920  65.9267224  45.8497166  56.6083122  66.0496051  45.3964612
  62.9505051  75.9165579  29.6202018  63.3656199  75.5850603  28.9286513
  62.1196980  75.6834481  29.4922154  62.8893060  75.8336835  29.4992865
  52.2793400  73.4009320  39.9100196  52.0968973  73.3756206  39.0572488
  53.0143069  73.8708258  39.9489104  52.3607463  73.4670682  39.7898114
  68.3493074  73.6360830  37.0533083  68.5848663  73.7806029  36.2259934
  68.4982637  74.4003238  37.4464597  68.4058877  73.7699885  36.9896687
  55.3439151  70.1194323  46.4182304  56.0679124  70.1047354  46.9047199
  55.4455288  70.8289678  45.9204273  55.4657360  70.2219026  46.4161091
  70.1783531  72.4762496  34.8902687  70.5091748  73.0090136  34.2842782
  70.7516619  72.5301384  35.5464638  70.3117210  72.5632065  34.8980469
  62.7184101  73.5993408  51.2831251  61.9257081  73.9136919  51.4683871
  62.8333028  73.8144876  50.4452036  62.6179511  73.6777244  51.1869586
  65.3915420  70.3227399  35.5726267  65.4862274  71.0616693  36.0265893
  64.7674263  69.8944874  36.0060832  65.3124450  70.3688719  35.7034415
  63.6467893  73.5013611  46.2216548  64.2206755  72.8640856  46.3765112
  63.5682697  73.5017694  45.3526206  63.7201128  73.4078723  46.1162959
  52.2464310  70.2802821  40.0599262  52.8237813  70.1439272  40.6991508
  51.5478372  69.8238605  40.3144847  52.2285331  70.1925087  40.1921552
  65.6438441  72.1676139  28.8063219  65.5618603  72.2378326  29.6718206
  66.2818161  72.7305882  28.6146960  65.7258278  72.2615110  28.9053169
  59.0031612  71.9336876  38.2737745  58.7450856  71.1008611  38.2469045
  59.0580095  72.1594489  37.4330246  58.9731390  71.8434648  38.1457882
  64.0832662  64.0365327  38.3741838  63.3788989  63.5474513  38.5325757
  64.1317637  64.0487802  37.5030283  63.9862714  63.9654975  38.2681178
  57.9766324  69.4874639  38.7602640  57.4015916  69.6466807  39.3966601
  57.6002001  68.8510048  38.2971091  57.8369137  69.4172452  38.7857199
  61.6439613  67.9597988  43.6195019  61.2554046  67.5352206  42.9647210
  60.9794311  68.2080138  44.1272045  61.4886541  67.9336709  43.5982887
  71.2862882  67.7172993  36.3942849  71.0299447  66.9052934  36.2040731
  72.1292196  67.7250560  36.1673036  71.3728907  67.5984990  36.3327666
  47.7223143  69.1314714  36.7747081  47.8083395  68.7546582  37.5560611
  48.3498941  68.7575159  36.2967039  47.8279694  69.0200196  36.8192558
  65.4665974  61.6572617  41.1319003  65.8476486  60.9750788  41.5186877
  64.6629259  61.3682219  40.9494667  65.4042436  61.5139666  41.1623059
  62.7478551  72.1896593  31.8171826  63.5619190  72.4811486  31.7054597
  62.6837692  71.5356455  31.2430119  62.8581290  72.1361788  31.7160663
  58.6186459  75.6618110  36.9444138  59.2560406  75.4229858  37.4895931
  59.0441531  75.8655269  36.2097298  58.7762626  75.6569120  36.9161295
  53.3099102  77.9006447  40.8278441  53.3503247  78.1721298  39.9998221
  53.8693626  78.4248355  41.2436229  53.3982448  78.0182202  40.7670330
  59.2589274  70.8820400  31.2819027  59.6434427  70.6628107  32.0335572
  59.0100895  71.7083345  31.4120103  59.2791347  70.9718546  31.4120104
  59.4257815  64.1626815  50.9981611  59.1111256  64.9326378  50.7351174
  59.1047747  63.5997071  50.4133838  59.3316734  64.1937084  50.8722961
  61.0007931  76.1390533  38.6237924  61.0746940  75.9765705  39.4779774
  61.8177438  76.3280722  38.3798406  61.1324290  76.1427275  38.7135950
  54.7613688  76.4848396  35.6532367  53.9351806  76.7310133  35.5266646
  54.8225679  76.4060477  36.5194426  54.6487855  76.5093345  35.7621312
  56.9789712  62.5517337  36.6127808  56.1112137  62.6239936  36.6785417
  57.2664916  63.3539416  36.8015783  56.8929460  62.6811484  36.6502574
  66.1022601  62.6995196  44.9439129  66.8476193  62.5105007  44.5302555
  65.6859905  63.2253434  44.3852986  66.1507575  62.7497342  44.8003703
  59.5412517  79.1025276  33.3551397  59.8310815  78.7114257  32.6310624
  60.2715998  79.2841981  33.7956673  59.6919401  79.0719090  33.3134204
  73.4784871  70.0704425  39.8944634  74.0292793  69.4372494  40.1341726
  73.4628987  70.6019817  40.5860139  73.5570068  70.0553373  40.0323493
  60.1307262  73.9043022  44.4404528  59.6318956  74.6158790  44.5189416
  60.9407487  74.2243688  44.4022690  60.1763369  74.0569870  44.4461096
  57.4818433  81.0792658  36.4211547  57.2618728  80.7890013  37.2138214
  57.2612955  80.4207613  35.8929459  57.4166027  80.9392367  36.4600456
  56.3935380  73.1665975  38.6867249  56.1048628  72.5403446  39.2212976
  57.2618728  73.1086262  38.7531929  56.4795632  73.0653519  38.7758203
  67.1813278  68.3100758  39.0049231  66.8378044  67.5891093  39.3556480
  67.2806320  68.1014609  38.1627589  67.1455320  68.1724962  38.9320911
  56.5967653  74.8061226  34.6109614  57.3513621  75.1874265  34.8245076
  56.0038266  75.2572370  35.0656310  56.6204367  74.9290053  34.7092492
  59.0574320  66.7624066  49.7366826  58.2474096  67.0681846  49.6256668
  59.5349007  67.4829649  49.8519410  59.0077799  66.9138667  49.7373897
  57.9165880  75.9769787  39.9849729  57.3946633  76.1170079  40.6701594
  58.3039900  75.2180452  40.1751847  57.8969581  75.8855311  40.1150806
  54.9057064  66.0275596  34.0544684  54.6181860  65.6576866  33.3176631
  55.5927532  66.4970451  33.7928389  54.9645961  66.0422565  33.9059760
  59.3432205  73.0073806  35.3831220  59.1474988  73.6148541  34.7891523
  59.5666551  72.3141750  34.9022894  59.3466846  72.9951332  35.2247301
  57.7410735  69.8928544  35.5012089  58.4633387  70.0569702  35.0415895
  57.2618728  70.6138209  35.3951428  57.7774466  70.0226774  35.4177703
  65.7004243  66.2292343  40.8808774  64.8615344  66.2553622  40.6447037
  65.7708610  66.8763078  41.4614120  65.5872637  66.3288469  40.9317890
  55.3918352  72.2986617  44.6066228  55.9039449  72.5770870  43.9574988
  55.1054695  73.0375911  44.9729041  55.4253215  72.4488970  44.5656107
  64.1473521  63.1277720  35.6136389  64.8499874  62.9285468  35.1356348
  63.8817710  62.3553662  35.9205233  64.2120154  62.9840686  35.5881831
  69.5761767  71.4360330  38.1670015  69.4895741  71.5915756  39.0204794
  69.1212247  72.0798405  37.7929420  69.4965024  71.5536085  38.2377122
  52.4785258  66.8056808  34.9029965  52.5801395  67.6082970  35.2310940
  53.2741145  66.6044144  34.6053045  52.6113164  66.8942707  34.9065320
  58.9102078  64.3913005  44.6667270  58.7185275  64.4068140  45.5166694
  59.7600674  64.5876680  44.6433925  59.0077799  64.4227356  44.7890565
  53.2948991  66.9203987  42.6451086  53.1534482  66.0687927  42.7695594
  53.5789554  66.9632647  41.8213293  53.3156837  66.8003737  42.5418711
  63.4487583  68.7571077  36.7895575  63.2022297  68.6766828  37.6232364
  63.7772706  67.9724545  36.5958102  63.4608827  68.6297342  36.8843098
  65.6813717  71.7650812  46.8304738  65.6761755  70.8930628  46.8347164
  66.3874711  71.9638981  46.3574193  65.7858721  71.6654686  46.7611773
  59.4084610  71.4927795  46.2018558  59.5527986  72.0729004  45.5661668
  59.7560259  71.8704092  46.9068412  59.4812072  71.6348500  46.2117553
  61.5804528  70.6917964  43.9843689  60.8327842  70.8848978  43.5791968
  61.7346053  69.8663183  43.7467811  61.4926955  70.5983075  43.8889095
  58.4812365  79.6830567  43.0679585  58.6301929  79.1233483  42.4152989
  59.2612367  79.7622569  43.4512104  58.6186459  79.6116133  43.0276534
  61.8206305  64.5868515  44.8739093  62.2778919  65.3192489  45.0011885
  61.8962633  64.1634980  45.6326349  61.8997274  64.6325753  45.0040170
  54.0639296  64.8334334  45.9628537  53.5281485  64.2214692  46.2789304
  54.1257061  65.4082470  46.6162204  53.9934928  64.8281262  46.1063964
  66.2933631  57.7658390  38.7432936  66.4117199  58.2234853  38.0100239
  66.1195806  56.9603651  38.4569154  66.2852802  57.7152162  38.5933870
  61.6635913  78.3746209  35.1787681  62.4285804  78.1055853  34.8570346
  61.5614003  77.8896219  35.8957744  61.7617408  78.2635774  35.2367509
  59.6988683  66.5770619  41.7180917  58.9084757  66.3962079  42.0398253
  60.0949305  65.7997571  41.7011212  59.6405559  66.4358079  41.7633466
  64.1854573  75.4058393  27.1587631  64.9527558  75.4658518  26.7493483
  63.7385882  74.8338834  26.6743949  64.2328001  75.3294969  27.0265341
  65.0832369  74.2113049  39.4440363  64.4077371  73.9798281  39.9453750
  65.0924745  73.6034232  38.8182468  64.9850873  74.0871974  39.4256515
  60.8945607  71.7463017  40.3420619  60.4707856  71.9467516  39.6059637
  60.7190462  70.8991865  40.4544919  60.8056487  71.6511798  40.2494309
  56.1828052  72.2415068  35.7748592  56.3392671  72.1761871  36.6304584
  56.5228645  73.0163621  35.5627271  56.2561287  72.3464267  35.8703186
  62.7207196  71.6172952  34.6441955  63.2622742  71.1143333  35.1080575
  63.0353755  71.5638147  33.8331440  62.8471593  71.5352373  34.5925767
  60.8893646  77.0090304  31.9281983  60.9586466  76.1504842  32.0674983
  61.6682101  77.2262184  31.6001007  61.0146496  76.9143167  31.8999140
  63.8696466  66.5109256  44.6964255  64.0838435  65.8720171  44.1427609
  63.2530365  66.9555080  44.2672117  63.8101795  66.4819400  44.5514686
  52.7562313  69.4250019  36.0909359  53.1361278  69.8434564  35.4269626
  52.1817678  70.0063475  36.3978202  52.7273638  69.5727878  36.0386100
  66.0335554  68.1198322  45.6347562  65.2212235  67.8124212  45.7160735
  66.4925488  67.6397322  46.1990275  65.9815938  68.0034814  45.7302156
  65.4440808  75.9977994  36.0824507  65.0855463  76.1692637  36.8588539
  64.9579519  76.4591199  35.5252505  65.3199505  76.0916965  36.1149776
  63.2611194  59.6209192  39.6851598  62.3904752  59.5947913  39.6384908
  63.5151536  59.4486384  38.8677444  63.1704754  59.5919336  39.5571735
  60.2329174  71.6777159  28.6224741  60.5221699  72.4542042  28.8968315
  60.3200973  71.1665891  29.3239240  60.2883430  71.7169077  28.7667239
  63.1289061  69.5258393  50.4176265  63.5988692  70.1500510  50.8044139
  63.1750941  68.8575369  50.9769479  63.2056937  69.5193073  50.5576336
  60.2860335  61.6315421  41.1425068  59.7698823  60.9395612  41.2676647
  59.7254264  62.2986198  41.0887667  60.1266848  61.6278678  41.1531134
  62.3552568  62.1708381  42.9717921  61.9684321  62.1957412  43.7531451
  61.8685506  61.6050059  42.5192438  62.2265077  62.0904131  43.0205825
  68.3302548  68.7371036  41.5957623  67.9030156  68.6497384  40.8405723
  67.6928601  68.8448811  42.1812467  68.1732155  68.7403695  41.5703065
  62.0209710  59.0575366  45.2628181  62.6502828  59.5935666  44.9849251
  62.1895573  58.9652725  46.1141747  62.1387505  59.1236728  45.3476709
  61.8223625  63.8446561  47.5354592  62.6497054  63.5731710  47.5913207
  61.8431471  64.6407403  47.8918411  61.9476475  63.9226315  47.5969775
  56.3993115  70.9910424  40.7224853  55.5581121  70.8914298  40.9303747
  56.6083123  71.7605904  41.0739174  56.3057807  71.0902467  40.8052168
  53.8768682  68.6129961  38.5509604  53.4825379  68.6872972  37.7759713
  53.3208799  68.9987907  39.1017966  53.7371494  68.6811735  38.5177264
  65.5133628  61.5911255  38.2313483  65.7183222  61.5233562  39.0770480
  65.1860052  62.3970076  38.1634660  65.4948876  61.6997195  38.3473138
  60.2109780  68.9191823  39.9722451  59.9072917  68.3647811  40.5732858
  59.5089200  69.0984033  39.4850485  60.0625989  68.8636605  39.9892156
  59.2675877  66.2292343  34.5367153  59.5435611  65.5111255  34.1244720
  59.8674546  66.8277263  34.3288259  59.3969141  66.2112713  34.4447914
  58.2728131  76.1341544  44.6794548  58.1648485  76.1443606  45.5456607
  58.4823912  76.9596324  44.4899502  58.2878242  76.2582618  44.7798640
  68.7667316  62.1443019  37.7116248  68.1541630  62.6313421  38.0969980
  68.8631491  61.4686510  38.2553899  68.6905214  62.1161328  37.8495106
  62.7686397  63.9005860  32.8113748  63.2230144  64.0716420  33.5361592
  63.2426443  63.2873971  32.4111523  62.9054717  63.8356745  32.8587509
  56.2901923  73.3854186  42.1416486  55.6989856  74.0263684  42.1119501
  57.0522946  73.8091803  42.1147786  56.3150183  73.5430024  42.1331633
  56.6862545  64.5456184  42.8084504  57.1464027  64.6195113  43.5459627
  56.7318652  65.3437438  42.4584325  56.7613101  64.6750331  42.8657260
  58.3345895  65.2122879  47.3756531  57.9431460  64.5656226  47.8112309
  58.5031758  65.8034314  47.9950786  58.3016805  65.2037146  47.5319237
  60.1099417  70.6048394  33.9158755  60.8541462  70.9922671  34.1541705
  60.2560113  69.7605820  34.0799243  60.2410002  70.5378867  33.9752724
  62.0278993  62.3998653  38.9490616  61.1815038  62.5721461  38.8231966
  62.0250125  61.5947997  39.2856445  61.9026143  62.3059682  38.9801743
  63.0977293  66.1773868  39.8152674  62.6237247  65.6515630  40.3257985
  63.4695429  65.6303341  39.2467536  63.0827182  66.0189864  39.8067821
  53.4750323  68.1745374  45.1836220  54.3375936  68.0741084  45.0973550
  53.1442106  67.5940084  44.6221792  53.5535520  68.0737001  45.0881626
  69.3614024  71.2376243  41.2259455  69.1212246  70.3982658  41.2301881
  69.8406031  71.3176410  41.9500228  69.3966207  71.1257643  41.3334257
  65.0260793  67.0710422  32.8778428  64.4983811  67.1539166  32.1884137
  65.4856501  67.8128294  32.8743073  65.0162643  67.1931085  32.7753123
  71.3619211  68.0177701  39.1788714  71.1228981  67.9773535  38.3409498
  71.5253112  68.8648853  39.3054435  71.3509514  68.1369786  39.0742196
  67.9665241  72.4027650  45.1093759  68.6899440  71.9500176  44.9304779
  67.7015203  72.6832316  44.3266087  68.0346514  72.3778618  44.9672474
  56.8352109  66.9987823  41.8446638  56.2105179  67.0106215  41.2372591
  56.4997704  67.4747998  42.4937878  56.6937601  67.0706340  41.8503207
  57.0193858  65.3412942  27.9019323  56.6706662  65.9932667  28.3650872
  56.5390304  65.3270055  27.1743194  56.8964102  65.4355995  27.8630414
  53.5477785  75.0588283  43.2850402  53.0177709  74.3680722  43.3345377
  53.8202878  75.0498469  42.4563111  53.5102507  74.9555415  43.1697818
  64.5797875  75.6413986  32.0088085  65.3032074  76.1072099  31.8652658
  64.1398466  75.7087595  31.2585682  64.6213567  75.7197823  31.8772866
  63.7484030  72.5011528  43.2588774  63.1341023  71.9569578  43.5537409
  64.2651315  71.9875765  42.7794590  63.7339693  72.3447937  43.2313002
  62.9880327  73.5715798  40.9933073  62.5607935  72.9465517  40.5598508
  62.9805272  73.2890720  41.8192080  62.9239469  73.4368579  41.0512900
  56.1042855  68.6080971  44.0621507  56.2636341  67.8524295  44.4673228
  55.9235748  69.1571911  44.7162244  56.1008213  68.5774785  44.2184213
  64.0463158  60.7742207  44.6172296  63.5503719  60.9705881  43.9263863
  64.8032220  61.1734875  44.4461098  64.0849982  60.8619941  44.4892433
  61.3166037  64.4484553  41.2075607  61.3408524  63.9144665  40.5188387
  61.5677511  63.9401861  41.8701197  61.3575956  64.2945457  41.2040251
  48.8273627  71.7316048  40.6418751  48.7217076  71.6862892  39.7770835
  48.0773847  72.0769828  40.9233036  48.7009230  71.7756956  40.5556080
  57.5967359  63.1755371  40.5881351  57.6365731  63.6764577  41.3016058
  56.7717024  63.2665765  40.3187274  57.4806885  63.2637187  40.6531889
  59.7796972  72.7416111  48.6901645  58.9292603  72.8787825  48.8259290
  59.9425100  72.0079889  49.1349347  59.6780836  72.6530212  48.7757245
  59.0181723  69.6915881  42.8855250  58.1873652  69.8589699  42.6790498
  58.9633240  69.3151831  43.6704135  58.8871138  69.6605612  42.9703778
  56.8265506  63.1824774  48.5211661  57.4518209  62.6386906  48.7941093
  56.3715986  62.7019691  47.9519451  56.8513767  63.0314255  48.4773254
  57.3917767  67.9671472  33.4145368  57.5320728  68.4643936  34.1174009
  57.8900299  67.2657767  33.5559581  57.4858847  67.9373451  33.5396947
  57.4217989  68.8338583  30.7437944  58.0563068  69.4299008  30.6787406
  57.5043600  68.5342041  31.5583815  57.5274540  68.8779491  30.8541031
  70.4000555  71.3654061  43.6124309  70.9918395  72.0051311  43.6442507
  70.8359549  70.6677097  43.9016375  70.5518986  71.3572411  43.6605141
  58.9996972  64.7652559  30.7183386  59.3212813  64.2855641  30.0642649
  59.2623916  65.5752205  30.5274198  59.0862997  64.8142457  30.5938878
  62.2293945  75.7871433  44.2382203  61.7219036  76.3407280  44.6822833
  61.9320591  75.8479723  43.4200977  62.1098830  75.8777744  44.1830659
  64.3956127  64.1524753  43.0806866  64.8211198  63.6997279  42.4690392
  63.7813120  63.5984823  43.3571653  64.3684772  64.0038729  43.0311891
  53.9270977  71.0306424  34.0127490  54.4363206  71.6270932  34.3938796
  54.4005249  70.7632398  33.3303910  54.0714353  71.0792239  33.9682013
  62.8350350  60.6239852  36.4897443  62.1918668  60.4737499  37.0582581
  62.4949757  60.3782198  35.7246547  62.6895427  60.5651975  36.4600458
  67.4249696  68.5799279  35.9127451  66.7540886  69.1228982  35.7840517
  68.1189446  69.0494135  35.6709146  67.4278564  68.7297550  35.8582979
  67.5877824  65.0355163  38.8217824  67.9405434  64.6084886  39.4963623
  66.7292625  64.9506006  38.9518901  67.5127268  64.9599904  38.9412835
  56.2861509  67.6662683  36.8800671  55.5673498  68.0826815  37.1473534
  56.6573871  68.2316921  36.3292309  56.2353440  67.8111964  36.8383478
  65.5861089  68.2990531  42.7702667  65.5659017  68.1173827  43.6237445
  65.6340290  69.1702550  42.7462250  65.5895730  68.4007070  42.8925961
  63.5307419  74.8877723  48.6951143  63.4903274  74.2427400  48.1096299
  64.3430737  74.8314341  49.0076555  63.6450573  74.7836690  48.6548092
  62.0608083  66.7060682  32.2174050  61.4672922  67.0277679  31.6658617
  62.0983361  65.8601778  32.0095156  61.9782472  66.6285011  32.1056822
  69.0201884  60.1573575  39.7502137  68.5132748  59.4502714  39.6823314
  69.8169317  59.8266764  39.8803213  69.0629123  60.0046726  39.7601132
  64.9365900  66.6640187  35.6475801  64.7079593  66.6872888  34.8054159
  65.1963976  65.8397654  35.7670811  64.9412088  66.5456267  35.5400998
  59.2185128  68.5174660  45.2500901  58.7064031  67.9095843  45.6085932
  59.0464624  69.2331253  45.7174877  59.1174765  68.5337959  45.3717124
  54.0650843  66.9612235  47.9003263  53.8953433  67.6213610  47.3551469
  53.6216793  67.1718797  48.6215752  53.9750176  67.0898217  47.9264892
  57.9910662  65.2016733  36.9429996  58.4668028  65.5633813  36.3080177
  57.4899262  65.8573201  37.2230139  57.9876021  65.3510922  36.8906737
  63.0954198  66.4398905  47.6903156  63.6525628  66.2112714  47.0581622
  62.7715263  67.2004570  47.4138369  63.1300608  66.5182741  47.5559653
  50.9652907  69.8659101  43.1591752  50.4179627  69.1959746  43.2772621
  51.7545285  69.4988949  43.2235220  51.0005091  69.7124087  43.1860453
  60.8137316  69.5266558  48.6555163  61.5648643  69.8418235  48.9694718
  61.0059892  69.3245729  47.8289085  60.9528730  69.5433940  48.5798559
  60.0337315  67.3457933  30.3103380  60.4136280  67.3637562  29.5254495
  59.2929911  67.7911922  30.1894227  59.9806153  67.4139708  30.1766948
  67.6622606  65.6540124  35.8978959  67.6616832  65.4988781  36.7563235
  67.4578786  66.5003111  35.8420344  67.6322384  65.7560745  36.0166898
  49.7239877  69.0779909  40.3137775  49.5461638  68.6256518  41.0392691
  49.4358899  69.8806070  40.4976253  49.6552830  69.1302467  40.4481278
  65.3863458  70.3337626  39.5515166  65.8817123  69.6160621  39.5119186
  64.5763233  70.0308424  39.4369653  65.3407351  70.1835272  39.5288892
  60.8322069  74.1835439  31.7012170  60.0233392  73.8602113  31.6545480
  61.3396978  73.4768661  31.6340419  60.7871736  74.0316756  31.6842465
  51.4612347  71.6107632  37.4259534  50.5957866  71.5993323  37.3142306
  51.5611162  71.4237855  38.2730674  51.3486513  71.5813694  37.5348479
  67.4515277  73.0841314  42.2392294  67.8770348  72.5615735  41.6862720
  67.0872196  73.6822151  41.7180917  67.4601879  73.0951541  42.0801304
  57.0869356  81.3805531  40.9989640  57.4015915  82.1941920  41.0067422
  57.4962770  80.9955750  41.6671799  57.1937454  81.4434233  41.0993732
  64.0393876  76.7975578  38.5693452  64.5105054  77.5115840  38.7383437
  64.3754055  76.1974328  39.1053321  64.1588991  76.8147042  38.6725828
  60.9563371  61.5703048  45.5251547  61.0891277  60.7734042  45.8532522
  61.3408524  62.0969451  46.1049822  61.0319700  61.5302965  45.6595050
  64.6767822  76.5893512  45.3321145  64.1288768  75.9651396  45.0641210
  65.1380851  76.7787784  44.6165224  64.6635032  76.5252562  45.1871576
  64.0295726  58.4933375  42.1232640  63.2241690  58.3831104  42.4400478
  63.9002462  58.5945830  41.2662506  63.8915859  58.4917045  42.0440680
  67.4861687  64.6578866  42.7172337  66.9024676  65.1588073  42.3049904
  67.8065981  64.1508423  42.0836660  67.4474862  64.6570701  42.5630844
  60.0256486  63.5719461  32.9931012  60.8472180  63.7417774  32.7512707
  59.5626137  63.7266722  32.2697309  60.0787648  63.6201194  32.8502656
  58.6151818  61.5662223  43.7729441  59.1596231  61.2253350  44.3633782
  58.6688754  62.4247685  43.9150725  58.7040937  61.6417483  43.8811314
  54.4282377  75.3278640  40.6468248  55.0327234  75.2874474  40.0182069
  54.2209689  76.1749792  40.6772304  54.4871274  75.4466642  40.5584365
  49.6633659  74.3113257  40.5167172  49.5657937  73.5009529  40.8257228
  50.4462529  74.2905050  40.1313440  49.7649795  74.1880347  40.5054034
  36.5160289   0.1146336  21.7613409  36.4854293   0.9690973  21.9331678
  37.1141637  -0.1858372  22.3199553  36.5997447   0.1962832  21.8688211
  29.7159974  -0.7978013  26.5166339  28.8597869  -0.6369515  26.5675456
  29.7627627  -1.6685949  26.5371400  29.5959085  -0.9027211  26.5272405
  24.1001113   8.7384705  22.2803571  23.3484013   8.3600243  22.0519616
  24.5487125   8.7703138  21.5322381  24.0550780   8.6870312  22.1361073
  33.0253690   5.4708512  36.1226796  33.7320457   4.9760543  36.2513730
  33.2141626   5.9117594  35.3929454  33.1581596   5.4626863  36.0335841
  29.5526073   9.1610074  17.7089118  29.2177442   9.8386996  17.2733340
  30.0652944   8.7715386  17.1205990  29.5791654   9.2034652  17.5575910
  29.0930364  11.1124343  23.6500230  29.4769744  11.6811242  23.1105005
  29.0289506  10.3873853  23.1706046  29.1403792  11.0899806  23.4994092
  32.5611795   1.2614031  29.1597991  33.1067755   1.9399117  29.2191961
  32.5028671   1.1201492  28.2999573  32.6327709   1.3406032  29.0410052
  25.6785869   8.7503097  24.5466343  25.7796232   7.9403451  24.8563471
  25.0827615   8.6560043  23.9166022  25.6058408   8.6168125  24.4992582
  34.3376863   2.6898638  20.0331719  34.2216389   3.4406324  20.4623857
  35.1332750   2.4322591  20.2827806  34.4381453   2.7633485  20.1335810
  25.5186609  13.6680686  25.9481200  26.1624064  14.1093850  26.3377358
  25.8442865  12.8634112  25.8611458  25.6618438  13.6145881  25.9926677
  18.8750914   4.7723383  24.1718677  18.6401098   3.9391036  24.0650946
  19.0136554   5.0528049  23.3579878  18.8606576   4.6906887  24.0361032
  26.2207189   6.6792661  21.3201061  26.5423030   7.2197868  20.7162369
  26.8679285   6.1089432  21.4523351  26.3633244   6.6751836  21.2508097
  28.2708897  -1.3191344  21.4035448  28.9689061  -1.1403217  21.8956911
  28.5861229  -1.8421005  20.7805837  28.4204234  -1.3697572  21.3837458
  20.9010134   0.4861396  29.3146554  20.7768831   1.0723841  29.9496373
  21.5528419  -0.0078409  29.6158829  20.9783784   0.5000200  29.4532483
  28.4596832   5.0679101  21.3915239  28.8990468   4.4596201  21.8370012
  28.3101495   4.6886474  20.6200704  28.5018298   4.9217572  21.3434407
  25.9268475   3.6623113  28.5934065  26.5717478   3.1695556  28.2745013
  26.1670252   3.8047899  29.4200143  26.0579060   3.6100555  28.6683598
  28.4654567   6.5078019  28.2440957  28.7477809   5.7129424  28.0227713
  29.1940727   6.9858606  28.2646018  28.6144130   6.4612615  28.2143973
  32.0606169   3.4206282  18.3446009  31.9757464   4.2767249  18.4895577
  32.5490552   3.1450606  19.0128168  32.1195066   3.5063604  18.4648090
  32.9924602   0.0391076  19.8443744  32.4636073   0.2550710  20.5041050
  33.5149622   0.7327215  19.7644713  32.9913055   0.1734213  19.9299343
  38.4472655   5.6137381  25.2176788  37.6170358   5.8248024  25.3810205
  38.3981907   4.7874435  24.9419072  38.3179390   5.5226987  25.2014154
  20.4368238   9.6509054  25.4474883  19.9535817  10.3759544  25.4234467
  21.2491557   9.9485184  25.5585041  20.4858986   9.8011408  25.4602163
  26.5082392   8.4441235  28.0524698  25.9909334   8.0848650  27.4486006
  27.2056784   7.9203409  28.0630764  26.5347974   8.3138923  27.9654956
  30.1645984   8.8936049  34.0140871  30.2529330   8.7062189  34.8619081
  30.5935697   8.2473479  33.6145718  30.2408087   8.7699057  34.0812622
  27.7316444   8.1767209  32.9958533  27.1687279   7.7639819  33.5198194
  28.4937468   8.1020115  33.4151676  27.7610893   8.1044610  33.1351533
  23.2912436  10.1665230  25.5995163  23.9933015   9.6517219  25.6567920
  23.2109919  10.4939382  26.4042038  23.3836196  10.1379456  25.7267955
  37.9426613  -1.7392219  29.0127210  37.1055034  -1.6690031  29.2474804
  37.9114844  -1.7367724  28.1401512  37.8144896  -1.7281992  28.9186758
  24.3391342   0.4040817  34.7275578  24.5111846   0.2946712  35.5760860
  24.8760700   1.0495223  34.4906771  24.4436346   0.4832819  34.8180675
  22.6163211   6.3571582  25.1080771  23.4552110   6.5894515  25.1554533
  22.6474980   5.4875894  25.0387807  22.7444929   6.2628529  25.1045416
  23.2415914   6.7772457  29.4094077  23.7814139   6.6343588  30.0797449
  22.5585860   7.1769208  29.7778103  23.2208068   6.8152128  29.5628498
  32.6656799   2.4563458  24.6039101  33.4214314   2.8894972  24.6428010
  32.7719123   1.8068228  25.1773737  32.7926970   2.4240942  24.6937127
  35.7036970   6.2836735  25.3541504  35.2672202   6.2873478  26.1100475
  35.3699886   6.9642234  24.9221082  35.5899590   6.3849191  25.4022337
  30.2766044   8.3245068  36.6784654  31.0606460   8.4375916  37.0440396
  30.0762638   7.4986205  36.8743340  30.3632069   8.2191787  36.7619040
  18.6453059   2.9972748  29.5628498  18.3791474   2.1811865  29.7219489
  18.6591623   3.0425904  28.6924014  18.6077781   2.8829653  29.4581980
  30.4336437  10.2355170  30.3251110  29.6351683   9.9954670  30.5824979
  30.8822449  10.2869563  31.0718158  30.3811048  10.2077561  30.4736034
  38.8381316   3.0017655  24.2461141  39.4997750   2.4408324  24.1457050
  38.1972728   2.5069686  24.5713832  38.8410184   2.8454064  24.2793481
  29.7258124   6.2987787  16.5542065  30.1409273   5.9672810  15.8626560
  28.8950054   6.0656689  16.4262201  29.6646133   6.2159042  16.4332912
  19.0546473   3.7831528  26.8440242  18.8722046   3.7578414  25.9912535
  19.7896142   4.2530465  26.8829151  19.1360537   3.8492890  26.7238161
  35.1246147   4.0183038  23.9873130  35.3601736   4.1628236  23.1599981
  35.2735711   4.7825446  24.3804644  35.1811950   4.1522092  23.9236734
  22.1192224   0.5016530  33.3522351  22.8432197   0.4869561  33.8387246
  22.2208361   1.2111886  32.8544319  22.2410434   0.6041234  33.3501138
  36.9536604   2.8584703  21.8242734  37.2844821   3.3912344  21.2182829
  37.5269692   2.9123591  22.4804685  37.0870283   2.9454272  21.8320516
  29.4937174   3.9815615  38.2171298  28.7010155   4.2959127  38.4023918
  29.6086101   4.1967083  37.3792083  29.3932584   4.0599452  38.1209633
  32.1668493   0.7049606  22.5066314  32.2615347   1.4438900  22.9605939
  31.5427336   0.2767082  22.9400879  32.0877523   0.7510927  22.6374462
  30.4220967   3.8835819  33.1556595  30.9959828   3.2463063  33.3105159
  30.3435770   3.8839901  32.2866252  30.4954202   3.7900930  33.0503006
  19.0217383   0.6625028  26.9939309  19.5990886   0.5261479  27.6331554
  18.3231445   0.2060812  27.2484893  19.0038405   0.5747294  27.1261599
  25.7784685   2.3159084  25.2077792  25.5203930   1.4830819  25.1809092
  25.8333168   2.5416697  24.3670293  25.7484463   2.2256855  25.0797929
  24.7519397  -0.1303154  25.6942687  24.1768989   0.0289015  26.3306648
  24.3755074  -0.7667745  25.2311138  24.6122210  -0.2005341  25.7197245
  28.4192686  -1.6579804  30.5535065  28.0307119  -2.0825587  29.8987257
  27.7547384  -1.4097655  31.0612092  28.2639614  -1.6841083  30.5322933
  29.5231624   2.5718800  18.7511872  30.3372263   2.8633693  18.6394644
  29.4590766   1.9178663  18.1770165  29.6334363   2.5183995  18.6500710
  35.7441115   5.2544796  33.1641448  35.5079752   4.4232861  33.0453509
  36.3884343   5.2030404  33.7496292  35.8035785   5.1242484  33.2327342
  25.3939533   6.0440318  23.8784185  26.0313480   5.8052065  24.4235978
  25.8194604   6.2477477  23.1437345  25.5515699   6.0391328  23.8501342
  20.0852175   8.2828654  27.7618488  20.1256320   8.5543505  26.9338268
  20.6446699   8.8070562  28.1776276  20.1735521   8.4004409  27.7010376
  36.7677535   5.0389245  29.2269743  36.4623352   5.7717302  29.5883058
  36.0483751   4.6327175  28.9462529  36.6164877   5.0870978  29.2382880
  27.7761005   6.5212740  25.5577971  27.8500013   6.3587912  26.4119821
  28.5930511   6.7102930  25.3138452  27.9077363   6.5249483  25.6475996
  42.4679327   1.6782246  28.5538087  42.4003828   1.6978205  27.6840673
  42.4534990   2.5212573  28.7793757  42.4558084   1.8055980  28.4590564
  21.5366761   6.8670603  22.5872414  20.7104879   7.1132340  22.4606693
  21.5978752   6.7882684  23.4534472  21.4240928   6.8915552  22.6961359
  26.3165590   9.4847483  20.2891444  26.6063889   9.0936465  19.5650671
  27.0469071   9.6664188  20.7296719  26.4672474   9.4541297  20.2474251
  40.2537945   0.4526632  26.8284681  40.8045866  -0.1805299  27.0681773
  40.2382060   0.9842025  27.5200186  40.3323141   0.4375580  26.9663539
  26.9060335   4.2865229  31.3744575  26.4072029   4.9980997  31.4529463
  27.7160560   4.6065896  31.3362737  26.9516442   4.4392078  31.3801143
  24.2571506  11.4614866  23.3551594  24.0371801  11.1712220  24.1478261
  24.0366028  10.8029821  22.8269506  24.1919100  11.3214574  23.3940503
  23.1688453   3.5488182  25.6207296  22.8801702   2.9225654  26.1553023
  24.0371801   3.4908470  25.6871976  23.2548705   3.4475727  25.7098250
  33.9566351  -1.3077034  25.9389277  33.6131117  -2.0286699  26.2896527
  34.0559393  -1.5163183  25.0967636  33.9208394  -1.4452831  25.8660957
  26.4239462  12.8344256  22.1382286  27.0763520  12.3020698  22.3673312
  25.7265070  12.4812908  22.5250160  26.4170180  12.7033779  22.2294454
  23.3720726   5.1883433  21.5449661  24.1266694   5.5696472  21.7585123
  22.7791339   5.6394577  21.9996357  23.3957440   5.3112261  21.6432539
  34.4179380   5.1548670  21.4813266  34.9837413   5.8141880  21.3971808
  33.7707283   5.4998368  21.9529668  34.4058136   5.3030611  21.5386022
  25.8327393  -2.8553726  36.6706873  25.0227169  -2.5495947  36.5596715
  26.3102080  -2.1348144  36.7859457  25.7830872  -2.7039125  36.6713944
  24.6918953   6.3591995  26.9189776  24.1699707   6.4992286  27.6041641
  25.0792973   5.6002659  27.1091893  24.6722654   6.2677519  27.0490853
  30.8885958   8.0987454  20.9050345  30.6472634   7.3655315  20.4977410
  31.0687291   8.6474311  20.2516678  30.8793582   8.0709845  20.7480568
  26.1185279   3.3896014  22.3171267  25.9228061   3.9970748  21.7231570
  26.3419624   2.6963958  21.8362941  26.1219920   3.3773539  22.1587348
  24.5163809   0.2750752  22.4352135  25.2386461   0.4391910  21.9755941
  24.0371801   0.9960416  22.3291475  24.5527539   0.4048981  22.3517749
  32.4757316  -3.3885450  27.8148820  31.6368417  -3.3624171  27.5787084
  32.5461684  -2.7414714  28.3954167  32.3625710  -3.2889324  27.8657937
  22.1671425   2.6808824  31.5406275  22.6792522   2.9593077  30.8915035
  21.8807768   3.4198118  31.9069088  22.2006289   2.8311178  31.4996153
  36.3514840   1.8182537  25.1010062  36.2648815   1.9737963  25.9544841
  35.8965320   2.4620613  24.7269467  36.2718097   1.9358292  25.1717169
  25.6855151  -5.2264787  31.6007317  25.4938348  -5.2109653  32.4506740
  26.5353747  -5.0301113  31.5773972  25.7830873  -5.1950436  31.7230612
  30.2240656  -0.8606716  23.7235622  29.9775370  -0.9410965  24.5572411
  30.5525779  -1.6453248  23.5298149  30.2361900  -0.9880450  23.8183145
  34.1188705   5.8476644  27.5122403  33.9803064   6.5457689  28.0171145
  33.3388703   5.6925300  27.1558585  33.9831932   5.9276810  27.5348677
  32.4566790   2.1473019  33.7644785  32.4514829   1.2752836  33.7687211
  33.1627784   2.3461188  33.2914240  32.5611794   2.0476893  33.6951820
  26.1837683   1.8750003  33.1358605  26.3281059   2.4551211  32.5001715
  26.5313332   2.2526300  33.8408459  26.2565145   2.0170707  33.1457600
  28.3557601   1.0740171  30.9183736  27.6080915   1.2671186  30.5132014
  28.5099126   0.2485391  30.6807858  28.2680028   0.9805283  30.8229142
  25.2565438  10.0652775  30.0019631  25.4055002   9.5055691  29.3493036
  26.0365441  10.1444776  30.3852150  25.3939532   9.9938340  29.9616581
  35.6142078   5.2054897  18.2738902  35.2348887   4.4192035  18.2668191
  34.9508323   5.7541754  18.1310546  35.4600553   5.1699721  18.2519699
  27.7818739  10.2367418  31.2804122  27.7062410   9.5676228  31.8354911
  27.7108598  10.9385206  31.7944789  27.7599346  10.2412325  31.4380970
  28.5959378  -5.0309278  31.8079140  29.0531992  -4.2985304  31.9351932
  28.6715707  -5.4542813  32.5666396  28.6750348  -4.9852040  31.9380216
  28.4388986   8.7568416  22.1127728  29.2038877   8.4878060  21.7910393
  28.3367076   8.2718427  22.8297791  28.5370481   8.6457981  22.1707556
  26.4741756  -3.0407174  28.6520964  25.6837831  -3.2215714  28.9738300
  26.8702379  -3.8180222  28.6351258  26.4158632  -3.1819713  28.6973512
  31.8585442   4.5935256  26.3780410  31.1830444   4.3620488  26.8793797
  31.8677818   3.9856439  25.7522515  31.7603947   4.4694181  26.3596562
  28.9879586  -0.5646915  33.1344463  28.9238727   0.2963041  33.0064600
  29.1276774  -0.8814922  32.3340014  28.9995056  -0.4846748  32.9972676
  33.8602177   7.4500388  18.6090588  33.9422014   8.2567375  18.2852039
  34.3451919   7.4696348  19.3331361  33.9439334   7.5721051  18.6677487
  27.6698680   2.1285224  27.2760666  27.2460929   2.3289723  26.5399684
  27.4943535   1.2814072  27.3884966  27.5809561   2.0334006  27.1834356
  22.9581125   2.6237276  22.7088638  23.1145744   2.5584079  23.5644630
  23.2981718   3.3985828  22.4967318  23.0314360   2.7286474  22.8043233
  29.4960269   1.9995159  21.5782002  30.0375815   1.4965540  22.0420622
  29.8106829   1.9460354  20.7671487  29.6224667   1.9174580  21.5265814
  33.3677377   6.2097807  38.6908914  34.1812242   5.9382956  38.8514046
  33.2072343   5.9105347  37.8869110  33.4647325   6.1252733  38.5954320
  27.6646719   7.3912511  18.8622030  27.7339540   6.5327049  19.0015030
  28.4435174   7.6084392  18.5341054  27.7899569   7.2965375  18.8339187
  30.6449539  -3.1068536  31.6304302  30.8591508  -3.7457622  31.0767656
  30.0283438  -2.6622712  31.2012164  30.5854868  -3.1358392  31.4854733
  32.0554207   9.8150212  23.0758523  31.6633999   9.5116927  22.3581389
  32.2107279  10.6519302  22.8863477  32.0207797   9.8934049  22.9415020
  32.8088627  -1.4979471  32.5687609  31.9965309  -1.8053581  32.6500782
  33.2678561  -1.9780471  33.1330321  32.7569012  -1.6142979  32.6642203
  32.2193882   6.3800201  23.0164553  31.8608536   6.5514844  23.7928586
  31.7332592   6.8413407  22.4592552  32.0952578   6.4739172  23.0489823
  29.9042134  -0.0919399  37.3516311  30.3741766   0.5322717  37.7384186
  29.9504015  -0.7602424  37.9109526  29.9810010  -0.0984719  37.4916383
  33.3798621   7.2704097  33.9631754  34.0178341   6.7764293  33.6294210
  32.7372712   7.1981497  33.3783981  33.3792847   7.1863106  33.8274109
  35.1055621  -0.8806757  28.5297670  34.6783229  -0.9680408  27.7745770
  34.4681674  -0.7728982  29.1152514  34.9485228  -0.8774097  28.5043112
  33.4352877   7.9623905  30.6037111  34.2245256   7.6112970  30.7239193
  33.6096475   8.7760294  30.3413745  33.5773159   8.0309762  30.5824979
  23.1746188   1.3732631  27.6564900  22.3334194   1.2736505  27.8643794
  23.3836196   2.1428111  28.0079221  23.0810880   1.4724674  27.7392215
  20.6521755  -1.0047832  25.4849651  20.2578453  -0.9304820  24.7099760
  20.0961872  -0.6189886  26.0358012  20.5124567  -0.9366057  25.4517310
  26.9862853  -0.6985970  26.9062497  26.6825990  -1.2529982  27.5072905
  26.2842274  -0.5193760  26.4190532  26.8379063  -0.7541187  26.9232203
  25.0481204   6.5163751  31.6134595  24.9401559   6.5265813  32.4796653
  25.2576985   7.3418531  31.4239549  25.0631315   6.6404826  31.7138687
  23.0654996   3.7676393  29.0756533  22.4742929   4.4085892  29.0459548
  23.8276019   4.1914011  29.0487832  23.0903256   3.9252232  29.0671680
  25.1098968  -4.4054914  34.3096578  24.7184533  -5.0521567  34.7452355
  25.2784831  -3.8143479  34.9290833  25.0769879  -4.4140646  34.4659284
  39.1845417   3.5982163  30.0733811  39.2428541   4.0468812  30.8193788
  38.5511885   4.0080976  29.6363891  39.0996712   3.7255898  30.1186359
  32.8244512   9.2185705  26.5088557  32.6264201   9.7076519  25.8144769
  32.2032223   9.4226946  27.0872691  32.7032076   9.3202243  26.4911781
  26.8852490   0.9870602  20.8498802  27.6294535   1.3744878  21.0881751
  27.0313187   0.1428027  21.0139289  27.0163075   0.9201075  20.9092771
  29.8730366  -3.4403925  26.7492721  29.3990320  -3.9662163  27.2598032
  30.2448502  -3.9874452  26.1807582  29.8580255  -3.5987928  26.7407868
  36.1367097   1.6198451  28.1599501  35.8965320   0.7804866  28.1641928
  36.6159104   1.6998617  28.8840275  36.1719280   1.5079850  28.2674304
  38.1372284  -1.6000092  26.1128761  37.8982054  -1.6404258  25.2749545
  38.3006185  -0.7528940  26.2394482  38.1262587  -1.4808007  26.0082242
  34.7418314   2.7849857  32.0433806  35.4652513   2.3322384  31.8644826
  34.4768276   3.0654523  31.2606134  34.8099587   2.7600826  31.9012521
  23.6105182  -2.6189969  28.7786685  22.9858253  -2.6071577  28.1712638
  23.2750777  -2.1429794  29.4277925  23.4690674  -2.5471452  28.7843253
  20.3230858   5.4410491  30.2190449  19.7930782   4.7502930  30.2685424
  20.5955951   5.4320676  29.3903158  20.2855580   5.3377623  30.1037865
  31.3550948   6.0236193  18.9428132  32.0785147   6.4894306  18.7992705
  30.9151539   6.0909803  18.1925729  31.3966641   6.1020030  18.8112913
  30.5237103   2.8833735  30.1928821  29.9094097   2.3391786  30.4877456
  31.0404388   2.3697972  29.7134637  30.5092766   2.7270144  30.1653049
  29.7633401   3.9538005  27.9273119  29.3361009   3.3287724  27.4938555
  29.7558345   3.6712927  28.7532127  29.6992542   3.8190786  27.9852947
  22.8795928  -1.0096821  30.9961553  23.0389414  -1.7653497  31.4013275
  22.6988821  -0.4605882  31.6502291  22.8761287  -1.0403008  31.1524259
  28.0919110  -5.1693240  28.1415653  28.1161597  -5.7033128  27.4528433
  28.3430584  -5.6775931  28.8041244  28.1329029  -5.3232336  28.1380298
  15.6026700   2.1138255  27.5758797  15.4970149   2.0685099  26.7110882
  14.8526920   2.4592036  27.8573082  15.4762303   2.1579163  27.4896127
  26.5550045   3.1238318  35.6241692  25.7045676   3.2610033  35.7599337
  26.7178173   2.3902096  36.0689394  26.4533909   3.0352419  35.7097291
  25.7934796   0.0738088  29.8195297  24.9626726   0.2411906  29.6130545
  25.7386313  -0.3025961  30.6044182  25.6624211   0.0427819  29.9043825
  37.1753628   1.7476268  30.5464355  37.7671468   2.3873519  30.5782553
  37.6112622   1.0499305  30.8356422  37.3272059   1.7394618  30.5945188
  29.0047018   6.1693640  31.1722249  28.4972109   6.7229487  31.6162880
  28.7073664   6.2301930  30.3541024  28.8851903   6.2599952  31.1170706
  31.6154798  10.0856898  19.1026193  30.8984108   9.9117760  18.6373430
  32.2661536   9.8509470  18.5701679  31.6056649  10.0252691  18.9555411
  34.2002769  -1.0378513  22.8467498  33.5293959  -0.4948811  22.7180563
  34.8942520  -0.5683658  22.6049193  34.2031637  -0.8880242  22.7923026
  28.2489503  11.1018199  28.0779256  28.0255157  10.3437028  28.4463283
  27.7599346  11.1316220  27.3559696  28.1432952  10.9940423  28.0255997
  23.0614582  -1.9515110  23.8140718  22.3426571  -1.5350977  24.0813581
  23.4326944  -1.3860871  23.2632356  23.0106514  -1.8065829  23.7723525
  32.3614163  -1.3187261  29.7042713  32.3412090  -1.5003966  30.5577492
  32.4093363  -0.4475243  29.6802297  32.3648804  -1.2170723  29.8266008
  30.3060492   5.2699931  35.6291190  30.2656347   4.6249608  35.0436346
  31.1183811   5.2136548  35.9416602  30.4203646   5.1658898  35.5888139
  26.8967960  11.3218657  25.5316341  26.4828359  10.6592787  25.1420183
  27.5815334  11.4696516  25.0112035  26.9366332  11.2459315  25.3972838
  30.2633254  10.4808742  26.2839957  29.8649537  10.5911012  25.5160778
  29.6484474  10.6890808  26.8666517  30.1132143  10.5282310  26.2571257
  31.7118973  -2.9537606  22.5815847  31.4832666  -2.9304904  21.7394206
  31.9717049  -3.7780139  22.7010858  31.7165161  -3.0721526  22.4741045
  25.9938201  -1.1003133  32.1840948  25.4817104  -1.7081950  32.5425979
  25.8217697  -0.3846540  32.6514923  25.8927838  -1.0839833  32.3057171
  24.7663735  -4.4161059  23.8770043  25.2421101  -4.0543979  23.2420224
  24.2652335  -3.7604592  24.1570186  24.7629094  -4.2666871  23.8246784
  37.9975097   5.0560709  19.6683048  38.3808703   5.8052065  19.8981145
  37.2019210   5.3026528  19.4095037  37.9368879   5.2030403  19.6640622
  29.8707271  -3.1778888  34.6243203  30.4278702  -3.4065078  33.9921669
  29.5468337  -2.4173222  34.3478416  29.9053682  -3.0995051  34.4899700
  27.5890389  -0.0911235  35.5895210  28.3401716   0.2240442  35.9034764
  27.7812965  -0.2932064  34.7629132  27.7281803  -0.0743853  35.5138606
  32.1616531   0.7159833  26.4855213  32.6570196  -0.0017171  26.4459233
  31.3516307   0.4130631  26.3709700  32.1160424   0.5657480  26.4628938
  27.6075142   4.5657647  18.6352217  26.7986465   4.2424320  18.5885526
  28.1150051   3.8590869  18.5680466  27.5624809   4.4138963  18.6182511
  18.2365420   1.9929840  24.3599581  17.3710939   1.9815530  24.2482353
  18.3364236   1.8060063  25.2070721  18.1239587   1.9635901  24.4688526
  34.2268350   3.4663521  29.1732341  34.6523421   2.9437943  28.6202766
  33.8625270   4.0644358  28.6520964  34.2354952   3.4773748  29.0141351
  23.8622430  11.7627738  27.9329687  24.1768989  12.5764127  27.9407469
  24.2715843  11.3777957  28.6011846  23.9690528  11.8256441  28.0333778
  30.8146949   7.1797785  25.5033499  31.2858127   7.8938048  25.6723484
  31.1507128   6.5796535  26.0393368  30.9342064   7.1969250  25.6065875
  32.9023934   8.7899099  37.6825571  33.0120899   8.0007659  38.0382318
  33.2314830   8.7005035  36.8799909  32.9676340   8.6604952  37.6167962
  31.4520896   6.9715719  32.2661191  30.9041842   6.3473603  31.9981257
  31.9133924   7.1609991  31.5505271  31.4388105   6.9074770  32.1211623
  21.2035450   5.7100847  27.5808295  21.8080307   5.6696681  26.9522116
  20.9962762   6.5571999  27.6112351  21.2624347   5.8288849  27.4924412
  31.0179222   7.9766792  28.7970533  31.8377596   7.8329758  29.0586828
  30.7373300   8.6012991  29.3386971  31.0975965   8.0477144  28.9158472
  16.4386732   4.6935464  27.4507218  16.3411010   3.8831736  27.7597275
  17.2215602   4.6727258  27.0653486  16.5402869   4.5702555  27.4394081
  47.4892872  15.6331644  21.7613409  47.4586877  16.4876280  21.9331678
  48.0874221  15.3326936  22.3199553  47.5730030  15.7148140  21.8688211
  40.6892557  14.7207295  26.5166339  39.8330453  14.8815793  26.5675456
  40.7360211  13.8499359  26.5371400  40.5691669  14.6158097  26.5272405
  40.5258657  24.6795382  17.7089118  40.1910025  25.3572304  17.2733340
  41.0385527  24.2900693  17.1205990  40.5524238  24.7219960  17.5575910
  43.5344378  16.7799339  29.1597991  44.0800338  17.4584425  29.2191961
  43.4761254  16.6386800  28.2999573  43.6060292  16.8591340  29.0410052
  45.3109447  18.2083946  20.0331719  45.1948973  18.9591632  20.4623857
  46.1065333  17.9507899  20.2827806  45.4114036  18.2818793  20.1335810
  29.8483497  20.2908691  24.1718677  29.6133682  19.4576344  24.0650946
  29.9869138  20.5713357  23.3579878  29.8339160  20.2092195  24.0361032
  32.1473585  12.4594422  27.0702985  31.5278616  11.8687069  26.9013000
  32.0457448  13.0505857  26.4367308  32.0411260  12.4598504  26.9507974
  37.1939772  22.1977969  21.3201061  37.5155613  22.7383176  20.7162369
  37.8411869  21.6274740  21.4523351  37.3365827  22.1937144  21.2508097
  39.2441480  14.1993964  21.4035448  39.9421645  14.3782091  21.8956911
  39.5593813  13.6764303  20.7805837  39.3936818  14.1487736  21.3837458
  31.8742718  16.0046704  29.3146554  31.7501415  16.5909149  29.9496373
  32.5261002  15.5106899  29.6158829  31.9516367  16.0185508  29.4532483
  39.4329416  20.5864409  21.3915239  39.8723051  19.9781509  21.8370012
  39.2834079  20.2071782  20.6200704  39.4750881  20.4402880  21.3434407
  36.9001059  19.1808421  28.5934065  37.5450061  18.6880864  28.2745013
  37.1402836  19.3233207  29.4200143  37.0311644  19.1285863  28.6683598
  39.4387150  22.0263326  28.2440957  39.7210393  21.2314732  28.0227713
  40.1673311  22.5043914  28.2646018  39.5876714  21.9797923  28.2143973
  37.4168344   9.5686360  25.4856723  37.0871674  10.0197504  24.8160421
  36.7413346   9.4902524  26.0329729  37.2678780   9.6237496  25.4679946
  43.0338752  18.9391590  18.3446009  42.9490047  19.7952557  18.4895577
  43.5223136  18.6635914  19.0128168  43.0927650  19.0248912  18.4648090
  44.6244752   5.5571883  23.7306333  44.3098193   6.2475362  24.1626756
  44.1071693   5.5016666  23.0291834  44.5009222   5.6506772  23.6903282
  43.9657186  15.5576384  19.8443744  43.4368657  15.7736018  20.5041050
  44.4882205  16.2512523  19.7644713  43.9645639  15.6919521  19.9299343
  49.4205238  21.1322689  25.2176788  48.5902942  21.3433332  25.3810205
  49.3714491  20.3059743  24.9419072  49.2911974  21.0412295  25.2014154
  35.8556793  19.4539601  18.6451212  35.2714009  19.9589632  19.0517076
  35.4526889  19.2281988  17.9047804  35.7096097  19.4947849  18.5956237
  31.4100822  25.1694362  25.4474883  30.9268400  25.8944852  25.4234467
  32.2224140  25.4670492  25.5585041  31.4591570  25.3196716  25.4602163
  40.3134008  15.7005253  17.1220132  40.5530011  15.9083237  16.3095475
  40.6349849  14.8962762  17.2309077  40.3971166  15.6119354  17.0180685
  35.6224298   7.6298649  20.9679670  36.3770266   7.9976966  20.7296720
  35.4451833   8.0038203  21.7358850  35.7078776   7.7396837  21.0464559
  48.9159197  13.7793089  29.0127210  48.0787618  13.8495276  29.2474804
  48.8847428  13.7817584  28.1401512  48.7877479  13.7903316  28.9186758
  35.3123926  15.9226125  34.7275578  35.4844429  15.8132020  35.5760860
  35.8493283  16.5680530  34.4906771  35.4168930  16.0018127  34.8180675
  33.9781363  10.0368968  17.6657783  33.7956936  10.2540849  16.8398776
  34.8406976  10.1507981  17.7216398  34.0785952  10.0858866  17.5512270
  33.5895795  21.8756890  25.1080771  34.4284694  22.1079823  25.1554533
  33.6207564  21.0061201  25.0387807  33.7177512  21.7813837  25.1045416
  39.6581082   7.0395379  20.7006807  40.3867242   6.8611333  20.2544963
  39.7475975   7.8813458  20.9113985  39.7787744   7.1379257  20.6660325
  43.6389383  17.9748766  24.6039101  44.3946898  18.4080280  24.6428010
  43.7451707  17.3253536  25.1773737  43.7659553  17.9426250  24.6937127
  46.6769554  21.8022043  25.3541504  46.2404786  21.8058786  26.1100475
  46.3432469  22.4827542  24.9221082  46.5632174  21.9034499  25.4022337
  29.6185643  18.5158056  29.5628498  29.3524058  17.6997173  29.7219489
  29.6324207  18.5611212  28.6924014  29.5810365  18.4014961  29.4581980
  46.5967037   8.8435871  27.5970932  47.2392945   8.9133976  28.1832847
  46.8490057   8.1765094  27.0950474  46.7289169   8.7562220  27.6098211
  33.5243390  13.3143140  16.1780256  32.8101567  13.0281320  16.5902689
  34.0087358  13.6539766  16.8186644  33.4902753  13.3224790  16.3335891
  34.3684249  12.0536434  32.2095506  33.6756046  11.5833414  32.4556237
  34.9844576  11.8274739  32.7837213  34.3568779  11.9503566  32.3304659
  49.8113900  18.5202963  24.2461141  50.4730334  17.9593632  24.1457050
  49.1705312  18.0254994  24.5713832  49.8142767  18.3639372  24.2793481
  40.6990708  21.8173094  16.5542065  41.1141856  21.4858118  15.8626560
  39.8682637  21.5841997  16.4262201  40.6378716  21.7344350  16.4332912
  30.0279056  19.3016835  26.8440242  29.8454630  19.2763721  25.9912535
  30.7628725  19.7715773  26.8829151  30.1093120  19.3678198  26.7238161
  46.0978731  19.5368345  23.9873130  46.3334320  19.6813544  23.1599981
  46.2468294  20.3010753  24.3804644  46.1544534  19.6707400  23.9236734
  47.9269187  18.3770011  21.8242734  48.2577404  18.9097652  21.2182829
  48.5002275  18.4308899  22.4804685  48.0602866  18.4639580  21.8320516
  43.1401076  16.2234914  22.5066314  43.2347931  16.9624208  22.9605939
  42.5159920  15.7952390  22.9400879  43.0610107  16.2696235  22.6374462
  41.3953550  19.4021127  33.1556595  41.9692412  18.7648371  33.3105159
  41.3168354  19.4025209  32.2866252  41.4686785  19.3086238  33.0503006
  29.9949967  16.1810336  26.9939309  30.5723469  16.0446787  27.6331554
  29.2964028  15.7246120  27.2484893  29.9770988  16.0932602  27.1261599
  43.3924098  18.0683654  15.7403266  43.3104260  18.1385841  16.6058253
  44.0303818  18.6313398  15.5487007  43.4743935  18.1622625  15.8393215
  36.7517269  17.8344392  25.2077792  36.4936513  17.0016127  25.1809092
  36.8065752  18.0602005  24.3670293  36.7217047  17.7442163  25.0797929
  41.8318319   9.9372843  25.3081885  41.1274646   9.4482028  25.4665804
  41.8803293   9.9495317  24.4370329  41.7348371   9.8662490  25.2021225
  35.7251981  15.3882154  25.6942687  35.1501572  15.5474323  26.3306648
  35.3487657  14.7517563  25.2311138  35.5854793  15.3179967  25.7197245
  39.3925270  13.8605504  30.5535065  39.0039702  13.4359721  29.8987257
  38.7279968  14.1087653  31.0612092  39.2372197  13.8344225  30.5322933
  49.0348539  13.6180508  23.3282896  48.7785104  12.8060450  23.1380778
  49.8777853  13.6258075  23.1013083  49.1214564  13.4992506  23.2667713
  25.4708800  15.0322229  23.7087128  25.5569052  14.6554097  24.4900658
  26.0984597  14.6582675  23.2307086  25.5765351  14.9207711  23.7532605
  43.2151631   7.5580132  28.0659050  43.5962143   6.8758303  28.4526924
  42.4114916   7.2689734  27.8834714  43.1528093   7.4147181  28.0963106
  40.4964208  18.0904108  18.7511872  41.3104847  18.3819001  18.6394644
  40.4323349  17.4363971  18.1770165  40.6066947  18.0369303  18.6500710
  46.7173698  20.7730104  33.1641448  46.4812336  19.9418169  33.0453509
  47.3616927  20.7215711  33.7496292  46.7768369  20.6427792  33.2327342
  36.3672116  21.5625626  23.8784185  37.0046063  21.3237373  24.4235978
  36.7927188  21.7662785  23.1437345  36.5248282  21.5576636  23.8501342
  31.0584759  23.8013962  27.7618488  31.0988904  24.0728813  26.9338268
  31.6179283  24.3255870  28.1776276  31.1468105  23.9189717  27.7010376
  37.0074931  16.7827915  18.2159074  37.3920084  16.5635622  18.9675619
  36.7586552  17.6090861  18.3460150  37.0277004  16.8726062  18.3460150
  37.1743472  10.0634331  37.9321658  36.8596913  10.8333893  37.6691221
  36.8533404   9.5004587  37.3473885  37.0802391  10.0944599  37.8063008
  47.7410119  20.5574553  29.2269743  47.4355936  21.2902610  29.5883058
  47.0216334  20.1512483  28.9462529  47.5897461  20.6056286  29.2382880
  38.7493588  22.0398048  25.5577971  38.8232596  21.8773220  26.4119821
  39.5663094  22.2288238  25.3138452  38.8809947  22.0434791  25.6475996
  53.4411911  17.1967554  28.5538087  53.3736411  17.2163513  27.6840673
  53.4267573  18.0397881  28.7793757  53.4290667  17.3241288  28.4590564
  32.5099345  22.3855911  22.5872414  31.6837463  22.6317648  22.4606693
  32.5711336  22.3067992  23.4534472  32.3973512  22.4100860  22.6961359
  34.7275369   8.4524852  23.5467854  33.8597794   8.5247452  23.6125464
  35.0150573   9.2546931  23.7355830  34.6415117   8.5818999  23.5842621
  43.8508257   8.6002711  31.8779176  44.5961849   8.4112522  31.4642602
  43.4345562   9.1260949  31.3193033  43.8993232   8.6504857  31.7343749
  37.2898174  25.0032791  20.2891444  37.5796472  24.6121773  19.5650671
  38.0201655  25.1849496  20.7296719  37.4405058  24.9726605  20.2474251
  51.2270528  15.9711940  26.8284681  51.7778450  15.3380009  27.0681773
  51.2114644  16.5027333  27.5200186  51.3055725  15.9560888  26.9663539
  37.8792919  19.8050537  31.3744575  37.3804613  20.5166305  31.4529463
  38.6893143  20.1251204  31.3362737  37.9249026  19.9577386  31.3801143
  34.1421037  19.0673490  25.6207296  33.8534285  18.4410961  26.1553023
  35.0104385  19.0093778  25.6871976  34.2281289  18.9661034  25.7098250
  44.9298934  14.2108274  25.9389277  44.5863700  13.4898609  26.2896527
  45.0291977  14.0022125  25.0967636  44.8940977  14.0732477  25.8660957
  34.3453310  20.7068741  21.5449661  35.0999278  21.0881780  21.7585123
  33.7523923  21.1579885  21.9996357  34.3690024  20.8297569  21.6432539
  45.3911964  20.6733978  21.4813266  45.9569996  21.3327188  21.3971808
  44.7439867  21.0183676  21.9529668  45.3790720  20.8215919  21.5386022
  36.8059977  12.6631582  36.6706873  35.9959753  12.9689361  36.5596715
  37.2834664  13.3837164  36.7859457  36.7563456  12.8146183  36.6713944
  35.6651537  21.8777303  26.9189776  35.1432290  22.0177594  27.6041641
  36.0525557  21.1187967  27.1091893  35.6455238  21.7862826  27.0490853
  32.6542721  11.9283111  20.9884731  32.3667516  11.5584382  20.2516678
  33.3413189  12.3977967  20.7268436  32.7131618  11.9430081  20.8399806
  41.8618542  23.6172762  20.9050345  41.6205218  22.8840623  20.4977410
  42.0419875  24.1659619  20.2516678  41.8526166  23.5895153  20.7480568
  37.0917862  18.9081322  22.3171267  36.8960645  19.5156056  21.7231570
  37.3152208  18.2149266  21.8362941  37.0952503  18.8958847  22.1587348
  35.4896392  15.7936060  22.4352135  36.2119044  15.9577218  21.9755941
  35.0104385  16.5145724  22.3291475  35.5260123  15.9234289  22.3517749
  43.4489900  12.1299858  27.8148820  42.6101000  12.1561137  27.5787084
  43.5194267  12.7770594  28.3954167  43.3358293  12.2295984  27.8657937
  41.8959178   9.0285235  22.5476436  42.5985531   8.8292984  22.0696395
  41.6303367   8.2561178  22.8545280  41.9605810   8.8848201  22.5221878
  47.3247424  17.3367845  25.1010062  47.2381398  17.4923271  25.9544841
  46.8697904  17.9805921  24.7269467  47.2450680  17.4543600  25.1717169
  30.2270915  12.7064324  21.8370012  30.3287052  13.5090485  22.1650987
  31.0226802  12.5051660  21.5393092  30.3598821  12.7950223  21.8405367
  36.6587734  10.2920521  31.6007317  36.4670931  10.3075655  32.4506740
  37.5086330  10.4884195  31.5773972  36.7563456  10.3234872  31.7230612
  31.0434647  12.8211502  29.5791133  30.9020139  11.9695443  29.7035641
  31.3275211  12.8640163  28.7553339  31.0642493  12.7011252  29.4758757
  45.0921289  21.3661952  27.5122403  44.9535648  22.0642997  28.0171145
  44.3121286  21.2110608  27.1558585  44.9564515  21.4462118  27.5348677
  43.4299374  17.6658327  33.7644785  43.4247412  16.7938143  33.7687211
  44.1360368  17.8646496  33.2914240  43.5344378  17.5662201  33.6951820
  37.1570267  17.3935311  33.1358605  37.3013643  17.9736519  32.5001715
  37.5045916  17.7711608  33.8408459  37.2297728  17.5356015  33.1457600
  39.3290184  16.5925479  30.9183736  38.5813498  16.7856494  30.5132014
  39.4831710  15.7670699  30.6807858  39.2412612  16.4990591  30.8229142
  46.5874661  20.7240205  18.2738902  46.2081470  19.9377343  18.2668191
  45.9240907  21.2727062  18.1310546  46.4333136  20.6885029  18.2519699
  39.5691961  10.4876030  31.8079140  40.0264576  11.2200004  31.9351932
  39.6448290  10.0642495  32.5666396  39.6482931  10.5333268  31.9380216
  31.8124953  10.7341850  32.8968584  31.2767142  10.1222208  33.2129351
  31.8742717  11.3089986  33.5502250  31.7420585  10.7288777  33.0404010
  44.0419287   3.6665905  25.6772983  44.1602855   4.1242368  24.9440286
  43.8681463   2.8611166  25.3909201  44.0338458   3.6159677  25.5273917
  39.4121570  24.2753724  22.1127728  40.1771461  24.0063368  21.7910393
  39.3099660  23.7903735  22.8297791  39.5103065  24.1643289  22.1707556
  37.4474339  12.4778134  28.6520964  36.6570414  12.2969594  28.9738300
  37.8434962  11.7005086  28.6351258  37.3891216  12.3365595  28.6973512
  41.9340230  21.3065908  14.0927678  42.7013215  21.3666033  13.6833529
  41.4871539  20.7346350  13.6083996  41.9813657  21.2302484  13.9605388
  42.8318026  20.1120564  26.3780410  42.1563027  19.8805796  26.8793797
  42.8410402  19.5041747  25.7522515  42.7336530  19.9879489  26.3596562
  39.9612170  14.9538393  33.1344463  39.8971311  15.8148349  33.0064600
  40.1009357  14.6370386  32.3340014  39.9727640  15.0338560  32.9972676
  44.8334760  22.9685696  18.6090588  44.9154598  23.7752683  18.2852039
  45.3184502  22.9881656  19.3331361  44.9171918  23.0906359  18.6677487
  38.6431264  17.6470532  27.2760666  38.2193513  17.8475031  26.5399684
  38.4676119  16.7999380  27.3884966  38.5542144  17.5519314  27.1834356
  33.9313708  18.1422584  22.7088638  34.0878328  18.0769387  23.5644630
  34.2714302  18.9171136  22.4967318  34.0046943  18.2471782  22.8043233
  40.4692853  17.5180467  21.5782002  41.0108399  17.0150848  22.0420622
  40.7839412  17.4645662  20.7671487  40.5957250  17.4359888  21.5265814
  38.6379303  22.9097819  18.8622030  38.7072123  22.0512357  19.0015030
  39.4167758  23.1269700  18.5341054  38.7632153  22.8150683  18.8339187
  41.6182122  12.4116772  31.6304302  41.8324092  11.7727686  31.0767656
  41.0016022  12.8562596  31.2012164  41.5587452  12.3826916  31.4854733
  43.0286790  25.3335520  23.0758523  42.6366582  25.0302235  22.3581389
  43.1839863  26.1704610  22.8863477  42.9940380  25.4119357  22.9415020
  30.5047970  15.3257534  23.0249406  30.8846935  15.7442079  22.3609673
  29.9303335  15.9070990  23.3318249  30.4759295  15.4735393  22.9726147
  43.7821210  14.0205837  32.5687609  42.9697892  13.7131727  32.6500782
  44.2411145  13.5404837  33.1330321  43.7301595  13.9042329  32.6642203
  43.1926465  21.8985509  23.0164553  42.8341120  22.0700152  23.7928586
  42.7065176  22.3598715  22.4592552  43.0685162  21.9924480  23.0489823
  41.0096851   5.5216707  26.6191645  40.1390409   5.4955429  26.5724954
  41.2637192   5.3493900  25.8017491  40.9190411   5.4926851  26.4911782
  37.9814831  17.5784674  15.5564788  38.2707355  18.3549557  15.8308362
  38.0686629  17.0673406  16.2579287  38.0369087  17.6176593  15.7007286
  40.8774718  15.4265908  37.3516311  41.3474349  16.0508025  37.7384186
  40.9236598  14.7582884  37.9109526  40.9542594  15.4200589  37.4916383
  38.0345992   7.5322936  28.0765115  37.5184480   6.8403127  28.2016694
  37.4739920   8.1993713  28.0227714  37.8752505   7.5286194  28.0871181
  40.1038225   8.0715896  29.9057968  39.7169978   8.0964927  30.6871498
  39.6171162   7.5057575  29.4532484  39.9750734   7.9911647  29.9545871
  46.0788205  14.6378551  28.5297670  45.6515813  14.5504899  27.7745770
  45.4414258  14.7456326  29.1152514  45.9217812  14.6411211  28.5043112
  39.7695367   4.9582881  32.1968228  40.3988485   5.4943181  31.9189298
  39.9381229   4.8660240  33.0481793  39.8873161   5.0244244  32.2816756
  39.5709282   9.7454076  34.4694639  40.3982711   9.4739225  34.5253254
  39.5917128  10.5414918  34.8258457  39.6962132   9.8233830  34.5309822
  44.4085461  23.4809213  30.6037111  45.1977839  23.1298278  30.7239193
  44.5829059  24.2945602  30.3413745  44.5505743  23.5495070  30.5824979
  34.1478772  16.8917939  27.6564900  33.3066778  16.7921813  27.8643794
  34.3568779  17.6613419  28.0079221  34.0543464  16.9909982  27.7392215
  31.6254338  14.5137476  25.4849651  31.2311036  14.5880488  24.7099760
  31.0694455  14.8995422  26.0358012  31.4857151  14.5819251  25.4517310
  43.2619285   7.4918770  25.1653530  43.4668879   7.4241078  26.0110527
  42.9345709   8.2977591  25.0974707  43.2434533   7.6004710  25.2813185
  37.9595436  14.8199338  26.9062497  37.6558574  14.2655326  27.5072905
  37.2574857  14.9991548  26.4190532  37.8111646  14.7644120  26.9232203
  37.0161533  12.1299858  21.4707199  37.2921268  11.4118770  21.0584767
  37.6160203  12.7284778  21.2628305  37.1454798  12.1120229  21.3787961
  46.5152973   8.0450534  24.6456295  45.9027287   8.5320936  25.0310027
  46.6117148   7.3694025  25.1893946  46.4390871   8.0168843  24.7835153
  40.5172054   9.8013375  19.7453794  40.9715801   9.9723936  20.4701639
  40.9912100   9.1881486  19.3451570  40.6540374   9.7364261  19.7927556
  34.0387579  19.2861701  29.0756533  33.4475513  19.9271199  29.0459548
  34.8008603  19.7099319  29.0487832  34.0635840  19.4437540  29.0671680
  34.4348202  10.4463699  29.7424550  34.8949684  10.5202628  30.4799674
  34.4804309  11.2444953  29.3924372  34.5098757  10.5757846  29.7997307
  36.0831552  11.1130394  34.3096578  35.6917117  10.4663741  34.7452355
  36.2517415  11.7041829  34.9290833  36.0502462  11.1044662  34.4659284
  50.1578001  19.1167471  30.0733811  50.2161125  19.5654120  30.8193788
  49.5244469  19.5266284  29.6363891  50.0729296  19.2441206  30.1186359
  43.7977096  24.7371013  26.5088557  43.5996784  25.2261827  25.8144769
  43.1764807  24.9412254  27.0872691  43.6764660  24.8387551  26.4911781
  37.8585074  16.5055910  20.8498802  38.6027119  16.8930186  21.0881751
  38.0045770  15.6613335  21.0139289  37.9895659  16.4386382  20.9092771
  39.7764649   8.3006169  25.8830663  38.9300694   8.4728976  25.7572013
  39.7735782   7.4955512  26.2196491  39.6511799   8.2067198  25.9141790
  40.8462950  12.0781383  26.7492721  40.3722904  11.5523145  27.2598032
  41.2181086  11.5310856  26.1807582  40.8312839  11.9197380  26.7407868
  47.1099680  17.1383759  28.1599501  46.8697903  16.2990174  28.1641928
  47.5891688  17.2183925  28.8840275  47.1451864  17.0265158  28.2674304
  42.7746449  12.9717938  19.8118475  42.2469468  13.0546682  19.1224184
  43.2342158  13.7135809  19.8083119  42.7648300  13.0938600  19.7093170
  49.1104867  13.9185216  26.1128761  48.8714637  13.8781050  25.2749545
  49.2738769  14.7656368  26.2394482  49.0995171  14.0377301  26.0082242
  45.7150898  18.3035165  32.0433806  46.4385096  17.8507692  31.8644826
  45.4500860  18.5839831  31.2606134  45.7832171  18.2786134  31.9012521
  34.5837766  12.8995339  28.7786685  33.9590836  12.9113731  28.1712638
  34.2483361  13.3755514  29.4277925  34.4423258  12.9713856  28.7843253
  34.7679515  11.2420457  14.8359370  34.4192319  11.8940182  15.2990919
  34.2875960  11.2277570  14.1083241  34.6449759  11.3363511  14.7970461
  42.3283532  21.5421501  18.9428132  43.0517731  22.0079614  18.7992705
  41.8884123  21.6095111  18.1925729  42.3699224  21.6205338  18.8112913
  41.4969687  18.4019043  30.1928821  40.8826680  17.8577094  30.4877456
  42.0136972  17.8883280  29.7134637  41.4825349  18.2455452  30.1653049
  40.7365984  19.4723313  27.9273119  40.3093592  18.8473032  27.4938555
  40.7290929  19.1898235  28.7532127  40.6725125  19.3376094  27.9852947
  33.8528511  14.5088486  30.9961553  34.0121998  13.7531811  31.4013275
  33.6721405  15.0579426  31.6502291  33.8493870  14.4782300  31.1524259
  41.7948814   6.6749722  31.5512343  41.2989376   6.8713396  30.8603910
  42.5517876   7.0742390  31.3801144  41.8335639   6.7627456  31.4232480
  39.0651694  10.3492068  28.1415653  39.0894181   9.8152180  27.4528433
  39.3163167   9.8409377  28.8041244  39.1061613  10.1952972  28.1380298
  26.5759284  17.6323563  27.5758797  26.4702733  17.5870407  26.7110882
  25.8259504  17.9777343  27.8573082  26.4494887  17.6764471  27.4896127
  35.3453016   9.0762886  27.5221398  35.3851388   9.5772093  28.2356105
  34.5202681   9.1673280  27.2527321  35.2292542   9.1644703  27.5871936
  37.5282629  18.6423626  35.6241692  36.6778260  18.7795340  35.7599337
  37.6910757  17.9087404  36.0689394  37.4266493  18.5537727  35.7097291
  36.7667380  15.5923396  29.8195297  35.9359309  15.7597214  29.6130545
  36.7118897  15.2159347  30.6044182  36.6356794  15.5613127  29.9043825
  34.5751163   9.0832289  35.4551707  35.2003866   8.5394422  35.7281140
  34.1201643   8.6027207  34.8859498  34.5999423   8.9321770  35.4113301
  35.1403423  13.8678988  20.3485414  35.2806384  14.3651452  21.0514056
  35.6385956  13.1665282  20.4899628  35.2344504  13.8380966  20.4736993
  35.1703646  14.7346099  17.6777991  35.8048725  15.3306524  17.6127453
  35.2529257  14.4349556  18.4923861  35.2760197  14.7787007  17.7881078
  48.1486212  17.2661576  30.5464355  48.7404052  17.9058827  30.5782553
  48.5845206  16.5684613  30.8356422  48.3004643  17.2579926  30.5945188
  36.7482629  10.6660074  17.6523433  37.0698470  10.1863157  16.9982696
  37.0109572  11.4759720  17.4614245  36.8348654  10.7149972  17.5278925
  42.1441784  10.0532268  30.0146912  42.5696855   9.6004794  29.4030439
  41.5298777   9.4992339  30.2911700  42.1170429   9.9046244  29.9651938
  31.6756634  16.9313939  20.9467537  32.1848863  17.5278447  21.3278843
  32.1490906  16.6639913  20.2643957  31.8200009  16.9799755  20.9022060
  42.5887382  25.6042206  19.1026193  41.8716691  25.4303068  18.6373430
  43.2394119  25.3694778  18.5701679  42.5789232  25.5437999  18.9555411
  40.5836006   6.5247368  23.4237489  39.9404324   6.3745014  23.9922628
  40.2435413   6.2789713  22.6586594  40.4381084   6.4659490  23.3940504
  45.1735353  14.4806795  22.8467498  44.5026543  15.0236497  22.7180563
  45.8675103  14.9501650  22.6049193  45.1764220  14.6305066  22.7923026
  39.2222087  26.6203507  28.0779256  38.9987741  25.8622336  28.4463283
  38.7331930  26.6501528  27.3559696  39.1165536  26.5125731  28.0255997
  45.3363480  10.9362678  25.7557871  45.6891090  10.5092401  26.4303670
  44.4778282  10.8513522  25.8858948  45.2612925  10.8607419  25.8752882
  34.0347165  13.5670198  23.8140718  33.3159154  13.9834330  24.0813581
  34.4059528  14.1324437  23.2632356  33.9839097  13.7119479  23.7723525
  43.3346746  14.1998047  29.7042713  43.3144673  14.0181342  30.5577492
  43.3825947  15.0710065  29.6802297  43.3381387  14.3014585  29.8266008
  41.2365838  25.9994050  26.2839957  40.8382121  26.1096320  25.5160778
  40.6217057  26.2076116  26.8666517  41.0864727  26.0467618  26.2571257
  39.8093740  12.6068198  19.1514097  39.2158579  12.9285194  18.5998664
  39.8469017  11.7609293  18.9435203  39.7268129  12.5292526  19.0396868
  46.7687540   6.0581090  26.6842184  46.2618405   5.3510230  26.6163361
  47.5654974   5.7274279  26.8143260  46.8114780   5.9054241  26.6941179
  42.6851556  12.5647702  22.5815847  42.4565249  12.5880404  21.7394206
  42.9449632  11.7405169  22.7010858  42.6897744  12.4463782  22.4741045
  36.9670785  14.4182175  32.1840948  36.4549688  13.8103358  32.5425979
  36.7950281  15.1338768  32.6514923  36.8660422  14.4345475  32.3057171
  31.8136499  12.8619751  34.8343309  31.6439090  13.5221125  34.2891516
  31.3702449  13.0726312  35.5555798  31.7235833  12.9905733  34.8604939
  35.7396319  11.1024249  23.8770043  36.2153685  11.4641328  23.2420224
  35.2384918  11.7580716  24.1570186  35.7361678  11.2518437  23.8246784
  48.9707680  20.5746017  19.6683048  49.3541286  21.3237373  19.8981145
  48.1751794  20.8211836  19.4095037  48.9101463  20.7215711  19.6640622
  40.8439855  12.3406420  34.6243203  41.4011285  12.1120230  33.9921669
  40.5200920  13.1012086  34.3478416  40.8786265  12.4190257  34.4899700
  38.5622972  15.4274073  35.5895210  39.3134299  15.7425750  35.9034764
  38.7545549  15.2253244  34.7629132  38.7014386  15.4441455  35.5138606
  37.7822972  13.2465448  17.2443427  38.1621937  13.2645078  16.4594542
  37.0415568  13.6919437  17.1234274  37.7291810  13.3147223  17.1106995
  45.4108262  11.5547640  22.8319006  45.4102489  11.3996296  23.6903282
  45.2064443  12.4010627  22.7760391  45.3808040  11.6568260  22.9506945
  43.1349115  16.2345141  26.4855213  43.6302780  15.5168136  26.4459233
  42.3248890  15.9315939  26.3709700  43.0893008  16.0842788  26.4628938
  38.5807726  20.0842955  18.6352217  37.7719049  19.7609628  18.5885526
  39.0882635  19.3776177  18.5680466  38.5357393  19.9324271  18.6182511
  29.2098003  17.5115148  24.3599581  28.3443523  17.5000838  24.2482353
  29.3096819  17.3245371  25.2070721  29.0972170  17.4821209  24.4688526
  45.2000933  18.9848829  29.1732341  45.6256005  18.4623251  28.6202766
  44.8357853  19.5829666  28.6520964  45.2087536  18.9959056  29.0141351
  41.7879533  22.6983093  25.5033499  42.2590711  23.4123356  25.6723484
  42.1239711  22.0981843  26.0393368  41.9074648  22.7154557  25.6065875
  38.7049028   7.4710564  32.4591594  38.8376933   6.6741557  32.7872569
  39.0894181   7.9976967  33.0389869  38.7805357   7.4310480  32.5935096
  41.7781383   4.3940890  29.0572687  40.9727347   4.2838620  29.3740525
  41.6488118   4.4953346  28.2002553  41.6401516   4.3924560  28.9780727
  45.2347344  10.5586382  29.6512384  44.6510332  11.0595588  29.2389951
  45.5551638  10.0515938  29.0176707  45.1960519  10.5578217  29.4970891
  37.7742143   9.4726977  19.9271059  38.5957837   9.6425289  19.6852753
  37.3111794   9.6274238  19.2037356  37.8273305   9.5208710  19.7842703
  36.3637475   7.4669739  30.7069487  36.9081888   7.1260866  31.2973829
  36.4174410   8.3255200  30.8490772  36.4526594   7.5424998  30.8151361
  32.1768033  21.2286155  27.5808295  32.7812891  21.1881989  26.9522116
  31.9695346  22.0757307  27.6112351  32.2356931  21.3474157  27.4924412
  41.9911805  23.4952100  28.7970533  42.8110179  23.3515066  29.0586828
  41.7105883  24.1198299  29.3386971  42.0708549  23.5662452  28.9158472
  27.4119316  20.2120772  27.4507218  27.3143594  19.4017044  27.7597275
  28.1948185  20.1912566  27.0653486  27.5135452  20.0887863  27.4394081
  58.4625456  31.1516952  21.7613409  58.4319460  32.0061588  21.9331678
  59.0606805  30.8512244  22.3199553  58.5462614  31.2333448  21.8688211
  51.6625141  30.2392603  26.5166339  50.8063036  30.4001101  26.5675456
  51.7092794  29.3684667  26.5371400  51.5424252  30.1343405  26.5272405
  51.4991240  40.1980690  17.7089118  51.1642609  40.8757612  17.2733340
  52.0118111  39.8086001  17.1205990  51.5256821  40.2405268  17.5575910
  54.5076962  32.2984647  29.1597991  55.0532922  32.9769733  29.2191961
  54.4493838  32.1572108  28.2999573  54.5792876  32.3776648  29.0410052
  56.2842030  33.7269254  20.0331719  56.1681556  34.4776940  20.4623857
  57.0797917  33.4693207  20.2827806  56.3846620  33.8004101  20.1335810
  40.8216081  35.8093999  24.1718677  40.5866265  34.9761652  24.0650946
  40.9601722  36.0898665  23.3579878  40.8071743  35.7277503  24.0361032
  43.1206168  27.9779730  27.0702985  42.5011200  27.3872377  26.9013000
  43.0190032  28.5691165  26.4367308  43.0143844  27.9783812  26.9507974
  48.1672356  37.7163277  21.3201061  48.4888197  38.2568484  20.7162369
  48.8144452  37.1460048  21.4523351  48.3098411  37.7122452  21.2508097
  50.2174064  29.7179272  21.4035448  50.9154229  29.8967399  21.8956911
  50.5326396  29.1949611  20.7805837  50.3669401  29.6673044  21.3837458
  50.4061999  36.1049717  21.3915239  50.8455635  35.4966817  21.8370012
  50.2566662  35.7257090  20.6200704  50.4483465  35.9588188  21.3434407
  48.3900928  25.0871668  25.4856723  48.0604258  25.5382812  24.8160421
  47.7145929  25.0087832  26.0329729  48.2411364  25.1422804  25.4679946
  54.0071336  34.4576898  18.3446009  53.9222631  35.3137865  18.4895577
  54.4955719  34.1821222  19.0128168  54.0660233  34.5434219  18.4648090
  55.5977335  21.0757191  23.7306333  55.2830776  21.7660670  24.1626756
  55.0804277  21.0201974  23.0291834  55.4741806  21.1692080  23.6903282
  54.9389769  31.0761692  19.8443744  54.4101241  31.2921326  20.5041050
  55.4614789  31.7697831  19.7644713  54.9378222  31.2104829  19.9299343
  60.3937822  36.6507997  25.2176788  59.5635525  36.8618640  25.3810205
  60.3447074  35.8245051  24.9419072  60.2644557  36.5597603  25.2014154
  46.8289377  34.9724909  18.6451212  46.2446592  35.4774940  19.0517076
  46.4259472  34.7467296  17.9047804  46.6828681  35.0133157  18.5956237
  51.2866591  31.2190561  17.1220132  51.5262595  31.4268545  16.3095475
  51.6082432  30.4148070  17.2309077  51.3703749  31.1304662  17.0180685
  46.5956882  23.1483957  20.9679670  47.3502850  23.5162274  20.7296720
  46.4184416  23.5223511  21.7358850  46.6811360  23.2582145  21.0464559
  59.8891780  29.2978397  29.0127210  59.0520201  29.3680584  29.2474804
  59.8580011  29.3002892  28.1401512  59.7610063  29.3088624  28.9186758
  44.9513946  25.5554276  17.6657783  44.7689519  25.7726157  16.8398776
  45.8139559  25.6693288  17.7216398  45.0518536  25.6044174  17.5512270
  50.6313665  22.5580686  20.7006807  51.3599826  22.3796641  20.2544963
  50.7208558  23.3998766  20.9113985  50.7520328  22.6564565  20.6660325
  54.6121966  33.4934074  24.6039101  55.3679481  33.9265588  24.6428010
  54.7184291  32.8438844  25.1773737  54.7392137  33.4611558  24.6937127
  57.6502137  37.3207351  25.3541504  57.2137369  37.3244093  26.1100475
  57.3165053  38.0012850  24.9221082  57.5364757  37.4219807  25.4022337
  57.5699620  24.3621179  27.5970932  58.2125529  24.4319284  28.1832847
  57.8222641  23.6950402  27.0950474  57.7021752  24.2747528  27.6098211
  44.4975973  28.8328448  16.1780256  43.7834150  28.5466628  16.5902689
  44.9819942  29.1725074  16.8186644  44.4635337  28.8410098  16.3335891
  60.7846483  34.0388271  24.2461141  61.4462918  33.4778939  24.1457050
  60.1437895  33.5440302  24.5713832  60.7875351  33.8824680  24.2793481
  51.6723291  37.3358402  16.5542065  52.0874440  37.0043426  15.8626560
  50.8415221  37.1027305  16.4262201  51.6111300  37.2529658  16.4332912
  57.0711314  35.0553653  23.9873130  57.3066903  35.1998852  23.1599981
  57.2200878  35.8196061  24.3804644  57.1277117  35.1892708  23.9236734
  54.1133660  31.7420222  22.5066314  54.2080514  32.4809516  22.9605939
  53.4892504  31.3137697  22.9400879  54.0342690  31.7881543  22.6374462
  54.3656681  33.5868962  15.7403266  54.2836844  33.6571149  16.6058253
  55.0036402  34.1498706  15.5487007  54.4476519  33.6807933  15.8393215
  52.8050903  25.4558150  25.3081885  52.1007229  24.9667336  25.4665804
  52.8535877  25.4680625  24.4370329  52.7080954  25.3847798  25.2021225
  46.6984565  30.9067462  25.6942687  46.1234156  31.0659631  26.3306648
  46.3220241  30.2702871  25.2311138  46.5587377  30.8365275  25.7197245
  60.0081122  29.1365816  23.3282896  59.7517687  28.3245758  23.1380778
  60.8510436  29.1443383  23.1013083  60.0947148  29.0177814  23.2667713
  54.1884215  23.0765440  28.0659050  54.5694727  22.3943611  28.4526924
  53.3847499  22.7875042  27.8834714  54.1260677  22.9332489  28.0963106
  51.4696792  33.6089416  18.7511872  52.2837430  33.9004309  18.6394644
  51.4055933  32.9549278  18.1770165  51.5799531  33.5554611  18.6500710
  47.3404700  37.0810934  23.8784185  47.9778647  36.8422681  24.4235978
  47.7659771  37.2848092  23.1437345  47.4980866  37.0761944  23.8501342
  47.9807515  32.3013223  18.2159074  48.3652668  32.0820930  18.9675619
  47.7319135  33.1276169  18.3460150  48.0009587  32.3911370  18.3460150
  58.7142702  36.0759861  29.2269743  58.4088519  36.8087918  29.5883058
  57.9948918  35.6697790  28.9462529  58.5630045  36.1241594  29.2382880
  64.4144494  32.7152862  28.5538087  64.3468995  32.7348821  27.6840673
  64.4000157  33.5583189  28.7793757  64.4023251  32.8426596  28.4590564
  45.7007952  23.9710160  23.5467854  44.8330378  24.0432759  23.6125464
  45.9883157  24.7732239  23.7355830  45.6147700  24.1004307  23.5842621
  54.8240841  24.1188019  31.8779176  55.5694433  23.9297830  31.4642602
  54.4078146  24.6446257  31.3193033  54.8725815  24.1690165  31.7343749
  48.2630757  40.5218099  20.2891444  48.5529056  40.1307081  19.5650671
  48.9934238  40.7034804  20.7296719  48.4137642  40.4911913  20.2474251
  62.2003112  31.4897248  26.8284681  62.7511033  30.8565317  27.0681773
  62.1847227  32.0212641  27.5200186  62.2788308  31.4746196  26.9663539
  55.9031518  29.7293582  25.9389277  55.5596284  29.0083917  26.2896527
  56.0024561  29.5207433  25.0967636  55.8673561  29.5917785  25.8660957
  48.3704629  43.8714872  22.1382286  49.0228687  43.3391314  22.3673312
  47.6730237  43.5183524  22.5250160  48.3635347  43.7404395  22.2294454
  45.3185894  36.2254049  21.5449661  46.0731862  36.6067088  21.7585123
  44.7256506  36.6765193  21.9996357  45.3422607  36.3482877  21.6432539
  56.3644547  36.1919286  21.4813266  56.9302580  36.8512495  21.3971808
  55.7172451  36.5368984  21.9529668  56.3523304  36.3401227  21.5386022
  43.6275304  27.4468419  20.9884731  43.3400100  27.0769690  20.2516678
  44.3145772  27.9163275  20.7268436  43.6864202  27.4615389  20.8399806
  52.8351125  39.1358070  20.9050345  52.5937801  38.4025930  20.4977410
  53.0152458  39.6844927  20.2516678  52.8258749  39.1080461  20.7480568
  48.0650446  34.4266630  22.3171267  47.8693228  35.0341364  21.7231570
  48.2884791  33.7334574  21.8362941  48.0685087  34.4144155  22.1587348
  46.4628976  31.3121368  22.4352135  47.1851628  31.4762526  21.9755941
  45.9836969  32.0331032  22.3291475  46.4992707  31.4419597  22.3517749
  54.4222483  27.6485166  27.8148820  53.5833584  27.6746445  27.5787084
  54.4926851  28.2955902  28.3954167  54.3090877  27.7481292  27.8657937
  52.8691762  24.5470543  22.5476436  53.5718115  24.3478292  22.0696395
  52.6035950  23.7746486  22.8545280  52.9338394  24.4033509  22.5221878
  58.2980007  32.8553153  25.1010062  58.2113982  33.0108579  25.9544841
  57.8430487  33.4991229  24.7269467  58.2183264  32.9728908  25.1717169
  41.2003499  28.2249632  21.8370012  41.3019635  29.0275793  22.1650987
  41.9959386  28.0236968  21.5393092  41.3331404  28.3135531  21.8405367
  52.1705823  30.1763900  23.7235622  51.9240538  30.0959651  24.5572411
  52.4990946  29.3917368  23.5298149  52.1827067  30.0490165  23.8183145
  56.0653872  36.8847259  27.5122403  55.9268231  37.5828305  28.0171145
  55.2853870  36.7295916  27.1558585  55.9297099  36.9647426  27.5348677
  50.3022768  32.1110787  30.9183736  49.5546082  32.3041802  30.5132014
  50.4564293  31.2856007  30.6807858  50.2145196  32.0175899  30.8229142
  57.5607245  36.2425513  18.2738902  57.1814054  35.4562651  18.2668191
  56.8973490  36.7912370  18.1310546  57.4065720  36.2070337  18.2519699
  55.0151871  19.1851213  25.6772983  55.1335439  19.6427676  24.9440286
  54.8414047  18.3796474  25.3909201  55.0071042  19.1344985  25.5273917
  50.3854153  39.7939032  22.1127728  51.1504044  39.5248676  21.7910393
  50.2832243  39.3089043  22.8297791  50.4835649  39.6828597  22.1707556
  48.4206923  27.9963442  28.6520964  47.6302998  27.8154902  28.9738300
  48.8167546  27.2190394  28.6351258  48.3623799  27.8550903  28.6973512
  52.9072814  36.8251216  14.0927678  53.6745799  36.8851341  13.6833529
  52.4604123  36.2531658  13.6083996  52.9546241  36.7487792  13.9605388
  53.8050609  35.6305872  26.3780410  53.1295611  35.3991104  26.8793797
  53.8142985  35.0227055  25.7522515  53.7069114  35.5064797  26.3596562
  55.8067344  38.4871004  18.6090588  55.8887181  39.2937991  18.2852039
  56.2917086  38.5066964  19.3331361  55.8904502  38.6091667  18.6677487
  44.9046292  33.6607892  22.7088638  45.0610911  33.5954694  23.5644630
  45.2446885  34.4356444  22.4967318  44.9779527  33.7657090  22.8043233
  51.4425437  33.0365775  21.5782002  51.9840982  32.5336156  22.0420622
  51.7571996  32.9830970  20.7671487  51.5689834  32.9545196  21.5265814
  49.6111886  38.4283127  18.8622030  49.6804707  37.5697665  19.0015030
  50.3900342  38.6455008  18.5341054  49.7364736  38.3335991  18.8339187
  54.0019374  40.8520828  23.0758523  53.6099166  40.5487543  22.3581389
  54.1572446  41.6889918  22.8863477  53.9672964  40.9304665  22.9415020
  54.7553794  29.5391145  32.5687609  53.9430476  29.2317035  32.6500782
  55.2143729  29.0590145  33.1330321  54.7034179  29.4227637  32.6642203
  54.1659049  37.4170817  23.0164553  53.8073703  37.5885460  23.7928586
  53.6797759  37.8784023  22.4592552  54.0417746  37.5109788  23.0489823
  51.9829435  21.0402015  26.6191645  51.1122993  21.0140737  26.5724954
  52.2369776  20.8679208  25.8017491  51.8922995  21.0112159  26.4911782
  48.9547414  33.0969982  15.5564788  49.2439939  33.8734865  15.8308362
  49.0419213  32.5858714  16.2579287  49.0101670  33.1361901  15.7007286
  49.0078575  23.0508244  28.0765115  48.4917064  22.3588435  28.2016694
  48.4472504  23.7179021  28.0227714  48.8485088  23.0471501  28.0871181
  51.0770809  23.5901204  29.9057968  50.6902562  23.6150235  30.6871498
  50.5903746  23.0242883  29.4532484  50.9483318  23.5096955  29.9545871
  57.0520788  30.1563859  28.5297670  56.6248396  30.0690207  27.7745770
  56.4146841  30.2641634  29.1152514  56.8950395  30.1596519  28.5043112
  50.7427950  20.4768189  32.1968228  51.3721068  21.0128489  31.9189298
  50.9113813  20.3845548  33.0481793  50.8605745  20.5429552  32.2816756
  42.5986922  30.0322784  25.4849651  42.2043620  30.1065796  24.7099760
  42.0427039  30.4180730  26.0358012  42.4589734  30.1004558  25.4517310
  54.2351869  23.0104078  25.1653530  54.4401462  22.9426386  26.0110527
  53.9078293  23.8162899  25.0974707  54.2167117  23.1190018  25.2813185
  48.9328020  30.3384646  26.9062497  48.6291157  29.7840634  27.5072905
  48.2307441  30.5176856  26.4190532  48.7844230  30.2829428  26.9232203
  47.9894117  27.6485166  21.4707199  48.2653851  26.9304078  21.0584767
  48.5892786  28.2470086  21.2628305  48.1187382  27.6305537  21.3787961
  57.4885557  23.5635842  24.6456295  56.8759870  24.0506244  25.0310027
  57.5849731  22.8879333  25.1893946  57.4123454  23.5354151  24.7835153
  51.4904638  25.3198683  19.7453794  51.9448384  25.4909244  20.4701639
  51.9644683  24.7066794  19.3451570  51.6272958  25.2549568  19.7927556
  45.4080786  25.9649007  29.7424550  45.8682267  26.0387936  30.4799674
  45.4536892  26.7630261  29.3924372  45.4831341  26.0943154  29.7997307
  61.1310585  34.6352779  30.0733811  61.1893708  35.0839428  30.8193788
  60.4977052  35.0451592  29.6363891  61.0461880  34.7626514  30.1186359
  54.7709679  40.2556321  26.5088557  54.5729368  40.7447135  25.8144769
  54.1497390  40.4597562  27.0872691  54.6497244  40.3572859  26.4911781
  48.8317658  32.0241218  20.8498802  49.5759702  32.4115494  21.0881751
  48.9778354  31.1798643  21.0139289  48.9628243  31.9571690  20.9092771
  50.7497233  23.8191477  25.8830663  49.9033278  23.9914284  25.7572013
  50.7468365  23.0140820  26.2196491  50.6244383  23.7252505  25.9141790
  51.8195533  27.5966691  26.7492721  51.3455488  27.0708453  27.2598032
  52.1913669  27.0496164  26.1807582  51.8045422  27.4382688  26.7407868
  58.0832264  32.6569067  28.1599501  57.8430487  31.8175482  28.1641928
  58.5624271  32.7369233  28.8840275  58.1184448  32.5450466  28.2674304
  53.7479033  28.4903245  19.8118475  53.2202052  28.5731989  19.1224184
  54.2074741  29.2321117  19.8083119  53.7380884  28.6123908  19.7093170
  60.0837451  29.4370524  26.1128761  59.8447221  29.3966358  25.2749545
  60.2471352  30.2841676  26.2394482  60.0727754  29.5562609  26.0082242
  56.6883481  33.8220473  32.0433806  57.4117680  33.3692999  31.8644826
  56.4233443  34.1025139  31.2606134  56.7564754  33.7971442  31.9012521
  45.5570350  28.4180647  28.7786685  44.9323420  28.4299039  28.1712638
  45.2215944  28.8940822  29.4277925  45.4155841  28.4899164  28.7843253
  45.7412098  26.7605765  14.8359370  45.3924903  27.4125490  15.2990919
  45.2608544  26.7462878  14.1083241  45.6182342  26.8548819  14.7970461
  53.3016116  37.0606809  18.9428132  54.0250314  37.5264922  18.7992705
  52.8616707  37.1280419  18.1925729  53.3431808  37.1390646  18.8112913
  52.7681398  22.1935030  31.5512343  52.2721959  22.3898704  30.8603910
  53.5250460  22.5927698  31.3801144  52.8068223  22.2812764  31.4232480
  50.0384277  25.8677376  28.1415653  50.0626765  25.3337488  27.4528433
  50.2895751  25.3594685  28.8041244  50.0794196  25.7138280  28.1380298
  46.3185600  24.5948194  27.5221398  46.3583971  25.0957401  28.2356105
  45.4935264  24.6858588  27.2527321  46.2025126  24.6830010  27.5871936
  46.1136007  29.3864296  20.3485414  46.2538968  29.8836760  21.0514056
  46.6118540  28.6850590  20.4899628  46.2077088  29.3566274  20.4736993
  46.1436229  30.2531407  17.6777991  46.7781309  30.8491832  17.6127453
  46.2261840  29.9534864  18.4923861  46.2492780  30.2972315  17.7881078
  59.1218795  32.7846884  30.5464355  59.7136635  33.4244135  30.5782553
  59.5577790  32.0869921  30.8356422  59.2737226  32.7765234  30.5945188
  47.7215212  26.1845382  17.6523433  48.0431053  25.7048464  16.9982696
  47.9842156  26.9945028  17.4614245  47.8081238  26.2335280  17.5278925
  53.1174367  25.5717576  30.0146912  53.5429439  25.1190102  29.4030439
  52.5031360  25.0177647  30.2911700  53.0903013  25.4231552  29.9651938
  42.6489217  32.4499247  20.9467537  43.1581447  33.0463755  21.3278843
  43.1223489  32.1825221  20.2643957  42.7932593  32.4985063  20.9022060
  53.5619965  41.1227514  19.1026193  52.8449275  40.9488376  18.6373430
  54.2126703  40.8880086  18.5701679  53.5521816  41.0623306  18.9555411
  51.5568590  22.0432676  23.4237489  50.9136908  21.8930322  23.9922628
  51.2167997  21.7975021  22.6586594  51.4113667  21.9844798  23.3940504
  56.1467936  29.9992103  22.8467498  55.4759126  30.5421805  22.7180563
  56.8407687  30.4686958  22.6049193  56.1496804  30.1490374  22.7923026
  56.3096064  26.4547986  25.7557871  56.6623674  26.0277709  26.4303670
  55.4510865  26.3698830  25.8858948  56.2345509  26.3792727  25.8752882
  45.0079749  29.0855506  23.8140718  44.2891738  29.5019638  24.0813581
  45.3792111  29.6509745  23.2632356  44.9571681  29.2304787  23.7723525
  54.3079330  29.7183355  29.7042713  54.2877257  29.5366650  30.5577492
  54.3558530  30.5895373  29.6802297  54.3113971  29.8199893  29.8266008
  50.7826323  28.1253506  19.1514097  50.1891163  28.4470502  18.5998664
  50.8201601  27.2794601  18.9435203  50.7000712  28.0477834  19.0396868
  57.7420124  21.5766398  26.6842184  57.2350989  20.8695538  26.6163361
  58.5387558  21.2459587  26.8143260  57.7847363  21.4239549  26.6941179
  53.6584140  28.0833010  22.5815847  53.4297833  28.1065712  21.7394206
  53.9182216  27.2590477  22.7010858  53.6630328  27.9649090  22.4741045
  46.7128902  26.6209557  23.8770043  47.1886269  26.9826636  23.2420224
  46.2117502  27.2766024  24.1570186  46.7094261  26.7703745  23.8246784
  59.9440264  36.0931325  19.6683048  60.3273870  36.8422681  19.8981145
  59.1484377  36.3397144  19.4095037  59.8834046  36.2401018  19.6640622
  48.7555556  28.7650756  17.2443427  49.1354520  28.7830386  16.4594542
  48.0148152  29.2104745  17.1234274  48.7024393  28.8332531  17.1106995
  56.3840846  27.0732948  22.8319006  56.3835072  26.9181604  23.6903282
  56.1797026  27.9195935  22.7760391  56.3540624  27.1753568  22.9506945
  54.1081698  31.7530449  26.4855213  54.6035363  31.0353444  26.4459233
  53.2981474  31.4501247  26.3709700  54.0625591  31.6028096  26.4628938
  49.5540310  35.6028263  18.6352217  48.7451632  35.2794936  18.5885526
  50.0615218  34.8961485  18.5680466  49.5089976  35.4509579  18.6182511
  56.1733517  34.5034137  29.1732341  56.5988589  33.9808559  28.6202766
  55.8090437  35.1014974  28.6520964  56.1820120  34.5144364  29.0141351
  52.7612116  38.2168401  25.5033499  53.2323295  38.9308664  25.6723484
  53.0972295  37.6167151  26.0393368  52.8807231  38.2339865  25.6065875
  49.6781611  22.9895872  32.4591594  49.8109517  22.1926865  32.7872569
  50.0626764  23.5162275  33.0389869  49.7537940  22.9495788  32.5935096
  52.7513967  19.9126198  29.0572687  51.9459930  19.8023927  29.3740525
  52.6220702  20.0138654  28.2002553  52.6134099  19.9109868  28.9780727
  56.2079927  26.0771690  29.6512384  55.6242916  26.5780896  29.2389951
  56.5284221  25.5701246  29.0176707  56.1693102  26.0763525  29.4970891
  48.7474726  24.9912285  19.9271059  49.5690421  25.1610597  19.6852753
  48.2844377  25.1459546  19.2037356  48.8005888  25.0394018  19.7842703
  47.3370058  22.9855047  30.7069487  47.8814471  22.6446174  31.2973829
  47.3906994  23.8440508  30.8490772  47.4259178  23.0610306  30.8151361
  69.4358039  46.6702260  21.7613409  69.4052044  47.5246896  21.9331678
  70.0339388  46.3697552  22.3199553  69.5195197  46.7518756  21.8688211
  62.6357724  45.7577911  26.5166339  61.7795620  45.9186409  26.5675456
  62.6825378  44.8869975  26.5371400  62.5156836  45.6528713  26.5272405
  57.0198864  55.2940629  22.2803571  56.2681764  54.9156167  22.0519616
  57.4684876  55.3259062  21.5322381  56.9748531  55.2426236  22.1361073
  65.9451441  52.0264436  36.1226796  66.6518208  51.5316467  36.2513730
  66.1339376  52.4673518  35.3929454  66.0779346  52.0182787  36.0335841
  62.4723824  55.7165998  17.7089118  62.1375192  56.3942920  17.2733340
  62.9850694  55.3271309  17.1205990  62.4989405  55.7590576  17.5575910
  62.0128115  57.6680267  23.6500230  62.3967494  58.2367165  23.1105005
  61.9487256  56.9429777  23.1706046  62.0601542  57.6455730  23.4994092
  65.4809545  47.8169955  29.1597991  66.0265505  48.4955041  29.2191961
  65.4226422  47.6757415  28.2999573  65.5525460  47.8961956  29.0410052
  58.5983620  55.3059021  24.5466343  58.6993983  54.4959375  24.8563471
  58.0025365  55.2115967  23.9166022  58.5256159  55.1724049  24.4992582
  67.2574614  49.2454562  20.0331719  67.1414140  49.9962248  20.4623857
  68.0530501  48.9878515  20.2827806  67.3579203  49.3189409  20.1335810
  58.4384360  60.2236610  25.9481200  59.0821815  60.6649774  26.3377358
  58.7640615  59.4190036  25.8611458  58.5816188  60.1701805  25.9926677
  51.7948664  51.3279307  24.1718677  51.5598849  50.4946960  24.0650946
  51.9334305  51.6083973  23.3579878  51.7804327  51.2462811  24.0361032
  54.0938752  43.4965038  27.0702985  53.4743784  42.9057685  26.9013000
  53.9922615  44.0876473  26.4367308  53.9876427  43.4969120  26.9507974
  59.1404939  53.2348585  21.3201061  59.4620781  53.7753792  20.7162369
  59.7877036  52.6645356  21.4523351  59.2830995  53.2307760  21.2508097
  61.1906648  45.2364580  21.4035448  61.8886812  45.4152707  21.8956911
  61.5058980  44.7134919  20.7805837  61.3401985  45.1858352  21.3837458
  61.3794583  51.6235025  21.3915239  61.8188218  51.0152125  21.8370012
  61.2299246  51.2442398  20.6200704  61.4216049  51.4773496  21.3434407
  61.3852317  53.0633942  28.2440957  61.6675560  52.2685348  28.0227713
  62.1138478  53.5414530  28.2646018  61.5341881  53.0168539  28.2143973
  59.3633511  40.6056976  25.4856723  59.0336841  41.0568120  24.8160421
  58.6878513  40.5273140  26.0329729  59.2143947  40.6608112  25.4679946
  64.9803919  49.9762206  18.3446009  64.8955215  50.8323173  18.4895577
  65.4688303  49.7006530  19.0128168  65.0392817  50.0619527  18.4648090
  66.5709919  36.5942499  23.7306333  66.2563360  37.2845978  24.1626756
  66.0536861  36.5387281  23.0291834  66.4474389  36.6877388  23.6903282
  65.9122353  46.5947000  19.8443744  65.3833824  46.8106634  20.5041050
  66.4347373  47.2883139  19.7644713  65.9110806  46.7290137  19.9299343
  71.3670406  52.1693305  25.2176788  70.5368109  52.3803948  25.3810205
  71.3179658  51.3430359  24.9419072  71.2377141  52.0782911  25.2014154
  57.8021960  50.4910217  18.6451212  57.2179176  50.9960248  19.0517076
  57.3992056  50.2652604  17.9047804  57.6561264  50.5318465  18.5956237
  59.4280143  54.9997159  28.0524698  58.9107085  54.6404574  27.4486006
  60.1254534  54.4759333  28.0630764  59.4545724  54.8694847  27.9654956
  63.0843735  55.4491973  34.0140871  63.1727081  55.2618113  34.8619081
  63.5133448  54.8029402  33.6145718  63.1605837  55.3254980  34.0812622
  60.6514195  54.7323133  32.9958533  60.0885030  54.3195743  33.5198194
  61.4135218  54.6576038  33.4151676  60.6808644  54.6600533  33.1351533
  62.2599175  46.7375869  17.1220132  62.4995179  46.9453853  16.3095475
  62.5815016  45.9333378  17.2309077  62.3436333  46.6489970  17.0180685
  57.5689465  38.6669265  20.9679670  58.3235433  39.0347582  20.7296720
  57.3917000  39.0408819  21.7358850  57.6543944  38.7767453  21.0464559
  56.2110186  56.7221154  25.5995163  56.9130766  56.2073143  25.6567920
  56.1307669  57.0495305  26.4042038  56.3033947  56.6935380  25.7267955
  70.8624364  44.8163705  29.0127210  70.0252785  44.8865892  29.2474804
  70.8312595  44.8188200  28.1401512  70.7342646  44.8273932  28.9186758
  55.9246530  41.0739584  17.6657783  55.7422103  41.2911465  16.8398776
  56.7872143  41.1878596  17.7216398  56.0251119  41.1229482  17.5512270
  55.5360962  52.9127506  25.1080771  56.3749861  53.1450439  25.1554533
  55.5672731  52.0431817  25.0387807  55.6642679  52.8184452  25.1045416
  61.6046249  38.0765994  20.7006807  62.3332409  37.8981949  20.2544963
  61.6941142  38.9184074  20.9113985  61.7252911  38.1749873  20.6660325
  65.5854550  49.0119382  24.6039101  66.3412065  49.4450896  24.6428010
  65.6916874  48.3624151  25.1773737  65.7124720  48.9796866  24.6937127
  68.6234721  52.8392659  25.3541504  68.1869953  52.8429401  26.1100475
  68.2897636  53.5198158  24.9221082  68.5097341  52.9405115  25.4022337
  68.5432204  39.8806487  27.5970932  69.1858112  39.9504591  28.1832847
  68.7955224  39.2135710  27.0950474  68.6754336  39.7932835  27.6098211
  55.4708557  44.3513756  16.1780256  54.7566734  44.0651936  16.5902689
  55.9552526  44.6910382  16.8186644  55.4367920  44.3595406  16.3335891
  63.3534188  56.7911094  30.3251110  62.5549434  56.5510594  30.5824979
  63.8020199  56.8425487  31.0718158  63.3008799  56.7633485  30.4736034
  71.7579067  49.5573579  24.2461141  72.4195501  48.9964247  24.1457050
  71.1170479  49.0625610  24.5713832  71.7607935  49.4009988  24.2793481
  62.6455875  52.8543710  16.5542065  63.0607023  52.5228734  15.8626560
  61.8147804  52.6212613  16.4262201  62.5843883  52.7714966  16.4332912
  68.0443898  50.5738961  23.9873130  68.2799487  50.7184160  23.1599981
  68.1933461  51.3381369  24.3804644  68.1009701  50.7078016  23.9236734
  69.8734354  49.4140627  21.8242734  70.2042572  49.9468267  21.2182829
  70.4467443  49.4679515  22.4804685  70.0068034  49.5010196  21.8320516
  65.0866244  47.2605530  22.5066314  65.1813098  47.9994824  22.9605939
  64.4625087  46.8323005  22.9400879  65.0075274  47.3066851  22.6374462
  63.3418717  50.4391743  33.1556595  63.9157579  49.8018987  33.3105159
  63.2633521  50.4395825  32.2866252  63.4151952  50.3456854  33.0503006
  65.3389265  49.1054270  15.7403266  65.2569427  49.1756457  16.6058253
  65.9768985  49.6684014  15.5487007  65.4209102  49.1993241  15.8393215
  58.6982436  48.8715008  25.2077792  58.4401680  48.0386743  25.1809092
  58.7530919  49.0972621  24.3670293  58.6682214  48.7812779  25.0797929
  63.7783486  40.9743458  25.3081885  63.0739813  40.4852644  25.4665804
  63.8268461  40.9865933  24.4370329  63.6813538  40.9033106  25.2021225
  57.6717148  46.4252770  25.6942687  57.0966739  46.5844939  26.3306648
  57.2952824  45.7888179  25.2311138  57.5319961  46.3550583  25.7197245
  70.9813706  44.6551124  23.3282896  70.7250271  43.8431066  23.1380778
  71.8243020  44.6628691  23.1013083  71.0679731  44.5363122  23.2667713
  65.1616798  38.5950748  28.0659050  65.5427310  37.9128919  28.4526924
  64.3580083  38.3060350  27.8834714  65.0993260  38.4517797  28.0963106
  62.4429375  49.1274724  18.7511872  63.2570014  49.4189617  18.6394644
  62.3788516  48.4734586  18.1770165  62.5532114  49.0739919  18.6500710
  68.6638865  51.8100720  33.1641448  68.4277503  50.9788785  33.0453509
  69.3082094  51.7586327  33.7496292  68.7233536  51.6798408  33.2327342
  58.3137283  52.5996241  23.8784185  58.9511230  52.3607989  24.4235978
  58.7392355  52.8033400  23.1437345  58.4713450  52.5947252  23.8501342
  58.9540098  47.8198531  18.2159074  59.3385251  47.6006238  18.9675619
  58.7051719  48.6461477  18.3460150  58.9742171  47.9096677  18.3460150
  69.6875286  51.5945169  29.2269743  69.3821103  52.3273226  29.5883058
  68.9681502  51.1883098  28.9462529  69.5362628  51.6426902  29.2382880
  60.6958755  53.0768664  25.5577971  60.7697764  52.9143836  26.4119821
  61.5128262  53.2658854  25.3138452  60.8275114  53.0805406  25.6475996
  75.3877078  48.2338170  28.5538087  75.3201578  48.2534129  27.6840673
  75.3732740  49.0768497  28.7793757  75.3755834  48.3611904  28.4590564
  54.4564512  53.4226527  22.5872414  53.6302630  53.6688264  22.4606693
  54.5176503  53.3438608  23.4534472  54.3438679  53.4471476  22.6961359
  56.6740536  39.4895468  23.5467854  55.8062961  39.5618067  23.6125464
  56.9615740  40.2917547  23.7355830  56.5880284  39.6189615  23.5842621
  65.7973425  39.6373327  31.8779176  66.5427017  39.4483138  31.4642602
  65.3810729  40.1631565  31.3193033  65.8458399  39.6875473  31.7343749
  59.2363341  56.0403407  20.2891444  59.5261639  55.6492388  19.5650671
  59.9666822  56.2220112  20.7296719  59.3870225  56.0097221  20.2474251
  73.1735695  47.0082556  26.8284681  73.7243617  46.3750625  27.0681773
  73.1579811  47.5397949  27.5200186  73.2520892  46.9931504  26.9663539
  57.1769257  58.0170790  23.3551594  56.9569552  57.7268144  24.1478261
  56.9563779  57.3585745  22.8269506  57.1116851  57.8770498  23.3940503
  56.0886204  50.1044106  25.6207296  55.7999452  49.4781577  26.1553023
  56.9569552  50.0464393  25.6871976  56.1746456  50.0031650  25.7098250
  66.8764102  45.2478889  25.9389277  66.5328867  44.5269225  26.2896527
  66.9757144  45.0392741  25.0967636  66.8406144  45.1103093  25.8660957
  59.3437212  59.3900179  22.1382286  59.9961270  58.8576622  22.3673312
  58.6462821  59.0368832  22.5250160  59.3367930  59.2589702  22.2294454
  56.2918477  51.7439357  21.5449661  57.0464445  52.1252396  21.7585123
  55.6989090  52.1950501  21.9996357  56.3155191  51.8668184  21.6432539
  67.3377131  51.7104594  21.4813266  67.9035163  52.3697803  21.3971808
  66.6905034  52.0554292  21.9529668  67.3255887  51.8586535  21.5386022
  54.6007888  42.9653727  20.9884731  54.3132684  42.5954998  20.2516678
  55.2878356  43.4348583  20.7268436  54.6596785  42.9800697  20.8399806
  63.8083709  54.6543378  20.9050345  63.5670385  53.9211238  20.4977410
  63.9885042  55.2030235  20.2516678  63.7991333  54.6265769  20.7480568
  59.0383029  49.9451938  22.3171267  58.8425812  50.5526672  21.7231570
  59.2617375  49.2519882  21.8362941  59.0417670  49.9329463  22.1587348
  57.4361559  46.8306675  22.4352135  58.1584211  46.9947834  21.9755941
  56.9569552  47.5516340  22.3291475  57.4725290  46.9604905  22.3517749
  65.3955067  43.1670474  27.8148820  64.5566168  43.1931753  27.5787084
  65.4659434  43.8141210  28.3954167  65.2823460  43.2666600  27.8657937
  63.8424345  40.0655851  22.5476436  64.5450698  39.8663600  22.0696395
  63.5768534  39.2931794  22.8545280  63.9070978  39.9218817  22.5221878
  69.2712591  48.3738461  25.1010062  69.1846565  48.5293887  25.9544841
  68.8163071  49.0176537  24.7269467  69.1915847  48.4914216  25.1717169
  52.1736082  43.7434940  21.8370012  52.2752219  44.5461101  22.1650987
  52.9691969  43.5422276  21.5393092  52.3063988  43.8320838  21.8405367
  63.1438407  45.6949208  23.7235622  62.8973121  45.6144959  24.5572411
  63.4723530  44.9102676  23.5298149  63.1559650  45.5675473  23.8183145
  67.0386456  52.4032567  27.5122403  66.9000815  53.1013613  28.0171145
  66.2586454  52.2481224  27.1558585  66.9029683  52.4832734  27.5348677
  65.3764541  48.7028943  33.7644785  65.3712579  47.8308759  33.7687211
  66.0825535  48.9017112  33.2914240  65.4809545  48.6032817  33.6951820
  58.1763189  56.6208698  30.0019631  58.3252753  56.0611614  29.3493036
  58.9563191  56.7000700  30.3852150  58.3137283  56.5494264  29.9616581
  68.5339829  51.7610821  18.2738902  68.1546637  50.9747959  18.2668191
  67.8706074  52.3097678  18.1310546  68.3798303  51.7255645  18.2519699
  60.7016490  56.7923341  31.2804122  60.6260161  56.1232152  31.8354911
  60.6306349  57.4941130  31.7944789  60.6797097  56.7968249  31.4380970
  65.9884454  34.7036521  25.6772983  66.1068023  35.1612984  24.9440286
  65.8146630  33.8981782  25.3909201  65.9803625  34.6530293  25.5273917
  61.3586737  55.3124340  22.1127728  62.1236628  55.0433984  21.7910393
  61.2564827  54.8274351  22.8297791  61.4568232  55.2013905  22.1707556
  63.8805397  52.3436524  14.0927678  64.6478382  52.4036649  13.6833529
  63.4336706  51.7716965  13.6083996  63.9278824  52.2673100  13.9605388
  64.7783193  51.1491180  26.3780410  64.1028195  50.9176412  26.8793797
  64.7875569  50.5412363  25.7522515  64.6801697  51.0250105  26.3596562
  66.7799927  54.0056312  18.6090588  66.8619765  54.8123298  18.2852039
  67.2649670  54.0252271  19.3331361  66.8637085  54.1276975  18.6677487
  60.0908124  60.1991661  29.7382123  60.5804054  59.5002450  29.5557788
  59.5192356  59.9015531  30.3258180  60.0792654  60.0517885  29.7983164
  55.8778876  49.1793200  22.7088638  56.0343495  49.1140002  23.5644630
  56.2179469  49.9541752  22.4967318  55.9512110  49.2842398  22.8043233
  62.4158020  48.5551083  21.5782002  62.9573566  48.0521464  22.0420622
  62.7304579  48.5016278  20.7671487  62.5422417  48.4730504  21.5265814
  66.2875128  52.7653731  38.6908914  67.1009993  52.4938879  38.8514046
  66.1270094  52.4661270  37.8869110  66.3845076  52.6808657  38.5954320
  60.5844470  53.9468435  18.8622030  60.6537290  53.0882973  19.0015030
  61.3632925  54.1640316  18.5341054  60.7097320  53.8521299  18.8339187
  64.9751958  56.3706136  23.0758523  64.5831749  56.0672851  22.3581389
  65.1305030  57.2075226  22.8863477  64.9405547  56.4489973  22.9415020
  52.4513137  46.3628150  23.0249406  52.8312102  46.7812695  22.3609673
  51.8768502  46.9441606  23.3318249  52.4224462  46.5106009  22.9726147
  65.1391632  52.9356125  23.0164553  64.7806287  53.1070768  23.7928586
  64.6530343  53.3969330  22.4592552  65.0150329  53.0295096  23.0489823
  62.9562018  36.5587323  26.6191645  62.0855576  36.5326044  26.5724954
  63.2102360  36.3864516  25.8017491  62.8655578  36.5297467  26.4911782
  59.9279998  48.6155290  15.5564788  60.2172523  49.3920173  15.8308362
  60.0151797  48.1044022  16.2579287  59.9834254  48.6547209  15.7007286
  59.9811159  38.5693552  28.0765115  59.4649647  37.8773743  28.2016694
  59.4205088  39.2364329  28.0227714  59.8217672  38.5656809  28.0871181
  62.0503392  39.1086512  29.9057968  61.6635145  39.1335543  30.6871498
  61.5636329  38.5428190  29.4532484  61.9215901  39.0282263  29.9545871
  66.2996372  53.8260021  33.9631754  66.9376092  53.3320216  33.6294210
  65.6570463  53.7537421  33.3783981  66.2990598  53.7419029  33.8274109
  68.0253372  45.6749167  28.5297670  67.5980980  45.5875515  27.7745770
  67.3879425  45.7826942  29.1152514  67.8682979  45.6781827  28.5043112
  61.7160534  35.9953497  32.1968228  62.3453652  36.5313797  31.9189298
  61.8846397  35.9030856  33.0481793  61.8338328  36.0614860  32.2816756
  66.3550628  54.5179829  30.6037111  67.1443006  54.1668894  30.7239193
  66.5294226  55.3316217  30.3413745  66.4970910  54.5865686  30.5824979
  53.5719506  45.5508092  25.4849651  53.1776203  45.6251104  24.7099760
  53.0159622  45.9366038  26.0358012  53.4322318  45.6189866  25.4517310
  65.2084452  38.5289386  25.1653530  65.4134046  38.4611694  26.0110527
  64.8810876  39.3348207  25.0974707  65.1899700  38.6375326  25.2813185
  58.9626701  43.1670474  21.4707199  59.2386435  42.4489386  21.0584767
  59.5625370  43.7655394  21.2628305  59.0919965  43.1490845  21.3787961
  68.4618140  39.0821150  24.6456295  67.8492454  39.5691552  25.0310027
  68.5582315  38.4064641  25.1893946  68.3856038  39.0539459  24.7835153
  62.4637221  40.8383991  19.7453794  62.9180968  41.0094552  20.4701639
  62.9377267  40.2252102  19.3451570  62.6005541  40.7734876  19.7927556
  72.1043168  50.1538087  30.0733811  72.1626292  50.6024736  30.8193788
  71.4709636  50.5636900  29.6363891  72.0194463  50.2811821  30.1186359
  65.7442263  55.7741629  26.5088557  65.5461951  56.2632443  25.8144769
  65.1229974  55.9782870  27.0872691  65.6229827  55.8758167  26.4911781
  59.8050241  47.5426526  20.8498802  60.5492286  47.9300802  21.0881751
  59.9510937  46.6983951  21.0139289  59.9360826  47.4756998  20.9092771
  61.7229817  39.3376784  25.8830663  60.8765862  39.5099592  25.7572013
  61.7200949  38.5326128  26.2196491  61.5976966  39.2437813  25.9141790
  62.7928117  43.1151999  26.7492721  62.3188071  42.5893761  27.2598032
  63.1646253  42.5681472  26.1807582  62.7778006  42.9567995  26.7407868
  69.0564848  48.1754375  28.1599501  68.8163070  47.3360790  28.1641928
  69.5356855  48.2554541  28.8840275  69.0917031  48.0635774  28.2674304
  64.7211617  44.0088553  19.8118475  64.1934635  44.0917297  19.1224184
  65.1807325  44.7506425  19.8083119  64.7113467  44.1309216  19.7093170
  71.0570035  44.9555832  26.1128761  70.8179805  44.9151666  25.2749545
  71.2203936  45.8026984  26.2394482  71.0460338  45.0747917  26.0082242
  67.6616065  49.3405781  32.0433806  68.3850264  48.8878307  31.8644826
  67.3966027  49.6210447  31.2606134  67.7297338  49.3156750  31.9012521
  56.7144682  42.2791073  14.8359370  56.3657486  42.9310798  15.2990919
  56.2341128  42.2648186  14.1083241  56.5914926  42.3734127  14.7970461
  64.2748699  52.5792117  18.9428132  64.9982898  53.0450230  18.7992705
  63.8349290  52.6465727  18.1925729  64.3164391  52.6575954  18.8112913
  63.4434854  49.4389659  30.1928821  62.8291847  48.8947710  30.4877456
  63.9602139  48.9253896  29.7134637  63.4290517  49.2826068  30.1653049
  62.6831151  50.5093929  27.9273119  62.2558759  49.8843648  27.4938555
  62.6756096  50.2268851  28.7532127  62.6190293  50.3746710  27.9852947
  63.7413981  37.7120338  31.5512343  63.2454543  37.9084012  30.8603910
  64.4983043  38.1113006  31.3801144  63.7800806  37.7998072  31.4232480
  61.0116861  41.3862684  28.1415653  61.0359348  40.8522796  27.4528433
  61.2628335  40.8779993  28.8041244  61.0526780  41.2323588  28.1380298
  57.2918183  40.1133502  27.5221398  57.3316555  40.6142709  28.2356105
  56.4667848  40.2043896  27.2527321  57.1757709  40.2015318  27.5871936
  57.0868590  44.9049603  20.3485414  57.2271552  45.4022068  21.0514056
  57.5851123  44.2035898  20.4899628  57.1809671  44.8751582  20.4736993
  57.1168813  45.7716714  17.6777991  57.7513892  46.3677140  17.6127453
  57.1994424  45.4720172  18.4923861  57.2225364  45.8157623  17.7881078
  70.0951379  48.3032192  30.5464355  70.6869219  48.9429443  30.5782553
  70.5310373  47.6055229  30.8356422  70.2469810  48.2950542  30.5945188
  58.6947796  41.7030690  17.6523433  59.0163637  41.2233772  16.9982696
  58.9574739  42.5130336  17.4614245  58.7813821  41.7520588  17.5278925
  61.9244769  52.7249564  31.1722249  61.4169860  53.2785411  31.6162880
  61.6271415  52.7857854  30.3541024  61.8049653  52.8155875  31.1170706
  64.0906951  41.0902884  30.0146912  64.5162022  40.6375410  29.4030439
  63.4763944  40.5362955  30.2911700  64.0635596  40.9416860  29.9651938
  53.6221801  47.9684555  20.9467537  54.1314030  48.5649063  21.3278843
  54.0956073  47.7010529  20.2643957  53.7665176  48.0170371  20.9022060
  64.5352549  56.6412822  19.1026193  63.8181859  56.4673684  18.6373430
  65.1859286  56.4065394  18.5701679  64.5254399  56.5808614  18.9555411
  62.5301174  37.5617984  23.4237489  61.8869492  37.4115630  23.9922628
  62.1900581  37.3160329  22.6586594  62.3846251  37.5030106  23.3940504
  67.1200520  45.5177410  22.8467498  66.4491710  46.0607113  22.7180563
  67.8140270  45.9872266  22.6049193  67.1229388  45.6675682  22.7923026
  61.1687254  57.6574122  28.0779256  60.9452908  56.8992952  28.4463283
  60.6797097  57.6872144  27.3559696  61.0630703  57.5496347  28.0255997
  67.2828648  41.9733294  25.7557871  67.6356258  41.5463017  26.4303670
  66.4243449  41.8884138  25.8858948  67.2078092  41.8978035  25.8752882
  55.9812332  44.6040814  23.8140718  55.2624322  45.0204946  24.0813581
  56.3524695  45.1695053  23.2632356  55.9304264  44.7490095  23.7723525
  65.2811913  45.2368663  29.7042713  65.2609841  45.0551958  30.5577492
  65.3291114  46.1080681  29.6802297  65.2846554  45.3385201  29.8266008
  59.8165711  57.8774581  25.5316341  59.4026109  57.2148711  25.1420183
  60.5013085  58.0252439  25.0112035  59.8564082  57.8015239  25.3972838
  63.1831005  57.0364666  26.2839957  62.7847288  57.1466936  25.5160778
  62.5682224  57.2446732  26.8666517  63.0329894  57.0838234  26.2571257
  61.7558907  43.6438814  19.1514097  61.1623746  43.9655810  18.5998664
  61.7934185  42.7979909  18.9435203  61.6733296  43.5663142  19.0396868
  68.7152708  37.0951706  26.6842184  68.2083572  36.3880846  26.6163361
  69.5120141  36.7644895  26.8143260  68.7579947  36.9424857  26.6941179
  64.6316723  43.6018318  22.5815847  64.4030416  43.6251020  21.7394206
  64.8914800  42.7775785  22.7010858  64.6362911  43.4834398  22.4741045
  57.6861486  42.1394864  23.8770043  58.1618852  42.5011944  23.2420224
  57.1850086  42.7951332  24.1570186  57.6826845  42.2889053  23.8246784
  70.9172848  51.6116633  19.6683048  71.3006453  52.3607989  19.8981145
  70.1216961  51.8582452  19.4095037  70.8566630  51.7586326  19.6640622
  59.7288139  44.2836064  17.2443427  60.1087104  44.3015693  16.4594542
  58.9880735  44.7290053  17.1234274  59.6756977  44.3517839  17.1106995
  67.3573430  42.5918255  22.8319006  67.3567656  42.4366912  23.6903282
  67.1529610  43.4381243  22.7760391  67.3273207  42.6938876  22.9506945
  65.0814282  47.2715757  26.4855213  65.5767947  46.5538752  26.4459233
  64.2714057  46.9686555  26.3709700  65.0358175  47.1213404  26.4628938
  60.5272893  51.1213571  18.6352217  59.7184216  50.7980244  18.5885526
  61.0347802  50.4146793  18.5680466  60.4822560  50.9694887  18.6182511
  67.1466101  50.0219445  29.1732341  67.5721172  49.4993867  28.6202766
  66.7823020  50.6200282  28.6520964  67.1552703  50.0329672  29.0141351
  56.7820180  58.3183662  27.9329687  57.0966739  59.1320051  27.9407469
  57.1913594  57.9333881  28.6011846  56.8888278  58.3812365  28.0333778
  63.7344700  53.7353709  25.5033499  64.2055878  54.4493972  25.6723484
  64.0704879  53.1352459  26.0393368  63.8539815  53.7525173  25.6065875
  65.8221685  55.3455022  37.6825571  65.9318650  54.5563583  38.0382318
  66.1512581  55.2560959  36.8799909  65.8874090  55.2160875  37.6167962
  64.3718646  53.5271643  32.2661191  63.8239592  52.9029527  31.9981257
  64.8331675  53.7165915  31.5505271  64.3585856  53.4630693  32.1211623
  63.7246550  35.4311506  29.0572687  62.9192514  35.3209235  29.3740525
  63.5953286  35.5323961  28.2002553  63.5866683  35.4295176  28.9780727
  67.1812511  41.5956998  29.6512384  66.5975499  42.0966204  29.2389951
  67.5016805  41.0886554  29.0176707  67.1425686  41.5948833  29.4970891
  59.7207310  40.5097592  19.9271059  60.5423004  40.6795905  19.6852753
  59.2576961  40.6644853  19.2037356  59.7738472  40.5579325  19.7842703
  63.9376973  54.5322716  28.7970533  64.7575346  54.3885682  29.0586828
  63.6571050  55.1568915  29.3386971  64.0173716  54.6033068  28.9158472
  73.6090308  61.2763219  26.5166339  72.7528203  61.4371717  26.5675456
  73.6557962  60.4055283  26.5371400  73.4889419  61.1714020  26.5272405
  67.9931448  70.8125936  22.2803571  67.2414347  70.4341475  22.0519616
  68.4417459  70.8444370  21.5322381  67.9481114  70.7611544  22.1361073
  76.9184024  67.5449744  36.1226796  77.6250792  67.0501775  36.2513730
  77.1071960  67.9858826  35.3929454  77.0511930  67.5368095  36.0335841
  76.4542129  63.3355263  29.1597991  76.9998089  64.0140349  29.2191961
  76.3959005  63.1942723  28.2999573  76.5258043  63.4147264  29.0410052
  69.5716204  70.8244329  24.5466343  69.6726567  70.0144683  24.8563471
  68.9757949  70.7301275  23.9166022  69.4988742  70.6909357  24.4992582
  62.7681248  66.8464615  24.1718677  62.5331432  66.0132268  24.0650946
  62.9066889  67.1269281  23.3579878  62.7536910  66.7648119  24.0361032
  65.0671335  59.0150346  27.0702985  64.4476367  58.4242993  26.9013000
  64.9655199  59.6061781  26.4367308  64.9609011  59.0154428  26.9507974
  72.1639231  60.7549888  21.4035448  72.8619396  60.9338015  21.8956911
  72.4791564  60.2320227  20.7805837  72.3134568  60.7043660  21.3837458
  64.7940468  62.5602627  29.3146554  64.6699165  63.1465073  29.9496373
  65.4458753  62.0662823  29.6158829  64.8714118  62.5741432  29.4532483
  72.3527166  67.1420333  21.3915239  72.7920802  66.5337433  21.8370012
  72.2031829  66.7627706  20.6200704  72.3948632  66.9958804  21.3434407
  69.8198809  65.7364344  28.5934065  70.4647812  65.2436788  28.2745013
  70.0600587  65.8789131  29.4200143  69.9509395  65.6841787  28.6683598
  72.3584901  68.5819250  28.2440957  72.6408144  67.7870656  28.0227713
  73.0871061  69.0599838  28.2646018  72.5074465  68.5353847  28.2143973
  70.3366095  56.1242284  25.4856723  70.0069425  56.5753428  24.8160421
  69.6611096  56.0458448  26.0329729  70.1876531  56.1793419  25.4679946
  77.5442502  52.1127807  23.7306333  77.2295943  52.8031286  24.1626756
  77.0269444  52.0572589  23.0291834  77.4206973  52.2062696  23.6903282
  64.3298573  71.7250286  25.4474883  63.8466151  72.4500776  25.4234467
  65.1421891  72.0226416  25.5585041  64.3789320  71.8752640  25.4602163
  70.4012727  70.5182467  28.0524698  69.8839668  70.1589882  27.4486006
  71.0987118  69.9944641  28.0630764  70.4278308  70.3880155  27.9654956
  71.6246778  70.2508441  32.9958533  71.0617613  69.8381051  33.5198194
  72.3867802  70.1761346  33.4151676  71.6541227  70.1785841  33.1351533
  68.5422049  54.1854573  20.9679670  69.2968017  54.5532890  20.7296720
  68.3649583  54.5594127  21.7358850  68.6276527  54.2952761  21.0464559
  67.1842770  72.2406462  25.5995163  67.8863349  71.7258451  25.6567920
  67.1040253  72.5680613  26.4042038  67.2766530  72.2120688  25.7267955
  68.2321676  62.4782049  34.7275578  68.4042180  62.3687943  35.5760860
  68.7691034  63.1236454  34.4906771  68.3366680  62.5574050  34.8180675
  66.8979113  56.5924892  17.6657783  66.7154687  56.8096772  16.8398776
  67.7604726  56.7063904  17.7216398  66.9983703  56.6414790  17.5512270
  66.5093545  68.4312814  25.1080771  67.3482445  68.6635747  25.1554533
  66.5405315  67.5617125  25.0387807  66.6375263  68.3369760  25.1045416
  67.1346248  68.8513689  29.4094077  67.6744473  68.7084820  30.0797449
  66.4516195  69.2510440  29.7778103  67.1138402  68.8893360  29.5628498
  72.5778833  53.5951302  20.7006807  73.3064993  53.4167257  20.2544963
  72.6673725  54.4369382  20.9113985  72.6985495  53.6935181  20.6660325
  76.5587133  64.5304690  24.6039101  77.3144648  64.9636204  24.6428010
  76.6649458  63.8809459  25.1773737  76.6857304  64.4982174  24.6937127
  62.5383393  65.0713980  29.5628498  62.2721809  64.2553097  29.7219489
  62.5521958  65.1167135  28.6924014  62.5008116  64.9570885  29.4581980
  66.4441140  59.8699064  16.1780256  65.7299318  59.5837244  16.5902689
  66.9285109  60.2095690  16.8186644  66.4100504  59.8780714  16.3335891
  67.2882000  58.6092358  32.2095506  66.5953797  58.1389338  32.4556237
  67.9042327  58.3830663  32.7837213  67.2766530  58.5059490  32.3304659
  62.9476807  65.8572759  26.8440242  62.7652380  65.8319645  25.9912535
  63.6826476  66.3271697  26.8829151  63.0290871  65.9234121  26.7238161
  66.0122559  62.5757762  33.3522351  66.7362531  62.5610793  33.8387246
  66.1138695  63.2853117  32.8544319  66.1340768  62.6782465  33.3501138
  73.3867508  66.0556847  38.2171298  72.5940489  66.3700359  38.4023918
  73.5016435  66.2708315  37.3792083  73.2862919  66.1340683  38.1209633
  76.0598827  62.7790838  22.5066314  76.1545682  63.5180132  22.9605939
  75.4357671  62.3508313  22.9400879  75.9807857  62.8252158  22.6374462
  74.3151301  65.9577050  33.1556595  74.8890163  65.3204295  33.3105159
  74.2366105  65.9581133  32.2866252  74.3884536  65.8642162  33.0503006
  62.9147717  62.7366260  26.9939309  63.4921220  62.6002711  27.6331554
  62.2161779  62.2802044  27.2484893  62.8968739  62.6488526  27.1261599
  69.6715020  64.3900316  25.2077792  69.4134264  63.5572050  25.1809092
  69.7263502  64.6157929  24.3670293  69.6414797  64.2998087  25.0797929
  74.7516070  56.4928766  25.3081885  74.0472396  56.0037952  25.4665804
  74.8001044  56.5051241  24.4370329  74.6546121  56.4218414  25.2021225
  68.6449732  61.9438078  25.6942687  68.0699323  62.1030246  26.3306648
  68.2685408  61.3073487  25.2311138  68.5052544  61.8735891  25.7197245
  72.3123020  60.4161427  30.5535065  71.9237453  59.9915645  29.8987257
  71.6477719  60.6643577  31.0612092  72.1569948  60.3900148  30.5322933
  58.3906551  61.5878153  23.7087128  58.4766802  61.2110021  24.4900658
  59.0182348  61.2138598  23.2307086  58.4963102  61.4763635  23.7532605
  76.1349382  54.1136056  28.0659050  76.5159894  53.4314227  28.4526924
  75.3312666  53.8245658  27.8834714  76.0725844  53.9703105  28.0963106
  69.2869867  68.1181549  23.8784185  69.9243814  67.8793297  24.4235978
  69.7124938  68.3218708  23.1437345  69.4446033  68.1132560  23.8501342
  63.9782509  70.3569886  27.7618488  64.0186655  70.6284737  26.9338268
  64.5377033  70.8811794  28.1776276  64.0665855  70.4745641  27.7010376
  69.9272682  63.3383839  18.2159074  70.3117835  63.1191546  18.9675619
  69.6784302  64.1646785  18.3460150  69.9474755  63.4281985  18.3460150
  70.0941222  56.6190254  37.9321658  69.7794663  57.3889817  37.6691221
  69.7731155  56.0560510  37.3473885  70.0000141  56.6500523  37.8063008
  71.6691339  68.5953972  25.5577971  71.7430347  68.4329144  26.4119821
  72.4860845  68.7844162  25.3138452  71.8007697  68.5990714  25.6475996
  65.4297096  68.9411835  22.5872414  64.6035213  69.1873572  22.4606693
  65.4909087  68.8623916  23.4534472  65.3171263  68.9656784  22.6961359
  67.6473119  55.0080776  23.5467854  66.7795545  55.0803375  23.6125464
  67.9348324  55.8102855  23.7355830  67.5612867  55.1374923  23.5842621
  76.7706008  55.1558635  31.8779176  77.5159600  54.9668446  31.4642602
  76.3543313  55.6816873  31.3193033  76.8190982  55.2060781  31.7343749
  70.7990670  66.3606461  31.3744575  70.3002363  67.0722229  31.4529463
  71.6090894  66.6807128  31.3362737  70.8446776  66.5133310  31.3801143
  68.1501840  73.5356097  23.3551594  67.9302136  73.2453452  24.1478261
  67.9296362  72.8771053  22.8269506  68.0849434  73.3955806  23.3940503
  67.0618787  65.6229414  25.6207296  66.7732036  64.9966885  26.1553023
  67.9302135  65.5649701  25.6871976  67.1479039  65.5216958  25.7098250
  77.8496685  60.7664197  25.9389277  77.5061451  60.0454533  26.2896527
  77.9489728  60.5578049  25.0967636  77.8138728  60.6288401  25.8660957
  67.2651061  67.2624665  21.5449661  68.0197029  67.6437704  21.7585123
  66.6721673  67.7135809  21.9996357  67.2887774  67.3853492  21.6432539
  69.7257728  59.2187505  36.6706873  68.9157504  59.5245285  36.5596715
  70.2032414  59.9393088  36.7859457  69.6761207  59.3702107  36.6713944
  68.5849287  68.4333226  26.9189776  68.0630041  68.5733518  27.6041641
  68.9723308  67.6743891  27.1091893  68.5652988  68.3418750  27.0490853
  65.5740471  58.4839035  20.9884731  65.2865267  58.1140306  20.2516678
  66.2610940  58.9533890  20.7268436  65.6329369  58.4986005  20.8399806
  70.0115613  65.4637245  22.3171267  69.8158396  66.0711980  21.7231570
  70.2349959  64.7705189  21.8362941  70.0150254  65.4514771  22.1587348
  68.4094143  62.3491983  22.4352135  69.1316795  62.5133141  21.9755941
  67.9302136  63.0701648  22.3291475  68.4457874  62.4790213  22.3517749
  76.3687651  58.6855782  27.8148820  75.5298751  58.7117061  27.5787084
  76.4392018  59.3326518  28.3954167  76.2556044  58.7851908  27.8657937
  66.0601760  64.7550056  31.5406275  66.5722857  65.0334309  30.8915035
  65.7738102  65.4939350  31.9069088  66.0936623  64.9052409  31.4996153
  74.8156929  55.5841159  22.5476436  75.5183282  55.3848907  22.0696395
  74.5501118  54.8117102  22.8545280  74.8803561  55.4404125  22.5221878
  63.1468666  59.2620248  21.8370012  63.2484802  60.0646409  22.1650987
  63.9424553  59.0607584  21.5393092  63.2796572  59.3506146  21.8405367
  69.5785485  56.8476444  31.6007317  69.3868682  56.8631579  32.4506740
  70.4284081  57.0440119  31.5773972  69.6761207  56.8790796  31.7230612
  63.9632398  59.3767426  29.5791133  63.8217890  58.5251366  29.7035641
  64.2472961  59.4196086  28.7553339  63.9840244  59.2567176  29.4758757
  74.1170990  61.2134516  23.7235622  73.8705705  61.1330267  24.5572411
  74.4456114  60.4287984  23.5298149  74.1292234  61.0860781  23.8183145
  76.3497124  64.2214251  33.7644785  76.3445163  63.3494067  33.7687211
  77.0558118  64.4202420  33.2914240  76.4542128  64.1218125  33.6951820
  70.0768018  63.9491235  33.1358605  70.2211393  64.5292443  32.5001715
  70.4243666  64.3267531  33.8408459  70.1495479  64.0911939  33.1457600
  72.2487935  63.1481403  30.9183736  71.5011249  63.3412417  30.5132014
  72.4029460  62.3226623  30.6807858  72.1610363  63.0546514  30.8229142
  69.1495773  72.1394006  30.0019631  69.2985336  71.5796922  29.3493036
  69.9295775  72.2186008  30.3852150  69.2869866  72.0679572  29.9616581
  72.4889712  57.0431954  31.8079140  72.9462326  57.7755928  31.9351932
  72.5646041  56.6198419  32.5666396  72.5680682  57.0889192  31.9380216
  64.7322703  57.2897773  32.8968584  64.1964893  56.6778132  33.2129351
  64.7940468  57.8645909  33.5502250  64.6618336  57.2844701  33.0404010
  76.9617038  50.2221829  25.6772983  77.0800606  50.6798292  24.9440286
  76.7879214  49.4167090  25.3909201  76.9536209  50.1715601  25.5273917
  70.3672090  59.0334058  28.6520964  69.5768165  58.8525518  28.9738300
  70.7632713  58.2561010  28.6351258  70.3088966  58.8921519  28.6973512
  75.7515776  66.6676488  26.3780410  75.0760778  66.4361720  26.8793797
  75.7608152  66.0597671  25.7522515  75.6534281  66.5435413  26.3596562
  72.8809920  61.5094317  33.1344463  72.8169062  62.3704273  33.0064600
  73.0207108  61.1926310  32.3340014  72.8925390  61.5894483  32.9972676
  71.5629014  64.2026456  27.2760666  71.1391263  64.4030955  26.5399684
  71.3873869  63.3555304  27.3884966  71.4739895  64.1075238  27.1834356
  66.8511459  64.6978508  22.7088638  67.0076078  64.6325310  23.5644630
  67.1912052  65.4727060  22.4967318  66.9244694  64.8027706  22.8043233
  73.3890604  64.0736391  21.5782002  73.9306149  63.5706772  22.0420622
  73.7037163  64.0201586  20.7671487  73.5155001  63.9915812  21.5265814
  74.5379873  58.9672696  31.6304302  74.7521843  58.3283610  31.0767656
  73.9213772  59.4118519  31.2012164  74.4785202  58.9382839  31.4854733
  63.4245721  61.8813458  23.0249406  63.8044686  62.2998003  22.3609673
  62.8501085  62.4626914  23.3318249  63.3957046  62.0291317  22.9726147
  76.7018961  60.5761761  32.5687609  75.8895643  60.2687651  32.6500782
  77.1608896  60.0960761  33.1330321  76.6499346  60.4598253  32.6642203
  73.9294602  52.0772631  26.6191645  73.0588160  52.0511352  26.5724954
  74.1834943  51.9049823  25.8017491  73.8388162  52.0482775  26.4911782
  73.7972469  61.9821832  37.3516311  74.2672100  62.6063949  37.7384186
  73.8434349  61.3138808  37.9109526  73.8740345  61.9756513  37.4916383
  70.9543742  54.0878860  28.0765115  70.4382231  53.3959051  28.2016694
  70.3937671  54.7549637  28.0227714  70.7950256  54.0842117  28.0871181
  73.0235976  54.6271820  29.9057968  72.6367729  54.6520851  30.6871498
  72.5368913  54.0613498  29.4532484  72.8948485  54.5467571  29.9545871
  72.6893118  51.5138805  32.1968228  73.3186235  52.0499105  31.9189298
  72.8578980  51.4216164  33.0481793  72.8070912  51.5800167  32.2816756
  72.4907032  56.3010000  34.4694639  73.3180462  56.0295149  34.5253254
  72.5114878  57.0970842  34.8258457  72.6159882  56.3789754  34.5309822
  67.0676522  63.4473863  27.6564900  66.2264529  63.3477737  27.8643794
  67.2766530  64.2169343  28.0079221  66.9741215  63.5465906  27.7392215
  64.5452089  61.0693400  25.4849651  64.1508787  61.1436412  24.7099760
  63.9892206  61.4551346  26.0358012  64.4054902  61.1375174  25.4517310
  76.1817036  54.0474694  25.1653530  76.3866629  53.9797002  26.0110527
  75.8543460  54.8533515  25.0974707  76.1632284  54.1560634  25.2813185
  70.8793187  61.3755262  26.9062497  70.5756325  60.8211250  27.5072905
  70.1772608  61.5547472  26.4190532  70.7309397  61.3200044  26.9232203
  69.9359284  58.6855782  21.4707199  70.2119019  57.9674694  21.0584767
  70.5357954  59.2840702  21.2628305  70.0652549  58.6676152  21.3787961
  68.9411538  68.5904983  31.6134595  68.8331893  68.6007045  32.4796653
  69.1507320  69.4159763  31.4239549  68.9561649  68.7146057  31.7138687
  73.4369805  56.3569299  19.7453794  73.8913551  56.5279859  20.4701639
  73.9109850  55.7437410  19.3451570  73.5738125  56.2920184  19.7927556
  66.9585330  65.8417625  29.0756533  66.3673263  66.4827123  29.0459548
  67.7206354  66.2655242  29.0487832  66.9833591  65.9993463  29.0671680
  67.3545953  57.0019623  29.7424550  67.8147434  57.0758552  30.4799674
  67.4002060  57.8000877  29.3924372  67.4296508  57.1313770  29.7997307
  69.0029303  57.6686318  34.3096578  68.6114868  57.0219665  34.7452355
  69.1715165  58.2597753  34.9290833  68.9700213  57.6600586  34.4659284
  70.7782825  63.0611833  20.8498802  71.5224870  63.4486110  21.0881751
  70.9243521  62.2169259  21.0139289  70.9093410  62.9942306  20.9092771
  72.6962400  54.8562092  25.8830663  71.8498445  55.0284900  25.7572013
  72.6933533  54.0511436  26.2196491  72.5709550  54.7623121  25.9141790
  73.7660701  58.6337307  26.7492721  73.2920655  58.1079069  27.2598032
  74.1378836  58.0866780  26.1807582  73.7510589  58.4753303  26.7407868
  64.1433731  60.6308813  32.1176267  65.0059344  60.5304523  32.0313597
  63.8125514  60.0503523  31.5561839  64.2218927  60.5300440  32.0221673
  75.6944200  59.5273861  19.8118475  75.1667219  59.6102605  19.1224184
  76.1539908  60.2691733  19.8083119  75.6846051  59.6494524  19.7093170
  67.5035517  59.4551262  28.7786685  66.8788587  59.4669654  28.1712638
  67.1681112  59.9311438  29.4277925  67.3621009  59.5269779  28.7843253
  67.6877265  57.7976381  14.8359370  67.3390070  58.4496106  15.2990919
  67.2073711  57.7833494  14.1083241  67.5647509  57.8919435  14.7970461
  64.2161192  67.5151723  30.2190449  63.6861117  66.8244161  30.2685424
  64.4886286  67.5061908  29.3903158  64.1785915  67.4118854  30.1037865
  74.4167438  64.9574967  30.1928821  73.8024431  64.4133017  30.4877456
  74.9334723  64.4439204  29.7134637  74.4023100  64.8011376  30.1653049
  73.6563735  66.0279237  27.9273119  73.2291343  65.4028956  27.4938555
  73.6488679  65.7454159  28.7532127  73.5922876  65.8932018  27.9852947
  66.7726262  61.0644410  30.9961553  66.9319749  60.3087734  31.4013275
  66.5919156  61.6135350  31.6502291  66.7691621  61.0338224  31.1524259
  74.7146565  53.2305646  31.5512343  74.2187126  53.4269320  30.8603910
  75.4715627  53.6298314  31.3801144  74.7533390  53.3183380  31.4232480
  71.9849445  56.9047992  28.1415653  72.0091932  56.3708104  27.4528433
  72.2360918  56.3965301  28.8041244  72.0259363  56.7508896  28.1380298
  59.4957034  64.1879487  27.5758797  59.3900484  64.1426331  26.7110882
  58.7457254  64.5333267  27.8573082  59.3692637  64.2320395  27.4896127
  68.2650767  55.6318810  27.5221398  68.3049138  56.1328017  28.2356105
  67.4400432  55.7229204  27.2527321  68.1490293  55.7200626  27.5871936
  70.4480380  65.1979550  35.6241692  69.5976010  65.3351264  35.7599337
  70.6108507  64.4643328  36.0689394  70.3464243  65.1093651  35.7097291
  69.6865130  62.1479320  29.8195297  68.8557060  62.3153138  29.6130545
  69.6316647  61.7715271  30.6044182  69.5554545  62.1169051  29.9043825
  67.4948913  55.6388213  35.4551707  68.1201617  55.0950346  35.7281140
  67.0399393  55.1583130  34.8859498  67.5197174  55.4877694  35.4113301
  68.0601174  60.4234911  20.3485414  68.2004135  60.9207376  21.0514056
  68.5583707  59.7221206  20.4899628  68.1542255  60.3936890  20.4736993
  68.0901396  61.2902022  17.6777991  68.7246476  61.8862447  17.6127453
  68.1727007  60.9905480  18.4923861  68.1957947  61.3342931  17.7881078
  69.6680379  57.2215998  17.6523433  69.9896220  56.7419080  16.9982696
  69.9307323  58.0315644  17.4614245  69.7546405  57.2705896  17.5278925
  72.8977352  68.2434872  31.1722249  72.3902443  68.7970719  31.6162880
  72.6003998  68.3043162  30.3541024  72.7782237  68.3341183  31.1170706
  75.0639534  56.6088192  30.0146912  75.4894606  56.1560718  29.4030439
  74.4496527  56.0548262  30.2911700  75.0368180  56.4602168  29.9651938
  64.5954384  63.4869863  20.9467537  65.1046614  64.0834371  21.3278843
  65.0688657  63.2195837  20.2643957  64.7397760  63.5355679  20.9022060
  73.5033757  53.0803292  23.4237489  72.8602075  52.9300938  23.9922628
  73.1633164  52.8345637  22.6586594  73.3578834  53.0215414  23.3940504
  78.2561231  57.4918602  25.7557871  78.6088841  57.0648325  26.4303670
  77.3976033  57.4069446  25.8858948  78.1810676  57.4163343  25.8752882
  66.9544916  60.1226122  23.8140718  66.2356905  60.5390254  24.0813581
  67.3257278  60.6880360  23.2632356  66.9036848  60.2675403  23.7723525
  76.2544497  60.7553971  29.7042713  76.2342424  60.5737266  30.5577492
  76.3023698  61.6265989  29.6802297  76.2579138  60.8570509  29.8266008
  74.1990827  67.3441163  35.6291190  74.1586682  66.6990840  35.0436346
  75.0114145  67.2877780  35.9416602  74.3133980  67.2400129  35.5888139
  72.7291490  59.1624122  19.1514097  72.1356330  59.4841118  18.5998664
  72.7666768  58.3165217  18.9435203  72.6465880  59.0848450  19.0396868
  75.6049307  59.1203626  22.5815847  75.3763000  59.1436328  21.7394206
  75.8647383  58.2961093  22.7010858  75.6095495  59.0019706  22.4741045
  69.8868535  60.9738099  32.1840948  69.3747439  60.3659282  32.5425979
  69.7148032  61.6894692  32.6514923  69.7858172  60.9901398  32.3057171
  64.7334250  59.4175674  34.8343309  64.5636840  60.0777049  34.2891516
  64.2900200  59.6282236  35.5555798  64.6433584  59.5461657  34.8604939
  68.6594070  57.6580172  23.8770043  69.1351436  58.0197252  23.2420224
  68.1582669  58.3136640  24.1570186  68.6559429  57.8074361  23.8246784
  73.7637606  58.8962344  34.6243203  74.3209036  58.6676153  33.9921669
  73.4398671  59.6568009  34.3478416  73.7984016  58.9746180  34.4899700
  61.6336315  62.3222540  30.0931799  61.0863034  61.6523186  30.2112668
  62.4228693  61.9552388  30.1575266  61.6688498  62.1687526  30.1200500
  71.4820723  61.9829997  35.5895210  72.2332050  62.2981674  35.9034764
  71.6743300  61.7809168  34.7629132  71.6212137  61.9997379  35.5138606
  70.7020723  59.8021372  17.2443427  71.0819688  59.8201001  16.4594542
  69.9613319  60.2475361  17.1234274  70.6489560  59.8703147  17.1106995
  78.3306013  58.1103563  22.8319006  78.3300240  57.9552220  23.6903282
  78.1262193  58.9566550  22.7760391  78.3005791  58.2124184  22.9506945
  60.3923284  61.5343348  27.2477822  60.2145045  61.0819957  27.9732738
  60.1042306  62.3369509  27.4316300  60.3236237  61.5865906  27.3821325
  76.0546865  62.7901065  26.4855213  76.5500531  62.0724060  26.4459233
  75.2446641  62.4871863  26.3709700  76.0090759  62.6398711  26.4628938
  62.1295754  64.0671072  24.3599581  61.2641274  64.0556762  24.2482353
  62.2294570  63.8801294  25.2070721  62.0169921  64.0377133  24.4688526
  78.1198684  65.5404753  29.1732341  78.5453756  65.0179175  28.6202766
  77.7555604  66.1385590  28.6520964  78.1285287  65.5514980  29.0141351
  67.7552764  73.8368970  27.9329687  68.0699323  74.6505359  27.9407469
  68.1646177  73.4519189  28.6011846  67.8620862  73.8997673  28.0333778
  74.7077284  69.2539017  25.5033499  75.1788462  69.9679280  25.6723484
  75.0437462  68.6537767  26.0393368  74.8272399  69.2710481  25.6065875
  71.6246779  54.0266488  32.4591594  71.7574684  53.2297481  32.7872569
  72.0091931  54.5532891  33.0389869  71.7003107  53.9866404  32.5935096
  75.3451230  69.0456951  32.2661191  74.7972176  68.4214835  31.9981257
  75.8064259  69.2351223  31.5505271  75.3318439  68.9816001  32.1211623
  74.6979134  50.9496814  29.0572687  73.8925097  50.8394543  29.3740525
  74.5685869  51.0509269  28.2002553  74.5599267  50.9480484  28.9780727
  78.1545094  57.1142306  29.6512384  77.5708083  57.6151512  29.2389951
  78.4749388  56.6071862  29.0176707  78.1158270  57.1134141  29.4970891
  70.6939893  56.0282900  19.9271059  71.5155588  56.1981213  19.6852753
  70.2309544  56.1830161  19.2037356  70.7471056  56.0764633  19.7842703
  69.2835225  54.0225663  30.7069487  69.8279638  53.6816789  31.2973829
  69.3372161  54.8811124  30.8490772  69.3724345  54.0980922  30.8151361
  65.0965784  67.7842079  27.5808295  65.7010641  67.7437913  26.9522116
  64.8893097  68.6313231  27.6112351  65.1554681  67.9030081  27.4924412
  60.3317066  66.7676696  27.4507218  60.2341344  65.9572968  27.7597275
  61.1145936  66.7468490  27.0653486  60.4333203  66.6443786  27.4394081
  36.1870017   6.1244125  12.8821246  36.8307472   6.5657289  13.2717405
  36.5126272   5.3197551  12.7951505  36.3301845   6.0709320  12.9266724
  40.8329392   1.3499488  20.9480918  40.9212738   1.1625629  21.7959128
  41.2619104   0.7036918  20.5485764  40.9091494   1.2262496  21.0152669
  38.3999852   0.6330648  19.9298580  37.8370687   0.2203258  20.4538241
  39.1620875   0.5583554  20.3491723  38.4294300   0.5608049  20.0691580
  40.9449451   0.7808507  23.6124701  41.7289868   0.8939355  23.9780443
  40.7446046  -0.0450356  23.8083387  41.0315477   0.6755227  23.6959087
  41.1019845   2.6918609  17.2591157  40.3035090   2.4518109  17.5165025
  41.5505856   2.7433002  18.0058204  41.0494456   2.6641000  17.4076081
  35.9248846   2.5216214  16.9359678  36.0738410   1.9619130  16.2833083
  36.7048848   2.6008216  17.3192197  36.0622940   2.4501779  16.8956627
  38.4502147   2.6930857  18.2144169  38.3745818   2.0239667  18.7694957
  38.3792006   3.3948645  18.7284835  38.4282753   2.6975764  18.3721017
  37.8393781   6.0999176  16.6722170  38.3289711   5.4009966  16.4897835
  37.2678013   5.8023046  17.2598227  37.8278311   5.9525400  16.7323211
  35.7164611  -1.0272810  18.5474642  35.6084966  -1.0170748  19.4136700
  35.9260393  -0.2018030  18.3579596  35.7314722  -0.9031735  18.6478734
  43.4927920   1.6749144  13.4428604  43.2947608   2.1639958  12.7484815
  42.8715631   1.8790386  14.0212737  43.3715484   1.7765682  13.4251827
  39.6730425  -1.3742920  18.1062296  39.1655516  -0.8207074  18.5502927
  39.3757071  -1.3134631  17.2881071  39.5535310  -1.2836609  18.0510753
  38.9172911   3.5581638  15.0119303  38.6938565   2.8000467  15.3803329
  38.4282754   3.5879659  14.2899743  38.8116360   3.4503862  14.9596044
  40.9316662   2.9372181  13.2180004  40.5332945   3.0474451  12.4500825
  40.3167881   3.1454247  13.8006564  40.7815551   2.9845749  13.1911304
  34.5305837   4.2191178  14.8669734  34.8452396   5.0327566  14.8747515
  34.9399250   3.8341396  15.5351893  34.6373935   4.2819880  14.9673825
  43.5707341   1.2462538  24.6165618  43.6804307   0.4571098  24.9722365
  43.8998238   1.1568474  23.8139956  43.6359747   1.1168391  24.5508008
  41.6862629   0.4330231  15.7310579  42.5061003   0.2893197  15.9926875
  41.4056707   1.0576430  16.2727017  41.7659373   0.5040583  15.8498519
  51.3575965   7.1770734  13.4506386  50.5013860   7.3379232  13.5015503
  51.4043618   6.3062798  13.4711447  51.2375076   7.0721536  13.4612452
  45.7417104  16.7133452   9.2143618  44.9900004  16.3348990   8.9859663
  46.1903116  16.7451885   8.4662428  45.6966771  16.6619059   9.0701120
  54.6669681  13.4457260  23.0566842  55.3736448  12.9509290  23.1853777
  54.8557617  13.8866341  22.3269500  54.7997587  13.4375610  22.9675888
  51.1942064  17.1358821   4.6429165  50.8593433  17.8135743   4.2073387
  51.7068935  16.7464133   4.0546037  51.2207645  17.1783399   4.4915956
  50.7346356  19.0873090  10.5840276  51.1185735  19.6559989  10.0445052
  50.6705497  18.3622600  10.1046093  50.7819783  19.0648553  10.4334139
  54.2027786   9.2362778  16.0938038  54.7483746   9.9147864  16.1532008
  54.1444662   9.0950239  15.2339619  54.2743700   9.3154780  15.9750098
  47.3201860  16.7251844  11.4806390  47.4212223  15.9152198  11.7903518
  46.7243606  16.6308790  10.8506069  47.2474399  16.5916872  11.4332629
  55.9792854  10.6647385   6.9671766  55.8632380  11.4155071   7.3963904
  56.7748741  10.4071338   7.2167853  56.0797444  10.7382232   7.0675857
  47.1602600  21.6429433  12.8821246  47.8040056  22.0842597  13.2717405
  47.4858856  20.8382859  12.7951505  47.3034429  21.5894628  12.9266724
  40.5166905  12.7472130  11.1058724  40.2817089  11.9139783  10.9990993
  40.6552546  13.0276796  10.2919925  40.5022567  12.6655634  10.9701079
  42.8156992   4.9157861  14.0043032  42.1962024   4.3250508  13.8353046
  42.7140856   5.5069296  13.3707355  42.7094668   4.9161944  13.8848021
  47.8623180  14.6541408   8.2541108  48.1839021  15.1946615   7.6502416
  48.5095276  14.0838179   8.3863398  48.0049235  14.6500583   8.1848143
  49.9124888   6.6557403   8.3375495  50.6105053   6.8345530   8.8296958
  50.2277220   6.1327742   7.7145884  50.0620225   6.6051175   8.3177505
  42.5426125   8.4610143  16.2486601  42.4184822   9.0472588  16.8836419
  43.1944410   7.9670339  16.5498876  42.6199775   8.4748947  16.3872530
  50.1012823  13.0427848   8.3255286  50.5406459  12.4344948   8.7710059
  49.9517486  12.6635221   7.5540751  50.1434289  12.8966319   8.2774454
  47.5684466  11.6371860  15.5274112  48.2133469  11.1444303  15.2085060
  47.8086243  11.7796646  16.3540190  47.6995051  11.5849302  15.6023645
  50.1070558  14.4826766  15.1781004  50.3893800  13.6878171  14.9567760
  50.8356718  14.9607353  15.1986065  50.2560121  14.4361363  15.1484019
  48.0851751   2.0249800  12.4196769  47.7555081   2.4760943  11.7500468
  47.4096753   1.9465963  12.9669776  47.9362188   2.0800935  12.4019993
  53.7022160  11.3955029   5.2786055  53.6173455  12.2515996   5.4235624
  54.1906543  11.1199353   5.9468215  53.7611057  11.4812351   5.3988137
  54.6340593   8.0139823   6.7783791  54.1052065   8.2299457   7.4381097
  55.1565613   8.7075962   6.6984760  54.6329046   8.1482960   6.8639390
  60.0888646  13.5886128  12.1516835  59.2586349  13.7996771  12.3150252
  60.0397898  12.7623182  11.8759119  59.9595381  13.4975734  12.1354200
  42.0784229  17.6257801  12.3814930  41.5951808  18.3508291  12.3574514
  42.8907548  17.9233931  12.4925088  42.1274977  17.7760155  12.3942209
  48.1498384  16.4189982  14.9864745  47.6325325  16.0597397  14.3826053
  48.8472775  15.8952156  14.9970811  48.1763965  16.2887670  14.8995003
  51.8061976  16.8684796  20.9480918  51.8945321  16.6810936  21.7959128
  52.2351688  16.2222226  20.5485764  51.8824078  16.7447804  21.0152669
  49.3732435  16.1515956  19.9298580  48.8103270  15.7388566  20.4538241
  50.1353459  16.0768862  20.3491723  49.4026884  16.0793357  20.0691580
  44.9328427  18.1413977  12.5335210  45.6349006  17.6265966  12.5907967
  44.8525910  18.4688129  13.3382085  45.0252187  18.1128203  12.6608002
  59.5842604   6.2356528  15.9467256  58.7471025   6.3058716  16.1814851
  59.5530835   6.2381023  15.0741559  59.4560887   6.2466756  15.8526804
  45.9807333   8.3789564  21.6615625  46.1527837   8.2695459  22.5100906
  46.5176691   9.0243970  21.4246817  46.0852337   8.4581566  21.7520722
  44.2579202  14.3320329  12.0420818  45.0968102  14.5643262  12.0894580
  44.2890971  13.4624641  11.9727853  44.3860920  14.2377276  12.0385463
  44.8831905  14.7521204  16.3434124  45.4230130  14.6092335  17.0137496
  44.2001851  15.1517955  16.7118150  44.8624059  14.7900875  16.4968545
  54.3072790  10.4312205  11.5379148  55.0630305  10.8643719  11.5768057
  54.4135115   9.7816975  12.1113784  54.4342961  10.3989689  11.6277173
  57.3452961  14.2585482  12.2881551  56.9088193  14.2622225  13.0440522
  57.0115877  14.9390981  11.8561128  57.2315581  14.3597938  12.3362383
  51.9182035  16.2993815  23.6124701  52.7022451  16.4124663  23.9780443
  51.7178629  15.4734952  23.8083387  52.0048060  16.1940534  23.6959087
  40.2869050  10.9721495  16.4968545  40.0207465  10.1560612  16.6559535
  40.3007614  11.0174651  15.6264061  40.2493773  10.8578400  16.3922027
  45.0367657   4.5099873  19.1435553  44.3439453   4.0396853  19.3896284
  45.6527984   4.2838178  19.7177260  45.0252187   4.4067005  19.2644705
  52.0752428  18.2103917  17.2591157  51.2767674  17.9703417  17.5165025
  52.5238440  18.2618310  18.0058204  52.0227039  18.1826308  17.4076081
  60.4797307  10.9766402  11.1801188  61.1413741  10.4157071  11.0797097
  59.8388719  10.4818433  11.5053879  60.4826175  10.8202811  11.2133528
  51.3674115  14.2736534   3.4882111  51.7825264  13.9421557   2.7966607
  50.5366045  14.0405436   3.3602248  51.3062124  14.1907790   3.3672959
  40.6962464  11.7580275  13.7780289  40.5138037  11.7327161  12.9252581
  41.4312133  12.2279212  13.8169198  40.7776528  11.8241637  13.6578208
  56.7662138  11.9931785  10.9213177  57.0017727  12.1376983  10.0940028
  56.9151702  12.7574193  11.3144691  56.8227941  12.1270839  10.8576781
  43.7608216   8.4765277  20.2862398  44.4848188   8.4618308  20.7727293
  43.8624352   9.1860633  19.7884366  43.8826425   8.5789981  20.2841185
  58.5952595  10.8333450   8.7582781  58.9260812  11.3661091   8.1522876
  59.1685683  10.8872338   9.4144732  58.7286274  10.9203019   8.7660562
  51.1353165  11.9564362  25.1511345  50.3426146  12.2707874  25.3363965
  51.2502092  12.1715830  24.3132130  51.0348576  12.0348199  25.0549680
  53.8084484   8.6798353   9.4406361  53.9031338   9.4187647   9.8945986
  53.1843327   8.2515829   9.8740925  53.7293514   8.7259674   9.5714508
  52.0636958  11.8584566  20.0896642  52.6375819  11.2211810  20.2445206
  51.9851762  11.8588648  19.2206299  52.1370193  11.7649677  19.9843053
  40.6633374   8.6373775  13.9279356  41.2406877   8.5010226  14.5671601
  39.9647436   8.1809559  14.1824940  40.6454396   8.5496041  14.0601646
  47.4200676  10.2907831  12.1417839  47.1619921   9.4579566  12.1149139
  47.4749159  10.5165444  11.3010339  47.3900454  10.2005602  12.0137976
  46.3935389   7.8445593  12.6282734  45.8184980   8.0037762  13.2646695
  46.0171065   7.2081003  12.1651184  46.2538201   7.7743406  12.6537292
  50.0608677   6.3168943  17.4875112  49.6723110   5.8923160  16.8327303
  49.3963376   6.5651092  17.9952139  49.9055605   6.2907664  17.4662980
  51.1647615  10.5467547   5.6851919  51.9788254  10.8382440   5.5734691
  51.1006757   9.8927410   5.1110212  51.2750354  10.4932742   5.5840757
  57.3857106  13.2293543  20.0981495  57.1495743  12.3981608  19.9793556
  58.0300335  13.1779151  20.6836339  57.4451776  13.0991231  20.1667388
  47.0355524  14.0189065  10.8124231  47.6729471  13.7800812  11.3576025
  47.4610595  14.2226224  10.0777392  47.1931690  14.0140075  10.7841389
  41.7268166  16.2577401  14.6958535  41.7672311  16.5292252  13.8678315
  42.2862690  16.7819309  15.1116323  41.8151512  16.3753156  14.6350423
  47.8426879   2.5197770  24.8661705  47.5280320   3.2897332  24.6031268
  47.5216812   1.9568026  24.2813932  47.7485798   2.5508038  24.7403055
  58.4093526  13.0137992  16.1609789  58.1039343  13.7466049  16.5223105
  57.6899742  12.6075922  15.8802575  58.2580869  13.0619725  16.1722926
  49.4176996  14.4961487  12.4918018  49.4916004  14.3336659  13.3459868
  50.2346502  14.6851677  12.2478499  49.5493354  14.4998230  12.5816043
  64.1095318   9.6530993  15.4878134  64.0419819   9.6726952  14.6180720
  64.0950981  10.4961320  15.7133804  64.0974075   9.7804727  15.3930611
  43.1782752  14.8419350   9.5212461  42.3520870  15.0881087   9.3946740
  43.2394744  14.7631431  10.3874519  43.0656919  14.8664299   9.6301406
  47.9581581  17.4596230   7.2231491  48.2479880  17.0685212   6.4990718
  48.6885062  17.6412935   7.6636766  48.1088466  17.4290044   7.1814298
  61.8953936   8.4275379  13.7624728  62.4461857   7.7943448  14.0021820
  61.8798051   8.9590772  14.4540232  61.9739132   8.4124327  13.9003586
  48.5476327  12.2613976  18.3084621  48.0488020  12.9729744  18.3869510
  49.3576551  12.5814643  18.2702784  48.5932433  12.4140825  18.3141190
  45.8987497  19.4363613  10.2891641  45.6787792  19.1460968  11.0818308
  45.6782019  18.7778568   9.7609553  45.8335091  19.2963321  10.3280549
  44.8104444  11.5236929  12.5547342  44.5217693  10.8974401  13.0893070
  45.6787792  11.4657217  12.6212023  44.8964696  11.4224474  12.6438297
  55.5982342   6.6671713  12.8729324  55.2547108   5.9462048  13.2236574
  55.6975385   6.4585564  12.0307683  55.5624385   6.5295916  12.8001004
  48.0655453  20.8093003   9.0722333  48.7179511  20.2769445   9.3013359
  47.3681061  20.4561655   9.4590207  48.0586171  20.6782526   9.1634501
  45.0136718  13.1632180   8.4789707  45.7682686  13.5445219   8.6925170
  44.4207330  13.6143324   8.9336404  45.0373431  13.2861008   8.5772586
  56.0595371  13.1297417   8.4153312  56.6253404  13.7890627   8.3311855
  55.4123274  13.4747115   8.8869715  56.0474127  13.2779358   8.4726069
  47.4743385   5.1195021  23.6046920  46.6643160   5.4252800  23.4936762
  47.9518071   5.8400603  23.7199504  47.4246863   5.2709622  23.6053991
  46.3334944  14.3340742  13.8529823  45.8115698  14.4741033  14.5381687
  46.7208964  13.5751406  14.0431940  46.3138645  14.2426266  13.9830899
  52.5301949  16.0736201   7.8390392  52.2888625  15.3404062   7.4317457
  52.7103282  16.6223058   7.1856725  52.5209573  16.0458592   7.6820615
  47.7601270  11.3644761   9.2511314  47.5644052  11.9719495   8.6571617
  47.9835615  10.6712705   8.7702988  47.7635911  11.3522286   9.0927395
  46.1579800   8.2499499   9.3692182  46.8802452   8.4140657   8.9095988
  45.6787793   8.9709163   9.2631522  46.1943530   8.3797728   9.2857796
  54.1173307   4.5863297  14.7488867  53.2784408   4.6124576  14.5127130
  54.1877675   5.2334033  15.3294214  54.0041701   4.6859423  14.7997984
  43.8087416  10.6557571  18.4746322  44.3208513  10.9341824  17.8255082
  43.5223759  11.3946865  18.8409135  43.8422280  10.8059925  18.4336200
  57.9930831   9.7931284  12.0350109  57.9064806   9.9486710  12.8884888
  57.5381311  10.4369360  11.6609514  57.9134088   9.9107039  12.1057216
  47.3271142   2.7483960  18.5347364  47.1354339   2.7639094  19.3846787
  48.1769738   2.9447634  18.5114019  47.4246864   2.7798311  18.6570658
  41.7118055   5.2774941  16.5131180  41.5703547   4.4258882  16.6375688
  41.9958618   5.3203602  15.6893386  41.7325901   5.1574691  16.4098804
  51.8656647   7.1142031  10.6575668  51.6191362   7.0337782  11.4912457
  52.1941770   6.3295499  10.4638196  51.8777891   6.9868297  10.7523192
  55.7604696  13.8225391  14.4462450  55.6219055  14.5206436  14.9511192
  54.9804694  13.6674047  14.0898631  55.6247923  13.9025557  14.4688724
  54.0982781  10.1221766  20.6984831  54.0930820   9.2501583  20.7027258
  54.8043775  10.3209935  20.2254287  54.2027785  10.0225640  20.6291867
  47.8253675   9.8498750  20.0698651  47.9697050  10.4299958  19.4341761
  48.1729323  10.2275047  20.7748506  47.8981136   9.9919454  20.0797646
  49.9973592   9.0488918  17.8523783  49.2496906   9.2419933  17.4472061
  50.1515117   8.2234138  17.6147904  49.9096019   8.9554030  17.7569189
  46.8981430  18.0401522  16.9359678  47.0470993  17.4804438  16.2833083
  47.6781432  18.1193523  17.3192197  47.0355523  17.9687087  16.8956627
  49.4234730  18.2116165  18.2144169  49.3478401  17.5424975  18.7694957
  49.3524589  18.9133953  18.7284835  49.4015337  18.2161072  18.3721017
  50.2375369   2.9439469  18.7419187  50.6947983   3.6763443  18.8691979
  50.3131698   2.5205934  19.5006443  50.3166339   2.9896707  18.8720263
  42.4808360   3.1905289  19.8308631  41.9450550   2.5785647  20.1469398
  42.5426125   3.7653425  20.4842297  42.4103993   3.1852216  19.9744057
  50.0804977  16.7317163   9.0467775  50.8454868  16.4626807   8.7250439
  49.9783067  16.2467174   9.7637838  50.1786473  16.6206728   9.1047603
  48.1157747   4.9341573  15.5861011  47.3253822   4.7533033  15.9078347
  48.5118370   4.1568525  15.5691305  48.0574623   4.7929034  15.6313559
  53.5001433  12.5684003  13.3120457  52.8246435  12.3369235  13.8133844
  53.5093809  11.9605186  12.6862562  53.4019938  12.4442928  13.2936609
  50.6295577   7.4101832  20.0684510  50.5654718   8.2711789  19.9404646
  50.7692765   7.0933825  19.2680061  50.6411047   7.4901999  19.9312723
  55.5018168  15.4249135   5.5430635  55.5838005  16.2316122   5.2192086
  55.9867910  15.4445095   6.2671408  55.5855326  15.5469798   5.6017533
  49.3114671  10.1033971  14.2100713  48.8876920  10.3038470  13.4739731
  49.1359526   9.2562819  14.3225012  49.2225552  10.0082753  14.1174403
  48.8126364  21.6184484  16.6722170  49.3022295  20.9195274  16.4897835
  48.2410597  21.3208354  17.2598227  48.8010894  21.4710708  16.7323211
  44.5997116  10.5986023   9.6428685  44.7561735  10.5332826  10.4984677
  44.9397709  11.3734575   9.4307365  44.6730351  10.7035221   9.7383279
  51.1376261   9.9743906   8.5122048  51.6791806   9.4714288   8.9760669
  51.4522820   9.9209101   7.7011534  51.2640658   9.8923327   8.4605860
  55.0093368  14.1846554  25.6248961  55.8228233  13.9131703  25.7854093
  54.8488334  13.8854094  24.8209157  55.1063316  14.1001480  25.5294366
  49.3062710  15.3661258   5.7962076  49.3755531  14.5075796   5.9355077
  50.0851165  15.5833139   5.4681101  49.4315560  15.2714122   5.7679234
  52.2865530   4.8680211  18.5644349  52.5007500   4.2291125  18.0107703
  51.6699429   5.3126035  18.1352211  52.2270859   4.8390355  18.4194780
  53.6970198  17.7898959  10.0098570  53.3049990  17.4865674   9.2921436
  53.8523270  18.6268049   9.8203524  53.6623788  17.8682796   9.8755067
  41.1731377   7.7820973   9.9589452  41.5530342   8.2005518   9.2949720
  40.5986742   8.3634429  10.2658296  41.1442702   7.9298832   9.9066193
  54.4504618   6.4769276  19.5027656  53.6381300   6.1695166  19.5840829
  54.9094553   5.9968276  20.0670368  54.3985003   6.3605768  19.5982250
  53.8609873  14.3548948   9.9504600  53.5024527  14.5263591  10.7268633
  53.3748583  14.8162154   9.3932599  53.7368570  14.4487919   9.9829869
  51.5458125   7.8829348  24.2856358  52.0157757   8.5071464  24.6724232
  51.5920006   7.2146323  24.8449573  51.6226001   7.8764028  24.4256430
  55.0214612  15.2452844  20.8971801  55.6594333  14.7513040  20.5634257
  54.3788704  15.1730245  20.3124028  55.0208839  15.1611853  20.7614156
  56.7471612   7.0941990  15.4637717  56.3199220   7.0068339  14.7085816
  56.1097665   7.2019766  16.0492561  56.5901219   7.0974650  15.4383158
  55.0768869  15.9372652  17.5377158  55.8661247  15.5861717  17.6579240
  55.2512466  16.7509041  17.2753792  55.2189150  16.0058509  17.5165026
  44.8162179   9.3481378  14.5904947  43.9750186   9.2485252  14.7983841
  45.0252187  10.1176858  14.9419267  44.7226872   9.4473421  14.6732262
  42.2937746   6.9700915  12.4189697  41.8994444   7.0443927  11.6439807
  41.7377863   7.3558861  12.9698059  42.1540558   7.0382690  12.3857357
  48.6278844   7.2762777  13.8402544  48.3241981   6.7218766  14.4412952
  47.9258265   7.4554987  13.3530579  48.4795054   7.2207560  13.8572250
  46.6897195  14.4912498  18.5474642  46.5817550  14.5014560  19.4136700
  46.8992976  15.3167278  18.3579596  46.7047306  14.6153573  18.6478734
  44.7070987  11.7425140  16.0096580  44.1158920  12.3834639  15.9799595
  45.4692010  12.1662758  15.9827879  44.7319247  11.9000979  16.0011727
  45.1031610   2.9027138  16.6764597  45.5633091   2.9766068  17.4139721
  45.1487716   3.7008392  16.3264419  45.1782165   3.0321285  16.7337354
  46.7514959   3.5693833  21.2436624  46.3600525   2.9227180  21.6792402
  46.9200822   4.1605268  21.8630880  46.7185870   3.5608101  21.3999330
  60.8261408  11.5730910  17.0073858  60.8844532  12.0217559  17.7533834
  60.1927876  11.9829723  16.5703938  60.7412704  11.7004645  17.0526406
  54.4660503  17.1934452  13.4428604  54.2680192  17.6825266  12.7484815
  53.8448214  17.3975693  14.0212737  54.3448068  17.2950990  13.4251827
  48.5268481   8.9619349   7.7838848  49.2710526   9.3493625   8.0221798
  48.6729178   8.1176774   7.9479336  48.6579067   8.8949822   7.8432818
  51.5146357   4.5344822  13.6832768  51.0406312   4.0086584  14.1938079
  51.8864493   3.9874295  13.1147629  51.4996246   4.3760819  13.6747915
  41.8919387   6.5316329  19.0516313  42.7545000   6.4312038  18.9653643
  41.5611170   5.9511038  18.4901886  41.9704584   6.4307956  18.9561719
  57.7783088   9.5947198  15.0939548  57.5381311   8.7553613  15.0981975
  58.2575095   9.6747364  15.8180322  57.8135272   9.4828597  15.2014351
  59.7788275   6.3748655  13.0468807  59.5398045   6.3344489  12.2089592
  59.9422176   7.2219807  13.1734528  59.7678578   6.4940740  12.9422289
  56.3834305  10.7598604  18.9773852  57.1068504  10.3071131  18.7984872
  56.1184267  11.0403270  18.1946180  56.4515578  10.7349573  18.8352568
  45.2521173   5.3558778  15.7126732  44.6274244   5.3677170  15.1052684
  44.9166768   5.8318953  16.3617972  45.1106665   5.4277295  15.7183300
  41.9646849  13.4159238  17.1530496  41.4346774  12.7251677  17.2025471
  42.2371942  13.4069423  16.3243205  41.9271571  13.3126370  17.0377912
  52.9966939  13.9984940   5.8768179  53.7201138  14.4643053   5.7332752
  52.5567531  14.0658550   5.1265776  53.0382632  14.0768777   5.7452960
  52.1653095  10.8582482  17.1268868  51.5510088  10.3140533  17.4217503
  52.6820380  10.3446719  16.6474684  52.1508757  10.7018892  17.0993096
  51.4049392  11.9286753  14.8613166  50.9777000  11.3036471  14.4278602
  51.3974336  11.6461674  15.6872173  51.3408533  11.7939533  14.9192994
  44.5211919   6.9651926  17.9301600  44.6805406   6.2095250  18.3353322
  44.3404812   7.5142865  18.5842338  44.5177278   6.9345739  18.0864306
  49.7335101   2.8055507  15.0755700  49.7577589   2.2715619  14.3868480
  49.9846575   2.2972816  15.7381291  49.7745020   2.6516411  15.0720345
  37.2442691  10.0887002  14.5098844  37.1386140  10.0433846  13.6450928
  36.4942911  10.4340783  14.7913129  37.1178294  10.1327910  14.4236174
  46.0136424   1.5326325  14.4561445  46.0534795   2.0335532  15.1696152
  45.1886088   1.6236719  14.1867368  45.8975950   1.6208142  14.5211983
  48.1966037  11.0987065  22.5581739  47.3461667  11.2358780  22.6939384
  48.3594164  10.3650844  23.0029441  48.0949900  11.0101166  22.6437338
  47.4350787   8.0486835  16.7535344  46.6042717   8.2160653  16.5470592
  47.3802304   7.6722786  17.5384229  47.3040202   8.0176566  16.8383872
  45.2434570   1.5395728  22.3891754  45.8687274   0.9957861  22.6621186
  44.7885050   1.0590646  21.8199545  45.2682831   1.3885209  22.3453348
  58.8169619   9.7225015  17.4804402  59.4087459  10.3622266  17.5122600
  59.2528614   9.0248052  17.7696469  58.9688050   9.7143365  17.5285235
  50.6463009  14.1442387  18.1062296  50.1388100  14.6978234  18.5502927
  50.3489655  14.2050677  17.2881071  50.5267894  14.2348699  18.0510753
  53.2570789  18.0605645   6.0366240  52.5400099  17.8866507   5.5713477
  53.9077527  17.8258217   5.5041726  53.2472640  18.0001438   5.8895458
  55.8418760   6.9370234   9.7807545  55.1709950   7.4799936   9.6520610
  56.5358511   7.4065089   9.5389240  55.8447628   7.0868505   9.7263072
  49.8905494  19.0766946  15.0119303  49.6671149  18.3185775  15.3803329
  49.4015337  19.1064967  14.2899743  49.7848943  18.9689170  14.9596044
  44.7030573   6.0233637  10.7480764  43.9842562   6.4397770  11.0153628
  45.0742935   6.5887876  10.1972403  44.6522505   6.1682918  10.7063571
  54.0030154   6.6561486  16.6382760  53.9828081   6.4744781  17.4917539
  54.0509354   7.5273504  16.6142344  54.0064795   6.7578024  16.7606055
  51.9476484  13.2448678  22.5631237  51.9072338  12.5998355  21.9776393
  52.7599802  13.1885295  22.8756649  52.0619637  13.1407645  22.5228186
  48.5383951  19.2967404  12.4656388  48.1244350  18.6341534  12.0760229
  49.2231325  19.4445263  11.9452082  48.5782323  19.2208062  12.3312885
  51.9049245  18.4557489  13.2180004  51.5065528  18.5659759  12.4500825
  51.2900465  18.6639555  13.8006564  51.7548135  18.5031057  13.1911304
  53.3534964   5.0211141   9.5155894  53.1248657   5.0443843   8.6734252
  53.6133040   4.1968608   9.6350905  53.3581152   4.9027221   9.4081092
  47.6354192   6.8745614  19.1180994  47.1233095   6.2666797  19.4766026
  47.4633688   7.5902207  19.5854970  47.5343829   6.8908914  19.2397218
  42.4819907   5.3183190  21.7683356  42.3122497   5.9784565  21.2231563
  42.0385857   5.5289751  22.4895845  42.3919241   5.4469172  21.7944986
  46.4079726   3.5587688  10.8110090  46.8837093   3.9204768  10.1760271
  45.9068326   4.2144155  11.0910233  46.4045085   3.7081876  10.7586831
  51.5123263   4.7969859  21.5583250  52.0694693   4.5683669  20.9261715
  51.1884328   5.5575525  21.2818462  51.5469673   4.8753696  21.4239747
  39.3821971   8.2230055  17.0271846  38.8348691   7.5530701  17.1452714
  40.1714350   7.8559903  17.0915313  39.4174155   8.0695042  17.0540547
  49.2306380   7.8837512  22.5235257  49.9817707   8.1989189  22.8374811
  49.4228956   7.6816683  21.6969179  49.3697794   7.9004894  22.4478653
  38.1408941   7.4350863  14.1817869  37.9630702   6.9827472  14.9072785
  37.8527963   8.2377025  14.3656347  38.0721894   7.4873421  14.3161372
  53.8032522   8.6908580  13.4195259  54.2986187   7.9731576  13.3799280
  52.9932298   8.3879378  13.3049746  53.7576415   8.5406227  13.3968985
  49.2491134  12.5406394   5.5692264  48.4402456  12.2173067   5.5225573
  49.7566042  11.8339616   5.5020512  49.2040800  12.3887710   5.5522558
  39.8781411   9.9678587  11.2939628  39.0126930   9.9564277  11.1822399
  39.9780227   9.7808810  12.1410767  39.7655578   9.9384648  11.4028573
  55.8684341  11.4412268  16.1072388  56.2939412  10.9186690  15.5542813
  55.5041261  12.0393105  15.5861011  55.8770943  11.4522495  15.9481398
  45.5038421  19.7376486  14.8669734  45.8184980  20.5512874  14.8747515
  45.9131834  19.3526704  15.5351893  45.6106519  19.8005188  14.9673825
  52.4562940  15.1546532  12.4373546  52.9274119  15.8686795  12.6063531
  52.7923119  14.5545282  12.9733415  52.5758055  15.1717997  12.5405922
  54.5439925  16.7647846  24.6165618  54.6536890  15.9756406  24.9722365
  54.8730822  16.6753782  23.8139956  54.6092331  16.6353699  24.5508008
  53.0936887  14.9464466  19.2001238  52.5457833  14.3222350  18.9321304
  53.5549915  15.1358738  18.4845318  53.0804096  14.8823517  19.0551669
  42.8451441  13.6849594  14.5148342  43.4496298  13.6445428  13.8862163
  42.6378753  14.5320746  14.5452398  42.9040338  13.8037596  14.4264459
  52.6595213  15.9515539  15.7310579  53.4793587  15.8078505  15.9926875
  52.3789291  16.5761738  16.2727017  52.7391956  16.0225891  15.8498519
  38.0802723  12.6684211  14.3847265  37.9827001  11.8580483  14.6937322
  38.8631593  12.6476005  13.9993533  38.1818860  12.5451302  14.3734128
  62.3308548  22.6956042  13.4506386  61.4746444  22.8564540  13.5015503
  62.3776202  21.8248106  13.4711447  62.2107660  22.5906844  13.4612452
  56.7149688  32.2318760   9.2143618  55.9632587  31.8534298   8.9859663
  57.1635700  32.2637193   8.4662428  56.6699355  32.1804367   9.0701120
  65.6402265  28.9642567  23.0566842  66.3469032  28.4694598  23.1853777
  65.8290200  29.4051649  22.3269500  65.7730170  28.9560918  22.9675888
  62.1674648  32.6544129   4.6429165  61.8326016  33.3321051   4.2073387
  62.6801518  32.2649440   4.0546037  62.1940229  32.6968707   4.4915956
  61.7078939  34.6058398  10.5840276  62.0918318  35.1745297  10.0445052
  61.6438080  33.8807908  10.1046093  61.7552366  34.5833861  10.4334139
  65.1760369  24.7548086  16.0938038  65.7216329  25.4333172  16.1532008
  65.1177246  24.6135547  15.2339619  65.2476284  24.8340087  15.9750098
  58.2934444  32.2437152  11.4806390  58.3944807  31.4337506  11.7903518
  57.6976189  32.1494098  10.8506069  58.2206983  32.1102180  11.4332629
  66.9525438  26.1832693   6.9671766  66.8364964  26.9340379   7.3963904
  67.7481325  25.9256646   7.2167853  67.0530027  26.2567540   7.0675857
  58.1335184  37.1614741  12.8821246  58.7772639  37.6027905  13.2717405
  58.4591439  36.3568167  12.7951505  58.2767012  37.1079936  12.9266724
  51.4899488  28.2657438  11.1058724  51.2549673  27.4325091  10.9990993
  51.6285129  28.5462104  10.2919925  51.4755151  28.1840942  10.9701079
  53.7889576  20.4343169  14.0043032  53.1694607  19.8435816  13.8353046
  53.6873439  21.0254604  13.3707355  53.6827251  20.4347252  13.8848021
  58.8355763  30.1726716   8.2541108  59.1571604  30.7131923   7.6502416
  59.4827860  29.6023487   8.3863398  58.9781819  30.1685891   8.1848143
  53.5158709  23.9795451  16.2486601  53.3917406  24.5657896  16.8836419
  54.1676993  23.4855646  16.5498876  53.5932358  23.9934255  16.3872530
  61.0745407  28.5613156   8.3255286  61.5139042  27.9530256   8.7710059
  60.9250070  28.1820529   7.5540751  61.1166873  28.4151627   8.2774454
  58.5417050  27.1557168  15.5274112  59.1866052  26.6629611  15.2085060
  58.7818827  27.2981954  16.3540190  58.6727635  27.1034610  15.6023645
  61.0803141  30.0012074  15.1781004  61.3626384  29.2063479  14.9567760
  61.8089302  30.4792661  15.1986065  61.2292705  29.9546670  15.1484019
  59.0584335  17.5435107  12.4196769  58.7287665  17.9946251  11.7500468
  58.3829337  17.4651271  12.9669776  58.9094771  17.5986243  12.4019993
  64.6754743  26.9140337   5.2786055  64.5906039  27.7701304   5.4235624
  65.1639127  26.6384661   5.9468215  64.7343641  26.9997659   5.3988137
  65.6073177  23.5325131   6.7783791  65.0784648  23.7484765   7.4381097
  66.1298197  24.2261270   6.6984760  65.6061630  23.6668268   6.8639390
  71.0621230  29.1071436  12.1516835  70.2318933  29.3182079  12.3150252
  71.0130482  28.2808490  11.8759119  70.9327965  29.0161042  12.1354200
  57.4972784  27.4288348   5.5791259  56.9130000  27.9338379   5.9857122
  57.0942880  27.2030735   4.8387851  57.3512088  27.4696596   5.5296284
  53.0516813  33.1443109  12.3814930  52.5684391  33.8693599  12.3574514
  53.8640131  33.4419239  12.4925088  53.1007561  33.2945463  12.3942209
  59.1230967  31.9375290  14.9864745  58.6057909  31.5782705  14.3826053
  59.8205358  31.4137464  14.9970811  59.1496548  31.8072978  14.8995003
  62.7794559  32.3870104  20.9480918  62.8677905  32.1996244  21.7959128
  63.2084272  31.7407534  20.5485764  62.8556661  32.2633112  21.0152669
  60.3465019  31.6701264  19.9298580  59.7835854  31.2573874  20.4538241
  61.1086042  31.5954170  20.3491723  60.3759467  31.5978664  20.0691580
  57.2640289  15.6047396   7.9019717  58.0186257  15.9725713   7.6636767
  57.0867824  15.9786950   8.6698897  57.3494768  15.7145584   7.9804606
  55.9061010  33.6599285  12.5335210  56.6081590  33.1451274  12.5907967
  55.8258493  33.9873436  13.3382085  55.9984771  33.6313511  12.6608002
  70.5575188  21.7541836  15.9467256  69.7203609  21.8244023  16.1814851
  70.5263419  21.7566331  15.0741559  70.4293470  21.7652063  15.8526804
  56.9539917  23.8974872  21.6615625  57.1260421  23.7880767  22.5100906
  57.4909274  24.5429277  21.4246817  57.0584921  23.9766874  21.7520722
  55.6197354  18.0117715   4.5997830  55.4372927  18.2289596   3.7738823
  56.4822967  18.1256728   4.6556445  55.7201943  18.0607613   4.4852317
  55.2311786  29.8505637  12.0420818  56.0700685  30.0828570  12.0894580
  55.2623555  28.9809949  11.9727853  55.3593503  29.7562584  12.0385463
  55.8564489  30.2706512  16.3434124  56.3962714  30.1277643  17.0137496
  55.1734435  30.6703263  16.7118150  55.8356643  30.3086183  16.4968545
  65.2805374  25.9497513  11.5379148  66.0362889  26.3829027  11.5768057
  65.3867698  25.3002283  12.1113784  65.4075544  25.9174997  11.6277173
  68.3185545  29.7770790  12.2881551  67.8820777  29.7807533  13.0440522
  67.9848460  30.4576289  11.8561128  68.2048165  29.8783246  12.3362383
  62.8914618  31.8179123  23.6124701  63.6755035  31.9309971  23.9780443
  62.6911213  30.9920260  23.8083387  62.9780644  31.7125842  23.6959087
  51.2601634  26.4906803  16.4968545  50.9940049  25.6745920  16.6559535
  51.2740198  26.5359959  15.6264061  51.2226356  26.3763708  16.3922027
  68.2383028  16.8184618  14.5310979  68.8808936  16.8882723  15.1172894
  68.4906048  16.1513841  14.0290521  68.3705160  16.7310967  14.5438258
  55.1659381  21.2891888   3.1120303  54.4517558  21.0030067   3.5242736
  55.6503349  21.6288513   3.7526691  55.1318744  21.2973537   3.2675938
  56.0100240  20.0285181  19.1435553  55.3172037  19.5582161  19.3896284
  56.6260568  19.8023486  19.7177260  55.9984770  19.9252313  19.2644705
  63.0485012  33.7289225  17.2591157  62.2500257  33.4888725  17.5165025
  63.4971023  33.7803618  18.0058204  62.9959623  33.7011616  17.4076081
  71.4529891  26.4951710  11.1801188  72.1146325  25.9342379  11.0797097
  70.8121303  26.0003741  11.5053879  71.4558758  26.3388119  11.2133528
  62.3406699  29.7921841   3.4882111  62.7557847  29.4606865   2.7966607
  61.5098628  29.5590744   3.3602248  62.2794707  29.7093097   3.3672959
  51.6695047  27.2765583  13.7780289  51.4870621  27.2512469  12.9252581
  52.4044716  27.7464520  13.8169198  51.7509111  27.3426945  13.6578208
  67.7394722  27.5117092  10.9213177  67.9750311  27.6562291  10.0940028
  67.8884285  28.2759500  11.3144691  67.7960525  27.6456147  10.8576781
  54.7340799  23.9950585  20.2862398  55.4580771  23.9803616  20.7727293
  54.8356936  24.7045941  19.7884366  54.8559008  24.0975289  20.2841185
  69.5685178  26.3518758   8.7582781  69.8993395  26.8846399   8.1522876
  70.1418267  26.4057646   9.4144732  69.7018858  26.4388327   8.7660562
  62.1085749  27.4749670  25.1511345  61.3158729  27.7893182  25.3363965
  62.2234676  27.6901138  24.3132130  62.0081159  27.5533507  25.0549680
  64.7817068  24.1983661   9.4406361  64.8763922  24.9372955   9.8945986
  64.1575911  23.7701137   9.8740925  64.7026098  24.2444982   9.5714508
  63.0369541  27.3769874  20.0896642  63.6108403  26.7397118  20.2445206
  62.9584345  27.3773956  19.2206299  63.1102776  27.2834985  19.9843053
  51.6365958  24.1559083  13.9279356  52.2139460  24.0195534  14.5671601
  50.9380020  23.6994867  14.1824940  51.6186979  24.0681349  14.0601646
  58.3933260  25.8093139  12.1417839  58.1352504  24.9764874  12.1149139
  58.4481743  26.0350752  11.3010339  58.3633038  25.7190910  12.0137976
  63.4734310  17.9121590  12.2421932  62.7690637  17.4230775  12.4005851
  63.5219284  17.9244064  11.3710376  63.3764362  17.8411238  12.1361272
  57.3667972  23.3630901  12.6282734  56.7917563  23.5223070  13.2646695
  56.9903648  22.7266310  12.1651184  57.2270784  23.2928714  12.6537292
  61.0341261  21.8354251  17.4875112  60.6455694  21.4108468  16.8327303
  60.3695959  22.0836400  17.9952139  60.8788189  21.8092972  17.4662980
  47.1124791  23.0070976  10.6427174  47.1985043  22.6302844  11.4240704
  47.7400588  22.6331422  10.1647133  47.2181342  22.8956458  10.6872652
  64.8567622  15.5328879  14.9999097  65.2378134  14.8507050  15.3866971
  64.0530907  15.2438481  14.8174761  64.7944084  15.3895928  15.0303152
  62.1380199  26.0652855   5.6851919  62.9520838  26.3567748   5.5734691
  62.0739340  25.4112718   5.1110212  62.2482938  26.0118050   5.5840757
  68.3589689  28.7478851  20.0981495  68.1228327  27.9166916  19.9793556
  69.0032918  28.6964459  20.6836339  68.4184360  28.6176539  20.1667388
  58.0088107  29.5374373  10.8124231  58.6462054  29.2986120  11.3576025
  58.4343179  29.7411532  10.0777392  58.1664274  29.5325383  10.7841389
  52.7000750  31.7762709  14.6958535  52.7404895  32.0477560  13.8678315
  53.2595274  32.3004617  15.1116323  52.7884096  31.8938464  14.6350423
  58.6490922  24.7576662   5.1499121  59.0336075  24.5384369   5.9015666
  58.4002543  25.5839608   5.2800197  58.6692995  24.8474809   5.2800197
  58.8159463  18.0383078  24.8661705  58.5012904  18.8082640  24.6031268
  58.4949395  17.4753334  24.2813932  58.7218382  18.0693346  24.7403055
  69.3826110  28.5323300  16.1609789  69.0771927  29.2651357  16.5223105
  68.6632326  28.1261230  15.8802575  69.2313452  28.5805033  16.1722926
  60.3909579  30.0146795  12.4918018  60.4648588  29.8521967  13.3459868
  61.2079086  30.2036985  12.2478499  60.5225938  30.0183538  12.5816043
  75.0827902  25.1716301  15.4878134  75.0152402  25.1912260  14.6180720
  75.0683564  26.0146628  15.7133804  75.0706658  25.2990035  15.3930611
  54.1515336  30.3604658   9.5212461  53.3253454  30.6066395   9.3946740
  54.2127327  30.2816739  10.3874519  54.0389503  30.3849607   9.6301406
  56.3691360  16.4273599  10.4807901  55.5013785  16.4996199  10.5465510
  56.6566564  17.2295678  10.6695876  56.2831108  16.5567746  10.5182668
  65.4924248  16.5751458  18.8119223  66.2377840  16.3861269  18.3982648
  65.0761553  17.1009696  18.2533079  65.5409223  16.6253604  18.6683796
  58.9314165  32.9781538   7.2231491  59.2212463  32.5870520   6.4990718
  59.6617646  33.1598243   7.6636766  59.0821049  32.9475352   7.1814298
  72.8686519  23.9460687  13.7624728  73.4194441  23.3128756  14.0021820
  72.8530635  24.4776080  14.4540232  72.9471716  23.9309635  13.9003586
  59.5208910  27.7799284  18.3084621  59.0220604  28.4915052  18.3869510
  60.3309134  28.0999951  18.2702784  59.5665017  27.9326133  18.3141190
  56.8720081  34.9548921  10.2891641  56.6520376  34.6646275  11.0818308
  56.6514603  34.2963876   9.7609553  56.8067675  34.8148629  10.3280549
  55.7837028  27.0422237  12.5547342  55.4950276  26.4159709  13.0893070
  56.6520376  26.9842525  12.6212023  55.8697280  26.9409781  12.6438297
  66.5714926  22.1857021  12.8729324  66.2279691  21.4647356  13.2236574
  66.6707968  21.9770872  12.0307683  66.5356968  22.0481224  12.8001004
  59.0388036  36.3278311   9.0722333  59.6912094  35.7954753   9.3013359
  58.3413645  35.9746963   9.4590207  59.0318754  36.1967834   9.1634501
  55.9869301  28.6817488   8.4789707  56.7415269  29.0630527   8.6925170
  55.3939914  29.1328632   8.9336404  56.0106015  28.8046316   8.5772586
  67.0327955  28.6482725   8.4153312  67.5985987  29.3075935   8.3311855
  66.3855858  28.9932423   8.8869715  67.0206711  28.7964666   8.4726069
  58.4475968  20.6380329  23.6046920  57.6375744  20.9438108  23.4936762
  58.9250655  21.3585911  23.7199504  58.3979447  20.7894930  23.6053991
  57.3067528  29.8526050  13.8529823  56.7848281  29.9926341  14.5381687
  57.6941548  29.0936714  14.0431940  57.2871229  29.7611573  13.9830899
  54.2958712  19.9031858   7.9224777  54.0083507  19.5333129   7.1856725
  54.9829180  20.3726714   7.6608482  54.3547609  19.9178828   7.7739853
  63.5034533  31.5921509   7.8390392  63.2621209  30.8589370   7.4317457
  63.6835866  32.1408366   7.1856725  63.4942157  31.5643900   7.6820615
  58.7333853  26.8830069   9.2511314  58.5376636  27.4904803   8.6571617
  58.9568199  26.1898013   8.7702988  58.7368494  26.8707594   9.0927395
  57.1312383  23.7684807   9.3692182  57.8535035  23.9325965   8.9095988
  56.6520376  24.4894471   9.2631522  57.1676114  23.8983036   9.2857796
  65.0905891  20.1048605  14.7488867  64.2516992  20.1309884  14.5127130
  65.1610258  20.7519341  15.3294214  64.9774284  20.2044731  14.7997984
  54.7820000  26.1742879  18.4746322  55.2941097  26.4527132  17.8255082
  54.4956343  26.9132173  18.8409135  54.8154863  26.3245233  18.4336200
  68.9663415  25.3116592  12.0350109  68.8797389  25.4672018  12.8884888
  68.5113895  25.9554668  11.6609514  68.8866671  25.4292347  12.1057216
  51.8686906  20.6813071   8.7710059  51.9703043  21.4839232   9.0991034
  52.6642793  20.4800407   8.4733139  52.0014812  20.7698970   8.7745414
  58.3003725  18.2669268  18.5347364  58.1086922  18.2824402  19.3846787
  59.1502321  18.4632942  18.5114019  58.3979447  18.2983619  18.6570658
  52.6850638  20.7960249  16.5131180  52.5436130  19.9444190  16.6375688
  52.9691202  20.8388910  15.6893386  52.7058485  20.6759999  16.4098804
  62.8389231  22.6327339  10.6575668  62.5923945  22.5523090  11.4912457
  63.1674354  21.8480807  10.4638196  62.8510474  22.5053605  10.7523192
  66.7337280  29.3410699  14.4462450  66.5951639  30.0391744  14.9511192
  65.9537278  29.1859355  14.0898631  66.5980507  29.4210865  14.4688724
  65.0715365  25.6407074  20.6984831  65.0663403  24.7686890  20.7027258
  65.7776359  25.8395243  20.2254287  65.1760369  25.5410948  20.6291867
  58.7986258  25.3684058  20.0698651  58.9429634  25.9485266  19.4341761
  59.1461907  25.7460355  20.7748506  58.8713719  25.5104762  20.0797646
  60.9706175  24.5674226  17.8523783  60.2229490  24.7605241  17.4472061
  61.1247701  23.7419446  17.6147904  60.8828603  24.4739338  17.7569189
  57.8714013  33.5586830  16.9359678  58.0203577  32.9989746  16.2833083
  58.6514015  33.6378831  17.3192197  58.0088107  33.4872395  16.8956627
  60.3967314  33.7301473  18.2144169  60.3210985  33.0610283  18.7694957
  60.3257173  34.4319261  18.7284835  60.3747921  33.7346380  18.3721017
  61.2107952  18.4624777  18.7419187  61.6680567  19.1948751  18.8691979
  61.2864281  18.0391242  19.5006443  61.2898922  18.5082015  18.8720263
  53.4540944  18.7090597  19.8308631  52.9183133  18.0970955  20.1469398
  53.5158708  19.2838733  20.4842297  53.3836576  18.7037524  19.9744057
  61.0537561  32.2502471   9.0467775  61.8187452  31.9812115   8.7250439
  60.9515651  31.7652482   9.7637838  61.1519056  32.1392036   9.1047603
  59.0890330  20.4526881  15.5861011  58.2986405  20.2718341  15.9078347
  59.4850953  19.6753833  15.5691305  59.0307207  20.3114342  15.6313559
  64.4734017  28.0869311  13.3120457  63.7979019  27.8554543  13.8133844
  64.4826393  27.4790494  12.6862562  64.3752521  27.9628236  13.2936609
  61.6028161  22.9287140  20.0684510  61.5387302  23.7897096  19.9404646
  61.7425348  22.6119133  19.2680061  61.6143631  23.0087307  19.9312723
  66.4750751  30.9434443   5.5430635  66.5570589  31.7501430   5.2192086
  66.9600493  30.9630403   6.2671408  66.5587909  31.0655106   5.6017533
  60.2847255  25.6219279  14.2100713  59.8609504  25.8223778  13.4739731
  60.1092110  24.7748127  14.3225012  60.1958135  25.5268061  14.1174403
  59.7858948  37.1369792  16.6722170  60.2754878  36.4380582  16.4897835
  59.2143180  36.8393662  17.2598227  59.7743478  36.9896016  16.7323211
  55.5729700  26.1171331   9.6428685  55.7294319  26.0518134  10.4984677
  55.9130293  26.8919883   9.4307365  55.6462934  26.2220529   9.7383279
  62.1108844  25.4929214   8.5122048  62.6524390  24.9899595   8.9760669
  62.4255403  25.4394409   7.7011534  62.2373241  25.4108635   8.4605860
  65.9825952  29.7031862  25.6248961  66.7960817  29.4317011  25.7854093
  65.8220918  29.4039402  24.8209157  66.0795900  29.6186788  25.5294366
  60.2795294  30.8846566   5.7962076  60.3488114  30.0261104   5.9355077
  61.0583749  31.1018447   5.4681101  60.4048144  30.7899430   5.7679234
  63.2598114  20.3865519  18.5644349  63.4740083  19.7476433  18.0107703
  62.6432013  20.8311343  18.1352211  63.2003443  20.3575663  18.4194780
  64.6702781  33.3084267  10.0098570  64.2782573  33.0050982   9.2921436
  64.8255854  34.1453357   9.8203524  64.6356371  33.3868104   9.8755067
  52.1463961  23.3006281   9.9589452  52.5262926  23.7190826   9.2949720
  51.5719326  23.8819737  10.2658296  52.1175286  23.4484140   9.9066193
  65.4237202  21.9954584  19.5027656  64.6113883  21.6880474  19.5840829
  65.8827136  21.5153584  20.0670368  65.3717586  21.8791076  19.5982250
  64.8342456  29.8734256   9.9504600  64.4757111  30.0448899  10.7268633
  64.3481167  30.3347462   9.3932599  64.7101153  29.9673227   9.9829869
  62.6512842  13.4965455  13.5531692  61.7806400  13.4704176  13.5065001
  62.9053183  13.3242647  12.7357537  62.5606402  13.4675598  13.4251828
  59.6230822  25.5533421   2.4904835  59.9123346  26.3298304   2.7648409
  59.7102620  25.0422153   3.1919334  59.6785078  25.5925340   2.6347333
  62.5190709  23.4014655  24.2856358  62.9890340  24.0256772  24.6724232
  62.5652589  22.7331631  24.8449573  62.5958585  23.3949336  24.4256430
  59.6761983  15.5071683  15.0105162  59.1600471  14.8151874  15.1356741
  59.1155912  16.1742460  14.9567761  59.5168496  15.5034941  15.0211228
  61.7454216  16.0464643  16.8398015  61.3585969  16.0713674  17.6211545
  61.2587153  15.4806322  16.3872531  61.6166725  15.9660394  16.8885918
  65.9947196  30.7638152  20.8971801  66.6326916  30.2698348  20.5634257
  65.3521287  30.6915552  20.3124028  65.9941422  30.6797160  20.7614156
  67.7204196  22.6127298  15.4637717  67.2931804  22.5253647  14.7085816
  67.0830249  22.7205073  16.0492561  67.5633803  22.6159958  15.4383158
  61.4111358  12.9331628  19.1308275  62.0404476  13.4691929  18.8529345
  61.5797221  12.8408987  19.9821840  61.5289152  12.9992991  19.2156803
  61.2125273  17.7202823  21.4034686  62.0398702  17.4487972  21.4593301
  61.2333119  18.5163665  21.7598504  61.3378123  17.7982577  21.4649869
  66.0501452  31.4557960  17.5377158  66.8393830  31.1047025  17.6579240
  66.2245050  32.2694349  17.2753792  66.1921734  31.5243817  17.5165026
  55.7894763  24.8666686  14.5904947  54.9482769  24.7670560  14.7983841
  55.9984771  25.6362166  14.9419267  55.6959455  24.9658729  14.6732262
  53.2670330  22.4886223  12.4189697  52.8727027  22.5629235  11.6439807
  52.7110446  22.8744169  12.9698059  53.1273142  22.5567998  12.3857357
  64.9035276  15.4667517  12.0993576  65.1084870  15.3989825  12.9450573
  64.5761700  16.2726338  12.0314754  64.8850524  15.5753457  12.2153231
  59.6011427  22.7948085  13.8402544  59.2974565  22.2404073  14.4412952
  58.8990848  22.9740295  13.3530579  59.4527637  22.7392868  13.8572250
  58.6577525  20.1048605   8.4047246  58.9337259  19.3867518   7.9924814
  59.2576194  20.7033525   8.1968352  58.7870789  20.0868976   8.3128007
  57.6629778  30.0097806  18.5474642  57.5550133  30.0199868  19.4136700
  57.8725560  30.8352586  18.3579596  57.6779890  30.1338881  18.6478734
  55.6803570  27.2610448  16.0096580  55.0891504  27.9019946  15.9799595
  56.4424594  27.6848066  15.9827879  55.7051831  27.4186287  16.0011727
  56.0764193  18.4212446  16.6764597  56.5365675  18.4951375  17.4139721
  56.1220300  19.2193700  16.3264419  56.1514749  18.5506593  16.7337354
  57.7247543  19.0879141  21.2436624  57.3333108  18.4412488  21.6792402
  57.8933406  19.6790576  21.8630880  57.6918453  19.0793409  21.3999330
  71.7993992  27.0916218  17.0073858  71.8577116  27.5402867  17.7533834
  71.1660460  27.5015031  16.5703938  71.7145287  27.2189953  17.0526406
  65.4393087  32.7119760  13.4428604  65.2412775  33.2010574  12.7484815
  64.8180798  32.9161001  14.0212737  65.3180651  32.8136298  13.4251827
  59.5001065  24.4804657   7.7838848  60.2443110  24.8678933   8.0221798
  59.6461761  23.6362082   7.9479336  59.6311650  24.4135130   7.8432818
  61.4180641  16.2754916  12.8170710  60.5716686  16.4477723  12.6912060
  61.4151773  15.4704259  13.1536538  61.2927790  16.1815945  12.8481837
  62.4878941  20.0530130  13.6832768  62.0138895  19.5271892  14.1938079
  62.8597077  19.5059603  13.1147629  62.4728830  19.8946127  13.6747915
  52.8651971  22.0501637  19.0516313  53.7277584  21.9497346  18.9653643
  52.5343754  21.4696346  18.4901886  52.9437167  21.9493263  18.9561719
  68.7515671  25.1132506  15.0939548  68.5113894  24.2738921  15.0981975
  69.2307679  25.1932672  15.8180322  68.7867855  25.0013905  15.2014351
  70.7520859  21.8933963  13.0468807  70.5130628  21.8529797  12.2089592
  70.9154760  22.7405115  13.1734528  70.7411162  22.0126048  12.9422289
  67.3566889  26.2783912  18.9773852  68.0801088  25.8256439  18.7984872
  67.0916851  26.5588578  18.1946180  67.4248162  26.2534881  18.8352568
  56.2253757  20.8744086  15.7126732  55.6006827  20.8862478  15.1052684
  55.8899352  21.3504261  16.3617972  56.0839249  20.9462603  15.7183300
  56.4095506  19.2169204   1.7699417  56.0608310  19.8688929   2.2330966
  55.9291952  19.2026317   1.0423288  56.2865750  19.3112258   1.7310508
  52.9379433  28.9344546  17.1530496  52.4079357  28.2436985  17.2025471
  53.2104526  28.9254731  16.3243205  52.9004155  28.8311678  17.0377912
  63.9699523  29.5170248   5.8768179  64.6933722  29.9828361   5.7332752
  63.5300114  29.5843858   5.1265776  64.0115215  29.5954085   5.7452960
  63.1385678  26.3767790  17.1268868  62.5242671  25.8325841  17.4217503
  63.6552963  25.8632027  16.6474684  63.1241341  26.2204199  17.0993096
  62.3781975  27.4472060  14.8613166  61.9509583  26.8221779  14.4278602
  62.3706920  27.1646982  15.6872173  62.3141116  27.3124841  14.9192994
  55.4944502  22.4837233  17.9301600  55.6537989  21.7280558  18.3353322
  55.3137396  23.0328173  18.5842338  55.4909861  22.4531047  18.0864306
  63.4364805  14.6498469  18.4852390  62.9405367  14.8462143  17.7943956
  64.1933867  15.0491137  18.3141191  63.4751630  14.7376203  18.3572526
  60.7067685  18.3240815  15.0755700  60.7310172  17.7900927  14.3868480
  60.9579159  17.8158124  15.7381291  60.7477604  18.1701719  15.0720345
  48.2175275  25.6072310  14.5098844  48.1118724  25.5619154  13.6450928
  47.4675495  25.9526091  14.7913129  48.0910878  25.6513218  14.4236174
  56.9869007  17.0511633  14.4561445  57.0267379  17.5520840  15.1696152
  56.1618672  17.1422027  14.1867368  56.8708533  17.1393450  14.5211983
  59.1698620  26.6172373  22.5581739  58.3194251  26.7544087  22.6939384
  59.3326748  25.8836151  23.0029441  59.0682484  26.5286474  22.6437338
  58.4083371  23.5672143  16.7535344  57.5775300  23.7345961  16.5470592
  58.3534888  23.1908094  17.5384229  58.2772785  23.5361874  16.8383872
  56.2167154  17.0581036  22.3891754  56.8419857  16.5143169  22.6621186
  55.7617634  16.5775954  21.8199545  56.2415414  16.9070517  22.3453348
  56.7819414  21.8427735   7.2825461  56.9222376  22.3400199   7.9854103
  57.2801947  21.1414029   7.4239675  56.8760495  21.8129713   7.4077040
  56.8119637  22.7094846   4.6118038  57.4464716  23.3055271   4.5467500
  56.8945248  22.4098303   5.4263908  56.9176188  22.7535754   4.7221125
  69.7902203  25.2410323  17.4804402  70.3820043  25.8807574  17.5122600
  70.2261197  24.5433360  17.7696469  69.9420634  25.2328673  17.5285235
  58.3898620  18.6408821   4.5863480  58.7114461  18.1611904   3.9322742
  58.6525563  19.4508467   4.3954292  58.4764645  18.6898719   4.4618972
  61.6195592  29.6627695  18.1062296  61.1120684  30.2163542  18.5502927
  61.3222239  29.7235985  17.2881071  61.5000477  29.7534007  18.0510753
  63.7857775  18.0281015  16.9486959  64.2112846  17.5753541  16.3370486
  63.1714768  17.4741086  17.2251747  63.7586420  17.8794991  16.8991984
  53.3172625  24.9062686   7.8807584  53.8264854  25.5027194   8.2618890
  53.7906897  24.6388660   7.1984004  53.4616000  24.9548502   7.8362107
  64.2303373  33.5790953   6.0366240  63.5132682  33.4051815   5.5713477
  64.8810110  33.3443525   5.5041726  64.2205223  33.5186746   5.8895458
  62.2251998  14.4996115  10.3577536  61.5820315  14.3493761  10.9262675
  61.8851404  14.2538460   9.5926641  62.0797075  14.4408237  10.3280551
  66.8151344  22.4555542   9.7807545  66.1442534  22.9985244   9.6520610
  67.5091094  22.9250397   9.5389240  66.8180211  22.6053813   9.7263072
  60.8638078  34.5952254  15.0119303  60.6403732  33.8371083  15.3803329
  60.3747921  34.6250275  14.2899743  60.7581527  34.4874478  14.9596044
  66.9779471  18.9111425  12.6897918  67.3307082  18.4841148  13.3643717
  66.1194273  18.8262269  12.8198994  66.9028916  18.8356166  12.8092928
  55.6763156  21.5418945  10.7480764  54.9575146  21.9583078  11.0153628
  56.0475519  22.1073184  10.1972403  55.6255088  21.6868226  10.7063571
  64.9762737  22.1746794  16.6382760  64.9560665  21.9930089  17.4917539
  65.0241938  23.0458812  16.6142344  64.9797378  22.2763332  16.7606055
  62.9209067  28.7633986  22.5631237  62.8804922  28.1183663  21.9776393
  63.7332385  28.7070603  22.8756649  63.0352221  28.6592953  22.5228186
  59.5116535  34.8152712  12.4656388  59.0976933  34.1526842  12.0760229
  60.1963909  34.9630571  11.9452082  59.5514906  34.7393370  12.3312885
  62.8781829  33.9742797  13.2180004  62.4798112  34.0845067  12.4500825
  62.2633048  34.1824863  13.8006564  62.7280718  34.0216365  13.1911304
  61.4509731  20.5816945   6.0854144  60.8574570  20.9033941   5.5338711
  61.4885008  19.7358040   5.8775250  61.3684120  20.5041273   5.9736915
  64.3267547  20.5396449   9.5155894  64.0981240  20.5629151   8.6734252
  64.5865624  19.7153916   9.6350905  64.3313735  20.4212529   9.4081092
  58.6086776  22.3930922  19.1180994  58.0965679  21.7852105  19.4766026
  58.4366272  23.1087515  19.5854970  58.5076413  22.4094222  19.2397218
  53.4552491  20.8368498  21.7683356  53.2855081  21.4969873  21.2231563
  53.0118440  21.0475059  22.4895845  53.3651824  20.9654480  21.7944986
  57.3812310  19.0772996  10.8110090  57.8569676  19.4390075  10.1760271
  56.8800910  19.7329463  11.0910233  57.3777669  19.2267184  10.7586831
  62.4855846  20.3155167  21.5583250  63.0427276  20.0868977  20.9261715
  62.1616911  21.0760833  21.2818462  62.5202256  20.3939004  21.4239747
  50.3554555  23.7415363  17.0271846  49.8081274  23.0716009  17.1452714
  51.1446933  23.3745211  17.0915313  50.3906739  23.5880350  17.0540547
  60.2038963  23.4022820  22.5235257  60.9550290  23.7174497  22.8374811
  60.3961540  23.2001991  21.6969179  60.3430378  23.4190202  22.4478653
  59.4238963  21.2214195   4.1783474  59.8037928  21.2393825   3.3934589
  58.6831559  21.6668184   4.0574321  59.3707801  21.2895970   4.0447042
  67.0524254  19.5296387   9.7659053  67.0518480  19.3745043  10.6243329
  66.8480434  20.3759374   9.7100438  67.0224031  19.6317007   9.8846992
  49.1141525  22.9536171  14.1817869  48.9363286  22.5012780  14.9072785
  48.8260547  23.7562332  14.3656347  49.0454478  23.0058729  14.3161372
  64.7765106  24.2093888  13.4195259  65.2718771  23.4916883  13.3799280
  63.9664881  23.9064686  13.3049746  64.7308999  24.0591535  13.3968985
  60.2223717  28.0591702   5.5692264  59.4135040  27.7358375   5.5225573
  60.7298626  27.3524924   5.5020512  60.1773384  27.9073018   5.5522558
  50.8513994  25.4863895  11.2939628  49.9859514  25.4749585  11.1822399
  50.9512810  25.2994118  12.1410767  50.7388161  25.4569956  11.4028573
  66.8416924  26.9597576  16.1072388  67.2671996  26.4371998  15.5542813
  66.4773844  27.5578413  15.5861011  66.8503527  26.9707803  15.9481398
  56.4771004  35.2561793  14.8669734  56.7917563  36.0698182  14.8747515
  56.8864418  34.8712012  15.5351893  56.5839102  35.3190496  14.9673825
  63.4295524  30.6731840  12.4373546  63.9006702  31.3872103  12.6063531
  63.7655702  30.0730590  12.9733415  63.5490639  30.6903304  12.5405922
  60.3465019  15.4459311  19.3931640  60.4792924  14.6490304  19.7212616
  60.7310172  15.9725714  19.9729916  60.4221348  15.4059227  19.5275143
  64.0669470  30.4649774  19.2001238  63.5190416  29.8407658  18.9321304
  64.5282499  30.6544046  18.4845318  64.0536680  30.4008825  19.0551669
  63.4197374  12.3689637  15.9912734  62.6143338  12.2587367  16.3080572
  63.2904110  12.4702093  15.1342599  63.2817507  12.3673307  15.9120774
  66.8763335  18.5335129  16.5852431  66.2926323  19.0344335  16.1729998
  67.1967629  18.0264685  15.9516754  66.8376510  18.5326964  16.4310938
  59.4158134  17.4475724   6.8611105  60.2373828  17.6174037   6.6192800
  58.9527785  17.6022985   6.1377403  59.4689296  17.4957457   6.7182750
  58.0053466  15.4418486  17.6409534  58.5497879  15.1009613  18.2313876
  58.0590401  16.3003947  17.7830819  58.0942585  15.5173745  17.7491408
  53.8184024  29.2034902  14.5148342  54.4228882  29.1630736  13.8862163
  53.6111337  30.0506054  14.5452398  53.8772922  29.3222904  14.4264459
  63.6327797  31.4700847  15.7310579  64.4526170  31.3263813  15.9926875
  63.3521874  32.0947046  16.2727017  63.7124540  31.5411199  15.8498519
  49.0535307  28.1869519  14.3847265  48.9559585  27.3765791  14.6937322
  49.8364176  28.1661313  13.9993533  49.1551443  28.0636610  14.3734128
  73.3041132  38.2141350  13.4506386  72.4479027  38.3749848  13.5015503
  73.3508786  37.3433414  13.4711447  73.1840243  38.1092152  13.4612452
  67.6882272  47.7504068   9.2143618  66.9365171  47.3719606   8.9859663
  68.1368283  47.7822501   8.4662428  67.6431938  47.6989675   9.0701120
  76.6134848  44.4827875  23.0566842  77.3201616  43.9879906  23.1853777
  76.8022784  44.9236957  22.3269500  76.7462754  44.4746226  22.9675888
  76.1492953  40.2733394  16.0938038  76.6948913  40.9518480  16.1532008
  76.0909829  40.1320855  15.2339619  76.2208867  40.3525395  15.9750098
  69.2667028  47.7622460  11.4806390  69.3677391  46.9522814  11.7903518
  68.6708773  47.6679406  10.8506069  69.1939566  47.6287488  11.4332629
  69.1067767  52.6800049  12.8821246  69.7505223  53.1213213  13.2717405
  69.4324023  51.8753475  12.7951505  69.2499596  52.6265244  12.9266724
  62.4632072  43.7842746  11.1058724  62.2282256  42.9510399  10.9990993
  62.6017713  44.0647412  10.2919925  62.4487734  43.7026250  10.9701079
  64.7622159  35.9528477  14.0043032  64.1427191  35.3621124  13.8353046
  64.6606023  36.5439912  13.3707355  64.6559835  35.9532559  13.8848021
  71.8590055  37.6928019   8.3375495  72.5570220  37.8716146   8.8296958
  72.1742388  37.1698358   7.7145884  72.0085392  37.6421791   8.3177505
  64.4891292  39.4980759  16.2486601  64.3649989  40.0843204  16.8836419
  65.1409577  39.0040954  16.5498876  64.5664942  39.5119563  16.3872530
  72.0477990  44.0798464   8.3255286  72.4871626  43.4715564   8.7710059
  71.8982653  43.7005837   7.5540751  72.0899456  43.9336935   8.2774454
  69.5149633  42.6742476  15.5274112  70.1598636  42.1814919  15.2085060
  69.7551410  42.8167262  16.3540190  69.6460219  42.6219918  15.6023645
  72.0535725  45.5197381  15.1781004  72.3358968  44.7248787  14.9567760
  72.7821885  45.9977969  15.1986065  72.2025288  45.4731978  15.1484019
  70.0316919  33.0620415  12.4196769  69.7020249  33.5131559  11.7500468
  69.3561920  32.9836579  12.9669776  69.8827355  33.1171551  12.4019993
  64.0249397  48.6628417  12.3814930  63.5416975  49.3878907  12.3574514
  64.8372715  48.9604547  12.4925088  64.0740144  48.8130771  12.3942209
  70.0963551  47.4560598  14.9864745  69.5790492  47.0968013  14.3826053
  70.7937942  46.9322772  14.9970811  70.1229132  47.3258286  14.8995003
  73.7527143  47.9055412  20.9480918  73.8410488  47.7181552  21.7959128
  74.1816855  47.2592841  20.5485764  73.8289245  47.7818420  21.0152669
  71.3197602  47.1886572  19.9298580  70.7568437  46.7759182  20.4538241
  72.0818626  47.1139478  20.3491723  71.3492051  47.1163972  20.0691580
  68.2372873  31.1232704   7.9019717  68.9918841  31.4911021   7.6636767
  68.0600407  31.4972258   8.6698897  68.3227351  31.2330892   7.9804606
  66.8793594  49.1784593  12.5335210  67.5814173  48.6636582  12.5907967
  66.7991077  49.5058744  13.3382085  66.9717354  49.1498819  12.6608002
  67.9272500  39.4160180  21.6615625  68.0993004  39.3066075  22.5100906
  68.4641858  40.0614585  21.4246817  68.0317504  39.4952182  21.7520722
  66.5929937  33.5303023   4.5997830  66.4105511  33.7474904   3.7738823
  67.4555550  33.6442036   4.6556445  66.6934527  33.5792921   4.4852317
  66.2044369  45.3690945  12.0420818  67.0433269  45.6013878  12.0894580
  66.2356138  44.4995256  11.9727853  66.3326087  45.2747891  12.0385463
  66.8297072  45.7891820  16.3434124  67.3695297  45.6462951  17.0137496
  66.1467019  46.1888571  16.7118150  66.8089226  45.8271491  16.4968545
  76.2537957  41.4682821  11.5379148  77.0095472  41.9014335  11.5768057
  76.3600282  40.8187591  12.1113784  76.3808128  41.4360305  11.6277173
  73.8647202  47.3364431  23.6124701  74.6487619  47.4495279  23.9780443
  73.6643796  46.5105568  23.8083387  73.9513227  47.2311150  23.6959087
  62.2334217  42.0092111  16.4968545  61.9672633  41.1931228  16.6559535
  62.2472782  42.0545267  15.6264061  62.1958940  41.8949016  16.3922027
  66.1391964  36.8077195   3.1120303  65.4250141  36.5215375   3.5242736
  66.6235933  37.1473821   3.7526691  66.1051328  36.8158845   3.2675938
  66.9832824  35.5470489  19.1435553  66.2904621  35.0767469  19.3896284
  67.5993151  35.3208794  19.7177260  66.9717354  35.4437621  19.2644705
  74.0217595  49.2474533  17.2591157  73.2232841  49.0074033  17.5165025
  74.4703607  49.2988926  18.0058204  73.9692207  49.2196924  17.4076081
  62.6427631  42.7950890  13.7780289  62.4603204  42.7697776  12.9252581
  63.3777300  43.2649828  13.8169198  62.7241695  42.8612253  13.6578208
  65.7073383  39.5135893  20.2862398  66.4313355  39.4988924  20.7727293
  65.8089519  40.2231249  19.7884366  65.8291592  39.6160596  20.2841185
  73.0818332  42.9934978  25.1511345  72.2891313  43.3078490  25.3363965
  73.1967259  43.2086446  24.3132130  72.9813743  43.0718815  25.0549680
  75.7549651  39.7168969   9.4406361  75.8496505  40.4558263   9.8945986
  75.1308495  39.2886445   9.8740925  75.6758681  39.7630290   9.5714508
  74.0102125  42.8955182  20.0896642  74.5840987  42.2582426  20.2445206
  73.9316929  42.8959264  19.2206299  74.0835360  42.8020293  19.9843053
  62.6098541  39.6744391  13.9279356  63.1872044  39.5380842  14.5671601
  61.9112603  39.2180175  14.1824940  62.5919563  39.5866657  14.0601646
  69.3665844  41.3278447  12.1417839  69.1085088  40.4950182  12.1149139
  69.4214326  41.5536060  11.3010339  69.3365621  41.2376218  12.0137976
  74.4466894  33.4306897  12.2421932  73.7423220  32.9416083  12.4005851
  74.4951868  33.4429372  11.3710376  74.3496945  33.3596545  12.1361272
  68.3400556  38.8816209  12.6282734  67.7650147  39.0408378  13.2646695
  67.9636232  38.2451618  12.1651184  68.2003368  38.8114022  12.6537292
  72.0073844  37.3539559  17.4875112  71.6188277  36.9293776  16.8327303
  71.3428543  37.6021708  17.9952139  71.8520772  37.3278280  17.4662980
  58.0857375  38.5256284  10.6427174  58.1717626  38.1488152  11.4240704
  58.7133172  38.1516730  10.1647133  58.1913926  38.4141766  10.6872652
  75.8300206  31.0514187  14.9999097  76.2110718  30.3692358  15.3866971
  75.0263490  30.7623789  14.8174761  75.7676668  30.9081236  15.0303152
  68.9820691  45.0559681  10.8124231  69.6194638  44.8171428  11.3576025
  69.4075762  45.2596839  10.0777392  69.1396857  45.0510691  10.7841389
  63.6733333  47.2948017  14.6958535  63.7137479  47.5662868  13.8678315
  64.2327857  47.8189925  15.1116323  63.7616679  47.4123772  14.6350423
  69.6223506  40.2761970   5.1499121  70.0068659  40.0569677   5.9015666
  69.3735126  41.1024916   5.2800197  69.6425578  40.3660117   5.2800197
  69.7892046  33.5568386  24.8661705  69.4745487  34.3267948  24.6031268
  69.4681979  32.9938642  24.2813932  69.6950965  33.5878654  24.7403055
  71.3642163  45.5332103  12.4918018  71.4381171  45.3707275  13.3459868
  72.1811669  45.7222293  12.2478499  71.4958521  45.5368846  12.5816043
  65.1247920  45.8789966   9.5212461  64.2986037  46.1251703   9.3946740
  65.1859911  45.8002047  10.3874519  65.0122086  45.9034915   9.6301406
  67.3423943  31.9458907  10.4807901  66.4746369  32.0181507  10.5465510
  67.6299148  32.7480986  10.6695876  67.2563691  32.0753054  10.5182668
  76.4656832  32.0936766  18.8119223  77.2110424  31.9046577  18.3982648
  76.0494137  32.6195004  18.2533079  76.5141806  32.1438912  18.6683796
  70.4941494  43.2984592  18.3084621  69.9953187  44.0100360  18.3869510
  71.3041718  43.6185259  18.2702784  70.5397600  43.4511441  18.3141190
  67.8452664  50.4734229  10.2891641  67.6252960  50.1831583  11.0818308
  67.6247186  49.8149184   9.7609553  67.7800258  50.3333937  10.3280549
  66.7569611  42.5607545  12.5547342  66.4682860  41.9345016  13.0893070
  67.6252959  42.5027833  12.6212023  66.8429863  42.4595089  12.6438297
  77.5447509  37.7042329  12.8729324  77.2012275  36.9832664  13.2236574
  77.6440552  37.4956180  12.0307683  77.5089552  37.5666532  12.8001004
  66.9601885  44.2002796   8.4789707  67.7147853  44.5815835   8.6925170
  66.3672497  44.6513940   8.9336404  66.9838598  44.3231624   8.5772586
  69.4208552  36.1565637  23.6046920  68.6108327  36.4623416  23.4936762
  69.8983238  36.8771219  23.7199504  69.3712030  36.3080238  23.6053991
  68.2800111  45.3711358  13.8529823  67.7580865  45.5111649  14.5381687
  68.6674132  44.6122022  14.0431940  68.2603812  45.2796881  13.9830899
  65.2691295  35.4217166   7.9224777  64.9816091  35.0518437   7.1856725
  65.9561764  35.8912022   7.6608482  65.3280193  35.4364136   7.7739853
  69.7066437  42.4015377   9.2511314  69.5109220  43.0090111   8.6571617
  69.9300782  41.7083321   8.7702988  69.7101078  42.3892902   9.0927395
  68.1044967  39.2870115   9.3692182  68.8267619  39.4511273   8.9095988
  67.6252960  40.0079779   9.2631522  68.1408698  39.4168344   9.2857796
  76.0638475  35.6233913  14.7488867  75.2249575  35.6495192  14.5127130
  76.1342842  36.2704649  15.3294214  75.9506868  35.7230039  14.7997984
  65.7552584  41.6928187  18.4746322  66.2673681  41.9712440  17.8255082
  65.4688926  42.4317481  18.8409135  65.7887447  41.8430541  18.4336200
  62.8419490  36.1998379   8.7710059  62.9435626  37.0024540   9.0991034
  63.6375377  35.9985715   8.4733139  62.9747396  36.2884278   8.7745414
  69.2736309  33.7854576  18.5347364  69.0819506  33.8009710  19.3846787
  70.1234905  33.9818250  18.5114019  69.3712031  33.8168927  18.6570658
  63.6583222  36.3145557  16.5131180  63.5168714  35.4629498  16.6375688
  63.9423785  36.3574218  15.6893386  63.6791068  36.1945307  16.4098804
  73.8121814  38.1512647  10.6575668  73.5656529  38.0708398  11.4912457
  74.1406937  37.3666115  10.4638196  73.8243058  38.0238913  10.7523192
  77.7069863  44.8596007  14.4462450  77.5684223  45.5577052  14.9511192
  76.9269861  44.7044663  14.0898631  77.5713090  44.9396173  14.4688724
  76.0447948  41.1592382  20.6984831  76.0395987  40.2872198  20.7027258
  76.7508942  41.3580551  20.2254287  76.1492952  41.0596256  20.6291867
  69.7718842  40.8869366  20.0698651  69.9162217  41.4670574  19.4341761
  70.1194490  41.2645662  20.7748506  69.8446303  41.0290070  20.0797646
  71.9438759  40.0859534  17.8523783  71.1962073  40.2790549  17.4472061
  72.0980284  39.2604754  17.6147904  71.8561187  39.9924646  17.7569189
  68.8446597  49.0772138  16.9359678  68.9936160  48.5175053  16.2833083
  69.6246599  49.1564139  17.3192197  68.9820690  49.0057703  16.8956627
  71.3699897  49.2486780  18.2144169  71.2943568  48.5795591  18.7694957
  71.2989756  49.9504569  18.7284835  71.3480504  49.2531688  18.3721017
  72.1840536  33.9810085  18.7419187  72.6413150  34.7134059  18.8691979
  72.2596865  33.5576550  19.5006443  72.2631506  34.0267323  18.8720263
  64.4273527  34.2275905  19.8308631  63.8915717  33.6156263  20.1469398
  64.4891292  34.8024041  20.4842297  64.3569160  34.2222832  19.9744057
  70.0622914  35.9712189  15.5861011  69.2718989  35.7903649  15.9078347
  70.4583537  35.1939141  15.5691305  70.0039790  35.8299650  15.6313559
  75.4466600  43.6054619  13.3120457  74.7711602  43.3739851  13.8133844
  75.4558976  42.9975802  12.6862562  75.3485105  43.4813544  13.2936609
  72.5760744  38.4472448  20.0684510  72.5119885  39.3082404  19.9404646
  72.7157932  38.1304441  19.2680061  72.5876214  38.5272615  19.9312723
  71.2579838  41.1404587  14.2100713  70.8342087  41.3409086  13.4739731
  71.0824693  40.2933435  14.3225012  71.1690719  41.0453369  14.1174403
  70.7591532  52.6555100  16.6722170  71.2487462  51.9565889  16.4897835
  70.1875764  52.3578970  17.2598227  70.7476062  52.5081324  16.7323211
  66.5462283  41.6356639   9.6428685  66.7026902  41.5703442  10.4984677
  66.8862876  42.4105191   9.4307365  66.6195518  41.7405837   9.7383279
  73.0841428  41.0114522   8.5122048  73.6256973  40.5084903   8.9760669
  73.3987987  40.9579717   7.7011534  73.2105825  40.9293943   8.4605860
  76.9558535  45.2217170  25.6248961  77.7693400  44.9502318  25.7854093
  76.7953501  44.9224710  24.8209157  77.0528484  45.1372096  25.5294366
  74.2330697  35.9050827  18.5644349  74.4472667  35.2661741  18.0107703
  73.6164596  36.3496651  18.1352211  74.1736026  35.8760970  18.4194780
  63.1196545  38.8191589   9.9589452  63.4995509  39.2376134   9.2949720
  62.5451909  39.4005045  10.2658296  63.0907870  38.9669448   9.9066193
  76.3969785  37.5139892  19.5027656  75.5846467  37.2065782  19.5840829
  76.8559720  37.0338892  20.0670368  76.3450170  37.3976384  19.5982250
  73.6245426  29.0150762  13.5531692  72.7538984  28.9889484  13.5065001
  73.8785767  28.8427955  12.7357537  73.5338986  28.9860906  13.4251828
  73.4923293  38.9199963  24.2856358  73.9622924  39.5442080  24.6724232
  73.5385173  38.2516939  24.8449573  73.5691168  38.9134644  24.4256430
  70.6494566  31.0256991  15.0105162  70.1333055  30.3337182  15.1356741
  70.0888495  31.6927768  14.9567761  70.4901080  31.0220249  15.0211228
  72.7186800  31.5649951  16.8398015  72.3318553  31.5898982  17.6211545
  72.2319737  30.9991630  16.3872531  72.5899309  31.4845702  16.8885918
  76.9679779  46.2823460  20.8971801  77.6059500  45.7883656  20.5634257
  76.3253871  46.2100860  20.3124028  76.9674006  46.1982468  20.7614156
  78.6936779  38.1312606  15.4637717  78.2664387  38.0438954  14.7085816
  78.0562832  38.2390381  16.0492561  78.5366386  38.1345266  15.4383158
  72.3843941  28.4516936  19.1308275  73.0137059  28.9877236  18.8529345
  72.5529804  28.3594295  19.9821840  72.5021736  28.5178299  19.2156803
  72.1857856  33.2388131  21.4034686  73.0131286  32.9673280  21.4593301
  72.2065702  34.0348973  21.7598504  72.3110706  33.3167885  21.4649869
  77.0234036  46.9743268  17.5377158  77.8126414  46.6232333  17.6579240
  77.1977634  47.7879657  17.2753792  77.1654317  47.0429125  17.5165026
  66.7627346  40.3851994  14.5904947  65.9215353  40.2855868  14.7983841
  66.9717354  41.1547474  14.9419267  66.6692039  40.4844037  14.6732262
  64.2402913  38.0071531  12.4189697  63.8459611  38.0814543  11.6439807
  63.6843030  38.3929477  12.9698059  64.1005725  38.0753305  12.3857357
  75.8767860  30.9852825  12.0993576  76.0817453  30.9175133  12.9450573
  75.5494284  31.7911646  12.0314754  75.8583108  31.0938765  12.2153231
  70.5744011  38.3133393  13.8402544  70.2707149  37.7589381  14.4412952
  69.8723432  38.4925603  13.3530579  70.4260221  38.2578175  13.8572250
  69.6310108  35.6233913   8.4047246  69.9069842  34.9052825   7.9924814
  70.2308777  36.2218833   8.1968352  69.7603373  35.6054284   8.3128007
  68.6362362  45.5283114  18.5474642  68.5282717  45.5385176  19.4136700
  68.8458144  46.3537894  18.3579596  68.6512473  45.6524189  18.6478734
  66.6536154  42.7795756  16.0096580  66.0624087  43.4205254  15.9799595
  67.4157178  43.2033373  15.9827879  66.6784415  42.9371595  16.0011727
  67.0496777  33.9397754  16.6764597  67.5098258  34.0136683  17.4139721
  67.0952884  34.7379008  16.3264419  67.1247332  34.0691901  16.7337354
  68.6980127  34.6064449  21.2436624  68.3065692  33.9597796  21.6792402
  68.8665989  35.1975884  21.8630880  68.6651037  34.5978717  21.3999330
  76.4125670  48.2305068  13.4428604  76.2145359  48.7195882  12.7484815
  75.7913381  48.4346309  14.0212737  76.2913235  48.3321606  13.4251827
  70.4733649  39.9989965   7.7838848  71.2175694  40.3864241   8.0221798
  70.6194345  39.1547390   7.9479336  70.6044234  39.9320437   7.8432818
  72.3913224  31.7940224  12.8170710  71.5449269  31.9663031  12.6912060
  72.3884357  30.9889567  13.1536538  72.2660374  31.7001252  12.8481837
  73.4611524  35.5715438  13.6832768  72.9871479  35.0457200  14.1938079
  73.8329660  35.0244911  13.1147629  73.4461413  35.4131435  13.6747915
  63.8384555  37.5686945  19.0516313  64.7010168  37.4682654  18.9653643
  63.5076338  36.9881654  18.4901886  63.9169751  37.4678571  18.9561719
  67.1986341  36.3929394  15.7126732  66.5739411  36.4047786  15.1052684
  66.8631935  36.8689569  16.3617972  67.0571832  36.4647911  15.7183300
  67.3828089  34.7354512   1.7699417  67.0340894  35.3874237   2.2330966
  66.9024535  34.7211625   1.0423288  67.2598333  34.8297566   1.7310508
  63.9112016  44.4529854  17.1530496  63.3811941  43.7622293  17.2025471
  64.1837109  44.4440039  16.3243205  63.8736738  44.3496986  17.0377912
  74.1118262  41.8953098  17.1268868  73.4975255  41.3511149  17.4217503
  74.6285547  41.3817335  16.6474684  74.0973924  41.7389507  17.0993096
  73.3514559  42.9657368  14.8613166  72.9242167  42.3407087  14.4278602
  73.3439503  42.6832290  15.6872173  73.2873700  42.8310149  14.9192994
  66.4677086  38.0022541  17.9301600  66.6270573  37.2465866  18.3353322
  66.2869980  38.5513481  18.5842338  66.4642445  37.9716355  18.0864306
  74.4097389  30.1683777  18.4852390  73.9137950  30.3647451  17.7943956
  75.1666451  30.5676445  18.3141191  74.4484214  30.2561511  18.3572526
  71.6800269  33.8426123  15.0755700  71.7042756  33.3086235  14.3868480
  71.9311742  33.3343432  15.7381291  71.7210187  33.6887027  15.0720345
  59.1907858  41.1257618  14.5098844  59.0851307  41.0804462  13.6450928
  58.4408078  41.4711398  14.7913129  59.0643461  41.1698526  14.4236174
  67.9601591  32.5696941  14.4561445  67.9999962  33.0706148  15.1696152
  67.1351255  32.6607335  14.1867368  67.8441117  32.6578757  14.5211983
  70.1431204  42.1357681  22.5581739  69.2926834  42.2729395  22.6939384
  70.3059331  41.4021459  23.0029441  70.0415067  42.0471782  22.6437338
  69.3815954  39.0857451  16.7535344  68.5507884  39.2531269  16.5470592
  69.3267471  38.7093402  17.5384229  69.2505369  39.0547182  16.8383872
  67.1899737  32.5766344  22.3891754  67.8152441  32.0328477  22.6621186
  66.7350217  32.0961261  21.8199545  67.2147998  32.4255825  22.3453348
  67.7551998  37.3613043   7.2825461  67.8954959  37.8585507   7.9854103
  68.2534531  36.6599337   7.4239675  67.8493079  37.3315021   7.4077040
  67.7852220  38.2280154   4.6118038  68.4197300  38.8240579   4.5467500
  67.8677831  37.9283611   5.4263908  67.8908771  38.2721062   4.7221125
  69.3631203  34.1594129   4.5863480  69.6847044  33.6797211   3.9322742
  69.6258147  34.9693775   4.3954292  69.4497229  34.2084027   4.4618972
  72.5928176  45.1813003  18.1062296  72.0853267  45.7348850  18.5502927
  72.2954822  45.2421293  17.2881071  72.4733061  45.2719315  18.0510753
  74.7590358  33.5466323  16.9486959  75.1845430  33.0938849  16.3370486
  74.1447351  32.9926394  17.2251747  74.7319004  33.3980299  16.8991984
  64.2905208  40.4247994   7.8807584  64.7997438  41.0212502   8.2618890
  64.7639481  40.1573968   7.1984004  64.4348584  40.4733810   7.8362107
  73.1984581  30.0181423  10.3577536  72.5552899  29.8679069  10.9262675
  72.8583988  29.7723768   9.5926641  73.0529658  29.9593545  10.3280551
  77.7883928  37.9740850   9.7807545  77.1175117  38.5170552   9.6520610
  78.4823678  38.4435705   9.5389240  77.7912795  38.1239121   9.7263072
  71.8370661  50.1137562  15.0119303  71.6136316  49.3556391  15.3803329
  71.3480505  50.1435583  14.2899743  71.7314110  50.0059786  14.9596044
  77.9512055  34.4296733  12.6897918  78.3039665  34.0026456  13.3643717
  77.0926857  34.3447577  12.8198994  77.8761500  34.3541474  12.8092928
  66.6495740  37.0604253  10.7480764  65.9307729  37.4768385  11.0153628
  67.0208102  37.6258492  10.1972403  66.5987672  37.2053534  10.7063571
  75.9495321  37.6932102  16.6382760  75.9293248  37.5115397  17.4917539
  75.9974522  38.5644120  16.6142344  75.9529962  37.7948640  16.7606055
  73.8941651  44.2819294  22.5631237  73.8537506  43.6368971  21.9776393
  74.7064969  44.2255911  22.8756649  74.0084804  44.1778261  22.5228186
  70.4849118  50.3338020  12.4656388  70.0709517  49.6712150  12.0760229
  71.1696492  50.4815878  11.9452082  70.5247490  50.2578678  12.3312885
  73.8514412  49.4928105  13.2180004  73.4530696  49.6030375  12.4500825
  73.2365632  49.7010171  13.8006564  73.7013302  49.5401673  13.1911304
  72.4242314  36.1002253   6.0854144  71.8307154  36.4219249   5.5338711
  72.4617592  35.2543348   5.8775250  72.3416704  36.0226581   5.9736915
  75.3000131  36.0581757   9.5155894  75.0713824  36.0814459   8.6734252
  75.5598207  35.2339224   9.6350905  75.3046319  35.9397837   9.4081092
  69.5819359  37.9116230  19.1180994  69.0698262  37.3037413  19.4766026
  69.4098856  38.6272823  19.5854970  69.4808996  37.9279530  19.2397218
  64.4285074  36.3553806  21.7683356  64.2587664  37.0155180  21.2231563
  63.9851024  36.5660367  22.4895845  64.3384408  36.4839788  21.7944986
  68.3544893  34.5958304  10.8110090  68.8302260  34.9575383  10.1760271
  67.8533493  35.2514771  11.0910233  68.3510252  34.7452492  10.7586831
  73.4588430  35.8340475  21.5583250  74.0159860  35.6054284  20.9261715
  73.1349495  36.5946141  21.2818462  73.4934840  35.9124312  21.4239747
  61.3287139  39.2600671  17.0271846  60.7813858  38.5901317  17.1452714
  62.1179517  38.8930519  17.0915313  61.3639322  39.1065658  17.0540547
  71.1771547  38.9208128  22.5235257  71.9282874  39.2359805  22.8374811
  71.3694123  38.7187299  21.6969179  71.3162961  38.9375510  22.4478653
  70.3971547  36.7399503   4.1783474  70.7770511  36.7579133   3.3934589
  69.6564143  37.1853492   4.0574321  70.3440384  36.8081278   4.0447042
  78.0256837  35.0481695   9.7659053  78.0251064  34.8930351  10.6243329
  77.8213017  35.8944682   9.7100438  77.9956615  35.1502315   9.8846992
  60.0874108  38.4721479  14.1817869  59.9095869  38.0198088  14.9072785
  59.7993130  39.2747640  14.3656347  60.0187061  38.5244037  14.3161372
  75.7497689  39.7279196  13.4195259  76.2451355  39.0102191  13.3799280
  74.9397465  39.4249994  13.3049746  75.7041582  39.5776843  13.3968985
  61.8246578  41.0049203  11.2939628  60.9592097  40.9934893  11.1822399
  61.9245394  40.8179426  12.1410767  61.7120745  40.9755264  11.4028573
  77.8149508  42.4782884  16.1072388  78.2404580  41.9557306  15.5542813
  77.4506428  43.0763721  15.5861011  77.8236111  42.4893111  15.9481398
  67.4503588  50.7747101  14.8669734  67.7650147  51.5883490  14.8747515
  67.8597001  50.3897320  15.5351893  67.5571686  50.8375804  14.9673825
  74.4028108  46.1917148  12.4373546  74.8739286  46.9057411  12.6063531
  74.7388286  45.5915898  12.9733415  74.5223223  46.2088612  12.5405922
  76.4905092  47.8018462  24.6165618  76.6002058  47.0127022  24.9722365
  76.8195989  47.7124398  23.8139956  76.5557498  47.6724314  24.5508008
  71.3197602  30.9644619  19.3931640  71.4525508  30.1675612  19.7212616
  71.7042755  31.4911022  19.9729916  71.3953931  30.9244535  19.5275143
  75.0402054  45.9835082  19.2001238  74.4923000  45.3592966  18.9321304
  75.5015083  46.1729354  18.4845318  75.0269263  45.9194132  19.0551669
  74.3929958  27.8874945  15.9912734  73.5875921  27.7772674  16.3080572
  74.2636693  27.9887401  15.1342599  74.2550090  27.8858615  15.9120774
  77.8495918  34.0520437  16.5852431  77.2658907  34.5529643  16.1729998
  78.1700212  33.5449993  15.9516754  77.8109094  34.0512272  16.4310938
  70.3890717  32.9661032   6.8611105  71.2106412  33.1359344   6.6192800
  69.9260368  33.1208293   6.1377403  70.4421880  33.0142765   6.7182750
  68.9786049  30.9603794  17.6409534  69.5230462  30.6194921  18.2313876
  69.0322985  31.8189255  17.7830819  69.0675169  31.0359053  17.7491408
  64.7916608  44.7220210  14.5148342  65.3961465  44.6816044  13.8862163
  64.5843921  45.5691362  14.5452398  64.8505505  44.8408212  14.4264459
  74.6060380  46.9886155  15.7310579  75.4258754  46.8449121  15.9926875
  74.3254458  47.6132354  16.2727017  74.6857124  47.0596507  15.8498519
  60.0267890  43.7054827  14.3847265  59.9292168  42.8951099  14.6937322
  60.8096760  43.6846621  13.9993533  60.1284027  43.5821918  14.3734128
  75.4623876  55.0166067  16.2486601  75.3382573  55.6028512  16.8836419
  76.1142161  54.5226262  16.5498876  75.5397525  55.0304871  16.3872530
  73.2066801  57.5277419  16.4968545  72.9405216  56.7116536  16.6559535
  73.2205365  57.5730574  15.6264061  73.1691523  57.4134324  16.3922027
  77.9565407  51.0655797  19.1435553  77.2637204  50.5952777  19.3896284
  78.5725735  50.8394102  19.7177260  77.9449937  50.9622929  19.2644705
  76.6805966  55.0321201  20.2862398  77.4045939  55.0174232  20.7727293
  76.7822103  55.7416556  19.7884366  76.8024175  55.1345904  20.2841185
  76.7285167  57.2113495  18.4746322  77.2406264  57.4897748  17.8255082
  76.4421510  57.9502789  18.8409135  76.7620030  57.3615849  18.4336200
  74.6315806  51.8330865  16.5131180  74.4901297  50.9814806  16.6375688
  74.9156369  51.8759526  15.6893386  74.6523652  51.7130615  16.4098804
  75.4006111  49.7461213  19.8308631  74.8648300  49.1341571  20.1469398
  75.4623876  50.3209349  20.4842297  75.3301744  49.7408140  19.9744057
  78.0229360  49.4583062  16.6764597  78.4830842  49.5321991  17.4139721
  78.0685467  50.2564316  16.3264419  78.0979916  49.5877209  16.7337354
  74.8117138  53.0872253  19.0516313  75.6742751  52.9867962  18.9653643
  74.4808921  52.5066962  18.4901886  74.8902335  52.9863879  18.9561719
  78.1718924  51.9114702  15.7126732  77.5471994  51.9233094  15.1052684
  77.8364519  52.3874877  16.3617972  78.0304416  51.9833219  15.7183300
  77.4409670  53.5207849  17.9301600  77.6003156  52.7651174  18.3353322
  77.2602563  54.0698789  18.5842338  77.4375029  53.4901663  18.0864306
  75.4017658  51.8739114  21.7683356  75.2320248  52.5340488  21.2231563
  74.9583608  52.0845675  22.4895845  75.3116991  52.0025096  21.7944986
  72.3019722  54.7785979  17.0271846  71.7546442  54.1086625  17.1452714
  73.0912100  54.4115827  17.0915313  72.3371906  54.6250966  17.0540547
  71.0606692  53.9906787  14.1817869  70.8828453  53.5383396  14.9072785
  70.7725714  54.7932948  14.3656347  70.9919645  54.0429345  14.3161372
   4.5926423  45.9656729  47.6198676   4.5620428  46.8201365  47.7916945
   5.1907772  45.6652021  48.1784819   4.6763581  46.0473225  47.7273478
   1.1019825  51.3218905  61.9812062   1.8086592  50.8270936  62.1098997
   1.2907760  51.7627987  61.2514720   1.2347730  51.3137256  61.8921108
   0.6377929  47.1124424  55.0183258   1.1833889  47.7909510  55.0777228
   0.5794806  46.9711885  54.1584839   0.7093844  47.1916425  54.8995318
   2.4142998  48.5409031  45.8916986   2.2982524  49.2916717  46.3209124
   3.2098885  48.2832984  46.1413073   2.5147587  48.6143878  45.9921077
   1.7278303  35.8896968  49.5891600   1.4131744  36.5800447  50.0212022
   1.2105244  35.8341751  48.8877101   1.6042773  35.9831857  49.5488549
   1.0690737  45.8901469  45.7029011   0.5402208  46.1061103  46.3626317
   1.5915757  46.5837608  45.6229980   1.0679190  46.0244606  45.7884610
   6.5238790  51.4647774  51.0762055   5.6936493  51.6758417  51.2395472
   6.4748042  50.6384828  50.8004339   6.3945525  51.3737380  51.0599420
   6.0192748  44.1118174  54.8712476   5.1821169  44.1820361  55.1060071
   5.9880979  44.1142669  53.9986779   5.8911030  44.1228401  54.7772024
   0.7422934  48.3073851  50.4624368   1.4980449  48.7405365  50.5013277
   0.8485258  47.6578621  51.0359004   0.8693104  48.2751335  50.5522393
   3.7803105  52.1347128  51.2126771   3.3438337  52.1383870  51.9685742
   3.4466020  52.8152627  50.7806348   3.6665725  52.2359584  51.2607603
   3.7000588  39.1760956  53.4556199   4.3426496  39.2459060  54.0418114
   3.9523608  38.5090179  52.9535741   3.8322720  39.0887305  53.4683478
   6.9147451  48.8528048  50.1046408   7.5763885  48.2918716  50.0042317
   6.2738863  48.3580079  50.4299099   6.9176318  48.6964457  50.1378748
   3.2012282  49.8693430  49.8458397   3.4367871  50.0138629  49.0185248
   3.3501845  50.6335838  50.2389911   3.2578085  50.0032485  49.7822001
   5.0302738  48.7095096  47.6828001   5.3610956  49.2422736  47.0768096
   5.6035827  48.7633984  48.3389952   5.1636418  48.7964665  47.6905782
   0.4957649  48.4008739  41.5988533   0.4137811  48.4710926  42.4643520
   1.1337369  48.9638483  41.4072273   0.5777486  48.4947710  41.6978482
   6.1382090  43.9505593  49.1868162   5.8818655  43.1385535  48.9966045
   6.9811404  43.9583160  48.9598350   6.2248115  43.8317591  49.1252979
   3.8207249  51.1055189  59.0226715   3.5845887  50.2743254  58.9038776
   4.4650478  51.0540796  59.6081559   3.8801920  50.9752877  59.0912608
   4.8443670  50.8899638  55.0855009   4.5389487  51.6227695  55.4468325
   4.1249886  50.4837567  54.8047795   4.6931012  50.9381371  55.0968146
  10.5445462  47.5292639  54.4123354  10.4769962  47.5488598  53.5425940
  10.5301124  48.3722966  54.6379024  10.5324218  47.6566373  54.3175831
   0.9541808  38.9327796  57.7364443   1.6995400  38.7437607  57.3227869
   0.5379113  39.4586034  57.1778299   1.0026783  38.9829942  57.5929016
   8.3304079  46.3037025  52.6869948   8.8812001  45.6705094  52.9267040
   8.3148195  46.8352418  53.3785452   8.4089276  46.2885973  52.8248806
   2.0332486  44.5433359  51.7974544   1.6897251  43.8223694  52.1481794
   2.1325528  44.3347210  50.9552903   1.9974528  44.4057562  51.7246224
   2.4945515  51.0059063  47.3398532   3.0603547  51.6652272  47.2557075
   1.8473418  51.3508761  47.8114935   2.4824271  51.1541004  47.3971289
   4.4280975  47.6692930  50.9595329   4.3414949  47.8248356  51.8130108
   3.9731455  48.3131006  50.5854734   4.3484231  47.7868685  51.0302436
   2.1954840  51.6987036  53.3707670   2.0569199  52.3968082  53.8756412
   1.4154838  51.5435693  53.0143851   2.0598067  51.7787203  53.3933944
   0.5332925  47.9983412  59.6230051   0.5280963  47.1263228  59.6272478
   1.2393919  48.1971581  59.1499507   0.6377929  47.8987286  59.5537087
   3.6908212  51.0565290  44.1324169   3.3115021  50.2702428  44.1253458
   3.0274458  51.6052147  43.9895813   3.5366687  51.0210114  44.1104966
   1.1452838  33.9990990  51.5358250   1.2636407  34.4567453  50.8025552
   0.9715014  33.1936251  51.2494467   1.1372009  33.9484762  51.3859183
   1.9368311  53.3010781  44.4675855   2.0188149  54.1077767  44.1437306
   2.4218053  53.3206741  45.1916628   2.0205469  53.4231444  44.5262753
   1.4443512  52.0608200  64.5494181   2.2578377  51.7893348  64.7099313
   1.2838478  51.7615740  63.7454377   1.5413460  51.9763126  64.4539586
   1.4564756  53.1214490  59.8217021   2.0944476  52.6274686  59.4879477
   0.8138847  53.0491890  59.2369248   1.4558982  53.0373498  59.6859376
   3.1821756  44.9703636  54.3882937   2.7549364  44.8829984  53.6331036
   2.5447809  45.0781411  54.9737781   3.0251363  44.9736296  54.3628378
   1.5119012  53.8134298  56.4622378   2.3011390  53.4623363  56.5824460
   1.6862610  54.6270687  56.1999012   1.6539294  53.8820155  56.4410246
   3.6186524  38.3775619  50.5041562   3.0060838  38.8646021  50.8895294
   3.7150699  37.7019110  51.0479213   3.5424422  38.3493928  50.6420420
   7.2611552  49.4492556  55.9319078   7.3194676  49.8979205  56.6779054
   6.6278020  49.8591369  55.4949158   7.1762847  49.5766291  55.9771626
   4.2133231  47.4708844  54.0184768   3.9731454  46.6315259  54.0227195
   4.6925239  47.5509010  54.7425542   4.2485415  47.3590243  54.1259571
   6.2138419  44.2510301  51.9714027   5.9748188  44.2106135  51.1334812
   6.3772320  45.0981453  52.0979748   6.2028722  44.3702386  51.8667509
   2.8184449  48.6360250  57.9019072   3.5418648  48.1832776  57.7230092
   2.5534411  48.9164916  57.1191400   2.8865722  48.6111219  57.7597788
   5.2519763  47.5986661  56.4049622   5.8437603  48.2383912  56.4367820
   5.6878757  46.9009698  56.6941689   5.4038194  47.5905011  56.4530455
   2.2768904  44.8131880  48.7052765   1.6060094  45.3561582  48.5765830
   2.9708654  45.2826735  48.4634460   2.2797771  44.9630151  48.6508292
   2.4397031  41.2687763  51.6143138   2.7924642  40.8417486  52.2888937
   1.5811833  41.1838607  51.7444214   2.3646476  41.1932504  51.7338148
   0.4380297  44.5323132  55.5627980   0.4178225  44.3506427  56.4162759
   0.4859498  45.4035150  55.5387564   0.4414938  44.6339670  55.6851275
   3.8721092  36.3906175  52.5427450   3.3651956  35.6835315  52.4748628
   4.6688525  36.0599364  52.6728527   3.9148331  36.2379326  52.5526445
   6.0741231  50.9071102  45.5268315   6.4574837  51.6562458  45.7566412
   5.2785345  51.1536921  45.2680304   6.0135014  51.0540795  45.5225888
   2.5141814  41.8872725  48.6904273   2.5136040  41.7321381  49.5488549
   2.3097994  42.7335712  48.6345658   2.4841591  41.9893345  48.8092212
   2.3034484  49.3173914  55.0317608   2.7289556  48.7948336  54.4788033
   1.9391404  49.9154751  54.5106231   2.3121087  49.3284141  54.8726618
   2.3380895  40.8911467  55.5097651   1.7543883  41.3920673  55.0975218
   2.6585189  40.3841023  54.8761974   2.2994070  40.8903302  55.3556158
  15.5659007  61.4842037  47.6198676  15.5353011  62.3386673  47.7916945
  16.1640356  61.1837329  48.1784819  15.6496165  61.5658533  47.7273478
   8.7658692  60.5717688  52.3751606   7.9096587  60.7326186  52.4260723
   8.8126346  59.7009752  52.3956667   8.6457803  60.4668490  52.3857672
  12.0752408  66.8404213  61.9812062  12.7819176  66.3456244  62.1098997
  12.2640344  67.2813295  61.2514720  12.2080314  66.8322564  61.8921108
  11.6110513  62.6309732  55.0183258  12.1566473  63.3094818  55.0777228
  11.5527389  62.4897192  54.1584839  11.6826427  62.7101733  54.8995318
  13.3875581  64.0594339  45.8916986  13.2715107  64.8102025  46.3209124
  14.1831468  63.8018292  46.1413073  13.4880171  64.1329186  45.9921077
   5.2705907  68.0488362  47.1786328   5.5921748  68.5893569  46.5747636
   5.9178003  67.4785133  47.3108618   5.4131962  68.0447537  47.1093363
   7.3207615  60.0504357  47.2620715   8.0187780  60.2292484  47.7542178
   7.6359948  59.5274696  46.6391104   7.4702952  59.9998129  47.2422725
   7.5095550  66.4374802  47.2500506   7.9489186  65.8291902  47.6955279
   7.3600213  66.0582175  46.4785971   7.5517016  66.2913273  47.2019674
   4.9767193  65.0318814  54.4519332   5.6216196  64.5391257  54.1330280
   5.2168970  65.1743600  55.2785410   5.1077779  64.9796256  54.5268865
   7.5153285  67.8773719  54.1026224   7.7976528  67.0825125  53.8812980
   8.2439445  68.3554307  54.1231285   7.6642848  67.8308316  54.0729239
   5.4934479  55.4196753  51.3441989   5.1637809  55.8707897  50.6745688
   4.8179480  55.3412917  51.8914996   5.3444915  55.4747888  51.3265213
  11.1104887  64.7901983  44.2031275  11.0256182  65.6462950  44.3480844
  11.5989270  64.5146307  44.8713435  11.1693784  64.8759304  44.3233357
  12.7010886  51.4082276  49.5891600  12.3864327  52.0985755  50.0212022
  12.1837828  51.3527058  48.8877101  12.5775357  51.5017165  49.5488549
  12.0423320  61.4086777  45.7029011  11.5134792  61.6246411  46.3626317
  12.5648340  62.1022916  45.6229980  12.0411773  61.5429914  45.7884610
  17.4971373  66.9833082  51.0762055  16.6669076  67.1943725  51.2395472
  17.4480625  66.1570136  50.8004339  17.3678109  66.8922688  51.0599420
   3.9322928  65.3049994  44.5036479   3.3480143  65.8100025  44.9102342
   3.5293023  65.0792381  43.7633071   3.7862232  65.3458242  44.4541504
   9.2144703  70.2631750  59.8726138   9.3028049  70.0757890  60.7204348
   9.6434415  69.6169179  59.4730984   9.2906805  70.1394757  59.9397889
   8.3900142  61.5515646  42.9805399   8.6296146  61.7593630  42.1680742
   8.7115983  60.7473155  43.0894344   8.4737300  61.4629747  42.8765952
   3.6990433  53.4809042  46.8264937   4.4536401  53.8487359  46.5881987
   3.5217967  53.8548596  47.5944117   3.7844911  53.5907230  46.9049826
  16.9925331  59.6303482  54.8712476  16.1553752  59.7005669  55.1060071
  16.9613562  59.6327977  53.9986779  16.8643614  59.6413709  54.7772024
   3.3890060  61.7736518  60.5860845   3.5610564  61.6642412  61.4346126
   3.9259418  62.4190923  60.3492037   3.4935064  61.8528520  60.6765942
   2.0547497  55.8879361  43.5243050   1.8723071  56.1051242  42.6984043
   2.9173110  56.0018373  43.5801665   2.1552087  55.9369259  43.4097537
   1.6661929  67.7267283  50.9666038   2.5050829  67.9590216  51.0139800
   1.6973698  66.8571594  50.8973073   1.7943647  67.6324229  50.9630683
   7.7347217  52.8905771  46.5592074   8.4633377  52.7121726  46.1130230
   7.8242109  53.7323851  46.7699252   7.8553879  52.9889650  46.5245592
  11.7155517  63.8259159  50.4624368  12.4713032  64.2590673  50.5013277
  11.8217842  63.1763928  51.0359004  11.8425688  63.7936643  50.5522393
  14.7535688  67.6532436  51.2126771  14.3170920  67.6569178  51.9685742
  14.4198604  68.3337935  50.7806348  14.6398308  67.7544892  51.2607603
  14.6733171  54.6946264  53.4556199  15.3159080  54.7644368  54.0418114
  14.9256192  54.0275487  52.9535741  14.8055303  54.6072612  53.4683478
   1.6009524  59.1653533  42.0365523   0.8867701  58.8791713  42.4487956
   2.0853493  59.5050159  42.6771911   1.5668888  59.1735183  42.1921158
   2.4450384  57.9046827  58.0680773   1.7522181  57.4343807  58.3141504
   3.0610711  57.6785132  58.6422480   2.4334914  57.8013959  58.1889925
  17.8880035  64.3713356  50.1046408  18.5496469  63.8104024  50.0042317
  17.2471447  63.8765387  50.4299099  17.8908902  64.2149765  50.1378748
   8.7756842  67.6683487  42.4127331   9.1907991  67.3368511  41.7211827
   7.9448772  67.4352390  42.2847468   8.7144851  67.5854743  42.2918179
  14.1744865  65.3878738  49.8458397  14.4100454  65.5323937  49.0185248
  14.3234429  66.1521146  50.2389911  14.2310669  65.5217793  49.7822001
   1.1690943  61.8712231  59.2107618   1.8930915  61.8565262  59.6972513
   1.2707079  62.5807586  58.7129586   1.2909152  61.9736934  59.2086405
  16.0035322  64.2280404  47.6828001  16.3343539  64.7608044  47.0768096
  16.5768410  64.2819292  48.3389952  16.1369001  64.3149973  47.6905782
  11.2167211  62.0745307  48.3651581  11.3114065  62.8134601  48.8191206
  10.5926055  61.6462782  48.7986145  11.1376241  62.1206628  48.4959728
   9.4719685  65.2531520  59.0141862  10.0458547  64.6158764  59.1690426
   9.3934489  65.2535602  58.1451519   9.5452920  65.1596631  58.9088273
  11.4690232  63.9194047  41.5988533  11.3870395  63.9896234  42.4643520
  12.1069953  64.4823791  41.4072273  11.5510070  64.0133018  41.6978482
   4.8283404  63.6854785  51.0663059   4.5702648  62.8526520  51.0394359
   4.8831886  63.9112398  50.2255559   4.7983181  63.5952556  50.9383196
   9.9084454  55.7883235  51.1667152   9.2040780  55.2992421  51.3251071
   9.9569428  55.8005710  50.2955596   9.8114505  55.7172883  51.0606492
   3.8018116  61.2392547  51.5527954   3.2267707  61.3984716  52.1891915
   3.4253792  60.6027956  51.0896404   3.6620928  61.1690360  51.5782512
   7.4691404  59.7115896  56.4120332   7.0805837  59.2870114  55.7572524
   6.8046103  59.9598046  56.9197359   7.3138332  59.6854618  56.3908200
  17.1114674  59.4690901  49.1868162  16.8551238  58.6570843  48.9966045
  17.9543987  59.4768468  48.9598350  17.1980699  59.3502899  49.1252979
  11.2917766  53.4090525  53.9244317  11.6728278  52.7268696  54.3112191
  10.4881050  53.1200127  53.7419981  11.2294228  53.2657574  53.9548372
   8.5730343  63.9414501  44.6097139   9.3870981  64.2329394  44.4979911
   8.5089484  63.2874363  44.0355432   8.6833082  63.8879696  44.5085977
  14.7939833  66.6240497  59.0226715  14.5578470  65.7928562  58.9038776
  15.4383062  66.5726104  59.6081559  14.8534504  66.4938185  59.0912608
   4.4438251  67.4136018  49.7369451   5.0812198  67.1747766  50.2821245
   4.8693322  67.6173177  49.0022612   4.6014417  67.4087029  49.7086609
   5.0841066  62.6338308  44.0744341   5.4686219  62.4146015  44.8260886
   4.8352686  63.4601254  44.2045417   5.1043138  62.7236454  44.2045417
   5.2509606  55.9144723  63.7906925   4.9363047  56.6844286  63.5276488
   4.9299539  55.3514979  63.2059152   5.1568525  55.9454992  63.6648275
  15.8176253  66.4084946  55.0855009  15.5122070  67.1413003  55.4468325
  15.0982469  66.0022875  54.8047795  15.6663596  66.4566679  55.0968146
   6.8259723  67.8908441  51.4163238   6.8998731  67.7283613  52.2705088
   7.6429229  68.0798631  51.1723719   6.9576081  67.8945183  51.5061263
  21.5178046  63.0477947  54.4123354  21.4502546  63.0673906  53.5425940
  21.5033708  63.8908274  54.6379024  21.5056802  63.1751681  54.3175831
   2.8041503  54.3035245  49.4053121   1.9363929  54.3757844  49.4710730
   3.0916708  55.1057324  49.5941096   2.7181251  54.4329392  49.4427888
  11.9274392  54.4513104  57.7364443  12.6727984  54.2622915  57.3227869
  11.5111697  54.9771342  57.1778299  11.9759366  54.5015250  57.5929016
  19.3036663  61.8222333  52.6869948  19.8544584  61.1890402  52.9267040
  19.2880778  62.3537726  53.3785452  19.3821859  61.8071281  52.8248806
   5.9559054  65.6560930  57.2329841   5.4570747  66.3676698  57.3114730
   6.7659278  65.9761597  57.1948004   6.0015160  65.8087779  57.2386410
   2.2187171  64.9183883  51.4792562   1.9300420  64.2921354  52.0138290
   3.0870519  64.8604170  51.5457243   2.3047423  64.8171427  51.5683517
  13.0065069  60.0618666  51.7974544  12.6629835  59.3409002  52.1481794
  13.1058112  59.8532518  50.9552903  12.9707112  59.9242870  51.7246224
   2.4219445  66.5579134  47.4034927   3.1765413  66.9392173  47.6170390
   1.8290057  67.0090278  47.8581624   2.4456158  66.6807961  47.5017806
  13.4678098  66.5244371  47.3398532  14.0336131  67.1837580  47.2557075
  12.8206002  66.8694069  47.8114935  13.4556855  66.6726312  47.3971289
   4.8826112  58.5141974  62.5292140   4.0725887  58.8199754  62.4181982
   5.3600798  59.2347557  62.6444724   4.8329590  58.6656576  62.5299211
   3.7417671  67.7287695  52.7775043   3.2198425  67.8687987  53.4626908
   4.1291692  66.9698360  52.9677160   3.7221372  67.6373219  52.9076119
   0.7308855  57.7793504  46.8469998   0.4433651  57.4094775  46.1101945
   1.4179324  58.2488360  46.5853702   0.7897753  57.7940474  46.6985073
   9.9384676  69.4683155  46.7635612   9.6971352  68.7351015  46.3562677
  10.1186009  70.0170012  46.1101945   9.9292300  69.4405546  46.6065835
   5.1683997  64.7591715  48.1756534   4.9726780  65.3666449  47.5816837
   5.3918343  64.0659658  47.6948208   5.1718638  64.7469240  48.0172615
   3.5662527  61.6446452  48.2937402   4.2885179  61.8087611  47.8341208
   3.0870520  62.3656117  48.1876742   3.6026258  61.7744682  48.2103016
  11.5256035  57.9810251  53.6734087  10.6867135  58.0071530  53.4372350
  11.5960402  58.6280987  54.2539434  11.4124428  58.0806377  53.7243204
   9.9725313  54.8795628  48.4061703  10.6751666  54.6803377  47.9281661
   9.7069502  54.1071571  48.7130547  10.0371945  54.7358594  48.3807145
  15.4013558  63.1878238  50.9595329  15.3147533  63.3433664  51.8130108
  14.9464038  63.8316314  50.5854734  15.3216815  63.3053993  51.0302436
   4.7353869  56.1430913  57.4592584   4.5437066  56.1586048  58.3092007
   5.5852465  56.3394588  57.4359239   4.8329591  56.1745265  57.5815878
   9.2739374  60.5088985  49.5820888   9.0274089  60.4284736  50.4157677
   9.6024497  59.7242453  49.3883416   9.2860618  60.3815250  49.6768412
  13.1687423  67.2172344  53.3707670  13.0301783  67.9153390  53.8756412
  12.3887421  67.0621001  53.0143851  13.0330650  67.2972511  53.3933944
  11.5065508  63.5168720  59.6230051  11.5013547  62.6448536  59.6272478
  12.2126502  63.7156889  59.1499507  11.6110512  63.4172594  59.5537087
   5.2336402  63.2445704  58.9943872   5.3779777  63.8246912  58.3586982
   5.5812050  63.6222000  59.6993726   5.3063863  63.3866408  59.0042866
   7.4056319  62.4435872  56.7769003   6.6579633  62.6366886  56.3717281
   7.5597844  61.6181092  56.5393124   7.3178747  62.3500983  56.6814409
  14.6640796  66.5750598  44.1324169  14.2847605  65.7887736  44.1253458
  14.0007041  67.1237455  43.9895813  14.5099271  66.5395422  44.1104966
   7.6458096  56.3386423  57.6664407   8.1030710  57.0710397  57.7937199
   7.7214425  55.9152888  58.4251663   7.7249066  56.3843661  57.7965483
  12.1185422  49.5176298  51.5358250  12.2368990  49.9752761  50.8025552
  11.9447598  48.7121559  51.2494467  12.1104593  49.4670070  51.3859183
   5.5240474  58.3288527  54.5106231   4.7336549  58.1479987  54.8323567
   5.9201097  57.5515479  54.4936525   5.4657350  58.1875988  54.5558779
  10.0106365  67.1576301  39.9512944  10.7779350  67.2176426  39.5418796
   9.5637674  66.5856742  39.4669263  10.0579792  67.0812877  39.8190655
  10.9084160  65.9630957  52.2365677  10.2329162  65.7316189  52.7379064
  10.9176536  65.3552140  51.6107782  10.8102665  65.8389882  52.2181829
   8.0378304  60.8048786  58.9929730   7.9737445  61.6658742  58.8649866
   8.1775492  60.4880779  58.1925281   8.0493774  60.8848952  58.8557943
  12.9100895  68.8196089  44.4675855  12.9920732  69.6263075  44.1437306
  13.3950637  68.8392048  45.1916628  12.9938053  68.9416752  44.5262753
   6.7197398  63.4980925  53.1345933   6.2959647  63.6985424  52.3984951
   6.5442253  62.6509773  53.2470232   6.6308279  63.4029707  53.0419623
   2.0079843  63.9932977  48.5673905   2.1644462  63.9279779  49.4229897
   2.3480436  64.7681529  48.3552585   2.0813078  64.0982175  48.6628499
   8.5458988  63.3690860  47.4367268   9.0874533  62.8661241  47.9005889
   8.8605547  63.3156055  46.6256754   8.6723385  63.2870281  47.3851080
  12.4176095  67.5793508  64.5494181  13.2310960  67.3078656  64.7099313
  12.2571061  67.2801047  63.7454377  12.5146044  67.4948434  64.4539586
   6.7145437  68.7608212  44.7207296   6.7838258  67.9022750  44.8600297
   7.4933893  68.9780093  44.3926321   6.8398288  68.6661076  44.6924454
   9.6948257  58.2627165  57.4889569   9.9090227  57.6238079  56.9352923
   9.0782156  58.7072989  57.0597431   9.6353586  58.2337308  57.3440000
  11.8587345  59.8716230  58.4272876  11.0464027  59.5642120  58.5086049
  12.3177280  59.3915230  58.9915588  11.8067730  59.7552722  58.5227470
  11.2692600  67.7495902  48.8749820  10.9107255  67.9210545  49.6513853
  10.7831311  68.2109107  48.3177819  11.1451297  67.8434873  48.9075089
   9.0862986  51.3727100  52.4776912   8.2156544  51.3465821  52.4310221
   9.3403327  51.2004293  51.6602757   8.9956546  51.3437244  52.3497048
   6.0580965  63.4295067  41.4150055   6.3473490  64.2059950  41.6893629
   6.1452764  62.9183799  42.1164554   6.1135221  63.4686986  41.5592553
   8.9540853  61.2776301  63.2101578   9.4240484  61.9018418  63.5969452
   9.0002733  60.6093277  63.7694793   9.0308728  61.2710982  63.3501650
   6.1112126  53.3833329  53.9350382   5.5950615  52.6913520  54.0601961
   5.5506055  54.0504106  53.8812981   5.9518640  53.3796586  53.9456448
   8.1804360  53.9226289  55.7643235   7.7936113  53.9475320  56.5456765
   7.6937297  53.3567967  55.3117751   8.0516869  53.8422040  55.8131138
  12.4297339  68.6399798  59.8217021  13.0677060  68.1459993  59.4879477
  11.7871431  68.5677198  59.2369248  12.4291566  68.5558806  59.6859376
  14.1554339  60.4888944  54.3882937  13.7281947  60.4015292  53.6331036
  13.5180392  60.5966719  54.9737781  13.9983946  60.4921604  54.3628378
   7.8461501  50.8093274  58.0553495   8.4754619  51.3453574  57.7774565
   8.0147364  50.7170633  58.9067060   7.9639296  50.8754637  58.1402023
   7.6475416  55.5964469  60.3279906   8.4748846  55.3249618  60.3838521
   7.6683262  56.3925311  60.6843724   7.7728266  55.6744223  60.3895089
  12.4851596  69.3319606  56.4622378  13.2743974  68.9808671  56.5824460
  12.6595194  70.1455994  56.1999012  12.6271877  69.4005463  56.4410246
   2.2244906  62.7428332  53.5150167   1.3832913  62.6432206  53.7229061
   2.4334914  63.5123812  53.8664487   2.1309599  62.8420375  53.5977482
  11.3385420  53.3429163  51.0238796  11.5435013  53.2751471  51.8695793
  11.0111844  54.1487984  50.9559974  11.3200668  53.4515103  51.1398451
   6.0361571  60.6709731  52.7647764   5.7324709  60.1165719  53.3658172
   5.3340992  60.8501941  52.2775799   5.8877781  60.6154513  52.7817470
   5.0927668  57.9810251  47.3292466   5.3687402  57.2629163  46.9170034
   5.6926337  58.5795171  47.1213572   5.2220933  57.9630622  47.2373227
  14.5919108  53.8960927  50.5041562  13.9793421  54.3831329  50.8895294
  14.6883283  53.2204418  51.0479213  14.5157005  53.8679236  50.6420420
   8.5938189  55.6523768  45.6039061   9.0481935  55.8234329  46.3286906
   9.0678234  55.0391879  45.2036837   8.7306509  55.5874653  45.6512823
   2.1153714  65.1372094  54.9341800   1.5241647  65.7781592  54.9044815
   2.8774738  65.5609711  54.9073099   2.1401975  65.2947933  54.9256947
   2.5114337  56.2974092  55.6009817   2.9715818  56.3713021  56.3384941
   2.5570444  57.0955346  55.2509639   2.5864892  56.4268239  55.6582574
   4.1597687  56.9640787  60.1681844   3.7683252  56.3174134  60.6037622
   4.3283549  57.5552222  60.7876100   4.1268597  56.9555055  60.3244550
  18.2344136  64.9677864  55.9319078  18.2927259  65.4164513  56.6779054
  17.6010603  65.3776677  55.4949158  18.1495431  65.0951598  55.9771626
  11.8743230  70.5881406  52.3673824  11.6762919  71.0772220  51.6730035
  11.2530941  70.7922647  52.9457958  11.7530795  70.6897944  52.3497047
   5.9351209  62.3566303  46.7084068   6.6793254  62.7440579  46.9467018
   6.0811905  61.5123728  46.8724556   6.0661794  62.2896775  46.7678038
   7.8530784  54.1516561  51.7415930   7.0066829  54.3239369  51.6157280
   7.8501917  53.3465905  52.0781758   7.7277934  54.0577590  51.7727057
   8.9229084  57.9291776  52.6077988   8.4489039  57.4033538  53.1183299
   9.2947220  57.3821249  52.0392849   8.9078973  57.7707772  52.5993135
  15.1865815  62.9894152  54.0184768  14.9464038  62.1500567  54.0227195
  15.6657822  63.0694318  54.7425542  15.2217999  62.8775551  54.1259571
  10.8512584  58.8228330  45.6703742  10.3235603  58.9057074  44.9809450
  11.3108292  59.5646202  45.6668386  10.8414435  58.9448993  45.5678437
  17.1871002  59.7695609  51.9714027  16.9480772  59.7291443  51.1334812
  17.3504903  60.6166761  52.0979748  17.1761306  59.8887694  51.8667509
  13.7917032  64.1545558  57.9019072  14.5151231  63.7018084  57.7230092
  13.5266995  64.4350224  57.1191400  13.8598306  64.1296527  57.7597788
   2.6603901  58.7505732  54.6371952   2.0356971  58.7624124  54.0297904
   2.3249495  59.2265907  55.2863192   2.5189392  58.8224249  54.6428520
   2.8445649  57.0930850  40.6944637   2.4958454  57.7450575  41.1576186
   2.3642095  57.0787963  39.9668508   2.7215893  57.1873904  40.6555728
  10.4049667  67.3931894  44.8013399  11.1283866  67.8590007  44.6577972
   9.9650258  67.4605504  44.0510996  10.4465359  67.4715731  44.6698180
   9.5735822  64.2529436  56.0514088   8.9592815  63.7087487  56.3462723
  10.0903107  63.7393673  55.5719904   9.5591484  64.0965845  56.0238316
   8.8132119  65.3233706  53.7858386   8.3859727  64.6983425  53.3523822
   8.8057063  65.0408628  54.6117393   8.7491260  65.1886487  53.8438214
   1.9294646  60.3598879  56.8546820   2.0888133  59.6042203  57.2598542
   1.7487540  60.9089819  57.5087558   1.9260005  60.3292693  57.0109526
   9.8714949  52.5260115  57.4097610   9.3755510  52.7223789  56.7189176
  10.6284011  52.9252783  57.2386411   9.9101774  52.6137849  57.2817746
   7.1417829  56.2002461  54.0000920   7.1660316  55.6662573  53.3113700
   7.3929302  55.6919770  54.6626511   7.1827747  56.0463365  53.9965565
   3.4219151  54.9273279  53.3806665   3.4617522  55.4282486  54.0941372
   2.5968815  55.0183673  53.1112588   3.3058677  55.0155095  53.4457203
   4.8433514  61.4433789  55.6780564   4.0125444  61.6107607  55.4715812
   4.7885031  61.0669740  56.4629449   4.7122929  61.4123520  55.7629092
   2.6517297  54.9342682  61.3136974   3.2770001  54.3904815  61.5866407
   2.1967777  54.4537599  60.7444765   2.6765558  54.7832163  61.2698568
   3.2169558  59.7189380  46.2070681   3.3572519  60.2161845  46.9099323
   3.7152091  59.0175675  46.3484895   3.3110639  59.6891359  46.3322260
   3.2469780  60.5856491  43.5363258   3.8814860  61.1816916  43.4712720
   3.3295391  60.2859949  44.3509128   3.3526331  60.6297400  43.6466345
  16.2252346  63.1171969  56.4049622  16.8170186  63.7569220  56.4367820
  16.6611341  62.4195006  56.6941689  16.3770777  63.1090319  56.4530455
   4.8248763  56.5170467  43.5108700   5.1464604  56.0373549  42.8567962
   5.0875707  57.3270113  43.3199512   4.9114789  56.5660365  43.3864192
   8.0545736  67.5389341  57.0307516   7.5470827  68.0925188  57.4748147
   7.7572382  67.5997631  56.2126291   7.9350621  67.6295652  56.9755973
  10.2207918  55.9042661  55.8732179  10.6462990  55.4515187  55.2615706
   9.6064911  55.3502732  56.1496967  10.1936564  55.7556637  55.8237204
   8.6602141  52.3757761  49.2822756   8.0170459  52.2255407  49.8507895
   8.3201548  52.1300106  48.5171861   8.5147218  52.3169883  49.2525771
  13.2501488  60.3317187  48.7052765  12.5792677  60.8746890  48.5765830
  13.9441238  60.8012043  48.4634460  13.2530355  60.4815459  48.6508292
  13.4129615  56.7873071  51.6143138  13.7657225  56.3602794  52.2888937
  12.5544417  56.7023915  51.7444214  13.3379060  56.7117812  51.7338148
   2.1113300  59.4180591  49.6725984   1.3925289  59.8344723  49.9398848
   2.4825662  59.9834830  49.1217623   2.0605232  59.5629872  49.6308791
  11.4112881  60.0508440  55.5627980  11.3910808  59.8691735  56.4162759
  11.4592082  60.9220458  55.5387564  11.4147522  60.1524978  55.6851275
   9.3559211  66.6395632  61.4876457   9.3155066  65.9945309  60.9021613
  10.1682529  66.5832249  61.8001869   9.4702364  66.5354599  61.4473406
   7.8859874  58.4578591  45.0099364   7.2924714  58.7795587  44.4583931
   7.9235152  57.6119686  44.8020470   7.8034264  58.3802919  44.8982135
  14.8453675  51.9091483  52.5427450  14.3384540  51.2020622  52.4748628
  15.6421109  51.5784672  52.6728527  14.8880914  51.7564634  52.5526445
  10.7617691  58.4158095  48.4401114  10.5331384  58.4390797  47.5979472
  11.0215767  57.5915562  48.5596125  10.7663879  58.2974175  48.3326312
   5.0436919  60.2692568  58.0426214   4.5315822  59.6613751  58.4011246
   4.8716416  60.9849161  58.5100190   4.9426556  60.2855868  58.1642438
   3.8162453  56.9534641  49.7355310   4.2919820  57.3151721  49.1005491
   3.3151053  57.6091109  50.0155453   3.8127812  57.1028830  49.6832051
  17.0473815  66.4256410  45.5268315  17.4307421  67.1747766  45.7566412
  16.2517928  66.6722229  45.2680304  16.9867597  66.5726103  45.5225888
   8.9205990  58.1916813  60.4828470   9.4777420  57.9630622  59.8506935
   8.5967055  58.9522478  60.2063682   8.9552400  58.2700650  60.3484967
   6.6389107  61.2784466  61.4480477   7.3900434  61.5936143  61.7620031
   6.8311683  61.0763637  60.6214399   6.7780521  61.2951848  61.3723873
   5.8589107  59.0975841  43.1028694   6.2388071  59.1155470  42.3179809
   5.1181703  59.5429830  42.9819541   5.8057944  59.1657616  42.9692262
  13.4874397  57.4058032  48.6904273  13.4868624  57.2506689  49.5488549
  13.2830577  58.2521020  48.6345658  13.4574175  57.5078653  48.8092212
  11.2115249  62.0855534  52.3440479  11.7068915  61.3678529  52.3044500
  10.4015025  61.7826332  52.2294966  11.1659142  61.9353181  52.3214205
   6.6573861  65.9353348  44.4937484   5.8485183  65.6120021  44.4470793
   7.1648770  65.2286570  44.4265732   6.6123527  65.7834664  44.4767778
  13.2767068  64.8359222  55.0317608  13.7022140  64.3133644  54.4788033
  12.9123988  65.4340059  54.5106231  13.2853671  64.8469449  54.8726618
   9.8645668  68.5493486  51.3618766  10.3356846  69.2633749  51.5308751
  10.2005846  67.9492236  51.8978635   9.9840783  68.5664950  51.4651142
   6.7815162  53.3220957  58.3176860   6.9143068  52.5251950  58.6457836
   7.1660315  53.8487360  58.8975136   6.8571491  53.2820873  58.4520363
  10.5019614  68.3411420  58.1246458   9.9540560  67.7169304  57.8566524
  10.9632643  68.5305692  57.4090538  10.4886823  68.2770470  57.9796889
   9.8547518  50.2451283  54.9157954   9.0493481  50.1349012  55.2325792
   9.7254253  50.3463738  54.0587819   9.7167650  50.2434953  54.8365994
  13.3113478  56.4096775  55.5097651  12.7276467  56.9105981  55.0975218
  13.6317772  55.9026331  54.8761974  13.2726654  56.4088610  55.3556158
   5.8508277  55.3237369  45.7856325   6.6723972  55.4935682  45.5438020
   5.3877928  55.4784630  45.0622623   5.9039440  55.3719102  45.6427970
   4.4403609  53.3180132  56.5654754   4.9848022  52.9771258  57.1559096
   4.4940545  54.1765593  56.7076039   4.5292729  53.3935391  56.6736628
  10.0677940  69.3462493  54.6555799  10.8876314  69.2025459  54.9172095
   9.7872018  69.9708692  55.1972237  10.1474684  69.4172845  54.7743739
  16.4667062  70.9382061  51.3441989  16.1370392  71.3893205  50.6745688
  15.7912064  70.8598225  51.8914996  16.3177499  70.9933196  51.3265213
  23.6743470  66.9267584  49.5891600  23.3596911  67.6171063  50.0212022
  23.1570412  66.8712366  48.8877101  23.5507940  67.0202473  49.5488549
  14.6723016  68.9994350  46.8264937  15.4268984  69.3672667  46.5881987
  14.4950551  69.3733904  47.5944117  14.7577495  69.1092538  46.9049826
  27.9657915  75.1488790  54.8712476  27.1286336  75.2190977  55.1060071
  27.9346146  75.1513285  53.9986779  27.8376197  75.1599017  54.7772024
  13.0280081  71.4064669  43.5243050  12.8455654  71.6236549  42.6984043
  13.8905694  71.5203681  43.5801665  13.1284670  71.4554567  43.4097537
  18.7079800  68.4091079  46.5592074  19.4365961  68.2307034  46.1130230
  18.7974693  69.2509159  46.7699252  18.8286462  68.5074958  46.5245592
  25.6465755  70.2131572  53.4556199  26.2891663  70.2829676  54.0418114
  25.8988776  69.5460795  52.9535741  25.7787887  70.1257920  53.4683478
  20.8817037  71.3068543  51.1667152  20.1773364  70.8177729  51.3251071
  20.9302012  71.3191018  50.2955596  20.7847089  71.2358191  51.0606492
  28.0847257  74.9876209  49.1868162  27.8283822  74.1756151  48.9966045
  28.9276571  74.9953776  48.9598350  28.1713282  74.8688206  49.1252979
  22.2650349  68.9275833  53.9244317  22.6460861  68.2454004  54.3112191
  21.4613634  68.6385435  53.7419981  22.2026811  68.7842882  53.9548372
  16.2242190  71.4330031  63.7906925  15.9095631  72.2029594  63.5276488
  15.9032122  70.8700287  63.2059152  16.1301109  71.4640300  63.6648275
  13.7774087  69.8220553  49.4053121  12.9096512  69.8943152  49.4710730
  14.0649291  70.6242632  49.5941096  13.6913835  69.9514700  49.4427888
  22.9006976  69.9698412  57.7364443  23.6460568  69.7808223  57.3227869
  22.4844280  70.4956650  57.1778299  22.9491950  70.0200558  57.5929016
  30.2769246  77.3407641  52.6869948  30.8277168  76.7075710  52.9267040
  30.2613362  77.8723034  53.3785452  30.3554443  77.3256589  52.8248806
  23.9797653  75.5803974  51.7974544  23.6362419  74.8594310  52.1481794
  24.0790695  75.3717826  50.9552903  23.9439696  75.4428178  51.7246224
  22.4988618  73.4995559  53.6734087  21.6599719  73.5256838  53.4372350
  22.5692985  74.1466295  54.2539434  22.3857012  73.5991685  53.7243204
  20.9457896  70.3980936  48.4061703  21.6484249  70.1988684  47.9281661
  20.6802085  69.6256879  48.7130547  21.0104529  70.2543902  48.3807145
  15.7086453  71.6616221  57.4592584  15.5169650  71.6771356  58.3092007
  16.5585049  71.8579896  57.4359239  15.8062175  71.6930573  57.5815878
  18.6190680  71.8571731  57.6664407  19.0763294  72.5895705  57.7937199
  18.6947008  71.4338196  58.4251663  18.6981649  71.9028969  57.7965483
  23.0918006  65.0361606  51.5358250  23.2101574  65.4938069  50.8025552
  22.9180181  64.2306867  51.2494467  23.0837177  64.9855378  51.3859183
  20.6680841  73.7812473  57.4889569  20.8822810  73.1423387  56.9352923
  20.0514740  74.2258296  57.0597431  20.6086170  73.7522616  57.3440000
  22.8319929  75.3901538  58.4272876  22.0196610  75.0827428  58.5086049
  23.2909863  74.9100538  58.9915588  22.7800313  75.2738030  58.5227470
  20.0595569  66.8912408  52.4776912  19.1889127  66.8651129  52.4310221
  20.3135911  66.7189600  51.6602757  19.9689129  66.8622552  52.3497048
  17.0844710  68.9018637  53.9350382  16.5683198  68.2098828  54.0601961
  16.5238639  69.5689414  53.8812981  16.9251223  68.8981894  53.9456448
  19.1536943  69.4411597  55.7643235  18.7668696  69.4660628  56.5456765
  18.6669881  68.8753275  55.3117751  19.0249452  69.3607348  55.8131138
  18.8194085  66.3278582  58.0553495  19.4487203  66.8638882  57.7774565
  18.9879948  66.2355941  58.9067060  18.9371880  66.3939944  58.1402023
  18.6208000  71.1149777  60.3279906  19.4481429  70.8434926  60.3838521
  18.6415846  71.9110619  60.6843724  18.7460850  71.1929531  60.3895089
  22.3118003  68.8614471  51.0238796  22.5167597  68.7936779  51.8695793
  21.9844427  69.6673292  50.9559974  22.2933251  68.9700411  51.1398451
  25.5651691  69.4146235  50.5041562  24.9526005  69.9016637  50.8895294
  25.6615866  68.7389726  51.0479213  25.4889589  69.3864544  50.6420420
  19.5670772  71.1709076  45.6039061  20.0214519  71.3419636  46.3286906
  20.0410818  70.5577187  45.2036837  19.7039092  71.1059961  45.6512823
  18.8263368  69.6701869  51.7415930  17.9799413  69.8424677  51.6157280
  18.8234500  68.8651213  52.0781758  18.7010518  69.5762898  51.7727057
  19.8961668  73.4477084  52.6077988  19.4221622  72.9218846  53.1183299
  20.2679804  72.9006557  52.0392849  19.8811557  73.2893080  52.5993135
  21.8245168  74.3413638  45.6703742  21.2968186  74.4242382  44.9809450
  22.2840876  75.0831510  45.6668386  21.8147018  74.4634301  45.5678437
  28.1603586  75.2880917  51.9714027  27.9213356  75.2476751  51.1334812
  28.3237487  76.1352069  52.0979748  28.1493889  75.4073002  51.8667509
  20.8447533  68.0445423  57.4097610  20.3488094  68.2409097  56.7189176
  21.6016595  68.4438091  57.2386411  20.8834357  68.1323157  57.2817746
  18.1150412  71.7187769  54.0000920  18.1392899  71.1847881  53.3113700
  18.3661886  71.2105078  54.6626511  18.1560331  71.5648673  53.9965565
  14.3951734  70.4458587  53.3806665  14.4350106  70.9467794  54.0941372
  13.5701399  70.5368981  53.1112588  14.2791260  70.5340403  53.4457203
  13.6249881  70.4527990  61.3136974  14.2502584  69.9090123  61.5866407
  13.1700361  69.9722907  60.7444765  13.6498142  70.3017471  61.2698568
  15.7981347  72.0355775  43.5108700  16.1197188  71.5558857  42.8567962
  16.0608291  72.8455421  43.3199512  15.8847372  72.0845673  43.3864192
  19.6334725  67.8943069  49.2822756  18.9903043  67.7440715  49.8507895
  19.2934132  67.6485414  48.5171861  19.4879802  67.8355191  49.2525771
  24.3862199  72.3058379  51.6143138  24.7389809  71.8788102  52.2888937
  23.5277000  72.2209223  51.7444214  24.3111643  72.2303120  51.7338148
  25.8186259  67.4276791  52.5427450  25.3117123  66.7205930  52.4748628
  26.6153692  67.0969980  52.6728527  25.8613498  67.2749942  52.5526445
  21.7350275  73.9343403  48.4401114  21.5063968  73.9576105  47.5979472
  21.9948351  73.1100870  48.5596125  21.7396463  73.8159483  48.3326312
  24.4606981  72.9243340  48.6904273  24.4601207  72.7691997  49.5488549
  24.2563161  73.7706327  48.6345658  24.4306759  73.0263961  48.8092212
  17.7547746  68.8406265  58.3176860  17.8875652  68.0437258  58.6457836
  18.1392899  69.3672668  58.8975136  17.8304075  68.8006181  58.4520363
  20.8280101  65.7636591  54.9157954  20.0226065  65.6534320  55.2325792
  20.6986837  65.8649046  54.0587819  20.6900234  65.7620261  54.8365994
  24.2846062  71.9282083  55.5097651  23.7009051  72.4291289  55.0975218
  24.6050356  71.4211639  54.8761974  24.2459237  71.9273918  55.3556158
  16.8240861  70.8422677  45.7856325  17.6456555  71.0120990  45.5438020
  16.3610512  70.9969938  45.0622623  16.8772023  70.8904410  45.6427970
  15.4136193  68.8365440  56.5654754  15.9580606  68.4956566  57.1559096
  15.4673129  69.6950901  56.7076039  15.5025312  68.9120699  56.6736628
   4.2877247  22.9034860  34.5538723   4.2571252  23.7579497  34.7256992
   4.8858596  22.6030152  35.1124866   4.3714405  22.9851356  34.6613525
   0.7970649  28.2597037  48.9152109   1.5037416  27.7649067  49.0439044
   0.9858584  28.7006118  48.1854767   0.9298554  28.2515387  48.8261155
   2.1093822  25.4787162  32.8257032   1.9933348  26.2294848  33.2549171
   2.9049709  25.2211115  33.0753120   2.2098411  25.5522009  32.9261124
   1.4229127  12.8275099  36.5231647   1.1082568  13.5178578  36.9552069
   0.9056068  12.7719882  35.8217148   1.2993597  12.9209988  36.4828596
   6.2189613  28.4025905  38.0102102   5.3887317  28.6136548  38.1735518
   6.1698866  27.5762959  37.7344385   6.0896349  28.3115511  37.9939467
   5.7143572  21.0496305  41.8052523   4.8771993  21.1198493  42.0400118
   5.6831803  21.0520800  40.9326826   5.5861854  21.0606533  41.7112071
   0.4373758  25.2451982  37.3964415   1.1931273  25.6783496  37.4353323
   0.5436082  24.5956752  37.9699051   0.5643928  25.2129466  37.4862440
   3.4753929  29.0725259  38.1466818   3.0389161  29.0762002  38.9025789
   3.1416844  29.7530758  37.7146395   3.3616549  29.1737715  38.1947650
   3.3951412  16.1139087  40.3896246   4.0377320  16.1837192  40.9758161
   3.6474432  15.4468310  39.8875788   3.5273544  16.0265436  40.4023525
   6.6098275  25.7906179  37.0386455   7.2714709  25.2296848  36.9382363
   5.9689687  25.2958210  37.3639146   6.6127142  25.6342588  37.0718795
   2.8963106  26.8071562  36.7798444   3.1318695  26.9516760  35.9525294
   3.0452669  27.5713970  37.1729957   2.9528909  26.9410616  36.7162048
   4.7253562  25.6473227  34.6168047   5.0561779  26.1800868  34.0108142
   5.2986650  25.7012115  35.2729998   4.8587241  25.7342796  34.6245829
   5.8332914  20.8883724  36.1208209   5.5769479  20.0763666  35.9306092
   6.6762228  20.8961292  35.8938396   5.9198939  20.7695722  36.0593026
   3.5158073  28.0433320  45.9566762   3.2796711  27.2121385  45.8378822
   4.1601302  27.9918928  46.5421606   3.5752744  27.9131008  46.0252655
   4.5394494  27.8277769  42.0195056   4.2340311  28.5605826  42.3808372
   3.8200709  27.4215699  41.7387842   4.3881836  27.8759502  42.0308193
  10.2396286  24.4670770  41.3463400  10.1720786  24.4866729  40.4765987
  10.2251948  25.3101097  41.5719071  10.2275042  24.5944504  41.2515877
   8.0254903  23.2415156  39.6209995   8.5762825  22.6083225  39.8607087
   8.0099019  23.7730549  40.3125499   8.1040100  23.2264104  39.7588853
   1.7283309  21.4811490  38.7314591   1.3848075  20.7601825  39.0821841
   1.8276352  21.2725341  37.8892949   1.6925352  21.3435693  38.6586271
   2.1896339  27.9437194  34.2738579   2.7554371  28.6030404  34.1897122
   1.5424242  28.2886892  34.7454981   2.1775095  28.0919135  34.3311336
   4.1231799  24.6071061  37.8935376   4.0365773  24.7626487  38.7470155
   3.6682279  25.2509137  37.5194781   4.0435055  24.7246816  37.9642483
   1.8905664  28.6365168  40.3047716   1.7520023  29.3346213  40.8096459
   1.1105661  28.4813824  39.9483898   1.7548890  28.7165334  40.3273991
   3.3859036  27.9943421  31.0664216   3.0065845  27.2080559  31.0593505
   2.7225282  28.5430278  30.9235860   3.2317511  27.9588245  31.0445013
   1.6319135  30.2388912  31.4015902   1.7138973  31.0455899  31.0777352
   2.1168877  30.2584872  32.1256675   1.7156293  30.3609575  31.4602800
   1.1394336  28.9986331  51.4834227   1.9529201  28.7271480  51.6439360
   0.9789302  28.6993871  50.6794423   1.2364284  28.9141257  51.3879633
   1.1515580  30.0592621  46.7557068   1.7895300  29.5652817  46.4219524
   0.5089671  29.9870022  46.1709295   1.1509806  29.9751630  46.6199423
   2.8772580  21.9081767  41.3222984   2.4500188  21.8208116  40.5671083
   2.2398633  22.0159543  41.9077828   2.7202187  21.9114427  41.2968425
   1.2069836  30.7512429  43.3962425   1.9962214  30.4001494  43.5164506
   1.3813434  31.5648818  43.1339059   1.3490118  30.8198286  43.3750293
   3.3137348  15.3153750  37.4381609   2.7011662  15.8024152  37.8235340
   3.4101523  14.6397241  37.9819260   3.2375246  15.2872059  37.5760467
   6.9562376  26.3870687  42.8659125   7.0145500  26.8357336  43.6119101
   6.3228844  26.7969500  42.4289205   6.8713671  26.5144422  42.9111673
   3.9084055  24.4086975  40.9524815   3.6682278  23.5693390  40.9567242
   4.3876063  24.4887141  41.6765589   3.9436239  24.2968374  41.0599617
   5.9089242  21.1888432  38.9054074   5.6699012  21.1484266  38.0674859
   6.0723144  22.0359584  39.0319795   5.8979546  21.3080517  38.8007556
   2.5135273  25.5738381  44.8359119   3.2369471  25.1210908  44.6570139
   2.2485235  25.8543047  44.0531447   2.5816546  25.5489350  44.6937835
   4.9470587  24.5364792  43.3389669   5.5388427  25.1762043  43.3707867
   5.3829581  23.8387829  43.6281736   5.0989018  24.5283142  43.3870502
   1.9719728  21.7510011  35.6392812   1.3010918  22.2939713  35.5105877
   2.6659478  22.2204866  35.3974506   1.9748595  21.9008282  35.5848339
   2.1347855  18.2065894  38.5483185   2.4875465  17.7795617  39.2228984
   1.2762657  18.1216738  38.6784261   2.0597300  18.1310635  38.6678195
   3.5671915  13.3284306  39.4767497   3.0602780  12.6213446  39.4088675
   4.3639349  12.9977495  39.6068574   3.6099155  13.1757458  39.4866492
   5.7692055  27.8449233  32.4608362   6.1525661  28.5940589  32.6906459
   4.9736169  28.0915052  32.2020351   5.7085838  27.9918927  32.4565935
   2.2092638  18.8250856  35.6244319   2.2086864  18.6699512  36.4828596
   2.0048818  19.6713843  35.5685705   2.1792415  18.9271476  35.7432259
   1.9985308  26.2552045  41.9657655   2.4240380  25.7326467  41.4128080
   1.6342228  26.8532882  41.4446278   2.0071911  26.2662272  41.8066665
   0.6740892  31.5787623  50.4750885   0.7837858  30.7896183  50.8307632
   1.0031789  31.4893559  49.6725223   0.7393298  31.4493476  50.4093275
   2.0331719  17.8289598  42.4437697   1.4494707  18.3298804  42.0315265
   2.3536013  17.3219154  41.8102021   1.9944894  17.8281433  42.2896205
  15.2609831  38.4220168  34.5538723  15.2303835  39.2764805  34.7256992
  15.8591180  38.1215460  35.1124866  15.3446989  38.5036664  34.6613525
   8.4609516  37.5095819  39.3091653   7.6047411  37.6704317  39.3600770
   8.5077169  36.6387883  39.3296714   8.3408627  37.4046621  39.3197719
   2.8450655  47.0458537  35.0728885   2.0933555  46.6674075  34.8444930
   3.2936667  47.0776970  34.3247695   2.8000322  46.9944144  34.9286387
   8.2975615  47.4683906  30.5014432   7.9626984  48.1460828  30.0658654
   8.8102486  47.0789217  29.9131303   8.3241196  47.5108484  30.3501223
   7.8379907  49.4198175  36.4425543   8.2219286  49.9885074  35.9030319
   7.7739048  48.6947685  35.9631359   7.8853334  49.3973638  36.2919406
  11.3061337  39.5687863  41.9523305  11.8517297  40.2472949  42.0117274
  11.2478213  39.4275324  41.0924886  11.3777251  39.6479864  41.8335365
   4.4235412  47.0576929  37.3391657   4.5245775  46.2477283  37.6488785
   3.8277157  46.9633875  36.7091336   4.3507950  46.9241957  37.2917896
  13.0826405  40.9972470  32.8257032  12.9665931  41.7480156  33.2549171
  13.8782292  40.7396423  33.0753120  13.1830995  41.0707317  32.9261124
   4.2636151  51.9754518  38.7406513   4.9073607  52.4167682  39.1302672
   4.5892407  51.1707944  38.6536772   4.4067980  51.9219713  38.7851990
   4.9656731  44.9866493  34.1126375   5.2872572  45.5271700  33.5087683
   5.6128827  44.4163264  34.2448665   5.1082786  44.9825668  34.0433410
   7.0158439  36.9882488  34.1960762   7.7138604  37.1670615  34.6882225
   7.3310772  36.4652827  33.5731151   7.1653776  36.9376260  34.1762772
   7.2046374  43.3752933  34.1840553   7.6440010  42.7670033  34.6295326
   7.0551037  42.9960306  33.4126018   7.2467840  43.2291404  34.1359720
   4.6718017  41.9696945  41.3859379   5.3167020  41.4769388  41.0670327
   4.9119794  42.1121731  42.2125457   4.8028602  41.9174387  41.4608912
   7.2104109  44.8151851  41.0366271   7.4927352  44.0203256  40.8153027
   7.9390269  45.2932438  41.0571332   7.3593672  44.7686447  41.0069286
   5.1885303  32.3574884  38.2782036   4.8588633  32.8086028  37.6085735
   4.5130304  32.2791048  38.8255043   5.0395739  32.4126020  38.2605259
  10.8055711  41.7280114  31.1371322  10.7207006  42.5841081  31.2820891
  11.2940094  41.4524438  31.8053481  10.8644608  41.8137436  31.2573404
  12.3961710  28.3460407  36.5231647  12.0815151  29.0363886  36.9552069
  11.8788652  28.2905190  35.8217148  12.2726181  28.4395296  36.4828596
  11.7374144  38.3464908  32.6369057  11.2085616  38.5624542  33.2966364
  12.2599164  39.0401047  32.5570027  11.7362597  38.4808045  32.7224657
  17.1922197  43.9211213  38.0102102  16.3619900  44.1321856  38.1735518
  17.1431449  43.0948267  37.7344385  17.0628932  43.8300819  37.9939467
   3.6273752  42.2428125  31.4376525   3.0430967  42.7478156  31.8442389
   3.2243847  42.0170512  30.6973117   3.4813056  42.2836373  31.3881551
   5.2531935  46.7515067  40.8450011   4.7358876  46.3922482  40.2411319
   5.9506326  46.2277241  40.8556078   5.2797516  46.6212755  40.7580270
   8.9095527  47.2009881  46.8066184   8.9978872  47.0136021  47.6544395
   9.3385239  46.5547311  46.4071031   8.9857629  47.0772889  46.8737936
   6.4765986  46.4841041  45.7883847   5.9136821  46.0713651  46.3123508
   7.2387010  46.4093947  46.2076990   6.5060435  46.4118441  45.9276847
   8.0850966  38.4893777  29.9145446   8.3246970  38.6971761  29.1020789
   8.4066807  37.6851286  30.0234391   8.1688124  38.4007878  29.8105999
   3.3941257  30.4187173  33.7604984   4.1487225  30.7865490  33.5222034
   3.2168791  30.7926727  34.5284164   3.4795735  30.5285361  33.8389872
   2.0361978  48.4739062  38.3920477   2.7382557  47.9591051  38.4493233
   1.9559461  48.8013213  39.1967352   2.1285738  48.4453288  38.5193269
  16.6876155  36.5681613  41.8052523  15.8504576  36.6383800  42.0400118
  16.6564386  36.5706108  40.9326826  16.5594438  36.5791840  41.7112071
   3.0840884  38.7114649  47.5200892   3.2561388  38.6020544  48.3686173
   3.6210242  39.3569054  47.2832084   3.1885888  38.7906651  47.6105989
   1.7498321  32.8257492  30.4583097   1.5673895  33.0429373  29.6324090
   2.6123934  32.9396505  30.5141711   1.8502911  32.8747390  30.3437584
   1.3612753  44.6645414  37.9006085   2.2001653  44.8968347  37.9479846
   1.3924522  43.7949726  37.8313120   1.4894471  44.5702361  37.8970729
   1.9865456  45.0846289  42.2019390   2.5263681  44.9417420  42.8722763
   1.3035403  45.4843040  42.5703417   1.9657610  45.1225960  42.3553812
   7.4298040  29.8283903  33.4932121   8.1584201  29.6499858  33.0470277
   7.5192933  30.6701982  33.7039299   7.5504703  29.9267781  33.4585638
  11.4106341  40.7637290  37.3964415  12.1663856  41.1968804  37.4353323
  11.5168666  40.1142060  37.9699051  11.5376512  40.7314774  37.4862440
  14.4486512  44.5910567  38.1466818  14.0121744  44.5947310  38.9025789
  14.1149428  45.2716066  37.7146395  14.3349132  44.6923023  38.1947650
   9.0215586  46.6318900  49.4709968   9.8056003  46.7449748  49.8365710
   8.8212180  45.8060037  49.6668654   9.1081611  46.5265619  49.5544354
  14.3683995  31.6324395  40.3896246  15.0109904  31.7022500  40.9758161
  14.6207016  30.9653618  39.8875788  14.5006127  31.5450744  40.4023525
   1.2960348  36.1031665  28.9705570   0.5818525  35.8169844  29.3828002
   1.7804317  36.4428290  29.6111957   1.2619712  36.1113314  29.1261205
   2.1401208  34.8424958  45.0020820   1.4473004  34.3721938  45.2481551
   2.7561535  34.6163263  45.5762527   2.1285738  34.7392090  45.1229972
   9.1785979  48.5429002  43.1176424   8.3801225  48.3028502  43.3750292
   9.6271991  48.5943395  43.8643471   9.1260590  48.5151393  43.2661348
   8.4707666  44.6061618  29.3467378   8.8858815  44.2746642  28.6551874
   7.6399596  44.3730521  29.2187515   8.4095675  44.5232874  29.2258226
  13.8695689  42.3256869  36.7798444  14.1051278  42.4702068  35.9525294
  14.0185253  43.0899277  37.1729957  13.9261492  42.4595924  36.7162048
   0.8641767  38.8090362  46.1447665   1.5881739  38.7943393  46.6312559
   0.9657903  39.5185718  45.6469633   0.9859976  38.9115066  46.1426452
  15.6986146  41.1658535  34.6168047  16.0294363  41.6986176  34.0108142
  16.2719234  41.2197423  35.2729998  15.8319825  41.2528104  34.6245829
   8.2386716  42.2889447  51.0096612   7.4459697  42.6032959  51.1949231
   8.3535643  42.5040915  50.1717396   8.1382127  42.3673284  50.9134947
  10.9118035  39.0123438  35.2991628  11.0064889  39.7512732  35.7531253
  10.2876879  38.5840914  35.7326192  10.8327065  39.0584759  35.4299775
   9.1670509  42.1909651  45.9481908   9.7409371  41.5536895  46.1030472
   9.0885313  42.1913733  45.0791566   9.2403744  42.0974762  45.8428319
  11.1641056  40.8572178  28.5328580  11.0821219  40.9274365  29.3983567
  11.8020777  41.4201922  28.3412320  11.2460894  40.9511149  28.6318529
   4.5234227  40.6232916  38.0003106   4.2653472  39.7904651  37.9734405
   4.5782710  40.8490529  37.1595606   4.4934005  40.5330687  37.8723243
   9.6035278  32.7261367  38.1007199   8.8991604  32.2370552  38.2591118
   9.6520252  32.7383841  37.2295643   9.5065329  32.6551015  37.9946538
   3.4968940  38.1770678  38.4868001   2.9218531  38.3362847  39.1231962
   3.1204616  37.5406087  38.0236451   3.3571752  38.1068491  38.5122559
   7.1642228  36.6494028  43.3460379   6.7756661  36.2248245  42.6912570
   6.4996927  36.8976177  43.8537406   7.0089156  36.6232749  43.3248247
  16.8065497  36.4069032  36.1208209  16.5502062  35.5948974  35.9306092
  17.6494811  36.4146599  35.8938396  16.8931523  36.2881030  36.0593026
  10.9868590  30.3468656  40.8584363  11.3679102  29.6646827  41.2452238
  10.1831874  30.0578258  40.6760028  10.9245052  30.2035705  40.8888419
   8.2681167  40.8792632  31.5437186   9.0821805  41.1707525  31.4319957
   8.2040308  40.2252495  30.9695479   8.3783906  40.8257827  31.4426023
  14.4890657  43.5618628  45.9566762  14.2529294  42.7306693  45.8378822
  15.1333886  43.5104236  46.5421606  14.5485327  43.4316316  46.0252655
   4.1389075  44.3514150  36.6709498   4.7763022  44.1125897  37.2161292
   4.5644146  44.5551309  35.9362659   4.2965241  44.3465160  36.6426655
   4.7791890  39.5716439  31.0084388   5.1637043  39.3524146  31.7600933
   4.5303510  40.3979385  31.1385464   4.7993962  39.6614586  31.1385464
   4.9460430  32.8522855  50.7246972   4.6313871  33.6222417  50.4616534
   4.6250363  32.2893111  50.1399199   4.8519349  32.8833123  50.5988322
  15.5127077  43.3463077  42.0195056  15.2072894  44.0791134  42.3808372
  14.7933293  42.9401007  41.7387842  15.3614420  43.3944810  42.0308193
   6.5210547  44.8286572  38.3503284   6.5949555  44.6661744  39.2045134
   7.3380053  45.0176762  38.1063766   6.6526905  44.8323315  38.4401310
   2.4992327  31.2413376  36.3393168   1.6314753  31.3135976  36.4050777
   2.7867532  32.0435455  36.5281143   2.4132075  31.3707523  36.3767935
  11.6225216  31.3891235  44.6704490  12.3678808  31.2001046  44.2567915
  11.2062521  31.9149473  44.1118346  11.6710190  31.4393381  44.5269063
   5.0615132  47.7921315  33.0816758   5.3513431  47.4010297  32.3575984
   5.7918613  47.9738020  33.5222033   5.2122017  47.7615129  33.0399565
   5.6509878  42.5939061  44.1669888   5.1521571  43.3054829  44.2454777
   6.4610102  42.9139728  44.1288051   5.6965984  42.7465910  44.1726457
   3.0021048  49.7688698  36.1476908   2.7821343  49.4786052  36.9403575
   2.7815570  49.1103653  35.6194820   2.9368642  49.6288406  36.1865816
   1.9137995  41.8562014  38.4132609   1.6251244  41.2299485  38.9478336
   2.7821343  41.7982302  38.4797290   1.9998247  41.7549558  38.5023564
  12.7015893  36.9996798  38.7314591  12.3580659  36.2787133  39.0821841
  12.8008936  36.7910649  37.8892949  12.6657936  36.8621001  38.6586271
   5.1689004  51.1418088  34.9307600   5.8213062  50.6094530  35.1598626
   4.4714613  50.7886740  35.3175474   5.1619722  51.0107611  35.0219768
   2.1170269  43.4957265  34.3374974   2.8716237  43.8770304  34.5510437
   1.5240881  43.9468409  34.7921671   2.1406982  43.6186093  34.4357853
  13.1628922  43.4622502  34.2738579  13.7286955  44.1215712  34.1897122
  12.5156826  43.8072200  34.7454981  13.1507679  43.6104443  34.3311336
   4.5776936  35.4520106  49.4632187   3.7676711  35.7577885  49.3522029
   5.0551622  36.1725688  49.5784771   4.5280414  35.6034707  49.4639258
   3.4368495  44.6665827  39.7115090   2.9149249  44.8066118  40.3966954
   3.8242516  43.9076491  39.9017207   3.4172196  44.5751350  39.8416166
   9.6335500  46.4061286  33.6975658   9.3922176  45.6729147  33.2902723
   9.8136833  46.9548143  33.0441992   9.6243124  46.3783677  33.5405881
   4.8634821  41.6969846  35.1096581   4.6677603  42.3044580  34.5156884
   5.0869166  41.0037790  34.6288255   4.8669462  41.6847371  34.9512661
   3.2613351  38.5824584  35.2277449   3.9836003  38.7465742  34.7681255
   2.7821344  39.3034248  35.1216789   3.2977082  38.7122813  35.1443063
  11.2206858  34.9188382  40.6074134  10.3817959  34.9449661  40.3712397
  11.2911226  35.5659118  41.1879481  11.1075252  35.0184508  40.6583251
   0.9120968  40.9882656  44.3331589   1.4242065  41.2666909  43.6840349
   0.6257310  41.7271950  44.6994402   0.9455831  41.1385010  44.2921467
   9.6676137  31.8173759  35.3401750  10.3702490  31.6181508  34.8621708
   9.4020325  31.0449702  35.6470593   9.7322769  31.6736725  35.3147191
  15.0964382  40.1256369  37.8935376  15.0098357  40.2811795  38.7470155
  14.6414862  40.7694445  37.5194781  15.0167639  40.2432124  37.9642483
   4.4304693  33.0809045  44.3932631   4.2387890  33.0964179  45.2432054
   5.2803289  33.2772719  44.3699285   4.5280415  33.1123396  44.5155925
   8.9690198  37.4467116  36.5160935   8.7224913  37.3662867  37.3497724
   9.2975321  36.6620584  36.3223463   8.9811442  37.3193382  36.6108458
  12.8638247  44.1550476  40.3047716  12.7252606  44.8531521  40.8096459
  12.0838245  43.9999132  39.9483898  12.7281474  44.2350642  40.3273991
  11.2016332  40.4546851  46.5570098  11.1964371  39.5826667  46.5612525
  11.9077326  40.6535020  46.0839554  11.3061336  40.3550725  46.4877134
   4.9287226  40.1823835  45.9283918   5.0730601  40.7625043  45.2927028
   5.2762874  40.5600132  46.6333773   5.0014687  40.3244539  45.9382913
   7.1007143  39.3814003  43.7109050   6.3530457  39.5745018  43.3057328
   7.2548668  38.5559223  43.4733171   7.0129571  39.2879115  43.6154456
   4.0014981  48.3726607  42.7944945   4.1504544  47.8129523  42.1418350
   4.7814983  48.4518608  43.1777464   4.1389074  48.3012172  42.7541894
  14.3591620  43.5128729  31.0664216  13.9798429  42.7265867  31.0593505
  13.6957865  44.0615586  30.9235860  14.2050095  43.4773553  31.0445013
   6.5268281  48.5441250  44.0729436   6.4511952  47.8750060  44.6280224
   6.4558140  49.2459038  44.5870102   6.5048888  48.5486157  44.2306284
   7.3408920  33.2764554  44.6004454   7.7981534  34.0088528  44.7277246
   7.4165249  32.8531019  45.3591709   7.4199890  33.3221792  44.7305530
  11.8136246  26.4554429  38.4698297  11.9319814  26.9130892  37.7365599
  11.6398422  25.6499690  38.1834514  11.8055417  26.4048201  38.3199230
   7.1838528  47.0642248  34.9053042   7.9488419  46.7951892  34.5835706
   7.0816618  46.5792259  35.6223105   7.2820024  46.9531813  34.9632870
   5.2191298  35.2666658  41.4446278   4.4287373  35.0858118  41.7663613
   5.6151921  34.4893610  41.4276572   5.1608174  35.1254119  41.4898826
   9.7057189  44.0954432  26.8852991  10.4730174  44.1554557  26.4758843
   9.2588498  43.5234874  26.4009310   9.7530616  44.0191008  26.7530702
  10.6034984  42.9009088  39.1705724   9.9279986  42.6694320  39.6719111
  10.6127360  42.2930271  38.5447829  10.5053489  42.7768013  39.1521876
   7.7329128  37.7426917  45.9269777   7.6688269  38.6036873  45.7989913
   7.8726316  37.4258910  45.1265328   7.7444598  37.8227084  45.7897989
  12.6051719  45.7574220  31.4015902  12.6871556  46.5641207  31.0777352
  13.0901461  45.7770180  32.1256675  12.6888877  45.8794883  31.4602800
   6.4148222  40.4359056  40.0685979   5.9910471  40.6363555  39.3324998
   6.2393077  39.5887904  40.1810279   6.3259103  40.3407838  39.9759670
   5.9159916  51.9509569  42.5307437   6.4055846  51.2520359  42.3483101
   5.3444148  51.6533439  43.1183494   5.9044445  51.8035793  42.5908478
   1.7030667  40.9311108  35.5013952   1.8595286  40.8657911  36.3569944
   2.0431260  41.7059660  35.2892632   1.7763902  41.0360306  35.5968546
   8.2409812  40.3068991  34.3707315   8.7825357  39.8039372  34.8345936
   8.5556371  40.2534186  33.5596800   8.3674209  40.2248412  34.3191127
  12.1126919  44.5171639  51.4834227  12.9261784  44.2456788  51.6439360
  11.9521885  44.2179179  50.6794423  12.2096868  44.4326565  51.3879633
   6.4096261  45.6986343  31.6547343   6.4789082  44.8400881  31.7940344
   7.1884717  45.9158224  31.3266368   6.5349111  45.6039207  31.6264501
   9.3899081  35.2005296  44.4229616   9.6041051  34.5616210  43.8692970
   8.7732980  35.6451120  43.9937477   9.3304410  35.1715440  44.2780047
  10.8003749  48.1224044  35.8683837  10.4083541  47.8190759  35.1506703
  10.9556821  48.9593134  35.6788790  10.7657339  48.2007881  35.7340334
  11.5538169  36.8094361  45.3612923  10.7414851  36.5020251  45.4426096
  12.0128104  36.3293361  45.9255635  11.5018554  36.6930853  45.4567517
  10.9643424  44.6874033  35.8089867  10.6058078  44.8588676  36.5853900
  10.4782135  45.1487239  35.2517866  10.8402121  44.7813004  35.8415136
   8.7813810  28.3105232  39.4116959   7.9107368  28.2843953  39.3650268
   9.0354151  28.1382424  38.5942804   8.6907370  28.2815375  39.2837095
   5.7531789  40.3673198  28.3490102   6.0424314  41.1438081  28.6233676
   5.8403588  39.8561930  29.0504601   5.8086045  40.4065117  28.4932599
   8.6491677  38.2154432  50.1441625   9.1191308  38.8396549  50.5309499
   8.6953557  37.5471408  50.7034840   8.7259552  38.2089113  50.2841697
   5.8062950  30.3211460  40.8690429   5.2901439  29.6291651  40.9942008
   5.2456879  30.9882237  40.8153028   5.6469463  30.3174718  40.8796495
   7.8755184  30.8604420  42.6983281   7.4886937  30.8853451  43.4796811
   7.3888121  30.2946099  42.2457798   7.7467693  30.7800171  42.7471185
  12.1248163  45.5777929  46.7557068  12.7627884  45.0838125  46.4219524
  11.4822255  45.5055329  46.1709295  12.1242390  45.4936937  46.6199423
  13.8505163  37.4267075  41.3222984  13.4232771  37.3393424  40.5671083
  13.2131216  37.5344850  41.9077828  13.6934770  37.4299735  41.2968425
   7.5412325  27.7471405  44.9893541   8.1705443  28.2831706  44.7114612
   7.7098188  27.6548764  45.8407107   7.6590120  27.8132768  45.0742069
   7.3426240  32.5342600  47.2619953   8.1699670  32.2627749  47.3178567
   7.3634086  33.3303442  47.6183771   7.4679090  32.6122354  47.3235136
  12.1802420  46.2697737  43.3962425  12.9694798  45.9186802  43.5164506
  12.3546018  47.0834126  43.1339059  12.3222701  46.3383594  43.3750293
   1.9195730  39.6806463  40.4490214   1.0783737  39.5810337  40.6569107
   2.1285738  40.4501943  40.8004534   1.8260423  39.7798506  40.5317529
  11.0336244  30.2807294  37.9578843  11.2385837  30.2129602  38.8035840
  10.7062668  31.0866115  37.8900021  11.0151492  30.3893234  38.0738498
   5.7312395  37.6087862  39.6987811   5.4275532  37.0543850  40.2998219
   5.0291816  37.7880072  39.2115845   5.5828605  37.5532645  39.7157517
   4.7878492  34.9188382  34.2632513   5.0638226  34.2007294  33.8510081
   5.3877161  35.5173302  34.0553619   4.9171757  34.9008753  34.1713274
   3.7930746  44.8237583  44.4059909   3.6851101  44.8339645  45.2721967
   4.0026527  45.6492363  44.2164863   3.8080857  44.9478658  44.5064001
  14.2869932  30.8339058  37.4381609  13.6744245  31.3209460  37.8235340
  14.3834106  30.1582549  37.9819260  14.2107829  30.8057367  37.5760467
   8.2889013  32.5901899  32.5379108   8.7432759  32.7612460  33.2626953
   8.7629058  31.9770010  32.1376884   8.4257333  32.5252785  32.5852870
   1.8104538  42.0750225  41.8681847   1.2192471  42.7159723  41.8384862
   2.5725562  42.4987843  41.8413146   1.8352799  42.2326064  41.8596994
   2.2065161  33.2352223  42.5349864   2.6666642  33.3091152  43.2724988
   2.2521268  34.0333477  42.1849685   2.2815716  33.3646370  42.5922621
   3.8548511  33.9018918  47.1021891   3.4634076  33.2552265  47.5377669
   4.0234373  34.4930353  47.7216147   3.8219421  33.8933186  47.2584597
  17.9294960  41.9055995  42.8659125  17.9878083  42.3542644  43.6119101
  17.2961427  42.3154808  42.4289205  17.8446255  42.0329730  42.9111673
  11.5694054  47.5259537  39.3013871  11.3713743  48.0150351  38.6070082
  10.9481765  47.7300778  39.8798004  11.4481619  47.6276075  39.2837094
   5.6302033  39.2944434  33.6424115   6.3744078  39.6818710  33.8807065
   5.7762729  38.4501859  33.8064603   5.7612618  39.2274906  33.7018085
   7.5481608  31.0894693  38.6755977   6.7017653  31.2617500  38.5497326
   7.5452740  30.2844036  39.0121805   7.4228758  30.9955722  38.7067104
   8.6179908  34.8669907  39.5418035   8.1439863  34.3411669  40.0523345
   8.9898044  34.3199380  38.9732896   8.6029797  34.7085904  39.5333182
  14.8816639  39.9272283  40.9524815  14.6414862  39.0878698  40.9567242
  15.3608646  40.0072449  41.6765589  14.9168823  39.8153682  41.0599617
  10.5463408  35.7606462  32.6043788  10.0186427  35.8435206  31.9149497
  11.0059116  36.5024333  32.6008433  10.5365259  35.8827124  32.5018484
  16.8821826  36.7073740  38.9054074  16.6431596  36.6669574  38.0674859
  17.0455727  37.5544892  39.0319795  16.8712129  36.8265825  38.8007556
  13.4867856  41.0923689  44.8359119  14.2102055  40.6396216  44.6570139
  13.2217818  41.3728355  44.0531447  13.5549129  41.0674658  44.6937835
   2.3554725  35.6883863  41.5711999   1.7307795  35.7002255  40.9637951
   2.0200319  36.1644038  42.2203239   2.2140216  35.7602380  41.5768567
   2.5396473  34.0308981  27.6284684   2.1909278  34.6828706  28.0916233
   2.0592919  34.0166094  26.9008555   2.4166717  34.1252035  27.5895775
  10.1000491  44.3310025  31.7353445  10.8234689  44.7968138  31.5918019
   9.6601082  44.3983635  30.9851042  10.1416183  44.4093862  31.6038227
   9.2686646  41.1907567  42.9854134   8.6543639  40.6465618  43.2802770
   9.7853931  40.6771804  42.5059951   9.2542308  41.0343976  42.9578363
   8.5082943  42.2611837  40.7198433   8.0810551  41.6361556  40.2863868
   8.5007887  41.9786759  41.5457440   8.4442084  42.1264618  40.7778261
   1.6245470  37.2977010  43.7886867   1.7838957  36.5420335  44.1938589
   1.4438364  37.8467950  44.4427605   1.6210829  37.2670824  43.9449573
   9.5665773  29.4638246  44.3437657   9.0706334  29.6601920  43.6529223
  10.3234835  29.8630914  44.1726458   9.6052598  29.5515980  44.2157793
   6.8368653  33.1380592  40.9340967   6.8611140  32.6040704  40.2453747
   7.0880126  32.6297901  41.5966558   6.8778571  32.9841496  40.9305612
   3.1169975  31.8651410  40.3146711   3.1568346  32.3660617  41.0281419
   2.2919639  31.9561804  40.0452634   3.0009501  31.9533227  40.3797250
   5.2999588  41.4312150  48.4167006   4.4495218  41.5683864  48.5524651
   5.4627715  40.6975928  48.8614708   5.1983451  41.3426251  48.5022605
   4.5384338  38.3811920  42.6120610   3.7076268  38.5485738  42.4055858
   4.4835855  38.0047871  43.3969496   4.4073753  38.3501651  42.6969138
   2.3468121  31.8720813  48.2477021   2.9720825  31.3282946  48.5206453
   1.8918601  31.3915731  47.6784811   2.3716382  31.7210294  48.2038615
   2.9120382  36.6567512  33.1410728   3.0523343  37.1539976  33.8439369
   3.4102915  35.9553806  33.2824942   3.0061463  36.6269490  33.2662307
   2.9420604  37.5234623  30.4703305   3.5765684  38.1195048  30.4052767
   3.0246215  37.2238080  31.2849175   3.0477155  37.5675531  30.5806391
  15.9203170  40.0550100  43.3389669  16.5121010  40.6947351  43.3707867
  16.3562165  39.3573137  43.6281736  16.0721601  40.0468450  43.3870502
   4.5199587  33.4548598  30.4448747   4.8415428  32.9751681  29.7908009
   4.7826531  34.2648244  30.2539559   4.6065613  33.5038496  30.3204239
   7.7496560  44.4767472  43.9647563   7.2421651  45.0303319  44.4088193
   7.4523206  44.5375762  43.1466337   7.6301445  44.5673784  43.9096020
   9.9158742  32.8420792  42.8072226  10.3413814  32.3893318  42.1955752
   9.3015735  32.2880863  43.0837013   9.8887388  32.6934768  42.7577251
  10.3604340  48.3930730  31.8951506   9.6433650  48.2191592  31.4298744
  11.0111078  48.1583302  31.3626993  10.3506191  48.3326523  31.7480724
   8.3552965  29.3135892  36.2162803   7.7121283  29.1633538  36.7847941
   8.0152372  29.0678237  35.4511908   8.2098042  29.2548014  36.1865818
  12.9452311  37.2695319  35.6392812  12.2743501  37.8125021  35.5105877
  13.6392062  37.7390174  35.3974506  12.9481179  37.4193590  35.5848339
   6.9939045  49.4092031  40.8704570   6.7704700  48.6510860  41.2388596
   6.5048889  49.4390052  40.1485010   6.8882494  49.3014255  40.8181311
  13.1080439  33.7251202  38.5483185  13.4608049  33.2980925  39.2228984
  12.2495240  33.6402046  38.6784261  13.0329884  33.6495943  38.6678195
   1.8064124  36.3558722  36.6066031   1.0876113  36.7722855  36.8738895
   2.1776486  36.9212961  36.0557669   1.7556056  36.5008003  36.5648838
  11.1063705  36.9886571  42.4968027  11.0861632  36.8069866  43.3502806
  11.1542905  37.8598589  42.4727611  11.1098346  37.0903109  42.6191322
   9.0510035  43.5773763  48.4216504   9.0105889  42.9323440  47.8361659
   9.8633353  43.5210380  48.7341916   9.1653188  43.4732730  48.3813453
   5.6417502  49.6292489  38.3241655   5.2277901  48.9666619  37.9345496
   6.3264876  49.7770348  37.8037349   5.6815874  49.5533147  38.1898152
   9.0082796  48.7882574  39.0765271   8.6099080  48.8984844  38.3086091
   8.3934016  48.9964640  39.6591831   8.8581686  48.8356142  39.0496570
   7.5810698  35.3956722  31.9439411   6.9875538  35.7173718  31.3923978
   7.6185976  34.5497817  31.7360517   7.4985087  35.3181050  31.8322182
  14.5404499  28.8469614  39.4767497  14.0335364  28.1398754  39.4088675
  15.3371933  28.5162803  39.6068574  14.5831738  28.6942765  39.4866492
  10.4568515  35.3536226  35.3741161  10.2282208  35.3768928  34.5319519
  10.7166591  34.5293693  35.4936172  10.4614703  35.2352306  35.2666359
   4.7387743  37.2070699  44.9766261   4.2266646  36.5991882  45.3351293
   4.5667239  37.9227292  45.4440237   4.6377380  37.2233999  45.0982485
   3.5113277  33.8912773  36.6695357   3.9870644  34.2529852  36.0345538
   3.0101877  34.5469240  36.9495499   3.5078636  34.0406961  36.6172098
  16.7424639  43.3634541  32.4608362  17.1258245  44.1125897  32.6906459
  15.9468752  43.6100360  32.2020351  16.6818421  43.5104235  32.4565935
   8.6156814  35.1294944  47.4168517   9.1728244  34.9008754  46.7846982
   8.2917879  35.8900610  47.1403729   8.6503224  35.2078781  47.2825014
   6.3339931  38.2162597  48.3820524   7.0851258  38.5314274  48.6960078
   6.5262507  38.0141768  47.5554446   6.4731345  38.2329979  48.3063920
   5.5539931  36.0353972  30.0368741   5.9338895  36.0533602  29.2519855
   4.8132527  36.4807961  29.9159588   5.5008768  36.1035747  29.9032309
  13.1825221  34.3436164  35.6244319  13.1819448  34.1884820  36.4828596
  12.9781401  35.1899151  35.5685705  13.1524999  34.4456784  35.7432259
  10.9066073  39.0233665  39.2780526  11.4019738  38.3056660  39.2384546
  10.0965849  38.7204463  39.1635013  10.8609966  38.8731312  39.2554252
   6.3524685  42.8731479  31.4277531   5.5436007  42.5498152  31.3810840
   6.8599594  42.1664701  31.3605779   6.3074351  42.7212795  31.4107825
  12.9717892  41.7737353  41.9657655  13.3972964  41.2511775  41.4128080
  12.6074812  42.3718190  41.4446278  12.9804495  41.7847580  41.8066665
   2.6071972  50.0701570  40.7255000   2.9218531  50.8837959  40.7332782
   3.0165385  49.6851789  41.3937160   2.7140070  50.1330273  40.8259092
   9.5596491  45.4871617  38.2958812  10.0307670  46.2011880  38.4648798
   9.8956670  44.8870367  38.8318682   9.6791606  45.5043081  38.3991188
  11.6473476  47.0972931  50.4750885  11.7570442  46.3081491  50.8307632
  11.9764373  47.0078867  49.6725223  11.7125882  46.9678783  50.4093275
   6.4765986  30.2599088  45.2516907   6.6093892  29.4630081  45.5797883
   6.8611139  30.7865491  45.8315183   6.5522315  30.2199004  45.3860410
  10.1970438  45.2789551  45.0586505   9.6491384  44.6547435  44.7906570
  10.6583466  45.4683823  44.3430584  10.1837647  45.2148602  44.9136936
   9.5498342  27.1829414  41.8498000   8.7444305  27.0727144  42.1665839
   9.4205077  27.2841870  40.9927866   9.4118474  27.1813084  41.7706041
  13.0064302  33.3474906  42.4437697  12.4227291  33.8484112  42.0315265
  13.3268596  32.8404462  41.8102021  12.9677477  33.3466741  42.2896205
   5.5459101  32.2615501  32.7196372   6.3674796  32.4313813  32.4778067
   5.0828752  32.4162762  31.9962670   5.5990264  32.3097234  32.5768016
   4.1354433  30.2558263  43.4994801   4.6798846  29.9149390  44.0899143
   4.1891369  31.1143724  43.6416086   4.2243553  30.3313522  43.6076674
   9.7628764  46.2840624  41.5895846  10.5827138  46.1403590  41.8512141
   9.4822842  46.9086823  42.1312284   9.8425507  46.3550976  41.7083786
  19.4342099  53.0281127  39.3091653  18.5779995  53.1889625  39.3600770
  19.4809753  52.1573191  39.3296714  19.3141211  52.9231929  39.3197719
  13.8183239  62.5643845  35.0728885  13.0666139  62.1859383  34.8444930
  14.2669251  62.5962278  34.3247695  13.7732906  62.5129452  34.9286387
  22.7435816  59.2967652  48.9152109  23.4502583  58.8019683  49.0439044
  22.9323751  59.7376734  48.1854767  22.8763721  59.2886003  48.8261155
  19.2708199  62.9869214  30.5014432  18.9359567  63.6646136  30.0658654
  19.7835069  62.5974525  29.9131303  19.2973780  63.0293792  30.3501223
  18.8112490  64.9383483  36.4425543  19.1951870  65.5070381  35.9030319
  18.7471631  64.2132993  35.9631359  18.8585917  64.9158946  36.2919406
  22.2793920  55.0873171  41.9523305  22.8249880  55.7658257  42.0117274
  22.2210797  54.9460632  41.0924886  22.3509835  55.1665172  41.8335365
  15.3967995  62.5762237  37.3391657  15.4978358  61.7662591  37.6488785
  14.8009740  62.4819183  36.7091336  15.3240534  62.4427265  37.2917896
  24.0558989  56.5157778  32.8257032  23.9398515  57.2665464  33.2549171
  24.8514876  56.2581731  33.0753120  24.1563578  56.5892625  32.9261124
  15.2368735  67.4939826  38.7406513  15.8806190  67.9352990  39.1302672
  15.5624990  66.6893252  38.6536772  15.3800563  67.4405021  38.7851990
   8.5933039  58.5982523  36.9643991   8.3583224  57.7650176  36.8576260
   8.7318680  58.8787189  36.1505192   8.5788702  58.5166027  36.8286346
  10.8923127  50.7668254  39.8628298  10.2728159  50.1760901  39.6938313
  10.7906991  51.3579689  39.2292622  10.7860802  50.7672336  39.7433288
  15.9389315  60.5051801  34.1126375  16.2605156  61.0457008  33.5087683
  16.5861411  59.9348572  34.2448665  16.0815370  60.5010976  34.0433410
  17.9891023  52.5067796  34.1960762  18.6871187  52.6855923  34.6882225
  18.3043355  51.9838135  33.5731151  18.1386360  52.4561568  34.1762772
  10.6192260  54.3120536  42.1071867  10.4950957  54.8982981  42.7421686
  11.2710544  53.8180731  42.4084142  10.6965909  54.3259340  42.2457797
  18.1778958  58.8938241  34.1840553  18.6172593  58.2855341  34.6295326
  18.0283621  58.5145614  33.4126018  18.2200424  58.7476712  34.1359720
  15.6450601  57.4882253  41.3859379  16.2899603  56.9954696  41.0670327
  15.8852378  57.6307039  42.2125457  15.7761186  57.4359695  41.4608912
  18.1836692  60.3337158  41.0366271  18.4659935  59.5388564  40.8153027
  18.9122853  60.8117746  41.0571332  18.3326256  60.2871755  41.0069286
  16.1617886  47.8760192  38.2782036  15.8321216  48.3271336  37.6085735
  15.4862888  47.7976356  38.8255043  16.0128322  47.9311328  38.2605259
  21.7788295  57.2465422  31.1371322  21.6939590  58.1026389  31.2820891
  22.2672678  56.9709746  31.8053481  21.8377192  57.3322743  31.2573404
  22.7106728  53.8650216  32.6369057  22.1818199  54.0809850  33.2966364
  23.2331748  54.5586355  32.5570027  22.7095181  53.9993353  32.7224657
  14.6006336  57.7613433  31.4376525  14.0163551  58.2663464  31.8442389
  14.1976431  57.5355820  30.6973117  14.4545639  57.8021681  31.3881551
  10.1550364  63.4768194  38.2400197   9.6717942  64.2018684  38.2159781
  10.9673682  63.7744324  38.3510355  10.2041112  63.6270548  38.2527476
  16.2264518  62.2700375  40.8450011  15.7091460  61.9107790  40.2411319
  16.9238909  61.7462549  40.8556078  16.2530099  62.1398063  40.7580270
  19.8828110  62.7195189  46.8066184  19.9711456  62.5321329  47.6544395
  20.3117823  62.0732618  46.4071031  19.9590213  62.5958197  46.8737936
  17.4498570  62.0026349  45.7883847  16.8869405  61.5898959  46.3123508
  18.2119593  61.9279255  46.2076990  17.4793019  61.9303749  45.9276847
  19.0583550  54.0079085  29.9145446  19.2979554  54.2157069  29.1020789
  19.3799391  53.2036594  30.0234391  19.1420708  53.9193186  29.8105999
  14.3673840  45.9372481  33.7604984  15.1219808  46.3050798  33.5222034
  14.1901375  46.3112035  34.5284164  14.4528319  46.0470669  33.8389872
  13.0094561  63.9924370  38.3920477  13.7115141  63.4776359  38.4493233
  12.9292044  64.3198521  39.1967352  13.1018322  63.9638596  38.5193269
  27.6608739  52.0866921  41.8052523  26.8237160  52.1569108  42.0400118
  27.6296970  52.0891416  40.9326826  27.5327021  52.0977148  41.7112071
  14.0573468  54.2299957  47.5200892  14.2293972  54.1205852  48.3686173
  14.5942825  54.8754362  47.2832084  14.1618472  54.3091959  47.6105989
  12.7230905  48.3442800  30.4583097  12.5406478  48.5614681  29.6324090
  13.5856518  48.4581813  30.5141711  12.8235494  48.3932698  30.3437584
  12.3345337  60.1830722  37.9006085  13.1734236  60.4153655  37.9479846
  12.3657106  59.3135033  37.8313120  12.4627054  60.0887668  37.8970729
  12.9598040  60.6031597  42.2019390  13.4996265  60.4602728  42.8722763
  12.2767986  61.0028348  42.5703417  12.9390194  60.6411268  42.3553812
  18.4030624  45.3469210  33.4932121  19.1316784  45.1685165  33.0470277
  18.4925517  46.1887290  33.7039299  18.5237286  45.4453089  33.4585638
  22.3838925  56.2822598  37.3964415  23.1396440  56.7154112  37.4353323
  22.4901249  55.6327368  37.9699051  22.5109095  56.2500082  37.4862440
  25.4219096  60.1095875  38.1466818  24.9854328  60.1132618  38.9025789
  25.0882011  60.7901374  37.7146395  25.3081716  60.2108331  38.1947650
  19.9948169  62.1504208  49.4709968  20.7788586  62.2635056  49.8365710
  19.7944764  61.3245345  49.6668654  20.0814195  62.0450927  49.5544354
   8.3635185  56.8231888  42.3553812   8.0973600  56.0071005  42.5144802
   8.3773749  56.8685044  41.4849327   8.3259907  56.7088793  42.2507294
  12.2692932  51.6216972  28.9705570  11.5551109  51.3355152  29.3828002
  12.7536901  51.9613598  29.6111957  12.2352295  51.6298622  29.1261205
  13.1133791  50.3610266  45.0020820  12.4205588  49.8907246  45.2481551
  13.7294119  50.1348571  45.5762527  13.1018321  50.2577398  45.1229972
  20.1518563  64.0614310  43.1176424  19.3533809  63.8213810  43.3750292
  20.6004574  64.1128703  43.8643471  20.0993174  64.0336701  43.2661348
  19.4440250  60.1246926  29.3467378  19.8591398  59.7931950  28.6551874
  18.6132179  59.8915829  29.2187515  19.3828259  60.0418182  29.2258226
   8.7728599  57.6090667  39.6365556   8.5904172  57.5837553  38.7837848
   9.5078267  58.0789605  39.6754465   8.8542662  57.6752030  39.5163475
  11.8374350  54.3275670  46.1447665  12.5614323  54.3128701  46.6312559
  11.9390487  55.0371026  45.6469633  11.9592559  54.4300373  46.1426452
  19.2119300  57.8074755  51.0096612  18.4192280  58.1218267  51.1949231
  19.3268227  58.0226223  50.1717396  19.1114710  57.8858592  50.9134947
  21.8850619  54.5308746  35.2991628  21.9797473  55.2698040  35.7531253
  21.2609462  54.1026222  35.7326192  21.8059649  54.5770067  35.4299775
  20.1403092  57.7094959  45.9481908  20.7141954  57.0722203  46.1030472
  20.0617896  57.7099041  45.0791566  20.2136327  57.6160070  45.8428319
   8.7399509  54.4884168  39.7864623   9.3173012  54.3520619  40.4256868
   8.0413571  54.0319952  40.0410207   8.7220530  54.4006434  39.9186912
  22.1373640  56.3757486  28.5328580  22.0553802  56.4459673  29.3983567
  22.7753360  56.9387230  28.3412320  22.2193477  56.4696457  28.6318529
  15.4966811  56.1418224  38.0003106  15.2386055  55.3089959  37.9734405
  15.5515294  56.3675837  37.1595606  15.4666589  56.0515995  37.8723243
  20.5767861  48.2446674  38.1007199  19.8724188  47.7555860  38.2591118
  20.6252836  48.2569149  37.2295643  20.4797913  48.1736322  37.9946538
  14.4701523  53.6955986  38.4868001  13.8951114  53.8548155  39.1231962
  14.0937200  53.0591395  38.0236451  14.3304336  53.6253799  38.5122559
  18.1374812  52.1679336  43.3460379  17.7489245  51.7433553  42.6912570
  17.4729510  52.4161485  43.8537406  17.9821740  52.1418057  43.3248247
   4.2158342  53.3396061  36.5012441   4.3018594  52.9627929  37.2825971
   4.8434140  52.9656507  36.0232400   4.3214893  53.2281543  36.5457919
  21.9601173  45.8653964  40.8584363  22.3411685  45.1832135  41.2452238
  21.1564458  45.5763566  40.6760028  21.8977635  45.7221013  40.8888419
  19.2413750  56.3977940  31.5437186  20.0554389  56.6892833  31.4319957
  19.1772891  55.7437802  30.9695479  19.3516489  56.3443135  31.4426023
  25.4623240  59.0803936  45.9566762  25.2261878  58.2492001  45.8378822
  26.1066469  59.0289543  46.5421606  25.5217911  58.9501624  46.0252655
  15.1121658  59.8699458  36.6709498  15.7495605  59.6311205  37.2161292
  15.5376730  60.0736616  35.9362659  15.2697825  59.8650468  36.6426655
   9.8034301  62.1087794  40.5543802   9.8438446  62.3802645  39.7263582
  10.3628825  62.6329702  40.9701590   9.8917647  62.2263549  40.4935690
  15.7524473  55.0901747  31.0084388  16.1369626  54.8709454  31.7600933
  15.5036094  55.9164693  31.1385464  15.7726546  55.1799894  31.1385464
  15.9193014  48.3708163  50.7246972  15.6046455  49.1407725  50.4616534
  15.5982946  47.8078419  50.1399199  15.8251933  48.4018431  50.5988322
  26.4859661  58.8648385  42.0195056  26.1805478  59.5976442  42.3808372
  25.7665877  58.4586314  41.7387842  26.3347003  58.9130118  42.0308193
  17.4943130  60.3471880  38.3503284  17.5682139  60.1847052  39.2045134
  18.3112637  60.5362070  38.1063766  17.6259489  60.3508623  38.4401310
  32.1861453  55.5041386  41.3463400  32.1185953  55.5237345  40.4765987
  32.1717115  56.3471713  41.5719071  32.1740210  55.6315120  41.2515877
  11.2548887  60.6929743  35.3797728  10.4287005  60.9391480  35.2532007
  11.3160878  60.6141824  36.2459786  11.1423054  60.7174692  35.4886672
  13.4724911  46.7598684  36.3393168  12.6047336  46.8321283  36.4050777
  13.7600115  47.5620763  36.5281143  13.3864659  46.8892831  36.3767935
  22.5957800  46.9076543  44.6704490  23.3411392  46.7186354  44.2567915
  22.1795104  47.4334781  44.1118346  22.6442774  46.9578689  44.5269063
  16.0347716  63.3106623  33.0816758  16.3246014  62.9195605  32.3575984
  16.7651197  63.4923328  33.5222033  16.1854600  63.2800437  33.0399565
  16.6242461  58.1124369  44.1669888  16.1254155  58.8240137  44.2454777
  17.4342686  58.4325036  44.1288051  16.6698568  58.2651218  44.1726457
  13.9753632  65.2874006  36.1476908  13.7553927  64.9971360  36.9403575
  13.7548154  64.6288961  35.6194820  13.9101226  65.1473714  36.1865816
  12.8870579  57.3747322  38.4132609  12.5983827  56.7484793  38.9478336
  13.7553927  57.3167610  38.4797290  12.9730831  57.2734866  38.5023564
  23.6748477  52.5182106  38.7314591  23.3313242  51.7972441  39.0821841
  23.7741519  52.3095957  37.8892949  23.6390519  52.3806309  38.6586271
  16.1421587  66.6603396  34.9307600  16.7945645  66.1279838  35.1598626
  15.4447196  66.3072048  35.3175474  16.1352305  66.5292919  35.0219768
  13.0902852  59.0142573  34.3374974  13.8448820  59.3955612  34.5510437
  12.4973465  59.4653717  34.7921671  13.1139566  59.1371401  34.4357853
  24.1361506  58.9807810  34.2738579  24.7019538  59.6401020  34.1897122
  23.4889409  59.3257508  34.7454981  24.1240262  59.1289751  34.3311336
  15.5509519  50.9705414  49.4632187  14.7409295  51.2763193  49.3522029
  16.0284206  51.6910996  49.5784771  15.5012998  51.1220015  49.4639258
  14.4101079  60.1851135  39.7115090  13.8881832  60.3251426  40.3966954
  14.7975099  59.4261799  39.9017207  14.3904780  60.0936658  39.8416166
  11.3992263  50.2356943  33.7810044  11.1117059  49.8658214  33.0441992
  12.0862731  50.7051799  33.5193749  11.4581160  50.2503913  33.6325120
  20.6068084  61.9246594  33.6975658  20.3654760  61.1914454  33.2902723
  20.7869417  62.4733451  33.0441992  20.5975708  61.8968985  33.5405881
  15.8367404  57.2155154  35.1096581  15.6410187  57.8229888  34.5156884
  16.0601750  56.5223098  34.6288255  15.8402045  57.2032679  34.9512661
  14.2345934  54.1009892  35.2277449  14.9568586  54.2651050  34.7681255
  13.7553927  54.8219556  35.1216789  14.2709665  54.2308121  35.1443063
  22.1939442  50.4373690  40.6074134  21.3550543  50.4634969  40.3712397
  22.2643809  51.0844426  41.1879481  22.0807836  50.5369816  40.6583251
  11.8853551  56.5067964  44.3331589  12.3974648  56.7852217  43.6840349
  11.5989894  57.2457258  44.6994402  11.9188414  56.6570318  44.2921467
  20.6408720  47.3359067  35.3401750  21.3435073  47.1366816  34.8621708
  20.3752909  46.5635010  35.6470593  20.7055353  47.1922033  35.3147191
   8.9720457  51.0138156  34.6295325   9.0736594  51.8164317  34.9576301
   9.7676344  50.8125492  34.3318406   9.1048363  51.1024055  34.6330681
  15.4037277  48.5994353  44.3932631  15.2120474  48.6149487  45.2432054
  16.2535872  48.7958027  44.3699285  15.5012998  48.6308704  44.5155925
   9.7884190  51.1285334  42.3716447   9.6469681  50.2769275  42.4960955
  10.0724753  51.1713995  41.5478653   9.8092036  51.0085084  42.2684071
  19.9422782  52.9652424  36.5160935  19.6957496  52.8848175  37.3497724
  20.2707905  52.1805892  36.3223463  19.9544025  52.8378690  36.6108458
  23.8370831  59.6735784  40.3047716  23.6985190  60.3716829  40.8096459
  23.0570829  59.5184440  39.9483898  23.7014058  59.7535950  40.3273991
  22.1748916  55.9732159  46.5570098  22.1696954  55.1011975  46.5612525
  22.8809910  56.1720328  46.0839554  22.2793920  55.8736033  46.4877134
  15.9019809  55.7009143  45.9283918  16.0463185  56.2810351  45.2927028
  16.2495458  56.0785439  46.6333773  15.9747271  55.8429847  45.9382913
  18.0739727  54.8999311  43.7109050  17.3263041  55.0930326  43.3057328
  18.2281252  54.0744531  43.4733171  17.9862154  54.8064423  43.6154456
  14.9747564  63.8911915  42.7944945  15.1237128  63.3314830  42.1418350
  15.7547566  63.9703916  43.1777464  15.1121658  63.8197480  42.7541894
  25.3324204  59.0314037  31.0664216  24.9531012  58.2451175  31.0593505
  24.6690449  59.5800894  30.9235860  25.1782678  58.9958861  31.0445013
  17.5000865  64.0626557  44.0729436  17.4244536  63.3935368  44.6280224
  17.4290724  64.7644346  44.5870102  17.4781472  64.0671465  44.2306284
  18.3141504  48.7949862  44.6004454  18.7714118  49.5273836  44.7277246
  18.3897832  48.3716327  45.3591709  18.3932473  48.8407100  44.7305530
  10.5574495  49.0415682  45.6893897  10.0216684  48.4296040  46.0054665
  10.6192260  49.6163818  46.3427564  10.4870127  49.0362609  45.8329324
  18.1571112  62.5827556  34.9053042  18.9221003  62.3137200  34.5835706
  18.0549202  62.0977567  35.6223105  18.2552607  62.4717121  34.9632870
  16.1923881  50.7851966  41.4446278  15.4019956  50.6043426  41.7663613
  16.5884504  50.0078918  41.4276572  16.1340758  50.6439427  41.4898826
  20.6789772  59.6139740  26.8852991  21.4462757  59.6739865  26.4758843
  20.2321081  59.0420182  26.4009310  20.7263200  59.5376316  26.7530702
  21.5767568  58.4194396  39.1705724  20.9012570  58.1879628  39.6719111
  21.5859944  57.8115579  38.5447829  21.4786072  58.2953321  39.1521876
  18.7061712  53.2612225  45.9269777  18.6420853  54.1222181  45.7989913
  18.8458900  52.9444218  45.1265328  18.7177182  53.3412392  45.7897989
  23.5784302  61.2759528  31.4015902  23.6604140  62.0826515  31.0777352
  24.0634045  61.2955488  32.1256675  23.6621460  61.3980191  31.4602800
  17.3880806  55.9544364  40.0685979  16.9643055  56.1548863  39.3324998
  17.2125661  55.1073212  40.1810279  17.2991686  55.8593146  39.9759670
  16.8892499  67.4694877  42.5307437  17.3788429  66.7705666  42.3483101
  16.3176731  67.1718747  43.1183494  16.8777029  67.3221101  42.5908478
  12.6763251  56.4496416  35.5013952  12.8327870  56.3843218  36.3569944
  13.0163844  57.2244968  35.2892632  12.7496485  56.5545614  35.5968546
  19.2142395  55.8254299  34.3707315  19.7557941  55.3224680  34.8345936
  19.5288954  55.7719494  33.5596800  19.3406792  55.7433720  34.3191127
  23.0859503  60.0356947  51.4834227  23.8994368  59.7642095  51.6439360
  22.9254469  59.7364487  50.6794423  23.1829451  59.9511873  51.3879633
  17.3828845  61.2171651  31.6547343  17.4521665  60.3586189  31.7940344
  18.1617300  61.4343532  31.3266368  17.5081695  61.1224515  31.6264501
  20.3631665  50.7190604  44.4229616  20.5773634  50.0801518  43.8692970
  19.7465564  51.1636428  43.9937477  20.3036994  50.6900747  44.2780047
  21.7736333  63.6409352  35.8683837  21.3816124  63.3376067  35.1506703
  21.9289405  64.4778442  35.6788790  21.7389922  63.7193189  35.7340334
   9.2497512  53.6331366  35.8174719   9.6296477  54.0515911  35.1534987
   8.6752877  54.2144822  36.1243563   9.2208837  53.7809225  35.7651460
  22.5270753  52.3279669  45.3612923  21.7147434  52.0205559  45.4426096
  22.9860687  51.8478669  45.9255635  22.4751137  52.2116161  45.4567517
  21.9376007  60.2059341  35.8089867  21.5790662  60.3773984  36.5853900
  21.4514718  60.6672547  35.2517866  21.8134704  60.2998312  35.8415136
  19.7546393  43.8290539  39.4116959  18.8839951  43.8029261  39.3650268
  20.0086735  43.6567732  38.5942804  19.6639953  43.8000683  39.2837095
  16.7264373  55.8858506  28.3490102  17.0156898  56.6623389  28.6233676
  16.8136172  55.3747238  29.0504601  16.7818629  55.9250425  28.4932599
  19.6224260  53.7339740  50.1441625  20.0923891  54.3581857  50.5309499
  19.6686140  53.0656716  50.7034840  19.6992136  53.7274421  50.2841697
  16.7795534  45.8396768  40.8690429  16.2634022  45.1476959  40.9942008
  16.2189463  46.5067545  40.8153028  16.6202047  45.8360026  40.8796495
  18.8487767  46.3789728  42.6983281  18.4619520  46.4038759  43.4796811
  18.3620705  45.8131407  42.2457798  18.7200276  46.2985479  42.7471185
  23.0980747  61.0963237  46.7557068  23.7360467  60.6023433  46.4219524
  22.4554838  61.0240637  46.1709295  23.0974973  61.0122245  46.6199423
  24.8237747  52.9452383  41.3222984  24.3965355  52.8578731  40.5671083
  24.1863800  53.0530158  41.9077828  24.6667354  52.9485043  41.2968425
  18.5144909  43.2656713  44.9893541  19.1438027  43.8017013  44.7114612
  18.6830772  43.1734072  45.8407107  18.6322704  43.3318076  45.0742069
  18.3158824  48.0527908  47.2619953  19.1432253  47.7813057  47.3178567
  18.3366670  48.8488750  47.6183771  18.4411674  48.1307662  47.3235136
  23.1535003  61.7883045  43.3962425  23.9427381  61.4372110  43.5164506
  23.3278601  62.6019434  43.1339059  23.2955285  61.8568902  43.3750293
  12.8928314  55.1991771  40.4490214  12.0516320  55.0995645  40.6569107
  13.1018322  55.9687251  40.8004534  12.7993006  55.2983814  40.5317529
  10.3703881  52.8211308  38.2774964   9.9760578  52.8954320  37.5025074
   9.8143997  53.2069254  38.8283326  10.2306693  52.8893082  38.2442624
  16.7044979  53.1273170  39.6987811  16.4008116  52.5729158  40.2998219
  16.0024399  53.3065380  39.2115845  16.5561188  53.0717952  39.7157517
  15.7611076  50.4373690  34.2632513  16.0370810  49.7192602  33.8510081
  16.3609745  51.0358610  34.0553619  15.8904340  50.4194061  34.1713274
  14.7663330  60.3422891  44.4059909  14.6583684  60.3524953  45.2721967
  14.9759111  61.1677671  44.2164863  14.7813441  60.4663966  44.5064001
  19.2621596  48.1087207  32.5379108  19.7165343  48.2797768  33.2626953
  19.7361642  47.4955318  32.1376884  19.3989916  48.0438093  32.5852870
  12.7837122  57.5935533  41.8681847  12.1925055  58.2345031  41.8384862
  13.5458145  58.0173150  41.8413146  12.8085382  57.7511372  41.8596994
  13.1797744  48.7537531  42.5349864  13.6399226  48.8276460  43.2724988
  13.2253851  49.5518785  42.1849685  13.2548300  48.8831678  42.5922621
  14.8281094  49.4204226  47.1021891  14.4366659  48.7737573  47.5377669
  14.9966957  50.0115661  47.7216147  14.7952004  49.4118494  47.2584597
  28.9027543  57.4241303  42.8659125  28.9610667  57.8727952  43.6119101
  28.2694011  57.8340116  42.4289205  28.8178838  57.5515038  42.9111673
  22.5426638  63.0444845  39.3013871  22.3446326  63.5335659  38.6070082
  21.9214349  63.2486086  39.8798004  22.4214202  63.1461383  39.2837094
  16.6034616  54.8129742  33.6424115  17.3476661  55.2004018  33.8807065
  16.7495312  53.9687167  33.8064603  16.7345201  54.7460214  33.7018085
  18.5214192  46.6080001  38.6755977  17.6750237  46.7802808  38.5497326
  18.5185324  45.8029344  39.0121805  18.3961342  46.5141029  38.7067104
  19.5912492  50.3855215  39.5418035  19.1172446  49.8596977  40.0523345
  19.9630628  49.8384688  38.9732896  19.5762381  50.2271212  39.5333182
   9.9685522  52.3826722  44.9101580  10.8311135  52.2822431  44.8238910
   9.6377305  51.8021431  44.3487152  10.0470719  52.2818348  44.8146986
  25.8549223  55.4457591  40.9524815  25.6147445  54.6064006  40.9567242
  26.3341230  55.5257757  41.6765589  25.8901406  55.3338990  41.0599617
  21.5195992  51.2791770  32.6043788  20.9919010  51.3620514  31.9149497
  21.9791700  52.0209641  32.6008433  21.5097842  51.4012432  32.5018484
  27.8554410  52.2259048  38.9054074  27.6164180  52.1854882  38.0674859
  28.0188311  53.0730200  39.0319795  27.8444713  52.3451133  38.8007556
  24.4600440  56.6108997  44.8359119  25.1834639  56.1581524  44.6570139
  24.1950402  56.8913663  44.0531447  24.5281713  56.5859966  44.6937835
  13.3287308  51.2069171  41.5711999  12.7040378  51.2187563  40.9637951
  12.9932903  51.6829346  42.2203239  13.1872800  51.2787688  41.5768567
  13.5129057  49.5494289  27.6284684  13.1641861  50.2014014  28.0916233
  13.0325503  49.5351402  26.9008555  13.3899301  49.6437343  27.5895775
  10.0412984  59.2669631  43.0115763   9.5112908  58.5762070  43.0610738
  10.3138077  59.2579816  42.1828471  10.0037706  59.1636763  42.8963179
  21.0733074  59.8495333  31.7353445  21.7967273  60.3153446  31.5918019
  20.6333665  59.9168943  30.9851042  21.1148766  59.9279170  31.6038227
  20.2419229  56.7092875  42.9854134  19.6276222  56.1650926  43.2802770
  20.7586514  56.1957112  42.5059951  20.2274892  56.5529284  42.9578363
  19.4815526  57.7797145  40.7198433  19.0543134  57.1546864  40.2863868
  19.4740471  57.4972067  41.5457440  19.4174668  57.6449926  40.7778261
  12.5978054  52.8162318  43.7886867  12.7571540  52.0605643  44.1938589
  12.4170947  53.3653258  44.4427605  12.5943412  52.7856132  43.9449573
  20.5398356  44.9823554  44.3437657  20.0438918  45.1787228  43.6529223
  21.2967419  45.3816222  44.1726458  20.5785181  45.0701288  44.2157793
  17.8101236  48.6565900  40.9340967  17.8343723  48.1226012  40.2453747
  18.0612710  48.1483209  41.5966558  17.8511155  48.5026804  40.9305612
   5.3208826  55.9397395  40.3684111   5.2152275  55.8944239  39.5036195
   4.5709046  56.2851175  40.6498396   5.1944429  55.9838303  40.2821441
  14.0902558  47.3836718  40.3146711  14.1300930  47.8845925  41.0281419
  13.2652223  47.4747112  40.0452634  13.9742084  47.4718534  40.3797250
  16.2732171  56.9497458  48.4167006  15.4227802  57.0869172  48.5524651
  16.4360299  56.2161236  48.8614708  16.1716035  56.8611559  48.5022605
  15.5116922  53.8997228  42.6120610  14.6808851  54.0671046  42.4055858
  15.4568439  53.5233179  43.3969496  15.3806337  53.8686959  42.6969138
  13.3200705  47.3906121  48.2477021  13.9453408  46.8468254  48.5206453
  12.8651185  46.9101038  47.6784811  13.3448966  47.2395602  48.2038615
  13.8852966  52.1752820  33.1410728  14.0255927  52.6725284  33.8439369
  14.3835498  51.4739114  33.2824942  13.9794046  52.1454798  33.2662307
  26.8935754  55.5735408  43.3389669  27.4853594  56.2132659  43.3707867
  27.3294748  54.8758445  43.6281736  27.0454185  55.5653758  43.3870502
  15.4932171  48.9733906  30.4448747  15.8148012  48.4936988  29.7908009
  15.7559115  49.7833552  30.2539559  15.5798196  49.0223804  30.3204239
  18.7229144  59.9952780  43.9647563  18.2154235  60.5488627  44.4088193
  18.4255790  60.0561070  43.1466337  18.6034028  60.0859091  43.9096020
  10.4206176  55.2387771  33.7392851  10.9298405  55.8352279  34.1204156
  10.8940448  54.9713745  33.0569271  10.5649551  55.2873587  33.6947374
  21.3336924  63.9116038  31.8951506  20.6166234  63.7376900  31.4298744
  21.9843661  63.6768610  31.3626993  21.3238774  63.8511831  31.7480724
  23.9184895  52.7880627  35.6392812  23.2476085  53.3310329  35.5105877
  24.6124645  53.2575482  35.3974506  23.9213763  52.9378898  35.5848339
  17.9671629  64.9277339  40.8704570  17.7437283  64.1696168  41.2388596
  17.4781472  64.9575360  40.1485010  17.8615078  64.8199563  40.8181311
  24.0813023  49.2436510  38.5483185  24.4340633  48.8166233  39.2228984
  23.2227824  49.1587354  38.6784261  24.0062467  49.1681251  38.6678195
  12.7796708  51.8744030  36.6066031  12.0608697  52.2908162  36.8738895
  13.1509070  52.4398269  36.0557669  12.7288639  52.0193311  36.5648838
  22.0796288  52.5071879  42.4968027  22.0594216  52.3255174  43.3502806
  22.1275489  53.3783897  42.4727611  22.0830929  52.6088417  42.6191322
  20.0242618  59.0959071  48.4216504  19.9838473  58.4508748  47.8361659
  20.8365936  59.0395688  48.7341916  20.1385772  58.9918038  48.3813453
  16.6150086  65.1477797  38.3241655  16.2010484  64.4851927  37.9345496
  17.2997460  65.2955655  37.8037349  16.6548457  65.0718455  38.1898152
  19.9815380  64.3067882  39.0765271  19.5831663  64.4170152  38.3086091
  19.3666599  64.5149948  39.6591831  19.8314269  64.3541450  39.0496570
  18.5543282  50.9142030  31.9439411  17.9608121  51.2359026  31.3923978
  18.5918560  50.0683125  31.7360517  18.4717671  50.8366358  31.8322182
  15.7120327  52.7256007  44.9766261  15.1999230  52.1177190  45.3351293
  15.5399823  53.4412600  45.4440237  15.6109964  52.7419307  45.0982485
  10.5586042  51.1693583  47.6268623  10.3888632  51.8294957  47.0816830
  10.1151992  51.3800144  48.3481112  10.4685375  51.2979565  47.6530252
  14.4845861  49.4098081  36.6695357  14.9603227  49.7715160  36.0345538
  13.9834461  50.0654548  36.9495499  14.4811220  49.5592269  36.6172098
  19.5889397  50.6480252  47.4168517  20.1460827  50.4194061  46.7846982
  19.2650462  51.4085918  47.1403729  19.6235807  50.7264089  47.2825014
   7.4588106  54.0740448  42.8857113   6.9114826  53.4041094  43.0037981
   8.2480484  53.7070296  42.9500580   7.4940290  53.9205435  42.9125813
  17.3072515  53.7347905  48.3820524  18.0583842  54.0499582  48.6960078
  17.4995091  53.5327076  47.5554446  17.4463929  53.7515287  48.3063920
  16.5272514  51.5539280  30.0368741  16.9071479  51.5718910  29.2519855
  15.7865110  51.9993269  29.9159588  16.4741352  51.6221055  29.9032309
   6.2175076  53.2861256  40.0403136   6.0396837  52.8337865  40.7658051
   5.9294098  54.0887417  40.2241613   6.1488029  53.3383814  40.1746639
  21.8798657  54.5418973  39.2780526  22.3752322  53.8241968  39.2384546
  21.0698432  54.2389771  39.1635013  21.8342550  54.3916620  39.2554252
  17.3257268  58.3916787  31.4277531  16.5168591  58.0683460  31.3810840
  17.8332177  57.6850009  31.3605779  17.2806935  58.2398103  31.4107825
   7.9547545  55.8188980  37.1524895   7.0893065  55.8074670  37.0407666
   8.0546361  55.6319203  37.9996034   7.8421712  55.7895041  37.2613839
  23.9450476  57.2922661  41.9657655  24.3705547  56.7697083  41.4128080
  23.5807395  57.8903498  41.4446278  23.9537078  57.3032888  41.8066665
  13.5804555  65.5886878  40.7255000  13.8951114  66.4023267  40.7332782
  13.9897969  65.2037097  41.3937160  13.6872653  65.6515581  40.8259092
  20.5329075  61.0056925  38.2958812  21.0040253  61.7197188  38.4648798
  20.8689254  60.4055675  38.8318682  20.6524190  61.0228389  38.3991188
  22.6206060  62.6158238  50.4750885  22.7303025  61.8266799  50.8307632
  22.9496956  62.5264175  49.6725223  22.6858465  62.4864091  50.4093275
  17.4498570  45.7784396  45.2516907  17.5826476  44.9815389  45.5797883
  17.8343723  46.3050799  45.8315183  17.5254899  45.7384312  45.3860410
  21.1703021  60.7974859  45.0586505  20.6223967  60.1732743  44.7906570
  21.6316050  60.9869131  44.3430584  21.1570231  60.7333909  44.9136936
  20.5230925  42.7014722  41.8498000  19.7176889  42.5912451  42.1665839
  20.3937661  42.8027178  40.9927866  20.3851058  42.6998392  41.7706041
  23.9796886  48.8660214  42.4437697  23.3959875  49.3669420  42.0315265
  24.3001180  48.3589770  41.8102021  23.9410061  48.8652049  42.2896205
  16.5191685  47.7800809  32.7196372  17.3407379  47.9499121  32.4778067
  16.0561336  47.9348070  31.9962670  16.5722847  47.8282542  32.5768016
  15.1087017  45.7743571  43.4994801  15.6531430  45.4334698  44.0899143
  15.1623952  46.6329032  43.6416086  15.1976136  45.8498830  43.6076674
  10.9217576  59.5359987  40.3733609  11.5262433  59.4955821  39.7447430
  10.7144888  60.3831139  40.4037665  10.9806473  59.6547989  40.2849725
  20.7361348  61.8025932  41.5895846  21.5559721  61.6588898  41.8512141
  20.4555425  62.4272131  42.1312284  20.8158091  61.8736284  41.7083786
   6.1568858  58.5194604  40.2432532   6.0593136  57.7090876  40.5522589
   6.9397727  58.4986398  39.8578800   6.2584994  58.3961695  40.2319395
  37.2074998  69.4590784  34.5538723  37.1769002  70.3135420  34.7256992
  37.8056347  69.1586076  35.1124866  37.2912156  69.5407280  34.6613525
  30.4074683  68.5466435  39.3091653  29.5512578  68.7074933  39.3600770
  30.4542337  67.6758499  39.3296714  30.2873794  68.4417237  39.3197719
  33.7168399  74.8152960  48.9152109  34.4235167  74.3204991  49.0439044
  33.9056335  75.2562042  48.1854767  33.8496305  74.8071311  48.8261155
  33.2526504  70.6058479  41.9523305  33.7982464  71.2843565  42.0117274
  33.1943380  70.4645939  41.0924886  33.3242418  70.6850480  41.8335365
  35.0291573  72.0343086  32.8257032  34.9131098  72.7850772  33.2549171
  35.8247459  71.7767039  33.0753120  35.1296162  72.1077933  32.9261124
  21.8655711  66.2853562  39.8628298  21.2460742  65.6946209  39.6938313
  21.7639574  66.8764997  39.2292622  21.7593386  66.2857644  39.7433288
  26.9121898  76.0237109  34.1126375  27.2337739  76.5642316  33.5087683
  27.5593995  75.4533880  34.2448665  27.0547953  76.0196284  34.0433410
  28.9623606  68.0253104  34.1960762  29.6603771  68.2041231  34.6882225
  29.2775939  67.5023443  33.5731151  29.1118943  67.9746876  34.1762772
  21.5924844  69.8305844  42.1071867  21.4683540  70.4168289  42.7421686
  22.2443128  69.3366039  42.4084142  21.6698493  69.8444648  42.2457797
  29.1511542  74.4123549  34.1840553  29.5905177  73.8040649  34.6295326
  29.0016204  74.0330922  33.4126018  29.1933007  74.2662020  34.1359720
  26.6183185  73.0067561  41.3859379  27.2632187  72.5140004  41.0670327
  26.8584962  73.1492347  42.2125457  26.7493770  72.9545003  41.4608912
  29.1569276  75.8522466  41.0366271  29.4392519  75.0573872  40.8153027
  29.8855436  76.3303054  41.0571332  29.3058840  75.8057063  41.0069286
  27.1350470  63.3945500  38.2782036  26.8053800  63.8456644  37.6085735
  26.4595472  63.3161664  38.8255043  26.9860906  63.4496636  38.2605259
  32.7520878  72.7650730  31.1371322  32.6672173  73.6211697  31.2820891
  33.2405261  72.4895054  31.8053481  32.8109775  72.8508051  31.2573404
  33.6839311  69.3835524  32.6369057  33.1550783  69.5995158  33.2966364
  34.2064331  70.0771663  32.5570027  33.6827764  69.5178661  32.7224657
  39.1387364  74.9581829  38.0102102  38.3085067  75.1692472  38.1735518
  39.0896617  74.1318883  37.7344385  39.0094100  74.8671435  37.9939467
  25.5738919  73.2798741  31.4376525  24.9896134  73.7848772  31.8442389
  25.1709014  73.0541128  30.6973117  25.4278223  73.3206989  31.3881551
  30.0316134  69.5264393  29.9145446  30.2712137  69.7342377  29.1020789
  30.3531975  68.7221902  30.0234391  30.1153291  69.4378494  29.8105999
  25.3406424  61.4557789  33.7604984  26.0952392  61.8236106  33.5222034
  25.1633958  61.8297343  34.5284164  25.4260902  61.5655977  33.8389872
  38.6341323  67.6052229  41.8052523  37.7969744  67.6754416  42.0400118
  38.6029553  67.6076724  40.9326826  38.5059605  67.6162456  41.7112071
  25.0306052  69.7485265  47.5200892  25.2026555  69.6391160  48.3686173
  25.5675409  70.3939670  47.2832084  25.1351056  69.8277267  47.6105989
  23.6963488  63.8628108  30.4583097  23.5139062  64.0799989  29.6324090
  24.5589101  63.9767120  30.5141711  23.7968078  63.9118006  30.3437584
  33.3571508  71.8007906  37.3964415  34.1129023  72.2339420  37.4353323
  33.4633833  71.1512676  37.9699051  33.4841679  71.7685390  37.4862440
  36.3951679  75.6281183  38.1466818  35.9586911  75.6317925  38.9025789
  36.0614595  76.3086682  37.7146395  36.2814299  75.7293639  38.1947650
  30.9680753  77.6689516  49.4709968  31.7521170  77.7820364  49.8365710
  30.7677348  76.8430653  49.6668654  31.0546778  77.5636235  49.5544354
  19.3367768  72.3417196  42.3553812  19.0706184  71.5256313  42.5144802
  19.3506333  72.3870351  41.4849327  19.2992491  72.2274101  42.2507294
  36.3149162  62.6695011  40.3896246  36.9575071  62.7393115  40.9758161
  36.5672183  62.0024234  39.8875788  36.4471294  62.5821359  40.4023525
  23.2425515  67.1402280  28.9705570  22.5283693  66.8540460  29.3828002
  23.7269484  67.4798906  29.6111957  23.2084879  67.1483930  29.1261205
  24.0866375  65.8795574  45.0020820  23.3938172  65.4092554  45.2481551
  24.7026702  65.6533879  45.5762527  24.0750905  65.7762706  45.1229972
  39.5296026  72.3462103  37.0386455  40.1912460  71.7852771  36.9382363
  38.8887438  71.8514134  37.3639146  39.5324893  72.1898512  37.0718795
  30.4172833  75.6432234  29.3467378  30.8323982  75.3117258  28.6551874
  29.5864763  75.4101137  29.2187515  30.3560842  75.5603490  29.2258226
  19.7461182  73.1275975  39.6365556  19.5636755  73.1022861  38.7837848
  20.4810851  73.5974913  39.6754465  19.8275246  73.1937338  39.5163475
  35.8160856  73.3627485  36.7798444  36.0516446  73.5072684  35.9525294
  35.9650420  74.1269893  37.1729957  35.8726660  73.4966540  36.7162048
  22.8106934  69.8460978  46.1447665  23.5346906  69.8314009  46.6312559
  22.9123070  70.5556333  45.6469633  22.9325143  69.9485681  46.1426452
  37.6451313  72.2029151  34.6168047  37.9759530  72.7356791  34.0108142
  38.2184401  72.2568039  35.2729998  37.7784992  72.2898720  34.6245829
  30.1851883  73.3260063  51.0096612  29.3924864  73.6403575  51.1949231
  30.3000810  73.5411531  50.1717396  30.0847294  73.4043900  50.9134947
  32.8583202  70.0494054  35.2991628  32.9530057  70.7883348  35.7531253
  32.2342046  69.6211529  35.7326192  32.7792232  70.0955375  35.4299775
  31.1135676  73.2280267  45.9481908  31.6874538  72.5907511  46.1030472
  31.0350480  73.2284349  45.0791566  31.1868911  73.1345378  45.8428319
  19.7132092  70.0069476  39.7864623  20.2905595  69.8705927  40.4256868
  19.0146154  69.5505260  40.0410207  19.6953114  69.9191742  39.9186912
  33.1106224  71.8942794  28.5328580  33.0286386  71.9644981  29.3983567
  33.7485944  72.4572538  28.3412320  33.1926061  71.9881765  28.6318529
  26.4699395  71.6603532  38.0003106  26.2118639  70.8275267  37.9734405
  26.5247877  71.8861145  37.1595606  26.4399173  71.5701303  37.8723243
  31.5500445  63.7631982  38.1007199  30.8456772  63.2741168  38.2591118
  31.5985419  63.7754457  37.2295643  31.4530496  63.6921630  37.9946538
  25.4434107  69.2141294  38.4868001  24.8683698  69.3733463  39.1231962
  25.0669783  68.5776703  38.0236451  25.3036919  69.1439107  38.5122559
  29.1107395  67.6864643  43.3460379  28.7221828  67.2618861  42.6912570
  28.4462094  67.9346793  43.8537406  28.9554323  67.6603365  43.3248247
  38.7530665  67.4439648  36.1208209  38.4967229  66.6319590  35.9306092
  39.5959979  67.4517215  35.8938396  38.8396690  67.3251646  36.0593026
  15.1890926  68.8581369  36.5012441  15.2751178  68.4813237  37.2825971
  15.8166723  68.4841815  36.0232400  15.2947477  68.7466851  36.5457919
  32.9333757  61.3839272  40.8584363  33.3144269  60.7017443  41.2452238
  32.1297041  61.0948874  40.6760028  32.8710219  61.2406321  40.8888419
  30.2146334  71.9163248  31.5437186  31.0286973  72.2078141  31.4319957
  30.1505475  71.2623110  30.9695479  30.3249073  71.8628443  31.4426023
  36.4355824  74.5989244  45.9566762  36.1994461  73.7677309  45.8378822
  37.0799053  74.5474851  46.5421606  36.4950495  74.4686932  46.0252655
  26.0854242  75.3884765  36.6709498  26.7228189  75.1496513  37.2161292
  26.5109314  75.5921924  35.9362659  26.2430408  75.3835776  36.6426655
  26.7257057  70.6087055  31.0084388  27.1102210  70.3894762  31.7600933
  26.4768677  71.4350001  31.1385464  26.7459130  70.6985202  31.1385464
  26.8925597  63.8893470  50.7246972  26.5779038  64.6593033  50.4616534
  26.5715530  63.3263726  50.1399199  26.7984516  63.9203739  50.5988322
  37.4592245  74.3833693  42.0195056  37.1538062  75.1161750  42.3808372
  36.7398460  73.9771622  41.7387842  37.3079587  74.4315426  42.0308193
  28.4675714  75.8657188  38.3503284  28.5414722  75.7032360  39.2045134
  29.2845220  76.0547378  38.1063766  28.5992073  75.8693930  38.4401310
  43.1594037  71.0226694  41.3463400  43.0918537  71.0422653  40.4765987
  43.1449699  71.8657021  41.5719071  43.1472793  71.1500428  41.2515877
  24.4457494  62.2783992  36.3393168  23.5779920  62.3506591  36.4050777
  24.7332699  63.0806071  36.5281143  24.3597242  62.4078139  36.3767935
  33.5690383  62.4261851  44.6704490  34.3143975  62.2371662  44.2567915
  33.1527688  62.9520089  44.1118346  33.6175357  62.4763997  44.5269063
  40.9452654  69.7971080  39.6209995  41.4960576  69.1639149  39.8607087
  40.9296769  70.3286473  40.3125499  41.0237850  69.7820028  39.7588853
  27.5975045  73.6309677  44.1669888  27.0986738  74.3425445  44.2454777
  28.4075269  73.9510344  44.1288051  27.6431152  73.7836526  44.1726457
  23.8603162  72.8932630  38.4132609  23.5716411  72.2670101  38.9478336
  24.7286510  72.8352918  38.4797290  23.9463414  72.7920174  38.5023564
  34.6481060  68.0367413  38.7314591  34.3045826  67.3157749  39.0821841
  34.7474103  67.8281265  37.8892949  34.6123103  67.8991617  38.6586271
  24.0635436  74.5327881  34.3374974  24.8181404  74.9140920  34.5510437
  23.4706048  74.9839025  34.7921671  24.0872149  74.6556709  34.4357853
  35.1094089  74.4993118  34.2738579  35.6752122  75.1586327  34.1897122
  34.4621993  74.8442816  34.7454981  35.0972846  74.6475059  34.3311336
  26.5242103  66.4890722  49.4632187  25.7141879  66.7948501  49.3522029
  27.0016790  67.2096304  49.5784771  26.4745582  66.6405323  49.4639258
  25.3833662  75.7036442  39.7115090  24.8614416  75.8436734  40.3966954
  25.7707683  74.9447107  39.9017207  25.3637363  75.6121966  39.8416166
  22.3724846  65.7542251  33.7810044  22.0849642  65.3843522  33.0441992
  23.0595315  66.2237107  33.5193749  22.4313744  65.7689221  33.6325120
  31.5800667  77.4431902  33.6975658  31.3387343  76.7099762  33.2902723
  31.7602000  77.9918759  33.0441992  31.5708291  77.4154293  33.5405881
  26.8099988  72.7340462  35.1096581  26.6142771  73.3415196  34.5156884
  27.0334334  72.0408406  34.6288255  26.8134629  72.7217987  34.9512661
  25.2078518  69.6195199  35.2277449  25.9301170  69.7836358  34.7681255
  24.7286511  70.3404864  35.1216789  25.2442249  69.7493429  35.1443063
  33.1672026  65.9558998  40.6074134  32.3283126  65.9820277  40.3712397
  33.2376393  66.6029734  41.1879481  33.0540419  66.0555124  40.6583251
  22.8586135  72.0253272  44.3331589  23.3707232  72.3037525  43.6840349
  22.5722477  72.7642566  44.6994402  22.8920998  72.1755626  44.2921467
  37.0429549  71.1626985  37.8935376  36.9563524  71.3182411  38.7470155
  36.5880029  71.8065061  37.5194781  36.9632806  71.2802740  37.9642483
  19.9453041  66.5323464  34.6295325  20.0469177  67.3349625  34.9576301
  20.7408928  66.3310800  34.3318406  20.0780947  66.6209362  34.6330681
  26.3769860  64.1179660  44.3932631  26.1853057  64.1334795  45.2432054
  27.2268456  64.3143335  44.3699285  26.4745582  64.1494012  44.5155925
  20.7616773  66.6470642  42.3716447  20.6202265  65.7954583  42.4960955
  21.0457337  66.6899303  41.5478653  20.7824619  66.5270392  42.2684071
  30.9155366  68.4837732  36.5160935  30.6690080  68.4033483  37.3497724
  31.2440489  67.6991200  36.3223463  30.9276609  68.3563997  36.6108458
  34.8103414  75.1921091  40.3047716  34.6717774  75.8902137  40.8096459
  34.0303412  75.0369748  39.9483898  34.6746641  75.2721258  40.3273991
  33.1481499  71.4917467  46.5570098  33.1429538  70.6197283  46.5612525
  33.8542493  71.6905636  46.0839554  33.2526503  71.3921341  46.4877134
  26.8752393  71.2194451  45.9283918  27.0195769  71.7995659  45.2927028
  27.2228041  71.5970747  46.6333773  26.9479854  71.3615155  45.9382913
  29.0472310  70.4184619  43.7109050  28.2995624  70.6115633  43.3057328
  29.2013835  69.5929839  43.4733171  28.9594738  70.3249730  43.6154456
  36.3056787  74.5499345  31.0664216  35.9263596  73.7636483  31.0593505
  35.6423033  75.0986202  30.9235860  36.1515262  74.5144169  31.0445013
  29.2874087  64.3135170  44.6004454  29.7446701  65.0459144  44.7277246
  29.3630416  63.8901635  45.3591709  29.3665057  64.3592408  44.7305530
  21.5307078  64.5600990  45.6893897  20.9949268  63.9481348  46.0054665
  21.5924843  65.1349126  46.3427564  21.4602711  64.5547917  45.8329324
  33.7601413  57.4925045  38.4698297  33.8784981  57.9501508  37.7365599
  33.5863589  56.6870306  38.1834514  33.7520584  57.4418817  38.3199230
  27.1656465  66.3037274  41.4446278  26.3752540  66.1228734  41.7663613
  27.5617088  65.5264226  41.4276572  27.1073341  66.1624735  41.4898826
  31.6522356  75.1325048  26.8852991  32.4195341  75.1925173  26.4758843
  31.2053665  74.5605489  26.4009310  31.6995783  75.0561624  26.7530702
  32.5500151  73.9379704  39.1705724  31.8745153  73.7064936  39.6719111
  32.5592527  73.3300887  38.5447829  32.4518656  73.8138629  39.1521876
  29.6794295  68.7797533  45.9269777  29.6153437  69.6407489  45.7989913
  29.8191483  68.4629526  45.1265328  29.6909765  68.8597699  45.7897989
  34.5516886  76.7944836  31.4015902  34.6336723  77.6011822  31.0777352
  35.0366628  76.8140795  32.1256675  34.6354044  76.9165499  31.4602800
  28.3613389  71.4729672  40.0685979  27.9375638  71.6734171  39.3324998
  28.1858244  70.6258520  40.1810279  28.2724270  71.3778454  39.9759670
  23.6495834  71.9681724  35.5013952  23.8060453  71.9028526  36.3569944
  23.9896427  72.7430276  35.2892632  23.7229069  72.0730922  35.5968546
  30.1874979  71.3439607  34.3707315  30.7290524  70.8409988  34.8345936
  30.5021538  71.2904802  33.5596800  30.3139376  71.2619028  34.3191127
  34.0592086  75.5542255  51.4834227  34.8726952  75.2827403  51.6439360
  33.8987053  75.2549795  50.6794423  34.1562035  75.4697181  51.3879633
  28.3561429  76.7356959  31.6547343  28.4254249  75.8771497  31.7940344
  29.1349884  76.9528840  31.3266368  28.4814279  76.6409823  31.6264501
  31.3364248  66.2375912  44.4229616  31.5506218  65.5986826  43.8692970
  30.7198147  66.6821736  43.9937477  31.2769577  66.2086055  44.2780047
  20.2230096  69.1516674  35.8174719  20.6029061  69.5701219  35.1534987
  19.6485461  69.7330130  36.1243563  20.1941421  69.2994533  35.7651460
  33.5003336  67.8464977  45.3612923  32.6880018  67.5390867  45.4426096
  33.9593271  67.3663977  45.9255635  33.4483721  67.7301469  45.4567517
  32.9108591  75.7244649  35.8089867  32.5523246  75.8959292  36.5853900
  32.4247302  76.1857855  35.2517866  32.7867288  75.8183620  35.8415136
  27.6996956  71.4043814  28.3490102  27.9889481  72.1808697  28.6233676
  27.7868755  70.8932546  29.0504601  27.7551213  71.4435733  28.4932599
  30.5956844  69.2525048  50.1441625  31.0656475  69.8767165  50.5309499
  30.6418724  68.5842024  50.7034840  30.6724720  69.2459729  50.2841697
  27.7528117  61.3582076  40.8690429  27.2366606  60.6662267  40.9942008
  27.1922046  62.0252853  40.8153028  27.5934631  61.3545333  40.8796495
  29.8220351  61.8975036  42.6983281  29.4352104  61.9224067  43.4796811
  29.3353288  61.3316714  42.2457798  29.6932860  61.8170787  42.7471185
  34.0713330  76.6148545  46.7557068  34.7093051  76.1208740  46.4219524
  33.4287422  76.5425945  46.1709295  34.0707557  76.5307553  46.6199423
  35.7970330  68.4637691  41.3222984  35.3697938  68.3764039  40.5671083
  35.1596383  68.5715466  41.9077828  35.6399938  68.4670351  41.2968425
  29.4877493  58.7842021  44.9893541  30.1170611  59.3202321  44.7114612
  29.6563355  58.6919380  45.8407107  29.6055287  58.8503384  45.0742069
  29.2891407  63.5713216  47.2619953  30.1164837  63.2998365  47.3178567
  29.3099253  64.3674058  47.6183771  29.4144257  63.6492970  47.3235136
  34.1267587  77.3068353  43.3962425  34.9159965  76.9557418  43.5164506
  34.3011185  78.1204742  43.1339059  34.2687869  77.3754210  43.3750293
  23.8660897  70.7177079  40.4490214  23.0248904  70.6180953  40.6569107
  24.0750905  71.4872559  40.8004534  23.7725590  70.8169122  40.5317529
  21.3436464  68.3396616  38.2774964  20.9493162  68.4139628  37.5025074
  20.7876581  68.7254562  38.8283326  21.2039277  68.4078390  38.2442624
  27.6777562  68.6458478  39.6987811  27.3740700  68.0914466  40.2998219
  26.9756983  68.8250688  39.2115845  27.5293772  68.5903260  39.7157517
  26.7343659  65.9558998  34.2632513  27.0103394  65.2377910  33.8510081
  27.3342329  66.5543918  34.0553619  26.8636924  65.9379369  34.1713274
  23.7569705  73.1120841  41.8681847  23.1657638  73.7530339  41.8384862
  24.5190729  73.5358458  41.8413146  23.7817966  73.2696680  41.8596994
  24.1530328  64.2722839  42.5349864  24.6131809  64.3461768  43.2724988
  24.1986435  65.0704093  42.1849685  24.2280883  64.4016986  42.5922621
  25.8013678  64.9389534  47.1021891  25.4099243  64.2922881  47.5377669
  25.9699540  65.5300969  47.7216147  25.7684588  64.9303802  47.2584597
  39.8760127  72.9426611  42.8659125  39.9343250  73.3913260  43.6119101
  39.2426594  73.3525424  42.4289205  39.7911422  73.0700345  42.9111673
  33.5159221  78.5630153  39.3013871  33.3178910  79.0520967  38.6070082
  32.8946932  78.7671394  39.8798004  33.3946786  78.6646691  39.2837094
  27.5767200  70.3315050  33.6424115  28.3209245  70.7189326  33.8807065
  27.7227896  69.4872475  33.8064603  27.7077785  70.2645522  33.7018085
  29.4946775  62.1265308  38.6755977  28.6482820  62.2988116  38.5497326
  29.4917908  61.3214652  39.0121805  29.3693925  62.0326337  38.7067104
  30.5645076  65.9040523  39.5418035  30.0905030  65.3782285  40.0523345
  30.9363211  65.3569996  38.9732896  30.5494965  65.7456519  39.5333182
  20.9418106  67.9012030  44.9101580  21.8043719  67.8007739  44.8238910
  20.6109889  67.3206739  44.3487152  21.0203302  67.8003656  44.8146986
  36.8281806  70.9642899  40.9524815  36.5880029  70.1249314  40.9567242
  37.3073813  71.0443065  41.6765589  36.8633990  70.8524298  41.0599617
  32.4928575  66.7977077  32.6043788  31.9651594  66.8805821  31.9149497
  32.9524283  67.5394949  32.6008433  32.4830426  66.9197740  32.5018484
  38.8286993  67.7444356  38.9054074  38.5896763  67.7040190  38.0674859
  38.9920894  68.5915508  39.0319795  38.8177297  67.8636441  38.8007556
  35.4333023  72.1294305  44.8359119  36.1567222  71.6766831  44.6570139
  35.1682986  72.4098971  44.0531447  35.5014297  72.1045274  44.6937835
  24.3019892  66.7254479  41.5711999  23.6772962  66.7372871  40.9637951
  23.9665487  67.2014654  42.2203239  24.1605384  66.7972996  41.5768567
  24.4861640  65.0679597  27.6284684  24.1374445  65.7199322  28.0916233
  24.0058086  65.0536710  26.9008555  24.3631884  65.1622651  27.5895775
  21.0145567  74.7854939  43.0115763  20.4845492  74.0947378  43.0610738
  21.2870661  74.7765124  42.1828471  20.9770290  74.6822070  42.8963179
  32.0465658  75.3680641  31.7353445  32.7699857  75.8338754  31.5918019
  31.6066249  75.4354251  30.9851042  32.0881350  75.4464478  31.6038227
  31.2151813  72.2278183  42.9854134  30.6008806  71.6836234  43.2802770
  31.7319098  71.7142420  42.5059951  31.2007475  72.0714592  42.9578363
  30.4548110  73.2982453  40.7198433  30.0275718  72.6732172  40.2863868
  30.4473054  73.0157375  41.5457440  30.3907251  73.1635234  40.7778261
  23.5710637  68.3347626  43.7886867  23.7304124  67.5790951  44.1938589
  23.3903531  68.8838566  44.4427605  23.5675996  68.3041440  43.9449573
  31.5130940  60.5008862  44.3437657  31.0171501  60.6972536  43.6529223
  32.2700002  60.9001530  44.1726458  31.5517765  60.5886596  44.2157793
  28.7833820  64.1751208  40.9340967  28.8076307  63.6411320  40.2453747
  29.0345293  63.6668517  41.5966558  28.8243738  64.0212112  40.9305612
  16.2941409  71.4582703  40.3684111  16.1884859  71.4129547  39.5036195
  15.5441629  71.8036483  40.6498396  16.1677012  71.5023611  40.2821441
  25.0635142  62.9022026  40.3146711  25.1033513  63.4031233  41.0281419
  24.2384807  62.9932420  40.0452634  24.9474668  62.9903842  40.3797250
  27.2464755  72.4682766  48.4167006  26.3960385  72.6054480  48.5524651
  27.4092882  71.7346544  48.8614708  27.1448618  72.3796867  48.5022605
  26.4849505  69.4182536  42.6120610  25.6541435  69.5856354  42.4055858
  26.4301022  69.0418487  43.3969496  26.3538920  69.3872267  42.6969138
  24.2933289  62.9091429  48.2477021  24.9185992  62.3653562  48.5206453
  23.8383768  62.4286346  47.6784811  24.3181549  62.7580910  48.2038615
  24.8585549  67.6938127  33.1410728  24.9988510  68.1910592  33.8439369
  25.3568082  66.9924422  33.2824942  24.9526630  67.6640106  33.2662307
  24.8885771  68.5605238  30.4703305  25.5230851  69.1565664  30.4052767
  24.9711382  68.2608696  31.2849175  24.9942322  68.6046147  30.5806391
  37.8668337  71.0920716  43.3389669  38.4586178  71.7317967  43.3707867
  38.3027332  70.3943753  43.6281736  38.0186768  71.0839066  43.3870502
  26.4664754  64.4919214  30.4448747  26.7880595  64.0122296  29.7908009
  26.7291698  65.3018860  30.2539559  26.5530780  64.5409112  30.3204239
  29.6961727  75.5138088  43.9647563  29.1886818  76.0673935  44.4088193
  29.3988373  75.5746378  43.1466337  29.5766612  75.6044399  43.9096020
  31.8623909  63.8791408  42.8072226  32.2878981  63.4263934  42.1955752
  31.2480902  63.3251479  43.0837013  31.8352555  63.7305384  42.7577251
  21.3938759  70.7573079  33.7392851  21.9030989  71.3537587  34.1204156
  21.8673032  70.4899053  33.0569271  21.5382135  70.8058895  33.6947374
  34.8917479  68.3065934  35.6392812  34.2208669  68.8495637  35.5105877
  35.5857229  68.7760790  35.3974506  34.8946346  68.4564206  35.5848339
  35.0545606  64.7621818  38.5483185  35.4073216  64.3351541  39.2228984
  34.1960408  64.6772662  38.6784261  34.9795051  64.6866559  38.6678195
  23.7529291  67.3929338  36.6066031  23.0341280  67.8093470  36.8738895
  24.1241653  67.9583577  36.0557669  23.7021223  67.5378619  36.5648838
  33.0528872  68.0257187  42.4968027  33.0326799  67.8440482  43.3502806
  33.1008073  68.8969205  42.4727611  33.0563513  68.1273725  42.6191322
  30.9975202  74.6144379  48.4216504  30.9571057  73.9694056  47.8361659
  31.8098520  74.5580996  48.7341916  31.1118355  74.5103346  48.3813453
  29.5275865  66.4327338  31.9439411  28.9340705  66.7544334  31.3923978
  29.5651143  65.5868433  31.7360517  29.4450255  66.3551666  31.8322182
  36.4869666  59.8840230  39.4767497  35.9800531  59.1769370  39.4088675
  37.2837100  59.5533419  39.6068574  36.5296905  59.7313381  39.4866492
  32.4033682  66.3906842  35.3741161  32.1747375  66.4139544  34.5319519
  32.6631758  65.5664309  35.4936172  32.4079870  66.2722922  35.2666359
  26.6852910  68.2441315  44.9766261  26.1731814  67.6362498  45.3351293
  26.5132407  68.9597908  45.4440237  26.5842548  68.2604615  45.0982485
  21.5318625  66.6878891  47.6268623  21.3621215  67.3480265  47.0816830
  21.0884575  66.8985452  48.3481112  21.4417959  66.8164873  47.6530252
  25.4578445  64.9283389  36.6695357  25.9335811  65.2900468  36.0345538
  24.9567044  65.5839856  36.9495499  25.4543804  65.0777577  36.6172098
  38.6889806  74.4005157  32.4608362  39.0723412  75.1496513  32.6906459
  37.8933919  74.6470976  32.2020351  38.6283588  74.5474850  32.4565935
  30.5621981  66.1665560  47.4168517  31.1193411  65.9379369  46.7846982
  30.2383046  66.9271226  47.1403729  30.5968391  66.2449397  47.2825014
  18.4320690  69.5925756  42.8857113  17.8847409  68.9226402  43.0037981
  19.2213068  69.2255604  42.9500580  18.4672873  69.4390743  42.9125813
  28.2805098  69.2533213  48.3820524  29.0316425  69.5684890  48.6960078
  28.4727675  69.0512384  47.5554446  28.4196512  69.2700595  48.3063920
  27.5005098  67.0724588  30.0368741  27.8804063  67.0904217  29.2519855
  26.7597694  67.5178577  29.9159588  27.4473935  67.1406363  29.9032309
  35.1290388  65.3806779  35.6244319  35.1284615  65.2255436  36.4828596
  34.9246568  66.2269767  35.5685705  35.0990166  65.4827400  35.7432259
  17.1907659  68.8046564  40.0403136  17.0129420  68.3523173  40.7658051
  16.9026681  69.6072725  40.2241613  17.1220612  68.8569122  40.1746639
  32.8531240  70.0604281  39.2780526  33.3484906  69.3427276  39.2384546
  32.0431016  69.7575079  39.1635013  32.8075134  69.9101928  39.2554252
  28.2989852  73.9102095  31.4277531  27.4901175  73.5868768  31.3810840
  28.8064761  73.2035317  31.3605779  28.2539519  73.7583411  31.4107825
  18.9280129  71.3374288  37.1524895  18.0625649  71.3259978  37.0407666
  19.0278945  71.1504511  37.9996034  18.8154296  71.3080349  37.2613839
  34.9183059  72.8107969  41.9657655  35.3438131  72.2882391  41.4128080
  34.5539979  73.4088806  41.4446278  34.9269662  72.8218196  41.8066665
  31.5061659  76.5242233  38.2958812  31.9772837  77.2382496  38.4648798
  31.8421837  75.9240983  38.8318682  31.6256774  76.5413697  38.3991188
  33.5938643  78.1343546  50.4750885  33.7035609  77.3452107  50.8307632
  33.9229540  78.0449483  49.6725223  33.6591049  78.0049399  50.4093275
  28.4231154  61.2969704  45.2516907  28.5559059  60.5000697  45.5797883
  28.8076306  61.8236107  45.8315183  28.4987482  61.2569620  45.3860410
  32.1435605  76.3160167  45.0586505  31.5956551  75.6918051  44.7906570
  32.6048634  76.5054439  44.3430584  32.1302814  76.2519217  44.9136936
  31.4963509  58.2200030  41.8498000  30.6909472  58.1097759  42.1665839
  31.3670244  58.3212485  40.9927866  31.3583642  58.2183700  41.7706041
  34.9529469  64.3845522  42.4437697  34.3692458  64.8854728  42.0315265
  35.2733763  63.8775078  41.8102021  34.9142645  64.3837357  42.2896205
  27.4924268  63.2986116  32.7196372  28.3139963  63.4684429  32.4778067
  27.0293919  63.4533377  31.9962670  27.5455431  63.3467849  32.5768016
  26.0819600  61.2928879  43.4994801  26.6264013  60.9520006  44.0899143
  26.1356536  62.1514340  43.6416086  26.1708720  61.3684138  43.6076674
  31.7093931  77.3211240  41.5895846  32.5292305  77.1774206  41.8512141
  31.4288009  77.9457439  42.1312284  31.7890675  77.3921592  41.7083786
  38.1083053  78.9130808  38.2782036  37.7786383  79.3641952  37.6085735
  37.4328055  78.8346972  38.8255043  37.9593490  78.9681943  38.2605259
  45.3159461  74.9016331  36.5231647  45.0012902  75.5919810  36.9552069
  44.7986403  74.8461113  35.8217148  45.1923931  74.9951220  36.4828596
  36.3139007  76.9743097  33.7604984  37.0684975  77.3421414  33.5222034
  36.1366542  77.3482651  34.5284164  36.3993486  77.0841285  33.8389872
  49.6073906  83.1237537  41.8052523  48.7702327  83.1939724  42.0400118
  49.5762137  83.1262032  40.9326826  49.4792188  83.1347764  41.7112071
  40.3495791  76.3839826  33.4932121  41.0781952  76.2055781  33.0470277
  40.4390684  77.2257906  33.7039299  40.4702453  76.4823705  33.4585638
  47.2881746  78.1880319  40.3896246  47.9307654  78.2578423  40.9758161
  47.5404767  77.5209542  39.8875788  47.4203878  78.1006667  40.4023525
  42.5233028  79.2817290  38.1007199  41.8189355  78.7926476  38.2591118
  42.5718003  79.2939765  37.2295643  42.4263080  79.2106938  37.9946538
  49.7263248  82.9624956  36.1208209  49.4699813  82.1504898  35.9306092
  50.5692562  82.9702523  35.8938396  49.8129274  82.8436954  36.0593026
  43.9066341  76.9024580  40.8584363  44.2876852  76.2202751  41.2452238
  43.1029625  76.6134182  40.6760028  43.8442802  76.7591629  40.8888419
  37.8658181  79.4078778  50.7246972  37.5511622  80.1778341  50.4616534
  37.5448114  78.8449034  50.1399199  37.7717100  79.4389047  50.5988322
  35.4190078  77.7969300  36.3393168  34.5512503  77.8691899  36.4050777
  35.7065282  78.5991379  36.5281143  35.3329826  77.9263447  36.3767935
  44.5422967  77.9447159  44.6704490  45.2876559  77.7556970  44.2567915
  44.1260271  78.4705397  44.1118346  44.5907941  77.9949305  44.5269063
  44.1404609  81.4744306  40.6074134  43.3015710  81.5005585  40.3712397
  44.2108976  82.1215042  41.1879481  44.0273003  81.5740432  40.6583251
  42.5873887  78.3729683  35.3401750  43.2900240  78.1737431  34.8621708
  42.3218076  77.6005626  35.6470593  42.6520520  78.2292649  35.3147191
  37.3502444  79.6364968  44.3932631  37.1585641  79.6520103  45.2432054
  38.2001040  79.8328643  44.3699285  37.4478166  79.6679320  44.5155925
  40.2606671  79.8320478  44.6004454  40.7179285  80.5644452  44.7277246
  40.3363000  79.4086943  45.3591709  40.3397641  79.8777716  44.7305530
  44.7333997  73.0110353  38.4698297  44.8517565  73.4686816  37.7365599
  44.5596172  72.2055614  38.1834514  44.7253168  72.9604125  38.3199230
  41.7011560  74.8661155  39.4116959  40.8305118  74.8399876  39.3650268
  41.9551902  74.6938347  38.5942804  41.6105121  74.8371299  39.2837095
  38.7260701  76.8767384  40.8690429  38.2099190  76.1847575  40.9942008
  38.1654630  77.5438161  40.8153028  38.5667214  76.8730641  40.8796495
  40.7952934  77.4160344  42.6983281  40.4084688  77.4409375  43.4796811
  40.3085872  76.8502022  42.2457798  40.6665443  77.3356095  42.7471185
  40.4610076  74.3027329  44.9893541  41.0903194  74.8387629  44.7114612
  40.6295939  74.2104688  45.8407107  40.5787871  74.3688692  45.0742069
  40.2623991  79.0898524  47.2619953  41.0897420  78.8183673  47.3178567
  40.2831837  79.8859366  47.6183771  40.3876841  79.1678278  47.3235136
  43.9533995  76.8363218  37.9578843  44.1583588  76.7685526  38.8035840
  43.6260419  77.6422039  37.8900021  43.9349242  76.9449158  38.0738498
  47.2067682  77.3894982  37.4381609  46.5941996  77.8765384  37.8235340
  47.3031857  76.7138473  37.9819260  47.1305580  77.3613291  37.5760467
  41.2086763  79.1457823  32.5379108  41.6630510  79.3168384  33.2626953
  41.6826809  78.5325934  32.1376884  41.3455083  79.0808708  32.5852870
  40.4679359  77.6450616  38.6755977  39.6215404  77.8173424  38.5497326
  40.4650491  76.8399960  39.0121805  40.3426509  77.5511645  38.7067104
  41.5377659  81.4225831  39.5418035  41.0637613  80.8967593  40.0523345
  41.9095795  80.8755304  38.9732896  41.5227548  81.2641827  39.5333182
  49.8019577  83.2629664  38.9054074  49.5629347  83.2225498  38.0674859
  49.9653478  84.1100816  39.0319795  49.7909880  83.3821749  38.8007556
  42.4863524  76.0194170  44.3437657  41.9904085  76.2157844  43.6529223
  43.2432586  76.4186838  44.1726458  42.5250348  76.1071904  44.2157793
  39.7566403  79.6936516  40.9340967  39.7808890  79.1596628  40.2453747
  40.0077877  79.1853825  41.5966558  39.7976322  79.5397420  40.9305612
  36.0367725  78.4207334  40.3146711  36.0766097  78.9216541  41.0281419
  35.2117390  78.5117728  40.0452634  35.9207251  78.5089150  40.3797250
  35.2665872  78.4276737  48.2477021  35.8918575  77.8838870  48.5206453
  34.8116352  77.9471654  47.6784811  35.2914133  78.2766218  48.2038615
  42.8356493  79.3976716  42.8072226  43.2611564  78.9449242  42.1955752
  42.2213486  78.8436786  43.0837013  42.8085138  79.2490692  42.7577251
  41.2750716  75.8691816  36.2162803  40.6319034  75.7189462  36.7847941
  40.9350123  75.6234161  35.4511908  41.1295793  75.8103938  36.1865818
  46.0278190  80.2807126  38.5483185  46.3805800  79.8536849  39.2228984
  45.1692991  80.1957970  38.6784261  45.9527634  80.2051867  38.6678195
  47.4602250  75.4025538  39.4767497  46.9533114  74.6954677  39.4088675
  48.2569683  75.0718727  39.6068574  47.5029489  75.2498689  39.4866492
  43.3766266  81.9092150  35.3741161  43.1479959  81.9324852  34.5319519
  43.6364342  81.0849617  35.4936172  43.3812454  81.7908230  35.2666359
  46.1022972  80.8992087  35.6244319  46.1017198  80.7440744  36.4828596
  45.8979152  81.7455074  35.5685705  46.0722750  81.0012708  35.7432259
  39.3963737  76.8155012  45.2516907  39.5291643  76.0186005  45.5797883
  39.7808890  77.3421415  45.8315183  39.4720066  76.7754928  45.3860410
  42.4696092  73.7385338  41.8498000  41.6642056  73.6283067  42.1665839
  42.3402828  73.8397793  40.9927866  42.3316225  73.7369008  41.7706041
  45.9262053  79.9030830  42.4437697  45.3425042  80.4040036  42.0315265
  46.2466347  79.3960386  41.8102021  45.8875228  79.9022665  42.2896205
  38.4656852  78.8171424  32.7196372  39.2872546  78.9869737  32.4778067
  38.0026503  78.9718685  31.9962670  38.5188014  78.8653157  32.5768016
  37.0552184  76.8114187  43.4994801  37.5996597  76.4705313  44.0899143
  37.1089120  77.6699648  43.6416086  37.1441303  76.8869446  43.6076674
  14.9560655  15.3598299  21.4878769  14.9254659  16.2142936  21.6597039
  15.5542004  15.0593592  22.0464913  15.0397813  15.4414796  21.5953572
   8.1560340  14.4473950  26.2431700   7.2998235  14.6082448  26.2940817
   8.2027993  13.5766014  26.2636761   8.0359451  14.3424752  26.2537766
   2.5401479  23.9836668  22.0068931   1.7884379  23.6052206  21.7784976
   2.9887491  24.0155101  21.2587742   2.4951146  23.9322275  21.8626434
  11.4654056  20.7160476  35.8492156  12.1720823  20.2212506  35.9779090
  11.6541992  21.1569557  35.1194814  11.5981962  20.7078826  35.7601201
   7.9926439  24.4062037  17.4354479   7.6577808  25.0838959  16.9998701
   8.5053310  24.0167349  16.8471350   8.0192020  24.4486616  17.2841270
   7.5330731  26.3576306  23.3765590   7.9170110  26.9263205  22.8370365
   7.4689872  25.6325816  22.8971406   7.5804158  26.3351769  23.2259453
  11.0012161  16.5065994  28.8863351  11.5468121  17.1851081  28.9457321
  10.9429037  16.3653455  28.0264933  11.0728075  16.5857996  28.7675412
   4.1186236  23.9955060  24.2731704   4.2196598  23.1855414  24.5828832
   3.5227981  23.9012006  23.6431382   4.0458774  23.8620088  24.2257942
  12.7777229  17.9350601  19.7597079  12.6616755  18.6858287  20.1889217
  13.5733116  17.6774554  20.0093166  12.8781819  18.0085448  19.8601171
   3.9586975  28.9132649  25.6746560   4.6024431  29.3545813  26.0642718
   4.2843231  28.1086075  25.5876819   4.1018804  28.8597844  25.7192037
   4.6607555  21.9244624  21.0466422   4.9823396  22.4649831  20.4427730
   5.3079651  21.3541395  21.1788711   4.8033610  21.9203799  20.9773457
   6.7109263  13.9260619  21.1300808   7.4089428  14.1048747  21.6222272
   7.0261595  13.4030958  20.5071198   6.8604600  13.8754391  21.1102819
   6.8997198  20.3131064  21.1180600   7.3390834  19.7048165  21.5635373
   6.7501861  19.9338437  20.3466065   6.9418664  20.1669535  21.0699767
   4.3668841  18.9075076  28.3199425   5.0117844  18.4147519  28.0010374
   4.6070618  19.0499862  29.1465504   4.4979426  18.8552518  28.3948959
   6.9054933  21.7529982  27.9706318   7.1878176  20.9581387  27.7493074
   7.6341093  22.2310569  27.9911379   7.0544496  21.7064579  27.9409333
  10.5006535  18.6658245  18.0711369  10.4157830  19.5219212  18.2160938
  10.9890918  18.3902569  18.7393528  10.5595432  18.7515567  18.1913451
  11.4324968  15.2843039  19.5709104  10.9036440  15.5002673  20.2306410
  11.9549988  15.9779178  19.4910074  11.4313421  15.4186176  19.6564703
  16.8873021  20.8589344  24.9442149  16.0570724  21.0699988  25.1075565
  16.8382273  20.0326398  24.6684432  16.7579756  20.7678950  24.9279514
   4.9482759  23.6893198  27.7790058   4.4309700  23.3300613  27.1751366
   5.6457150  23.1655373  27.7896124   4.9748340  23.5590886  27.6920317
   8.6046351  24.1388012  33.7406231   8.6929696  23.9514153  34.5884442
   9.0336063  23.4925442  33.3411078   8.6808453  24.0151020  33.8077983
   6.1716810  23.4219172  32.7223893   5.6087645  23.0091782  33.2463555
   6.9337834  23.3472078  33.1417037   6.2011259  23.3496573  32.8616894
   1.7312802  25.4117193  25.3260524   2.4333381  24.8969182  25.3833280
   1.6510285  25.7391345  26.1307399   1.8236562  25.3831419  25.4533316
  16.3826979  13.5059745  28.7392570  15.5455400  13.5761932  28.9740165
  16.3515210  13.5084239  27.8666872  16.2545262  13.5169972  28.6452118
   2.7791708  15.6492780  34.4540939   2.9512212  15.5398675  35.3026220
   3.3161066  16.2947186  34.2172131   2.8836712  15.7284782  34.5446035
   1.0563577  21.6023545  24.8346132   1.8952477  21.8346478  24.8819893
   1.0875346  20.7327857  24.7653167   1.1845295  21.5080492  24.8310776
   1.6816280  22.0224420  29.1359437   2.2214505  21.8795552  29.8062809
   0.9986226  22.4221171  29.5043463   1.6608434  22.0604091  29.2893859
  11.1057165  17.7015421  24.3304461  11.8614680  18.1346935  24.3693370
  11.2119490  17.0520191  24.9039098  11.2327336  17.6692905  24.4202487
  14.1437336  21.5288698  25.0806864  13.7072568  21.5325441  25.8365836
  13.8100252  22.2094197  24.6486442  14.0299956  21.6301154  25.1287697
   8.7166410  23.5697031  36.4050015   9.5006826  23.6827879  36.7705757
   8.5163004  22.7438168  36.6008701   8.8032435  23.4643751  36.4884401
  14.0634819   8.5702526  27.3236292  14.7060728   8.6400631  27.9098208
  14.3157840   7.9031749  26.8215834  14.1956951   8.4828875  27.3363572
   8.8736803  25.4807133  30.0516470   8.0752049  25.2406633  30.3090339
   9.3222815  25.5321526  30.7983518   8.8211414  25.4529524  30.2001395
  17.2781682  18.2469618  23.9726502  17.9398117  17.6860287  23.8722410
  16.6373094  17.7521649  24.2979193  17.2810550  18.0906027  24.0058842
   8.1658490  21.5439750  16.2807425   8.5809639  21.2124773  15.5891921
   7.3350420  21.3108652  16.1527562   8.1046499  21.4611006  16.1598272
  13.5646513  19.2635001  23.7138490  13.8002102  19.4080200  22.8865341
  13.7136077  20.0277409  24.1070004  13.6212316  19.3974055  23.6502094
   0.5592591  15.7468494  33.0787712   1.2832563  15.7321524  33.5652606
   0.6608727  16.4563849  32.5809680   0.6810800  15.8493197  33.0766498
  15.3936970  18.1036667  21.5508094  15.7245187  18.6364307  20.9448189
  15.9670058  18.1575554  22.2070045  15.5270649  18.1906235  21.5585876
   7.9337540  19.2267578  37.9436659   7.1410521  19.5411090  38.1289278
   8.0486467  19.4419047  37.1057443   7.8332951  19.3051415  37.8474993
  10.6068859  15.9501569  22.2331674  10.7015713  16.6890863  22.6871300
   9.9827703  15.5219045  22.6666239  10.5277889  15.9962890  22.3639822
   8.8621333  19.1287782  32.8821955   9.4360194  18.4915026  33.0370519
   8.7836137  19.1291864  32.0131613   8.9354568  19.0352893  32.7768366
   4.2185051  17.5611047  24.9343153   3.9604296  16.7282782  24.9074452
   4.2733534  17.7868660  24.0935653   4.1884829  17.4708818  24.8063289
   9.2986102   9.6639498  25.0347245   8.5942428   9.1748683  25.1931165
   9.3471076   9.6761972  24.1635690   9.2016153   9.5929146  24.9286585
   3.1919764  15.1148809  25.4208047   2.6169355  15.2740978  26.0572008
   2.8155440  14.4784219  24.9576498   3.0522576  15.0446622  25.4462606
  16.5016321  13.3447163  23.0548256  16.2452886  12.5327105  22.8646139
  17.3445635  13.3524731  22.8278443  16.5882347  13.2259161  22.9933073
  10.6819414   7.2846788  27.7924410  11.0629926   6.6024959  28.1792284
   9.8782698   6.9956390  27.6100075  10.6195876   7.1413836  27.8228466
   7.9631991  17.8170763  18.4777233   8.7772629  18.1085656  18.3660004
   7.8991132  17.1630626  17.9035526   8.0734730  17.7635958  18.3766070
  14.1841481  20.4996759  32.8906809  13.9480118  19.6684824  32.7718869
  14.8284710  20.4482367  33.4761653  14.2436151  20.3694447  32.9592702
   3.8339899  21.2892281  23.6049545   4.4713846  21.0504028  24.1501338
   4.2594970  21.4929440  22.8702706   3.9916065  21.2843291  23.5766702
  15.2077901  20.2841208  28.9535103  14.9023718  21.0169265  29.3148419
  14.4884117  19.8779138  28.6727889  15.0565244  20.3322941  28.9648240
   6.2161371  21.7664703  25.2843331   6.2900379  21.6039875  26.1385181
   7.0330877  21.9554893  25.0403813   6.3477729  21.7701446  25.3741357
  20.9079693  16.9234209  28.2803447  20.8404194  16.9430168  27.4106034
  20.8935356  17.7664536  28.5059118  20.8958450  17.0507944  28.1855924
  11.3176040   8.3269367  31.6044537  12.0629632   8.1379177  31.1907962
  10.9013345   8.8527605  31.0458393  11.3661014   8.3771512  31.4609110
   4.7565956  24.7299446  20.0156805   5.0464255  24.3388428  19.2916031
   5.4869437  24.9116151  20.4562080   4.9072841  24.6993260  19.9739612
  18.6938311  15.6978595  26.5550042  19.2446232  15.0646664  26.7947134
  18.6782426  16.2293988  27.2465546  18.7723507  15.6827543  26.6928900
   5.3460702  19.5317192  31.1009935   4.8472395  20.2432960  31.1794824
   6.1560926  19.8517859  31.0628098   5.3916808  19.6844041  31.1066504
   2.6971872  26.7066829  23.0816954   2.4772167  26.4164184  23.8743621
   2.4766394  26.0481784  22.5534867   2.6319466  26.5666537  23.1205863
   1.6088819  18.7940145  25.3472656   1.3202068  18.1677617  25.8818383
   2.4772167  18.7360433  25.4137336   1.6949071  18.6927690  25.4363611
  12.3966717  13.9374929  25.6654638  12.0531483  13.2165264  26.0161888
  12.4959760  13.7288780  24.8232996  12.3608760  13.7999132  25.5926318
   4.8639828  28.0796219  21.8647647   5.5163886  27.5472661  22.0938673
   4.1665436  27.7264871  22.2515521   4.8570546  27.9485742  21.9559814
   1.8121093  20.4335396  21.2715021   2.5667061  20.8148436  21.4850484
   1.2191705  20.8846540  21.7261718   1.8357806  20.5564224  21.3697899
  12.8579746  20.4000633  21.2078626  13.4237779  21.0593843  21.1237169
  12.2107650  20.7450331  21.6795028  12.8458503  20.5482574  21.2651382
   4.2727760  12.3898237  36.3972233   3.4627535  12.6956017  36.2862076
   4.7502446  13.1103819  36.5124817   4.2231238  12.5412838  36.3979304
   3.1319319  21.6043958  26.6455136   2.6100073  21.7444249  27.3307001
   3.5193339  20.8454622  26.8357254   3.1123020  21.5129482  26.7756213
   9.3286324  23.3439417  20.6315705   9.0873000  22.6107278  20.2242770
   9.5087657  23.8926274  19.9782039   9.3193948  23.3161808  20.4745928
   4.5585645  18.6347977  22.0436627   4.3628427  19.2422711  21.4496930
   4.7819990  17.9415921  21.5628301   4.5620286  18.6225502  21.8852708
   2.9564175  15.5202715  22.1617496   3.6786827  15.6843873  21.7021302
   2.4772168  16.2412380  22.0556836   2.9927905  15.6500944  22.0783110
  10.9157682  11.8566514  27.5414181  10.0768783  11.8827792  27.3052444
  10.9862050  12.5037249  28.1219527  10.8026076  11.9562639  27.5923298
   9.3626961   8.7551891  22.2741797  10.0653313   8.5559639  21.7961755
   9.0971149   7.9827833  22.5810640   9.4273593   8.6114857  22.2487238
  14.7915206  17.0634500  24.8275423  14.7049181  17.2189926  25.6810201
  14.3365686  17.7072576  24.4534828  14.7118463  17.1810255  24.8982529
   4.1255517  10.0187176  31.3272677   3.9338714  10.0342310  32.1772101
   4.9754113  10.2150850  31.3039332   4.2231239  10.0501527  31.4495972
   8.6641022  14.3845247  23.4500982   8.4175737  14.3040998  24.2837771
   8.9926145  13.5998715  23.2563510   8.6762266  14.2571513  23.5448505
  10.8967156  17.3924982  33.4910145  10.8915195  16.5204799  33.4952571
  11.6028150  17.5913151  33.0179601  11.0012160  17.2928856  33.4217180
   4.6238050  17.1201966  32.8623965   4.7681425  17.7003174  32.2267075
   4.9713698  17.4978263  33.5673820   4.6965511  17.2622670  32.8722960
   6.7957967  16.3192134  30.6449097   6.0481281  16.5123149  30.2397375
   6.9499492  15.4937354  30.4073218   6.7080395  16.2257246  30.5494503
   3.6965805  25.3104738  29.7284992   3.8455368  24.7507654  29.0758396
   4.4765807  25.3896740  30.1117511   3.8339898  25.2390303  29.6881941
  14.0542444  20.4506861  18.0004263  13.6749253  19.6643998  17.9933552
  13.3908689  20.9993718  17.8575907  13.9000919  20.4151685  17.9785059
   6.2219105  25.4819381  31.0069483   6.1462776  24.8128191  31.5620271
   6.1508964  26.1837169  31.5210149   6.1999712  25.4864288  31.1646331
   7.0359744  10.2142685  31.5344500   7.4932358  10.9466659  31.6617293
   7.1116073   9.7909150  32.2931756   7.1150714  10.2599923  31.6645577
   6.8789352  24.0020380  21.8393089   7.6439243  23.7330023  21.5175753
   6.7767442  23.5170390  22.5563152   6.9770848  23.8909944  21.8972916
   4.9142122  12.2044789  28.3786324   4.1238197  12.0236249  28.7003660
   5.3102745  11.4271742  28.3616619   4.8558998  12.0632250  28.4238873
  10.2985808  19.8387219  26.1045770   9.6230810  19.6072451  26.6059157
  10.3078184  19.2308402  25.4787875  10.2004313  19.7146144  26.0861923
   7.4279952  14.6805048  32.8609823   7.3639093  15.5415005  32.7329960
   7.5677140  14.3637041  32.0605375   7.4395422  14.7605215  32.7238036
  12.3002543  22.6952352  18.3355948  12.3822380  23.5019338  18.0117399
  12.7852285  22.7148311  19.0596722  12.3839701  22.8173014  18.3942847
   6.1099046  17.3737187  27.0026026   5.6861295  17.5741687  26.2665045
   5.9343901  16.5266035  27.1150326   6.0209927  17.2785969  26.9099716
   5.6110739  28.8887700  29.4647484   6.1006670  28.1898490  29.2823148
   5.0394972  28.5911570  30.0523541   5.5995269  28.7413924  29.5248524
   1.3981491  17.8689239  22.4353999   1.5546110  17.8036042  23.2909991
   1.7382084  18.6437791  22.2232678   1.4714726  17.9738437  22.5308593
   7.9360636  17.2447123  21.3047362   8.4776181  16.7417504  21.7685983
   8.2507195  17.1912317  20.4936847   8.0625033  17.1626543  21.2531174
  11.8077743  21.4549770  38.4174274  12.6212608  21.1834919  38.5779407
  11.6472709  21.1557310  37.6134470  11.9047692  21.3704696  38.3219680
   6.1047085  22.6364474  18.5887390   6.1739906  21.7779013  18.7280390
   6.8835540  22.8536355  18.2606415   6.2299935  22.5417338  18.5604547
   9.0849905  12.1383427  31.3569663   9.2991875  11.4994341  30.8033016
   8.4683804  12.5829251  30.9277524   9.0255234  12.1093571  31.2120094
  10.4954573  25.0602175  22.8023883  10.1034365  24.7568890  22.0846750
  10.6507645  25.8971265  22.6128837  10.4608163  25.1386012  22.6680381
  11.2488993  13.7472492  32.2952970  10.4365675  13.4398383  32.3766142
  11.7078928  13.2671492  32.8595682  11.1969378  13.6308985  32.3907564
  10.6594248  21.6252164  22.7429914  10.3008902  21.7966807  23.5193946
  10.1732958  22.0865370  22.1857912  10.5352945  21.7191135  22.7755183
   8.3442501  15.1532564  37.0781672   8.8142132  15.7774680  37.4649546
   8.3904381  14.4849539  37.6374887   8.4210376  15.1467244  37.2181743
  11.8198987  22.5156060  33.6897115  12.4578708  22.0216256  33.3559571
  11.1773079  22.4433461  33.1049342  11.8193214  22.4315069  33.5539470
  13.5455987  14.3645206  28.2563030  13.1183595  14.2771555  27.5011130
  12.9082040  14.4722982  28.8417875  13.3885594  14.3677866  28.2308472
   7.0377064   9.4720731  34.1960000   7.8650494   9.2005880  34.2518614
   7.0584910  10.2681573  34.5523818   7.1629914   9.5500486  34.2575183
  11.8753244  23.2075868  30.3302472  12.6645622  22.8564933  30.4504553
  12.0496841  24.0212257  30.0679105  12.0173525  23.2761726  30.3090340
   1.6146554  16.6184594  27.3830260   0.7734561  16.5188468  27.5909154
   1.8236562  17.3880074  27.7344581   1.5211247  16.7176637  27.4657575
  10.7287068   7.2185425  24.8918890  10.9336661   7.1507733  25.7375887
  10.4013492   8.0244246  24.8240067  10.7102316   7.3271366  25.0078545
   5.4263219  14.5465993  26.6327858   5.1226356  13.9921982  27.2338266
   4.7242640  14.7258203  26.1455892   5.2779429  14.4910776  26.6497564
   3.4881570  21.7615714  31.3399956   3.3801925  21.7717776  32.2062014
   3.6977351  22.5870494  31.1504910   3.5031681  21.8856789  31.4404047
  13.9820756   7.7717189  24.3721655  13.3695069   8.2587592  24.7575387
  14.0784930   7.0960680  24.9159307  13.9058653   7.7435498  24.5100514
   1.5055362  19.0128356  28.8021893   0.9143295  19.6537855  28.7724908
   2.2676385  19.4365974  28.7753193   1.5303623  19.1704195  28.7937041
   3.5499334  10.8397049  34.0361938   3.1584900  10.1930396  34.4717716
   3.7185197  11.4308484  34.6556193   3.5170245  10.8311317  34.1924644
  17.6245783  18.8434126  29.7999172  17.6828907  19.2920775  30.5459148
  16.9912251  19.2532939  29.3629252  17.5397079  18.9707861  29.8451720
  11.2644878  24.4637668  26.2353918  11.0664567  24.9528483  25.5410129
  10.6432589  24.6678910  26.8138051  11.1432443  24.5654206  26.2177141
   5.3252857  16.2322565  20.5764162   6.0694901  16.6196841  20.8147112
   5.4713553  15.3879990  20.7404650   5.4563442  16.1653038  20.6358132
   8.3130732  11.8048038  26.4758081   7.8390687  11.2789800  26.9863392
   8.6848868  11.2577511  25.9072943   8.2980621  11.6464035  26.4673229
  14.5767463  16.8650414  27.8864862  14.3365686  16.0256829  27.8907288
  15.0559470  16.9450581  28.6105635  14.6119647  16.7531814  27.9939664
  16.5772650  13.6451871  25.8394121  16.3382420  13.6047705  25.0014906
  16.7406551  14.4923023  25.9659842  16.5662953  13.7643956  25.7347603
  13.1818680  18.0301820  31.7699166  13.9052879  17.5774347  31.5910186
  12.9168642  18.3106486  30.9871494  13.2499953  18.0052789  31.6277881
   2.0505548  12.6261994  28.5052045   1.4258619  12.6380386  27.8977998
   1.7151143  13.1022169  29.1543286   1.9091040  12.6980511  28.5108614
   9.7951315  21.2688156  18.6693492  10.5185513  21.7346269  18.5258065
   9.3551906  21.3361766  17.9191089   9.8367007  21.3471993  18.5378274
   8.9637470  18.1285699  29.9194181   8.3494463  17.5843749  30.2142816
   9.4804755  17.6149935  29.4399997   8.9493132  17.9722108  29.8918410
   8.2033767  19.1989969  27.6538480   7.7761375  18.5739687  27.2203915
   8.1958711  18.9164890  28.4797487   8.1392908  19.0642749  27.7118307
   1.3196294  14.2355142  30.7226914   1.4789781  13.4798466  31.1278636
   1.1389187  14.7846081  31.3767651   1.3161653  14.2048955  30.8789620
   9.2616597   6.4016377  31.2777703   8.7657158   6.5980051  30.5869270
  10.0185659   6.8009046  31.1066505   9.3003422   6.4894111  31.1497840
   6.5319476  10.0758723  27.8681014   6.5561964   9.5418835  27.1793794
   6.7830950   9.5676032  28.5306604   6.5729395   9.9219627  27.8645659
   4.9950412  18.3690281  35.3507053   4.1446042  18.5061996  35.4864698
   5.1578539  17.6354060  35.7954754   4.8934275  18.2804383  35.4362652
   4.2335162  15.3190051  29.5460657   3.4027092  15.4863869  29.3395905
   4.1786679  14.9426002  30.3309542   4.1024577  15.2879783  29.6309185
  15.6153994  16.9928231  30.2729716  16.2071834  17.6325482  30.3047914
  16.0512989  16.2951268  30.5621783  15.7672425  16.9846582  30.3210548
   7.4447384  21.4145604  30.8987610   6.9372475  21.9681450  31.3428240
   7.1474030  21.4753893  30.0806384   7.3252269  21.5051915  30.8436066
   9.6109566   9.7798923  29.7412273  10.0364638   9.3271450  29.1295799
   8.9966559   9.2258994  30.0177060   9.5838212   9.6312899  29.6917298
  10.0555164  25.3308861  18.8291553   9.3384474  25.1569723  18.3638791
  10.7061902  25.0961434  18.2967039  10.0457015  25.2704654  18.6820771
  12.6403135  14.2073450  22.5732858  11.9694325  14.7503152  22.4445924
  13.3342886  14.6768305  22.3314553  12.6432003  14.3571721  22.5188386
   6.6889869  26.3470162  27.8044617   6.4655524  25.5888991  28.1728643
   6.1999712  26.3768183  27.0825056   6.5833318  26.2392386  27.7521358
  12.8031263  10.6629333  25.4823232  13.1558873  10.2359056  26.1569030
  11.9446064  10.5780177  25.6124308  12.7280708  10.5874074  25.6018242
   1.5014948  13.2936853  23.5406078   0.7826937  13.7100986  23.8078942
   1.8727310  13.8591092  22.9897716   1.4506880  13.4386135  23.4988885
  10.8014529  13.9264702  29.4308074  10.7812456  13.7447997  30.2842853
  10.8493729  14.7976721  29.4067657  10.8049170  14.0281240  29.5531369
   8.7460859  20.5151894  35.3556550   8.7056713  19.8701571  34.7701706
   9.5584177  20.4588511  35.6681962   8.8604012  20.4110861  35.3153500
   5.3368326  26.5670620  25.2581701   4.9228725  25.9044750  24.8685543
   6.0215700  26.7148479  24.7377395   5.3766698  26.4911278  25.1238198
   8.7033620  25.7260705  26.0105318   8.3049903  25.8362976  25.2426138
   8.0884840  25.9342771  26.5931878   8.5532510  25.7734273  25.9836617
  14.2355323   5.7847745  26.4107544  13.7286188   5.0776885  26.3428722
  15.0322757   5.4540934  26.5408621  14.2782562   5.6320897  26.4206539
  10.1519339  12.2914358  22.3081208   9.9233032  12.3147059  21.4659566
  10.4117415  11.4671825  22.4276218  10.1565527  12.1730437  22.2006406
   4.4338567  14.1448831  31.9106308   3.9217470  13.5370014  32.2691339
   4.2618063  14.8605423  32.3780284   4.3328204  14.1612130  32.0322532
   3.2064101  10.8290904  23.6035403   3.6821468  11.1907984  22.9685585
   2.7052701  11.4847371  23.8835546   3.2029460  10.9785093  23.5512144
  16.4375463  20.3012672  19.3948408  16.8209069  21.0504028  19.6246506
  15.6419576  20.5478492  19.1360398  16.3769245  20.4482366  19.3905982
   8.3107638  12.0673075  34.3508564   8.8679068  11.8386885  33.7187029
   7.9868703  12.8278741  34.0743776   8.3454048  12.1456912  34.2165061
   6.0290755  15.1540729  35.3160571   6.7802082  15.4692405  35.6300125
   6.2213331  14.9519899  34.4894492   6.1682169  15.1708110  35.2403966
  12.8776045  11.2814295  22.5584366  12.8770271  11.1262951  23.4168642
  12.6732225  12.1277282  22.5025752  12.8475823  11.3834916  22.6772306
  10.6016897  15.9611797  26.2120573  11.0970562  15.2434792  26.1724593
   9.7916673  15.6582594  26.0975060  10.5560790  15.8109443  26.1894299
   6.0475509  19.8109610  18.3617577   5.2386831  19.4876283  18.3150887
   6.5550417  19.1042832  18.2945826   6.0025175  19.6590926  18.3447872
  12.6668716  18.7115484  28.8997702  13.0923787  18.1889906  28.3468127
  12.3025636  19.3096322  28.3786325  12.6755319  18.7225711  28.7406712
   2.3022796  27.0079702  27.6595047   2.6169355  27.8216090  27.6672829
   2.7116209  26.6229920  28.3277206   2.4090894  27.0708404  27.7599139
   9.2547315  22.4249748  25.2298859   9.7258494  23.1390011  25.3988844
   9.5907494  21.8248499  25.7658729   9.3742430  22.4421213  25.3331235
  11.3424300  24.0351062  37.4090931  11.4521265  23.2459622  37.7647679
  11.6715197  23.9456998  36.6065269  11.4076706  23.9056915  37.3433322
   9.8921262  22.2167683  31.9926552   9.3442208  21.5925566  31.7246617
  10.3534290  22.4061955  31.2770631   9.8788471  22.1526733  31.8476983
  12.7015126  10.2853037  29.3777744  12.1178115  10.7862243  28.9655312
  13.0219420   9.7782593  28.7442067  12.6628301  10.2844872  29.2236251
   9.4579588  23.2218755  28.5235893  10.2777962  23.0781721  28.7852188
   9.1773666  23.8464954  29.0652331   9.5376331  23.2929107  28.6423832
  19.1292923  29.9659258  26.2431700  18.2730819  30.1267756  26.2940817
  19.1760577  29.0951322  26.2636761  19.0092035  29.8610060  26.2537766
  13.5134063  39.5021976  22.0068931  12.7616962  39.1237514  21.7784976
  13.9620075  39.5340409  21.2587742  13.4683730  39.4507583  21.8626434
  18.9659023  39.9247345  17.4354479  18.6310391  40.6024267  16.9998701
  19.4785893  39.5352657  16.8471350  18.9924604  39.9671924  17.2841270
  18.5063314  41.8761614  23.3765590  18.8902693  42.4448513  22.8370365
  18.4422455  41.1511124  22.8971406  18.5536741  41.8537077  23.2259453
  15.0918819  39.5140368  24.2731704  15.1929182  38.7040722  24.5828832
  14.4960564  39.4197314  23.6431382  15.0191358  39.3805396  24.2257942
  23.7509813  33.4535909  19.7597079  23.6349339  34.2043595  20.1889217
  24.5465700  33.1959862  20.0093166  23.8514402  33.5270756  19.8601171
  14.9319559  44.4317957  25.6746560  15.5757014  44.8731121  26.0642718
  15.2575814  43.6271383  25.5876819  15.0751387  44.3783152  25.7192037
   8.2883863  35.5360655  23.8984038   8.0534048  34.7028307  23.7916306
   8.4269504  35.8165320  23.0845239   8.2739526  35.4544158  23.7626393
  10.5873951  27.7046385  26.7968345   9.9678982  27.1139032  26.6278360
  10.4857814  28.2957820  26.1632668  10.4811626  27.7050468  26.6773335
  15.6340138  37.4429932  21.0466422  15.9555979  37.9835139  20.4427730
  16.2812235  36.8726703  21.1788711  15.7766194  37.4389107  20.9773457
  17.6841846  29.4445927  21.1300808  18.3822011  29.6234054  21.6222272
  17.9994179  28.9216266  20.5071198  17.8337184  29.3939699  21.1102819
  10.3143084  31.2498667  29.0411914  10.1901781  31.8361112  29.6761733
  10.9661368  30.7558863  29.3424189  10.3916733  31.2637471  29.1797844
  17.8729782  35.8316372  21.1180600  18.3123417  35.2233472  21.5635373
  17.7234445  35.4523745  20.3466065  17.9151248  35.6854843  21.0699767
  15.3401425  34.4260384  28.3199425  15.9850427  33.9332827  28.0010374
  15.5803202  34.5685170  29.1465504  15.4712010  34.3737826  28.3948959
  17.8787516  37.2715290  27.9706318  18.1610759  36.4766695  27.7493074
  18.6073677  37.7495877  27.9911379  18.0277080  37.2249887  27.9409333
  15.8568710  24.8138324  25.2122083  15.5272040  25.2649467  24.5425782
  15.1813712  24.7354487  25.7595089  15.7079146  24.8689459  25.1945306
  21.4739118  34.1843553  18.0711369  21.3890414  35.0404520  18.2160938
  21.9623502  33.9087877  18.7393528  21.5328016  34.2700875  18.1913451
  23.0645118  20.8023846  23.4571694  22.7498559  21.4927325  23.8892116
  22.5472060  20.7468629  22.7557194  22.9409588  20.8958735  23.4168643
  22.4057552  30.8028347  19.5709104  21.8769023  31.0187981  20.2306410
  22.9282572  31.4964486  19.4910074  22.4046005  30.9371484  19.6564703
  14.2957159  34.6991564  18.3716572  13.7114375  35.2041596  18.7782436
  13.8927255  34.4733951  17.6313164  14.1496463  34.7399812  18.3221597
   9.8501188  40.4146325  25.1740244   9.3668766  41.1396815  25.1499827
  10.6624506  40.7122455  25.2850401   9.8991936  40.5648679  25.1867523
  15.9215342  39.2078506  27.7790058  15.4042284  38.8485921  27.1751366
  16.6189733  38.6840680  27.7896124  15.9480923  39.0776194  27.6920317
  18.7534374  30.9457216  16.8485493  18.9930378  31.1535200  16.0360836
  19.0750215  30.1414725  16.9574437  18.8371532  30.8571317  16.7446046
  14.0624664  22.8750612  20.6945031  14.8170632  23.2428929  20.4562081
  13.8852199  23.2490166  21.4624210  14.1479143  22.9848800  20.7729919
  12.7045385  40.9302501  25.3260524  13.4065965  40.4154490  25.3833280
  12.6242868  41.2576653  26.1307399  12.7969146  40.9016727  25.4533316
  13.7524292  31.1678088  34.4540939  13.9244796  31.0583983  35.3026220
  14.2893649  31.8132494  34.2172131  13.8569296  31.2470090  34.5446035
  12.4181729  25.2820931  17.3923144  12.2357302  25.4992812  16.5664136
  13.2807342  25.3959944  17.4481758  12.5186318  25.3310829  17.2777631
  12.0296161  37.1208853  24.8346132  12.8685060  37.3531786  24.8819893
  12.0607930  36.2513165  24.7653167  12.1577878  37.0265800  24.8310776
  12.6548864  37.5409728  29.1359437  13.1947089  37.3980859  29.8062809
  11.9718810  37.9406479  29.5043463  12.6341018  37.5789399  29.2893859
  18.0981448  22.2847342  20.4272168  18.8267608  22.1063297  19.9810324
  18.1876341  23.1265421  20.6379346  18.2188110  22.3831220  20.3925685
   8.0586009  33.7610019  29.2893859   7.7924424  32.9449136  29.4484849
   8.0724573  33.8063175  28.4189374   8.0210731  33.6466924  29.1847341
  11.9643756  28.5595104  15.9045617  11.2501933  28.2733283  16.3168049
  12.4487725  28.8991729  16.5452004  11.9303119  28.5676753  16.0601252
  12.8084615  27.2988397  31.9360866  12.1156412  26.8285377  32.1821598
  13.4244943  27.0726702  32.5102574  12.7969145  27.1955529  32.0570019
  19.1391074  37.0625058  16.2807425  19.5542222  36.7310081  15.5891921
  18.3083003  36.8293960  16.1527562  19.0779082  36.9796314  16.1598272
   8.4679423  34.5468799  26.5705603   8.2854996  34.5215685  25.7177895
   9.2029091  35.0167736  26.6094512   8.5493486  34.6130161  26.4503521
  24.5379097  34.7820309  23.7138490  24.7734686  34.9265507  22.8865341
  24.6868660  35.5462717  24.1070004  24.5944900  34.9159363  23.6502094
  11.5325174  31.2653801  33.0787712  12.2565147  31.2506832  33.5652606
  11.6341311  31.9749157  32.5809680  11.6543383  31.3678505  33.0766498
  26.3669553  33.6221974  21.5508094  26.6977771  34.1549615  20.9448189
  26.9402642  33.6760862  22.2070045  26.5003233  33.7091543  21.5585876
  18.9070124  34.7452886  37.9436659  18.1143104  35.0596398  38.1289278
  19.0219051  34.9604354  37.1057443  18.8065534  34.8236723  37.8474993
  21.5801443  31.4686877  22.2331674  21.6748297  32.2076171  22.6871300
  20.9560286  31.0404353  22.6666239  21.5010473  31.5148198  22.3639822
   8.4350333  31.4262299  26.7204670   9.0123835  31.2898750  27.3596915
   7.7364395  30.9698083  26.9750254   8.4171354  31.3384565  26.8526959
  21.8324464  33.3135617  15.4668626  21.7504626  33.3837804  16.3323613
  22.4704184  33.8765361  15.2752367  21.9144301  33.4074588  15.5658576
  15.1917635  33.0796355  24.9343153  14.9336879  32.2468090  24.9074452
  15.2466118  33.3053968  24.0935653  15.1617413  32.9894126  24.8063289
  20.2718685  25.1824806  25.0347245  19.5675012  24.6933991  25.1931165
  20.3203659  25.1947280  24.1635690  20.1748737  25.1114454  24.9286585
  14.1652347  30.6334117  25.4208047  13.5901938  30.7926286  26.0572008
  13.7888023  29.9969527  24.9576498  14.0255160  30.5631930  25.4462606
  17.8325636  29.1057467  30.2800426  17.4440069  28.6811684  29.6252617
  17.1680334  29.3539616  30.7877453  17.6772564  29.0796188  30.2588294
   3.9109166  30.2774192  23.4352488   3.9969418  29.9006061  24.2166018
   4.5384964  29.9034638  22.9572446   4.0165717  30.1659674  23.4797965
  18.9364574  33.3356071  18.4777233  19.7505213  33.6270964  18.3660004
  18.8723715  32.6815934  17.9035526  19.0467313  33.2821266  18.3766070
  14.8072482  36.8077589  23.6049545  15.4446429  36.5689336  24.1501338
  15.2327554  37.0114748  22.8702706  14.9648649  36.8028599  23.5766702
   9.4985125  39.0465925  27.4883849   9.5389270  39.3180776  26.6603628
  10.0579649  39.5707833  27.9041637   9.5868471  39.1641680  27.4275737
  15.4475297  32.0279879  17.9424434  15.8320450  31.8087585  18.6940979
  15.1986918  32.8542824  18.0725511  15.4677370  32.1178025  18.0725511
  15.6143838  25.3086294  37.6587019  15.2997279  26.0785856  37.3956581
  15.2933770  24.7456550  37.0739246  15.5202757  25.3396562  37.5328369
  17.1893954  37.2850011  25.2843331  17.2632963  37.1225183  26.1385181
  18.0063461  37.4740201  25.0403813  17.3210313  37.2886754  25.3741357
  10.9499711  37.6307874  22.3137775  10.1237829  37.8769611  22.1872054
  11.0111702  37.5519955  23.1799833  10.8373878  37.6552823  22.4226719
  13.1675735  23.6976815  23.2733215  12.2998160  23.7699415  23.3390824
  13.4550939  24.4998894  23.4621190  13.0815483  23.8270962  23.3107981
  15.7298540  40.2484754  20.0156805  16.0196838  39.8573736  19.2916031
  16.4602021  40.4301459  20.4562080  15.8805424  40.2178568  19.9739612
  16.3193285  35.0502500  31.1009935  15.8204979  35.7618268  31.1794824
  17.1293509  35.3703167  31.0628098  16.3649392  35.2029349  31.1066504
  13.6704456  42.2252137  23.0816954  13.4504751  41.9349492  23.8743621
  13.4498978  41.5667092  22.5534867  13.6052050  42.0851845  23.1205863
  12.5821403  34.3125453  25.3472656  12.2934651  33.6862925  25.8818383
  13.4504751  34.2545741  25.4137336  12.6681655  34.2112998  25.4363611
  15.8372411  43.5981527  21.8647647  16.4896469  43.0657969  22.0938673
  15.1398020  43.2450179  22.2515521  15.8303129  43.4671050  21.9559814
  12.7853676  35.9520704  21.2715021  13.5399644  36.3333743  21.4850484
  12.1924289  36.4031848  21.7261718  12.8090390  36.0749532  21.3697899
  23.8312330  35.9185941  21.2078626  24.3970362  36.5779151  21.1237169
  23.1840233  36.2635639  21.6795028  23.8191086  36.0667882  21.2651382
  15.2460343  27.9083545  36.3972233  14.4360119  28.2141324  36.2862076
  15.7235030  28.6289127  36.5124817  15.1963822  28.0598146  36.3979304
  14.1051903  37.1229266  26.6455136  13.5832656  37.2629557  27.3307001
  14.4925923  36.3639930  26.8357254  14.0855604  37.0314790  26.7756213
  11.0943087  27.1735074  20.7150091  10.8067883  26.8036345  19.9782038
  11.7813555  27.6429930  20.4533796  11.1531984  27.1882044  20.5665167
  20.3018908  38.8624725  20.6315705  20.0605584  38.1292586  20.2242770
  20.4820241  39.4111582  19.9782039  20.2926532  38.8347116  20.4745928
  15.5318228  34.1533285  22.0436627  15.3361011  34.7608019  21.4496930
  15.7552574  33.4601229  21.5628301  15.5352869  34.1410810  21.8852708
  13.9296758  31.0388023  22.1617496  14.6519410  31.2029181  21.7021302
  13.4504751  31.7597688  22.0556836  13.9660489  31.1686252  22.0783110
  11.5804375  33.4446095  31.2671636  12.0925472  33.7230348  30.6180395
  11.2940718  34.1835389  31.6334449  11.6139238  33.5948449  31.2261514
  20.3359544  24.2737199  22.2741797  21.0385897  24.0744947  21.7961755
  20.0703733  23.5013141  22.5810640  20.4006177  24.1300165  22.2487238
   8.6671281  27.9516287  21.5635372   8.7687418  28.7542448  21.8916348
   9.4627168  27.7503623  21.2658453   8.7999187  28.0402186  21.5670728
  15.0988100  25.5372484  31.3272677  14.9071297  25.5527618  32.1772101
  15.9486696  25.7336158  31.3039332  15.1963822  25.5686835  31.4495972
   9.4835013  28.0663465  29.3056494   9.3420505  27.2147406  29.4301002
   9.7675577  28.1092126  28.4818700   9.5042860  27.9463215  29.2024118
  19.6373606  29.9030555  23.4500982  19.3908320  29.8226306  24.2837771
  19.9658729  29.1184023  23.2563510  19.6494849  29.7756821  23.5448505
  15.5970633  32.6387274  32.8623965  15.7414009  33.2188482  32.2267075
  15.9446282  33.0163571  33.5673820  15.6698094  32.7807978  32.8722960
  14.6698388  40.8290046  29.7284992  14.8187952  40.2692962  29.0758396
  15.4498390  40.9082047  30.1117511  14.8072482  40.7575611  29.6881941
  25.0275028  35.9692168  18.0004263  24.6481836  35.1829306  17.9933552
  24.3641273  36.5179025  17.8575907  24.8733502  35.9336992  17.9785059
  18.0092328  25.7327993  31.5344500  18.4664942  26.4651967  31.6617293
  18.0848656  25.3094458  32.2931756  18.0883297  25.7785231  31.6645577
  10.2525319  25.9793813  32.6233944   9.7167508  25.3674171  32.9394711
  10.3143083  26.5541949  33.2767611  10.1820951  25.9740741  32.7669371
  22.4819653  18.9117868  25.4038343  22.6003222  19.3694332  24.6705646
  22.3081829  18.1063129  25.1174561  22.4738824  18.8611640  25.2539277
  17.8521936  39.5205688  21.8393089  18.6171827  39.2515331  21.5175753
  17.7500026  39.0355698  22.5563152  17.9503431  39.4095252  21.8972916
  15.8874705  27.7230097  28.3786324  15.0970780  27.5421557  28.7003660
  16.2835328  26.9457050  28.3616619  15.8291582  27.5817558  28.4238873
  20.3740596  36.5517871  13.8193038  21.1413581  36.6117996  13.4098890
  19.9271905  35.9798313  13.3349357  20.4214023  36.4754447  13.6870748
  21.2718392  35.3572527  26.1045770  20.5963394  35.1257759  26.6059157
  21.2810768  34.7493710  25.4787875  21.1736896  35.2331452  26.0861923
  18.4012536  30.1990356  32.8609823  18.3371677  31.0600313  32.7329960
  18.5409723  29.8822349  32.0605375  18.4128006  30.2790523  32.7238036
  23.2735126  38.2137660  18.3355948  23.3554964  39.0204646  18.0117399
  23.7584869  38.2333619  19.0596722  23.3572284  38.3358322  18.3942847
  17.0831630  32.8922495  27.0026026  16.6593879  33.0926994  26.2665045
  16.9076485  32.0451343  27.1150326  16.9942510  32.7971277  26.9099716
  16.5843323  44.4073008  29.4647484  17.0739253  43.7083798  29.2823148
  16.0127555  44.1096878  30.0523541  16.5727853  44.2599232  29.5248524
  12.3714075  33.3874547  22.4353999  12.5278694  33.3221350  23.2909991
  12.7114668  34.1623099  22.2232678  12.4447309  33.4923745  22.5308593
  18.9093219  32.7632430  21.3047362  19.4508765  32.2602812  21.7685983
  19.2239778  32.7097625  20.4936847  19.0357616  32.6811851  21.2531174
  17.0779669  38.1549782  18.5887390  17.1472489  37.2964320  18.7280390
  17.8568124  38.3721663  18.2606415  17.2032519  38.0602646  18.5604547
  21.4687156  40.5787483  22.8023883  21.0766948  40.2754198  22.0846750
  21.6240229  41.4156573  22.6128837  21.4340746  40.6571320  22.6680381
   8.9448336  30.5709497  22.7514766   9.3247301  30.9894042  22.0875033
   8.3703701  31.1522953  23.0583609   8.9159661  30.7187356  22.6991507
  21.6326831  37.1437472  22.7429914  21.2741486  37.3152115  23.5193946
  21.1465542  37.6050678  22.1857912  21.5085528  37.2376443  22.7755183
  19.4497217  20.7668671  26.3457005  18.5790775  20.7407392  26.2990315
  19.7037558  20.5945863  25.5282851  19.3590777  20.7378814  26.2177142
  16.4215197  32.8236638  15.2830148  16.7107721  33.6001520  15.5573723
  16.5086996  32.3125369  15.9844648  16.4769453  32.8628556  15.4272646
  19.3175084  30.6717872  37.0781672  19.7874715  31.2959988  37.4649546
  19.3636964  30.0034847  37.6374887  19.3942960  30.6652552  37.2181743
  16.4746358  22.7774899  27.8030476  15.9584846  22.0855091  27.9282055
  15.9140287  23.4445676  27.7493074  16.3152871  22.7738157  27.8136542
  18.5438591  23.3167859  29.6323328  18.1570344  23.3416891  30.4136858
  18.0571528  22.7509538  29.1797845  18.4151100  23.2363610  29.6811232
  18.2095733  20.2034845  31.9233588  18.8388851  20.7395145  31.6454659
  18.3781596  20.1112204  32.7747154  18.3273527  20.2696207  32.0082116
  18.0109648  24.9906039  34.1960000  18.8383077  24.7191188  34.2518614
  18.0317494  25.7866881  34.5523818  18.1362498  25.0685794  34.2575183
  12.5879138  32.1369902  27.3830260  11.7467144  32.0373776  27.5909154
  12.7969146  32.9065382  27.7344581  12.4943830  32.2361945  27.4657575
  10.0654705  29.7589439  25.2115011   9.6711402  29.8332451  24.4365121
   9.5094821  30.1447385  25.7623373   9.9257517  29.8271214  25.1782671
  21.7019651  22.7370733  24.8918890  21.9069245  22.6693041  25.7375887
  21.3746075  23.5429554  24.8240067  21.6834899  22.8456673  25.0078545
  16.3995802  30.0651301  26.6327858  16.0958940  29.5107290  27.2338266
  15.6975223  30.2443511  26.1455892  16.2512012  30.0096084  26.6497564
  15.4561900  27.3751821  21.1972560  15.7321634  26.6570734  20.7850127
  16.0560569  27.9736741  20.9893666  15.5855164  27.3572192  21.1053321
  14.4614154  37.2801022  31.3399956  14.3534508  37.2903084  32.2062014
  14.6709935  38.1055802  31.1504910  14.4764265  37.4042097  31.4404047
  24.9553339  23.2902497  24.3721655  24.3427653  23.7772899  24.7575387
  25.0517514  22.6145988  24.9159307  24.8791237  23.2620806  24.5100514
  18.9572420  25.0465338  19.4719155  19.4116167  25.2175899  20.1966999
  19.4312466  24.4333449  19.0716931  19.0940740  24.9816224  19.5192916
  12.4787945  34.5313664  28.8021893  11.8875879  35.1723163  28.7724908
  13.2408969  34.9551282  28.7753193  12.5036206  34.6889503  28.7937041
  12.8748568  25.6915662  29.4689911  13.3350050  25.7654592  30.2065035
  12.9204675  26.4896916  29.1189732  12.9499124  25.8209809  29.5262667
  14.5231918  26.3582357  34.0361938  14.1317483  25.7115704  34.4717716
  14.6917781  26.9493792  34.6556193  14.4902828  26.3496625  34.1924644
  22.2377462  39.9822976  26.2353918  22.0397150  40.4713790  25.5410129
  21.6165173  40.1864217  26.8138051  22.1165026  40.0839514  26.2177141
  16.2985440  31.7507873  20.5764162  17.0427485  32.1382149  20.8147112
  16.4446136  30.9065298  20.7404650  16.4296025  31.6838346  20.6358132
  18.2165016  23.5458132  25.6096023  17.3701061  23.7180939  25.4837373
  18.2136148  22.7407475  25.9461852  18.0912165  23.4519161  25.6407150
  19.2863316  27.3233346  26.4758081  18.8123270  26.7975108  26.9863392
  19.6581452  26.7762819  25.9072943  19.2713205  27.1649343  26.4673229
   9.6636346  29.3204853  31.8441627  10.5261959  29.2200562  31.7578957
   9.3328129  28.7399562  31.2827199   9.7421542  29.2196480  31.7487033
  21.2146816  28.2169901  19.5383835  20.6869834  28.2998645  18.8489544
  21.6742524  28.9587772  19.5348480  21.2048666  28.3390563  19.4358530
  13.0238132  28.1447302  28.5052045  12.3991202  28.1565694  27.8977998
  12.6883727  28.6207477  29.1543286  12.8823624  28.2165819  28.5108614
  13.2079881  26.4872420  14.5624730  12.8592685  27.1392146  15.0256280
  12.7276327  26.4729533  13.8348602  13.0850125  26.5815474  14.5235822
   9.7363808  36.2047762  29.9455810   9.2063732  35.5140201  29.9950784
  10.0088901  36.1957947  29.1168518   9.6988530  36.1014894  29.8303226
  20.7683898  36.7873464  18.6693492  21.4918097  37.2531577  18.5258065
  20.3284489  36.8547074  17.9191089  20.8099590  36.8657301  18.5378274
  19.1766350  34.7175277  27.6538480  18.7493958  34.0924995  27.2203915
  19.1691295  34.4350198  28.4797487  19.1125492  34.5828057  27.7118307
  12.2928877  29.7540450  30.7226914  12.4522364  28.9983774  31.1278636
  12.1121771  30.3031389  31.3767651  12.2894236  29.7234263  30.8789620
  20.2349180  21.9201685  31.2777703  19.7389742  22.1165359  30.5869270
  20.9918242  22.3194353  31.1066505  20.2736005  22.0079419  31.1497840
  17.5052060  25.5944031  27.8681014  17.5294547  25.0604143  27.1793794
  17.7563534  25.0861340  28.5306604  17.5461979  25.4404935  27.8645659
   5.0159650  32.8775526  27.3024158   4.9103099  32.8322370  26.4376242
   4.2659870  33.2229307  27.5838443   4.8895253  32.9216434  27.2161488
  13.7853382  24.3214849  27.2486758  13.8251754  24.8224056  27.9621466
  12.9603047  24.4125243  26.9792681  13.6692908  24.4096666  27.3137296
  15.9682995  33.8875589  35.3507053  15.1178626  34.0247304  35.4864698
  16.1311123  33.1539368  35.7954754  15.8666859  33.7989691  35.4362652
  15.2067746  30.8375359  29.5460657  14.3759675  31.0049177  29.3395905
  15.1519263  30.4611310  30.3309542  15.0757161  30.8065090  29.6309185
  13.0151529  24.3284252  35.1817068  13.6404232  23.7846385  35.4546500
  12.5602009  23.8479170  34.6124858  13.0399790  24.1773733  35.1378662
  13.5803789  29.1130951  20.0750775  13.7206751  29.6103415  20.7779416
  14.0786322  28.4117245  20.2164989  13.6744870  29.0832929  20.2002354
  13.6104012  29.9798062  17.4043352  14.2449091  30.5758487  17.3392813
  13.6929623  29.6801519  18.2189222  13.7160563  30.0238970  17.5146438
  15.1882995  25.9112037  17.3788794  15.5098836  25.4315120  16.7248056
  15.4509938  26.7211683  17.1879605  15.2749020  25.9601935  17.2544286
  18.4179967  36.9330911  30.8987610  17.9105059  37.4866758  31.3428240
  18.1206614  36.9939201  30.0806384  18.2984852  37.0237223  30.8436066
  10.1157000  32.1765902  20.6732898  10.6249229  32.7730410  21.0544203
  10.5891272  31.9091876  19.9909317  10.2600375  32.2251718  20.6287420
  21.0287748  40.8494169  18.8291553  20.3117058  40.6755031  18.3638791
  21.6794485  40.6146741  18.2967039  21.0189598  40.7889962  18.6820771
  19.0236373  21.7699331  23.1502850  18.3804690  21.6196977  23.7187988
  18.6835780  21.5241676  22.3851954  18.8781450  21.7111453  23.1205865
  17.6622453  41.8655470  27.8044617  17.4388107  41.1074299  28.1728643
  17.1732296  41.8953491  27.0825056  17.5565902  41.7577694  27.7521358
  23.7763846  26.1814641  25.4823232  24.1291457  25.7544364  26.1569030
  22.9178648  26.0965485  25.6124308  23.7013291  26.1059382  25.6018242
  12.4747531  28.8122161  23.5406078  11.7559521  29.2286294  23.8078942
  12.8459894  29.3776400  22.9897716  12.4239463  28.9571442  23.4988885
  16.3100910  42.0855928  25.2581701  15.8961308  41.4230058  24.8685543
  16.9948284  42.2333787  24.7377395  16.3499281  42.0096586  25.1238198
  19.6766204  41.2446013  26.0105318  19.2782487  41.3548283  25.2426138
  19.0617423  41.4528079  26.5931878  19.5265093  41.2919581  25.9836617
  18.2494106  27.8520161  18.8779458  17.6558945  28.1737157  18.3264025
  18.2869384  27.0061256  18.6700564  18.1668495  27.7744489  18.7662229
  25.2087907  21.3033053  26.4107544  24.7018771  20.5962193  26.3428722
  26.0055340  20.9726242  26.5408621  25.2515146  21.1506205  26.4206539
  21.1251922  27.8099665  22.3081208  20.8965615  27.8332367  21.4659566
  21.3849999  26.9857132  22.4276218  21.1298110  27.6915745  22.2006406
  15.4071151  29.6634138  31.9106308  14.8950054  29.0555321  32.2691339
  15.2350647  30.3790731  32.3780284  15.3060788  29.6797438  32.0322532
  10.2536866  28.1071714  34.5608670  10.0839456  28.7673089  34.0156876
   9.8102815  28.3178275  35.2821159  10.1636199  28.2357696  34.5870299
  14.1796685  26.3476212  23.6035403  14.6554051  26.7093292  22.9685585
  13.6785285  27.0032679  23.8835546  14.1762044  26.4970400  23.5512144
  27.4108047  35.8197980  19.3948408  27.7941652  36.5689336  19.6246506
  26.6152160  36.0663799  19.1360398  27.3501829  35.9667674  19.3905982
  19.2840221  27.5858383  34.3508564  19.8411651  27.3572193  33.7187029
  18.9601286  28.3464049  34.0743776  19.3186631  27.6642220  34.2165061
   7.1538930  31.0118579  29.8197160   6.6065650  30.3419225  29.9378028
   7.9431308  30.6448427  29.8840627   7.1891114  30.8583566  29.8465860
  17.0023338  30.6726036  35.3160571  17.7534665  30.9877713  35.6300125
  17.1945915  30.4705207  34.4894492  17.1414753  30.6893418  35.2403966
  16.2223338  28.4917412  16.9708787  16.6022303  28.5097041  16.1859902
  15.4815934  28.9371400  16.8499635  16.1692176  28.5599186  16.8372356
  23.8508629  26.7999603  22.5584366  23.8502855  26.6448259  23.4168642
  23.6464809  27.6462590  22.5025752  23.8208406  26.9020223  22.6772306
   5.9125900  30.2239387  26.9743183   5.7347661  29.7715996  27.6998098
   5.6244922  31.0265549  27.1581660   5.8438853  30.2761945  27.1086686
  17.0208092  35.3294918  18.3617577  16.2119415  35.0061591  18.3150887
  17.5283001  34.6228140  18.2945826  16.9757759  35.1776234  18.3447872
   7.6498369  32.7567111  24.0864942   6.7843889  32.7452801  23.9747713
   7.7497185  32.5697334  24.9336081   7.5372536  32.7273172  24.1953886
  13.2755379  42.5265010  27.6595047  13.5901938  43.3401398  27.6672829
  13.6848793  42.1415228  28.3277206  13.3823477  42.5893712  27.7599139
  20.2279899  37.9435056  25.2298859  20.6991077  38.6575319  25.3988844
  20.5640077  37.3433806  25.7658729  20.3475014  37.9606521  25.3331235
  17.1449394  22.7162527  32.1856954  17.2777300  21.9193520  32.5137930
  17.5294547  23.2428930  32.7655230  17.2205723  22.6762444  32.3200457
  20.2181749  19.6392853  28.7838047  19.4127713  19.5290583  29.1005886
  20.0888485  19.7405309  27.9267913  20.0801882  19.6376523  28.7046088
  16.2142509  24.7178940  19.6536419  17.0358203  24.8877253  19.4118114
  15.7512160  24.8726201  18.9302717  16.2673671  24.7660673  19.5108063
  14.8037841  22.7121702  30.4334848  15.3482254  22.3712829  31.0239189
  14.8574776  23.5707164  30.5756132  14.8926960  22.7876961  30.5416721
  10.6168399  36.4738118  27.3073656  11.2213257  36.4333952  26.6787476
  10.4095712  37.3209270  27.3377712  10.6757297  36.5926120  27.2189772
   5.8519682  35.4572736  27.1772579   5.7543960  34.6469007  27.4862635
   6.6348551  35.4364529  26.7918847   5.9535818  35.3339826  27.1659442
  36.9025822  46.3968915  21.4878769  36.8719826  47.2513552  21.6597039
  37.5007171  46.0964207  22.0464913  36.9862980  46.4785411  21.5953572
  30.1025507  45.4844566  26.2431700  29.2463402  45.6453064  26.2940817
  30.1493161  44.6136630  26.2636761  29.9824618  45.3795368  26.2537766
  24.4866647  55.0207284  22.0068931  23.7349546  54.6422822  21.7784976
  24.9352658  55.0525717  21.2587742  24.4416313  54.9692891  21.8626434
  29.9391606  55.4432653  17.4354479  29.6042975  56.1209575  16.9998701
  30.4518477  55.0537964  16.8471350  29.9657188  55.4857231  17.2841270
  29.4795898  57.3946922  23.3765590  29.8635277  57.9633821  22.8370365
  29.4155039  56.6696432  22.8971406  29.5269325  57.3722385  23.2259453
  32.9477328  47.5436610  28.8863351  33.4933288  48.2221696  28.9457321
  32.8894204  47.4024071  28.0264933  33.0193242  47.6228611  28.7675412
  26.0651403  55.0325676  24.2731704  26.1661766  54.2226030  24.5828832
  25.4693148  54.9382622  23.6431382  25.9923941  54.8990704  24.2257942
  34.7242396  48.9721217  19.7597079  34.6081922  49.7228903  20.1889217
  35.5198283  48.7145170  20.0093166  34.8246986  49.0456064  19.8601171
  25.9052142  59.9503265  25.6746560  26.5489598  60.3916429  26.0642718
  26.2308398  59.1456691  25.5876819  26.0483971  59.8968460  25.7192037
  19.2616447  51.0545962  23.8984038  19.0266631  50.2213615  23.7916306
  19.4002088  51.3350628  23.0845239  19.2472109  50.9729466  23.7626393
  21.5606534  43.2231693  26.7968345  20.9411566  42.6324340  26.6278360
  21.4590398  43.8143128  26.1632668  21.4544210  43.2235776  26.6773335
  26.6072722  52.9615240  21.0466422  26.9288563  53.5020447  20.4427730
  27.2544819  52.3912011  21.1788711  26.7498777  52.9574415  20.9773457
  28.6574430  44.9631235  21.1300808  29.3554595  45.1419362  21.6222272
  28.9726763  44.4401574  20.5071198  28.8069767  44.9125007  21.1102819
  21.2875667  46.7683975  29.0411914  21.1634364  47.3546420  29.6761733
  21.9393952  46.2744170  29.3424189  21.3649317  46.7822779  29.1797844
  28.8462365  51.3501680  21.1180600  29.2856001  50.7418780  21.5635373
  28.6967028  50.9709053  20.3466065  28.8883831  51.2040151  21.0699767
  26.3134008  49.9445692  28.3199425  26.9583011  49.4518135  28.0010374
  26.5535786  50.0870478  29.1465504  26.4444594  49.8923134  28.3948959
  28.8520100  52.7900598  27.9706318  29.1343343  51.9952003  27.7493074
  29.5806260  53.2681185  27.9911379  29.0009664  52.7435194  27.9409333
  26.8301294  40.3323632  25.2122083  26.5004624  40.7834775  24.5425782
  26.1546295  40.2539795  25.7595089  26.6811730  40.3874767  25.1945306
  32.4471702  49.7028861  18.0711369  32.3622997  50.5589828  18.2160938
  32.9356085  49.4273185  18.7393528  32.5060599  49.7886183  18.1913451
  33.3790135  46.3213655  19.5709104  32.8501607  46.5373289  20.2306410
  33.9015155  47.0149794  19.4910074  33.3778588  46.4556792  19.6564703
  25.2689743  50.2176872  18.3716572  24.6846958  50.7226903  18.7782436
  24.8659838  49.9919259  17.6313164  25.1229047  50.2585120  18.3221597
  20.8233772  55.9331633  25.1740244  20.3401350  56.6582123  25.1499827
  21.6357090  56.2307763  25.2850401  20.8724519  56.0833987  25.1867523
  26.8947926  54.7263814  27.7790058  26.3774867  54.3671229  27.1751366
  27.5922317  54.2025988  27.7896124  26.9213507  54.5961502  27.6920317
  29.7266957  46.4642524  16.8485493  29.9662961  46.6720508  16.0360836
  30.0482798  45.6600033  16.9574437  29.8104115  46.3756625  16.7446046
  25.0357248  38.3935920  20.6945031  25.7903216  38.7614237  20.4562081
  24.8584782  38.7675474  21.4624210  25.1211726  38.5034108  20.7729919
  23.6777969  56.4487809  25.3260524  24.3798548  55.9339798  25.3833280
  23.5975452  56.7761960  26.1307399  23.7701729  56.4202035  25.4533316
  23.3914312  40.8006239  17.3923144  23.2089886  41.0178120  16.5664136
  24.2539925  40.9145252  17.4481758  23.4918902  40.8496137  17.2777631
  23.0028744  52.6394161  24.8346132  23.8417644  52.8717094  24.8819893
  23.0340514  51.7698473  24.7653167  23.1310462  52.5451108  24.8310776
  23.6281447  53.0595036  29.1359437  24.1679672  52.9166167  29.8062809
  22.9451394  53.4591787  29.5043463  23.6073601  53.0974707  29.2893859
  29.0714032  37.8032650  20.4272168  29.8000192  37.6248605  19.9810324
  29.1608924  38.6450729  20.6379346  29.1920694  37.9016528  20.3925685
  19.0318592  49.2795327  29.2893859  18.7657008  48.4634444  29.4484849
  19.0457157  49.3248483  28.4189374  18.9943315  49.1652232  29.1847341
  22.9376339  44.0780412  15.9045617  22.2234517  43.7918591  16.3168049
  23.4220308  44.4177037  16.5452004  22.9035703  44.0862061  16.0601252
  30.1123657  52.5810366  16.2807425  30.5274806  52.2495389  15.5891921
  29.2815587  52.3479268  16.1527562  30.0511666  52.4981621  16.1598272
  19.4412006  50.0654107  26.5705603  19.2587579  50.0400993  25.7177895
  20.1761675  50.5353044  26.6094512  19.5226070  50.1315469  26.4503521
  22.5057758  46.7839109  33.0787712  23.2297730  46.7692140  33.5652606
  22.6073894  47.4934465  32.5809680  22.6275967  46.8863813  33.0766498
  32.5534026  46.9872185  22.2331674  32.6480881  47.7261479  22.6871300
  31.9292870  46.5589661  22.6666239  32.4743056  47.0333506  22.3639822
  19.4082916  46.9447607  26.7204670  19.9856419  46.8084058  27.3596915
  18.7096978  46.4883391  26.9750254  19.3903938  46.8569873  26.8526959
  32.8057047  48.8320925  15.4668626  32.7237210  48.9023112  16.3323613
  33.4436768  49.3950669  15.2752367  32.8876885  48.9259896  15.5658576
  26.1650219  48.5981663  24.9343153  25.9069463  47.7653398  24.9074452
  26.2198701  48.8239276  24.0935653  26.1349996  48.5079434  24.8063289
  31.2451269  40.7010114  25.0347245  30.5407595  40.2119299  25.1931165
  31.2936243  40.7132588  24.1635690  31.1481320  40.6299762  24.9286585
  25.1384931  46.1519425  25.4208047  24.5634522  46.3111594  26.0572008
  24.7620607  45.5154834  24.9576498  24.9987743  46.0817238  25.4462606
  28.8058219  44.6242775  30.2800426  28.4172652  44.1996992  29.6252617
  28.1412918  44.8724924  30.7877453  28.6505147  44.5981496  30.2588294
  38.4481489  44.3817779  23.0548256  38.1918053  43.5697721  22.8646139
  39.2910802  44.3895346  22.8278443  38.5347514  44.2629777  22.9933073
  14.8841750  45.7959500  23.4352488  14.9702001  45.4191368  24.2166018
  15.5117547  45.4219946  22.9572446  14.9898301  45.6844982  23.4797965
  32.6284581  38.3217403  27.7924410  33.0095093  37.6395574  28.1792284
  31.8247865  38.0327005  27.6100075  32.5661043  38.1784452  27.8228466
  29.9097158  48.8541379  18.4777233  30.7237796  49.1456272  18.3660004
  29.8456299  48.2001242  17.9035526  30.0199897  48.8006574  18.3766070
  25.7805066  52.3262897  23.6049545  26.4179013  52.0874644  24.1501338
  26.2060137  52.5300056  22.8702706  25.9381232  52.3213907  23.5766702
  20.4717708  54.5651233  27.4883849  20.5121854  54.8366084  26.6603628
  21.0312232  55.0893141  27.9041637  20.5601054  54.6826988  27.4275737
  26.4207881  47.5465186  17.9424434  26.8053034  47.3272893  18.6940979
  26.1719501  48.3728132  18.0725511  26.4409954  47.6363333  18.0725511
  28.1626538  52.8035319  25.2843331  28.2365546  52.6410491  26.1385181
  28.9796044  52.9925509  25.0403813  28.2942896  52.8072062  25.3741357
  21.9232295  53.1493182  22.3137775  21.0970412  53.3954919  22.1872054
  21.9844286  53.0705263  23.1799833  21.8106462  53.1738131  22.4226719
  24.1408318  39.2162123  23.2733215  23.2730744  39.2884723  23.3390824
  24.4283523  40.0184202  23.4621190  24.0548066  39.3456270  23.3107981
  26.7031124  55.7670062  20.0156805  26.9929422  55.3759044  19.2916031
  27.4334604  55.9486767  20.4562080  26.8538008  55.7363876  19.9739612
  24.6437039  57.7437445  23.0816954  24.4237335  57.4534799  23.8743621
  24.4231561  57.0852400  22.5534867  24.5784633  57.6037153  23.1205863
  23.5553986  49.8310761  25.3472656  23.2667235  49.2048233  25.8818383
  24.4237334  49.7731049  25.4137336  23.6414238  49.7298306  25.4363611
  26.8104995  59.1166835  21.8647647  27.4629053  58.5843277  22.0938673
  26.1130604  58.7635487  22.2515521  26.8035713  58.9856358  21.9559814
  23.7586260  51.4706012  21.2715021  24.5132228  51.8519051  21.4850484
  23.1656872  51.9217156  21.7261718  23.7822973  51.5934840  21.3697899
  34.8044913  51.4371249  21.2078626  35.3702946  52.0964459  21.1237169
  34.1572817  51.7820947  21.6795028  34.7923670  51.5853190  21.2651382
  25.0784486  52.6414574  26.6455136  24.5565240  52.7814865  27.3307001
  25.4658507  51.8825238  26.8357254  25.0588187  52.5500098  26.7756213
  22.0675670  42.6920382  20.7150091  21.7800466  42.3221653  19.9782038
  22.7546139  43.1615238  20.4533796  22.1264568  42.7067352  20.5665167
  31.2751491  54.3810033  20.6315705  31.0338167  53.6477894  20.2242770
  31.4552824  54.9296890  19.9782039  31.2659115  54.3532424  20.4745928
  26.5050812  49.6718593  22.0436627  26.3093595  50.2793327  21.4496930
  26.7285158  48.9786537  21.5628301  26.5085453  49.6596118  21.8852708
  24.9029342  46.5573331  22.1617496  25.6251994  46.7214489  21.7021302
  24.4237335  47.2782995  22.0556836  24.9393073  46.6871560  22.0783110
  32.8622850  42.8937129  27.5414181  32.0233950  42.9198408  27.3052444
  32.9327217  43.5407865  28.1219527  32.7491243  42.9933255  27.5923298
  22.5536959  48.9631403  31.2671636  23.0658056  49.2415656  30.6180395
  22.2673301  49.7020697  31.6334449  22.5871822  49.1133757  31.2261514
  31.3092128  39.7922506  22.2741797  32.0118481  39.5930255  21.7961755
  31.0436317  39.0198449  22.5810640  31.3738760  39.6485472  22.2487238
  19.6403865  43.4701595  21.5635372  19.7420001  44.2727756  21.8916348
  20.4359752  43.2688931  21.2658453  19.7731771  43.5587494  21.5670728
  30.6106189  45.4215863  23.4500982  30.3640904  45.3411614  24.2837771
  30.9391313  44.6369331  23.2563510  30.6227433  45.2942129  23.5448505
  34.5054238  52.1299223  27.2387763  34.3668598  52.8280268  27.7436506
  33.7254236  51.9747879  26.8823945  34.3697465  52.2099389  27.2614037
  25.6430972  56.3475354  29.7284992  25.7920535  55.7878270  29.0758396
  26.4230974  56.4267355  30.1117511  25.7805065  56.2760919  29.6881941
  36.0007611  51.4877476  18.0004263  35.6214420  50.7014614  17.9933552
  35.3373857  52.0364333  17.8575907  35.8466086  51.4522300  17.9785059
  28.1684272  56.5189997  31.0069483  28.0927943  55.8498807  31.5620271
  28.0974131  57.2207785  31.5210149  28.1464879  56.5234904  31.1646331
  28.8254519  55.0390995  21.8393089  29.5904410  54.7700639  21.5175753
  28.7232609  54.5541006  22.5563152  28.9236015  54.9280560  21.8972916
  26.8607289  43.2415405  28.3786324  26.0703364  43.0606865  28.7003660
  27.2567912  42.4642357  28.3616619  26.8024165  43.1002866  28.4238873
  31.3473180  52.0703179  13.8193038  32.1146165  52.1303304  13.4098890
  30.9004489  51.4983621  13.3349357  31.3946607  51.9939755  13.6870748
  32.2450975  50.8757835  26.1045770  31.5695977  50.6443067  26.6059157
  32.2543351  50.2679018  25.4787875  32.1469480  50.7516760  26.0861923
  34.2467710  53.7322967  18.3355948  34.3287547  54.5389954  18.0117399
  34.7317452  53.7518927  19.0596722  34.3304868  53.8543630  18.3942847
  28.0564213  48.4107803  27.0026026  27.6326462  48.6112302  26.2665045
  27.8809068  47.5636651  27.1150326  27.9675094  48.3156585  26.9099716
  27.5575907  59.9258316  29.4647484  28.0471837  59.2269106  29.2823148
  26.9860139  59.6282186  30.0523541  27.5460437  59.7784540  29.5248524
  23.3446658  48.9059855  22.4353999  23.5011277  48.8406658  23.2909991
  23.6847251  49.6808407  22.2232678  23.4179893  49.0109053  22.5308593
  29.8825803  48.2817738  21.3047362  30.4241348  47.7788119  21.7685983
  30.1972362  48.2282933  20.4936847  30.0090200  48.1997159  21.2531174
  28.0512252  53.6735090  18.5887390  28.1205073  52.8149628  18.7280390
  28.8300708  53.8906971  18.2606415  28.1765103  53.5787954  18.5604547
  32.4419740  56.0972791  22.8023883  32.0499532  55.7939506  22.0846750
  32.5972812  56.9341881  22.6128837  32.4073330  56.1756628  22.6680381
  19.9180920  46.0894805  22.7514766  20.2979885  46.5079350  22.0875033
  19.3436284  46.6708261  23.0583609  19.8892245  46.2372664  22.6991507
  32.6059415  52.6622780  22.7429914  32.2474070  52.8337423  23.5193946
  32.1198126  53.1235986  22.1857912  32.4818112  52.7561751  22.7755183
  27.3947780  48.3421945  15.2830148  27.6840305  49.1186828  15.5573723
  27.4819579  47.8310677  15.9844648  27.4502036  48.3813864  15.4272646
  23.5611721  47.6555210  27.3830260  22.7199728  47.5559084  27.5909154
  23.7701729  48.4250690  27.7344581  23.4676414  47.7547253  27.4657575
  21.0387288  45.2774747  25.2115011  20.6443986  45.3517759  24.4365121
  20.4827405  45.6632693  25.7623373  20.8990101  45.3456522  25.1782671
  27.3728386  45.5836609  26.6327858  27.0691524  45.0292597  27.2338266
  26.6707807  45.7628819  26.1455892  27.2244596  45.5281392  26.6497564
  26.4294483  42.8937129  21.1972560  26.7054218  42.1756042  20.7850127
  27.0293152  43.4922049  20.9893666  26.5587748  42.8757500  21.1053321
  25.4346737  52.7986330  31.3399956  25.3267092  52.8088392  32.2062014
  25.6442519  53.6241110  31.1504910  25.4496848  52.9227405  31.4404047
  35.9285923  38.8087805  24.3721655  35.3160236  39.2958207  24.7575387
  36.0250098  38.1331296  24.9159307  35.8523820  38.7806114  24.5100514
  29.9305004  40.5650646  19.4719155  30.3848750  40.7361207  20.1966999
  30.4045049  39.9518757  19.0716931  30.0673324  40.5001532  19.5192916
  23.4520529  50.0498972  28.8021893  22.8608462  50.6908470  28.7724908
  24.2141553  50.4736590  28.7753193  23.4768790  50.2074811  28.7937041
  27.2718024  47.2693181  20.5764162  28.0160069  47.6567457  20.8147112
  27.4178720  46.4250606  20.7404650  27.4028609  47.2023654  20.6358132
  30.2595900  42.8418654  26.4758081  29.7855854  42.3160416  26.9863392
  30.6314035  42.2948127  25.9072943  30.2445788  42.6834651  26.4673229
  32.1879399  43.7355209  19.5383835  31.6602418  43.8183953  18.8489544
  32.6475107  44.4773080  19.5348480  32.1781250  43.8575871  19.4358530
  23.9970716  43.6632610  28.5052045  23.3723786  43.6751002  27.8977998
  23.6616311  44.1392785  29.1543286  23.8556207  43.7351127  28.5108614
  24.1812464  42.0057728  14.5624730  23.8325269  42.6577453  15.0256280
  23.7008910  41.9914841  13.8348602  24.0582708  42.1000782  14.5235822
  20.7096391  51.7233070  29.9455810  20.1796316  51.0325509  29.9950784
  20.9821485  51.7143255  29.1168518  20.6721114  51.6200202  29.8303226
  31.7416482  52.3058772  18.6693492  32.4650681  52.7716885  18.5258065
  31.3017073  52.3732382  17.9191089  31.7832174  52.3842609  18.5378274
  30.9102637  49.1656314  29.9194181  30.2959630  48.6214365  30.2142816
  31.4269922  48.6520551  29.4399997  30.8958299  49.0092723  29.8918410
  30.1498934  50.2360584  27.6538480  29.7226542  49.6110303  27.2203915
  30.1423878  49.9535506  28.4797487  30.0858075  50.1013365  27.7118307
  23.2661461  45.2725758  30.7226914  23.4254948  44.5169082  31.1278636
  23.0854355  45.8216697  31.3767651  23.2626820  45.2419571  30.8789620
  28.4784644  41.1129339  27.8681014  28.5027131  40.5789451  27.1793794
  28.7296117  40.6046648  28.5306604  28.5194562  40.9590243  27.8645659
  15.9892233  48.3960834  27.3024158  15.8835683  48.3507678  26.4376242
  15.2392453  48.7414615  27.5838443  15.8627836  48.4401742  27.2161488
  24.7585966  39.8400157  27.2486758  24.7984337  40.3409364  27.9621466
  23.9335630  39.9310551  26.9792681  24.6425492  39.9281974  27.3137296
  26.1800329  46.3560667  29.5460657  25.3492259  46.5234485  29.3395905
  26.1251846  45.9796618  30.3309542  26.0489744  46.3250398  29.6309185
  24.5536373  44.6316259  20.0750775  24.6939334  45.1288723  20.7779416
  25.0518906  43.9302553  20.2164989  24.6477454  44.6018237  20.2002354
  24.5836595  45.4983370  17.4043352  25.2181675  46.0943795  17.3392813
  24.6662206  45.1986827  18.2189222  24.6893146  45.5424278  17.5146438
  26.1615578  41.4297345  17.3788794  26.4831419  40.9500428  16.7248056
  26.4242522  42.2396991  17.1879605  26.2481604  41.4787243  17.2544286
  21.0889583  47.6951210  20.6732898  21.5981813  48.2915718  21.0544203
  21.5623856  47.4277184  19.9909317  21.2332959  47.7437026  20.6287420
  32.0020331  56.3679477  18.8291553  31.2849641  56.1940339  18.3638791
  32.6527069  56.1332049  18.2967039  31.9922182  56.3075270  18.6820771
  34.5868303  45.2444066  22.5732858  33.9159492  45.7873768  22.4445924
  35.2808053  45.7138921  22.3314553  34.5897170  45.3942337  22.5188386
  28.6355036  57.3840778  27.8044617  28.4120691  56.6259607  28.1728643
  28.1464880  57.4138799  27.0825056  28.5298485  57.2763002  27.7521358
  34.7496430  41.6999949  25.4823232  35.1024040  41.2729672  26.1569030
  33.8911232  41.6150793  25.6124308  34.6745875  41.6244690  25.6018242
  23.4480115  44.3307469  23.5406078  22.7292104  44.7471602  23.8078942
  23.8192477  44.8961708  22.9897716  23.3972047  44.4756750  23.4988885
  27.2833493  57.6041236  25.2581701  26.8693892  56.9415366  24.8685543
  27.9680868  57.7519095  24.7377395  27.3231865  57.5281894  25.1238198
  30.6498787  56.7631321  26.0105318  30.2515071  56.8733591  25.2426138
  30.0350007  56.9713387  26.5931878  30.4997677  56.8104889  25.9836617
  29.2226689  43.3705469  18.8779458  28.6291529  43.6922465  18.3264025
  29.2601967  42.5246564  18.6700564  29.1401079  43.2929797  18.7662229
  32.0984506  43.3284973  22.3081208  31.8698199  43.3517675  21.4659566
  32.3582582  42.5042440  22.4276218  32.1030694  43.2101053  22.2006406
  25.1529268  41.8661520  23.6035403  25.6286635  42.2278599  22.9685585
  24.6517868  42.5217987  23.8835546  25.1494627  42.0155708  23.5512144
  18.1271514  46.5303887  29.8197160  17.5798233  45.8604533  29.9378028
  18.9163892  46.1633735  29.8840627  18.1623697  46.3768874  29.8465860
  27.1955922  44.0102719  16.9708787  27.5754886  44.0282349  16.1859902
  26.4548518  44.4556708  16.8499635  27.1424759  44.0784494  16.8372356
  34.8241212  42.3184911  22.5584366  34.8235439  42.1633567  23.4168642
  34.6197392  43.1647898  22.5025752  34.7940990  42.4205531  22.6772306
  16.8858483  45.7424695  26.9743183  16.7080244  45.2901304  27.6998098
  16.5977505  46.5450856  27.1581660  16.8171436  45.7947253  27.1086686
  32.5482064  46.9982412  26.2120573  33.0435730  46.2805407  26.1724593
  31.7381840  46.6953210  26.0975060  32.5025958  46.8480059  26.1894299
  27.9940676  50.8480226  18.3617577  27.1851998  50.5246899  18.3150887
  28.5015585  50.1413448  18.2945826  27.9490343  50.6961542  18.3447872
  18.6230953  48.2752419  24.0864942  17.7576472  48.2638109  23.9747713
  18.7229769  48.0882642  24.9336081  18.5105120  48.2458480  24.1953886
  24.2487963  58.0450317  27.6595047  24.5634522  58.8586706  27.6672829
  24.6581376  57.6600536  28.3277206  24.3556061  58.1079020  27.7599139
  31.2012483  53.4620364  25.2298859  31.6723661  54.1760627  25.3988844
  31.5372661  52.8619114  25.7658729  31.3207598  53.4791829  25.3331235
  27.1875092  40.2364248  19.6536419  28.0090787  40.4062561  19.4118114
  26.7244743  40.3911509  18.9302717  27.2406255  40.2845981  19.5108063
  21.5900983  51.9923426  27.3073656  22.1945840  51.9519260  26.6787476
  21.3828296  52.8394578  27.3377712  21.6489880  52.1111428  27.2189772
  16.8252265  50.9758043  27.1772579  16.7276543  50.1654315  27.4862635
  17.6081135  50.9549837  26.7918847  16.9268402  50.8525134  27.1659442
  35.4599230  70.5392592  22.0068931  34.7082130  70.1608130  21.7784976
  35.9085242  70.5711025  21.2587742  35.4148897  70.4878199  21.8626434
  44.3851807  67.2716399  35.8492156  45.0918574  66.7768430  35.9779090
  44.5739742  67.7125481  35.1194814  44.5179713  67.2634750  35.7601201
  40.9124190  70.9617961  17.4354479  40.5775558  71.6394883  16.9998701
  41.4251060  70.5723272  16.8471350  40.9389771  71.0042539  17.2841270
  40.4528481  72.9132230  23.3765590  40.8367861  73.4819128  22.8370365
  40.3887623  72.1881740  22.8971406  40.5001909  72.8907693  23.2259453
  43.9209911  63.0621918  28.8863351  44.4665871  63.7407004  28.9457321
  43.8626788  62.9209379  28.0264933  43.9925826  63.1413919  28.7675412
  37.0383986  70.5510984  24.2731704  37.1394349  69.7411338  24.5828832
  36.4425732  70.4567930  23.6431382  36.9656525  70.4176012  24.2257942
  45.6974980  64.4906525  19.7597079  45.5814506  65.2414211  20.1889217
  46.4930867  64.2330478  20.0093166  45.7979570  64.5641372  19.8601171
  36.8784726  75.4688573  25.6746560  37.5222181  75.9101737  26.0642718
  37.2040981  74.6641999  25.5876819  37.0216555  75.4153768  25.7192037
  30.2349031  66.5731270  23.8984038  29.9999215  65.7398923  23.7916306
  30.3734671  66.8535936  23.0845239  30.2204693  66.4914774  23.7626393
  37.5805306  68.4800548  21.0466422  37.9021147  69.0205755  20.4427730
  38.2277402  67.9097319  21.1788711  37.7231361  68.4759723  20.9773457
  39.6307014  60.4816543  21.1300808  40.3287178  60.6604670  21.6222272
  39.9459346  59.9586882  20.5071198  39.7802351  60.4310315  21.1102819
  39.8194949  66.8686988  21.1180600  40.2588585  66.2604088  21.5635373
  39.6699612  66.4894361  20.3466065  39.8616415  66.7225459  21.0699767
  39.8252683  68.3085905  27.9706318  40.1075926  67.5137311  27.7493074
  40.5538844  68.7866493  27.9911379  39.9742247  68.2620502  27.9409333
  43.4204286  65.2214169  18.0711369  43.3355581  66.0775136  18.2160938
  43.9088669  64.9458493  18.7393528  43.4793183  65.3071490  18.1913451
  44.3522719  61.8398963  19.5709104  43.8234190  62.0558597  20.2306410
  44.8747739  62.5335102  19.4910074  44.3511172  61.9742100  19.6564703
  49.8070772  67.4145268  24.9442149  48.9768475  67.6255911  25.1075565
  49.7580024  66.5882322  24.6684432  49.6777507  67.3234874  24.9279514
  36.2422327  65.7362180  18.3716572  35.6579542  66.2412211  18.7782436
  35.8392422  65.5104567  17.6313164  36.0961630  65.7770428  18.3221597
  31.7966355  71.4516941  25.1740244  31.3133933  72.1767431  25.1499827
  32.6089674  71.7493071  25.2850401  31.8457103  71.6019295  25.1867523
  37.8680509  70.2449122  27.7790058  37.3507451  69.8856537  27.1751366
  38.5654901  69.7211296  27.7896124  37.8946090  70.1146810  27.6920317
  41.5244101  70.6943936  33.7406231  41.6127447  70.5070076  34.5884442
  41.9533814  70.0481365  33.3411078  41.6006204  70.5706944  33.8077983
  39.0914561  69.9775096  32.7223893  38.5285396  69.5647706  33.2463555
  39.8535585  69.9028002  33.1417037  39.1209010  69.9052496  32.8616894
  40.6999541  61.9827832  16.8485493  40.9395545  62.1905816  16.0360836
  41.0215382  61.1785341  16.9574437  40.7836699  61.8941933  16.7446046
  36.0089831  53.9121228  20.6945031  36.7635799  54.2799545  20.4562081
  35.8317366  54.2860782  21.4624210  36.0944310  54.0219416  20.7729919
  34.6510553  71.9673117  25.3260524  35.3531132  71.4525106  25.3833280
  34.5708036  72.2947268  26.1307399  34.7434313  71.9387343  25.4533316
  34.3646896  56.3191547  17.3923144  34.1822469  56.5363428  16.5664136
  35.2272509  56.4330560  17.4481758  34.4651485  56.3681445  17.2777631
  33.9761328  68.1579469  24.8346132  34.8150227  68.3902402  24.8819893
  34.0073097  67.2883780  24.7653167  34.1043046  68.0636416  24.8310776
  34.6014031  68.5780344  29.1359437  35.1412256  68.4351475  29.8062809
  33.9183977  68.9777095  29.5043463  34.5806185  68.6160015  29.2893859
  44.0254916  64.2571345  24.3304461  44.7812431  64.6902859  24.3693370
  44.1317240  63.6076115  24.9039098  44.1525086  64.2248829  24.4202487
  47.0635087  68.0844622  25.0806864  46.6270319  68.0881365  25.8365836
  46.7298002  68.7650121  24.6486442  46.9497707  68.1857078  25.1287697
  41.6364161  70.1252955  36.4050015  42.4204577  70.2383803  36.7705757
  41.4360755  69.2994092  36.6008701  41.7230186  70.0199674  36.4884401
  33.9108923  59.5965719  15.9045617  33.1967100  59.3103899  16.3168049
  34.3952892  59.9362345  16.5452004  33.8768286  59.6047369  16.0601252
  41.7934554  72.0363057  30.0516470  40.9949800  71.7962557  30.3090339
  42.2420565  72.0877450  30.7983518  41.7409165  72.0085448  30.2001395
  41.0856241  68.0995673  16.2807425  41.5007389  67.7680697  15.5891921
  40.2548171  67.8664576  16.1527562  41.0244250  68.0166929  16.1598272
  30.4144590  65.5839414  26.5705603  30.2320163  65.5586300  25.7177895
  31.1494259  66.0538352  26.6094512  30.4958654  65.6500777  26.4503521
  46.4844264  65.8190924  23.7138490  46.7199853  65.9636123  22.8865341
  46.6333828  66.5833332  24.1070004  46.5410067  65.9529979  23.6502094
  48.3134721  64.6592590  21.5508094  48.6442938  65.1920230  20.9448189
  48.8867809  64.7131478  22.2070045  48.4468400  64.7462159  21.5585876
  40.8535291  65.7823502  37.9436659  40.0608272  66.0967014  38.1289278
  40.9684218  65.9974970  37.1057443  40.7530701  65.8607339  37.8474993
  43.5266610  62.5057493  22.2331674  43.6213464  63.2446787  22.6871300
  42.9025453  62.0774969  22.6666239  43.4475640  62.5518814  22.3639822
  41.7819084  65.6843706  32.8821955  42.3557945  65.0470950  33.0370519
  41.7033887  65.6847788  32.0131613  41.8552318  65.5908817  32.7768366
  43.7789631  64.3506233  15.4668626  43.6969794  64.4208420  16.3323613
  44.4169352  64.9135977  15.2752367  43.8609468  64.4445204  15.5658576
  37.1382802  64.1166971  24.9343153  36.8802046  63.2838706  24.9074452
  37.1931285  64.3424584  24.0935653  37.1082580  64.0264742  24.8063289
  25.8574333  61.3144808  23.4352488  25.9434585  60.9376676  24.2166018
  26.4850131  60.9405254  22.9572446  25.9630884  61.2030290  23.4797965
  40.8829741  64.3726687  18.4777233  41.6970380  64.6641580  18.3660004
  40.8188882  63.7186549  17.9035526  40.9932480  64.3191882  18.3766070
  47.1039231  67.0552683  32.8906809  46.8677869  66.2240748  32.7718869
  47.7482460  67.0038290  33.4761653  47.1633902  66.9250371  32.9592702
  36.7537649  67.8448205  23.6049545  37.3911596  67.6059952  24.1501338
  37.1792721  68.0485364  22.8702706  36.9113816  67.8399215  23.5766702
  31.4450292  70.0836541  27.4883849  31.4854437  70.3551392  26.6603628
  32.0044816  70.6078449  27.9041637  31.5333638  70.2012296  27.4275737
  37.3940465  63.0650494  17.9424434  37.7785617  62.8458201  18.6940979
  37.1452085  63.8913440  18.0725511  37.4142537  63.1548641  18.0725511
  39.1359121  68.3220627  25.2843331  39.2098130  68.1595799  26.1385181
  39.9528628  68.5110817  25.0403813  39.2675480  68.3257370  25.3741357
  32.8964878  68.6678490  22.3137775  32.0702996  68.9140227  22.1872054
  32.9576869  68.5890571  23.1799833  32.7839045  68.6923439  22.4226719
  37.6763707  71.2855370  20.0156805  37.9662006  70.8944352  19.2916031
  38.4067188  71.4672075  20.4562080  37.8270591  71.2549184  19.9739612
  38.2658452  66.0873116  31.1009935  37.7670146  66.7988884  31.1794824
  39.0758677  66.4073783  31.0628098  38.3114559  66.2399965  31.1066504
  35.6169623  73.2622753  23.0816954  35.3969918  72.9720107  23.8743621
  35.3964145  72.6037708  22.5534867  35.5517217  73.1222461  23.1205863
  34.5286570  65.3496069  25.3472656  34.2399819  64.7233540  25.8818383
  35.3969918  65.2916357  25.4137336  34.6146822  65.2483613  25.4363611
  37.7837578  74.6352143  21.8647647  38.4361636  74.1028585  22.0938673
  37.0863187  74.2820795  22.2515521  37.7768296  74.5041666  21.9559814
  34.7318843  66.9891320  21.2715021  35.4864811  67.3704359  21.4850484
  34.1389456  67.4402464  21.7261718  34.7555557  67.1120148  21.3697899
  45.7777497  66.9556557  21.2078626  46.3435529  67.6149767  21.1237169
  45.1305400  67.3006255  21.6795028  45.7656253  67.1038498  21.2651382
  36.0517070  68.1599882  26.6455136  35.5297823  68.3000173  27.3307001
  36.4391090  67.4010546  26.8357254  36.0320771  68.0685405  26.7756213
  33.0408254  58.2105690  20.7150091  32.7533050  57.8406961  19.9782038
  33.7278722  58.6800546  20.4533796  33.0997151  58.2252660  20.5665167
  42.2484075  69.8995341  20.6315705  42.0070751  69.1663202  20.2242770
  42.4285408  70.4482198  19.9782039  42.2391699  69.8717732  20.4745928
  37.4783396  65.1903901  22.0436627  37.2826178  65.7978635  21.4496930
  37.7017741  64.4971845  21.5628301  37.4818037  65.1781426  21.8852708
  35.8761926  62.0758639  22.1617496  36.5984577  62.2399797  21.7021302
  35.3969918  62.7968303  22.0556836  35.9125656  62.2056868  22.0783110
  30.6136449  58.9886903  21.5635372  30.7152585  59.7913064  21.8916348
  31.4092335  58.7874239  21.2658453  30.7464354  59.0772802  21.5670728
  41.5838773  60.9401171  23.4500982  41.3373487  60.8596922  24.2837771
  41.9123896  60.1554639  23.2563510  41.5960017  60.8127437  23.5448505
  45.4786822  67.6484531  27.2387763  45.3401181  68.3465576  27.7436506
  44.6986820  67.4933187  26.8823945  45.3430049  67.7284697  27.2614037
  43.8164907  63.9480906  33.4910145  43.8112945  63.0760722  33.4952571
  44.5225901  64.1469075  33.0179601  43.9209911  63.8484780  33.4217180
  36.6163555  71.8660662  29.7284992  36.7653119  71.3063578  29.0758396
  37.3963557  71.9452663  30.1117511  36.7537649  71.7946227  29.6881941
  46.9740195  67.0062784  18.0004263  46.5947003  66.2199922  17.9933552
  46.3106440  67.5549641  17.8575907  46.8198669  66.9707608  17.9785059
  39.1416856  72.0375305  31.0069483  39.0660527  71.3684115  31.5620271
  39.0706715  72.7393093  31.5210149  39.1197463  72.0420212  31.1646331
  39.7987103  70.5576303  21.8393089  40.5636994  70.2885947  21.5175753
  39.6965193  70.0726314  22.5563152  39.8968598  70.4465868  21.8972916
  42.3205763  67.5888487  13.8193038  43.0878748  67.6488612  13.4098890
  41.8737072  67.0168929  13.3349357  42.3679191  67.5125063  13.6870748
  43.2183559  66.3943143  26.1045770  42.5428561  66.1628375  26.6059157
  43.2275935  65.7864326  25.4787875  43.1202063  66.2702068  26.0861923
  45.2200293  69.2508275  18.3355948  45.3020131  70.0575262  18.0117399
  45.7050036  69.2704235  19.0596722  45.3037451  69.3728938  18.3942847
  38.5308490  75.4443624  29.4647484  39.0204421  74.7454414  29.2823148
  37.9592723  75.1467494  30.0523541  38.5193020  75.2969848  29.5248524
  34.3179242  64.4245163  22.4353999  34.4743861  64.3591966  23.2909991
  34.6579835  65.1993715  22.2232678  34.3912477  64.5294361  22.5308593
  40.8558386  63.8003046  21.3047362  41.3973932  63.2973427  21.7685983
  41.1704945  63.7468241  20.4936847  40.9822783  63.7182467  21.2531174
  44.7275494  68.0105694  38.4174274  45.5410359  67.7390843  38.5779407
  44.5670460  67.7113234  37.6134470  44.8245442  67.9260620  38.3219680
  39.0244836  69.1920398  18.5887390  39.0937656  68.3334936  18.7280390
  39.8033291  69.4092279  18.2606415  39.1497686  69.0973262  18.5604547
  43.4152324  71.6158099  22.8023883  43.0232115  71.3124814  22.0846750
  43.5705396  72.4527189  22.6128837  43.3805913  71.6941936  22.6680381
  30.8913503  61.6080113  22.7514766  31.2712468  62.0264658  22.0875033
  30.3168868  62.1893569  23.0583609  30.8624828  61.7557972  22.6991507
  43.5791998  68.1808088  22.7429914  43.2206653  68.3522731  23.5193946
  43.0930709  68.6421294  22.1857912  43.4550695  68.2747059  22.7755183
  38.3680364  63.8607253  15.2830148  38.6572889  64.6372136  15.5573723
  38.4552163  63.3495985  15.9844648  38.4234620  63.8999172  15.4272646
  44.7396738  69.0711984  33.6897115  45.3776458  68.5772180  33.3559571
  44.0970829  68.9989384  33.1049342  44.7390964  68.9870992  33.5539470
  44.7950994  69.7631792  30.3302472  45.5843373  69.4120857  30.4504553
  44.9694592  70.5768181  30.0679105  44.9371276  69.8317649  30.3090340
  32.0119872  60.7960055  25.2115011  31.6176569  60.8703067  24.4365121
  31.4559989  61.1818001  25.7623373  31.8722684  60.8641830  25.1782671
  37.4027067  58.4122437  21.1972560  37.6786801  57.6941349  20.7850127
  38.0025736  59.0107357  20.9893666  37.5320331  58.3942808  21.1053321
  36.4079321  68.3171638  31.3399956  36.2999676  68.3273700  32.2062014
  36.6175102  69.1426418  31.1504910  36.4229432  68.4412713  31.4404047
  44.1842629  71.0193592  26.2353918  43.9862318  71.5084406  25.5410129
  43.5630340  71.2234833  26.8138051  44.0630193  71.1210130  26.2177141
  38.2450607  62.7878489  20.5764162  38.9892652  63.1752765  20.8147112
  38.3911303  61.9435914  20.7404650  38.3761192  62.7208961  20.6358132
  46.1016431  64.5857744  31.7699166  46.8250630  64.1330271  31.5910186
  45.8366393  64.8662410  30.9871494  46.1697704  64.5608713  31.6277881
  35.1545048  57.5243036  14.5624730  34.8057852  58.1762761  15.0256280
  34.6741494  57.5100149  13.8348602  35.0315292  57.6186090  14.5235822
  31.6828975  67.2418378  29.9455810  31.1528899  66.5510817  29.9950784
  31.9554068  67.2328563  29.1168518  31.6453697  67.1385510  29.8303226
  42.7149065  67.8244080  18.6693492  43.4383264  68.2902193  18.5258065
  42.2749656  67.8917690  17.9191089  42.7564757  67.9027917  18.5378274
  41.8835220  64.6841622  29.9194181  41.2692213  64.1399673  30.2142816
  42.4002505  64.1705859  29.4399997  41.8690883  64.5278031  29.8918410
  41.1231517  65.7545892  27.6538480  40.6959126  65.1295611  27.2203915
  41.1156462  65.4720814  28.4797487  41.0590659  65.6198673  27.7118307
  26.9624817  63.9146142  27.3024158  26.8568266  63.8692986  26.4376242
  26.2125037  64.2599922  27.5838443  26.8360420  63.9587050  27.2161488
  37.9148162  64.9246205  35.3507053  37.0643793  65.0617919  35.4864698
  38.0776290  64.1909983  35.7954754  37.8132026  64.8360306  35.4362652
  35.5268957  60.1501567  20.0750775  35.6671918  60.6474031  20.7779416
  36.0251489  59.4487861  20.2164989  35.6210038  60.1203545  20.2002354
  35.5569179  61.0168678  17.4043352  36.1914258  61.6129103  17.3392813
  35.6394790  60.7172135  18.2189222  35.6625730  61.0609586  17.5146438
  37.1348162  56.9482653  17.3788794  37.4564003  56.4685736  16.7248056
  37.3975106  57.7582299  17.1879605  37.2214187  56.9972551  17.2544286
  40.3645135  67.9701527  30.8987610  39.8570226  68.5237374  31.3428240
  40.0671781  68.0309817  30.0806384  40.2450020  68.0607839  30.8436066
  32.0622167  63.2136518  20.6732898  32.5714396  63.8101026  21.0544203
  32.5356439  62.9462492  19.9909317  32.2065543  63.2622334  20.6287420
  42.9752915  71.8864785  18.8291553  42.2582225  71.7125647  18.3638791
  43.6259653  71.6517357  18.2967039  42.9654765  71.8260578  18.6820771
  39.6087620  72.9026086  27.8044617  39.3853274  72.1444915  28.1728643
  39.1197463  72.9324107  27.0825056  39.5031069  72.7948310  27.7521358
  34.4212699  59.8492777  23.5406078  33.7024688  60.2656909  23.8078942
  34.7925061  60.4147016  22.9897716  34.3704630  59.9942058  23.4988885
  41.6658609  67.0707818  35.3556550  41.6254464  66.4257495  34.7701706
  42.4781928  67.0144435  35.6681962  41.7801763  66.9666785  35.3153500
  38.2566077  73.1226544  25.2581701  37.8426475  72.4600674  24.8685543
  38.9413451  73.2704402  24.7377395  38.2964449  73.0467202  25.1238198
  41.6231371  72.2816629  26.0105318  41.2247654  72.3918899  25.2426138
  41.0082591  72.4898695  26.5931878  41.4730260  72.3290197  25.9836617
  40.1959273  58.8890777  18.8779458  39.6024112  59.2107773  18.3264025
  40.2334551  58.0431872  18.6700564  40.1133662  58.8115105  18.7662229
  49.3573214  66.8568596  19.3948408  49.7406819  67.6059952  19.6246506
  48.5617327  67.1034415  19.1360398  49.2966996  67.0038290  19.3905982
  29.1004097  62.0489195  29.8197160  28.5530817  61.3789841  29.9378028
  29.8896475  61.6819043  29.8840627  29.1356281  61.8954182  29.8465860
  38.1688505  59.5288027  16.9708787  38.5487470  59.5467657  16.1859902
  37.4281101  59.9742016  16.8499635  38.1157343  59.5969802  16.8372356
  27.8591067  61.2610003  26.9743183  27.6812828  60.8086612  27.6998098
  27.5710089  62.0636164  27.1581660  27.7904020  61.3132561  27.1086686
  43.5214648  62.5167720  26.2120573  44.0168313  61.7990715  26.1724593
  42.7114424  62.2138518  26.0975060  43.4758541  62.3665367  26.1894299
  38.9673259  66.3665534  18.3617577  38.1584582  66.0432207  18.3150887
  39.4748168  65.6598756  18.2945826  38.9222926  66.2146850  18.3447872
  29.5963537  63.7937727  24.0864942  28.7309056  63.7823417  23.9747713
  29.6962352  63.6067950  24.9336081  29.4837704  63.7643788  24.1953886
  35.2220546  73.5635625  27.6595047  35.5367105  74.3772014  27.6672829
  35.6313960  73.1785844  28.3277206  35.3288644  73.6264328  27.7599139
  42.1745066  68.9805672  25.2298859  42.6456244  69.6945935  25.3988844
  42.5105245  68.3804422  25.7658729  42.2940181  68.9977136  25.3331235
  44.2622051  70.5906986  37.4090931  44.3719016  69.8015546  37.7647679
  44.5912947  70.5012922  36.6065269  44.3274457  70.4612838  37.3433322
  42.8119012  68.7723606  31.9926552  42.2639958  68.1481490  31.7246617
  43.2732041  68.9617878  31.2770631  42.7986222  68.7082656  31.8476983
  38.1607676  55.7549556  19.6536419  38.9823370  55.9247868  19.4118114
  37.6977327  55.9096817  18.9302717  38.2138838  55.8031289  19.5108063
  32.5633567  67.5108734  27.3073656  33.1678424  67.4704568  26.6787476
  32.3560879  68.3579886  27.3377712  32.6222464  67.6296736  27.2189772
  42.3777339  69.7774679  28.5235893  43.1975713  69.6337645  28.7852188
  42.0971416  70.4020878  29.0652331  42.4574082  69.8485031  28.6423832
  27.7984849  66.4943351  27.1772579  27.7009127  65.6839623  27.4862635
  28.5813719  66.4735145  26.7918847  27.9000985  66.3710442  27.1659442
  58.8490989  77.4339531  21.4878769  58.8184993  78.2884167  21.6597039
  59.4472338  77.1334823  22.0464913  58.9328147  77.5156027  21.5953572
  52.0490674  76.5215182  26.2431700  51.1928569  76.6823680  26.2940817
  52.0958328  75.6507246  26.2636761  51.9289785  76.4165984  26.2537766
  55.3584390  82.7901707  35.8492156  56.0651158  82.2953738  35.9779090
  55.5472326  83.2310789  35.1194814  55.4912296  82.7820058  35.7601201
  54.8942495  78.5807226  28.8863351  55.4398455  79.2592312  28.9457321
  54.8359371  78.4394687  28.0264933  54.9658409  78.6599227  28.7675412
  43.5071702  74.2602309  26.7968345  42.8876733  73.6694956  26.6278360
  43.4055565  74.8513744  26.1632668  43.4009377  74.2606391  26.6773335
  50.6039597  76.0001851  21.1300808  51.3019762  76.1789978  21.6222272
  50.9191930  75.4772190  20.5071198  50.7534934  75.9495623  21.1102819
  43.2340835  77.8054591  29.0411914  43.1099531  78.3917036  29.6761733
  43.8859119  77.3114786  29.3424189  43.3114484  77.8193395  29.1797844
  48.2599176  80.9816308  28.3199425  48.9048178  80.4888751  28.0010374
  48.5000953  81.1241094  29.1465504  48.3909761  80.9293750  28.3948959
  50.7985267  83.8271213  27.9706318  51.0808510  83.0322619  27.7493074
  51.5271427  84.3051801  27.9911379  50.9474831  83.7805810  27.9409333
  48.7766461  71.3694247  25.2122083  48.4469791  71.8205391  24.5425782
  48.1011463  71.2910411  25.7595089  48.6276897  71.4245383  25.1945306
  55.9842869  67.3579770  23.4571694  55.6696310  68.0483249  23.8892116
  55.4669810  67.3024553  22.7557194  55.8607339  67.4514659  23.4168643
  46.9822415  69.4306536  20.6945031  47.7368383  69.7984853  20.4562081
  46.8049949  69.8046090  21.4624210  47.0676893  69.5404724  20.7729919
  60.2757314  75.5800976  28.7392570  59.4385735  75.6503163  28.9740165
  60.2445545  75.5825471  27.8666872  60.1475596  75.5911203  28.6452118
  46.6722043  77.7234012  34.4540939  46.8442546  77.6139907  35.3026220
  47.2091400  78.3688417  34.2172131  46.7767047  77.8026014  34.5446035
  45.3379480  71.8376855  17.3923144  45.1555053  72.0548736  16.5664136
  46.2005093  71.9515867  17.4481758  45.4384069  71.8866753  17.2777631
  51.0179199  68.8403265  20.4272168  51.7465359  68.6619220  19.9810324
  51.1074092  69.6821345  20.6379346  51.1385861  68.9387144  20.3925685
  54.9987499  79.7756653  24.3304461  55.7545014  80.2088167  24.3693370
  55.1049824  79.1261423  24.9039098  55.1257670  79.7434137  24.4202487
  40.9783760  80.3165943  29.2893859  40.7122175  79.5005060  29.4484849
  40.9922324  80.3619099  28.4189374  40.9408482  80.2022848  29.1847341
  57.9565153  70.6443758  27.3236292  58.5991062  70.7141862  27.9098208
  58.2088174  69.9772981  26.8215834  58.0887286  70.5570107  27.3363572
  44.8841507  75.1151027  15.9045617  44.1699684  74.8289207  16.3168049
  45.3685475  75.4547653  16.5452004  44.8500870  75.1232677  16.0601252
  45.7282366  73.8544321  31.9360866  45.0354163  73.3841301  32.1821598
  46.3442693  73.6282626  32.5102574  45.7166896  73.7511453  32.0570019
  41.3877173  81.1024722  26.5705603  41.2052746  81.0771608  25.7177895
  42.1226842  81.5723660  26.6094512  41.4691237  81.1686085  26.4503521
  44.4522925  77.8209725  33.0787712  45.1762897  77.8062756  33.5652606
  44.5539061  78.5305080  32.5809680  44.5741134  77.9234428  33.0766498
  51.8267874  81.3008810  37.9436659  51.0340855  81.6152322  38.1289278
  51.9416801  81.5160278  37.1057443  51.7263285  81.3792647  37.8474993
  54.4999193  78.0242801  22.2331674  54.5946048  78.7632095  22.6871300
  53.8758037  77.5960276  22.6666239  54.4208223  78.0704122  22.3639822
  52.7551667  81.2029014  32.8821955  53.3290529  80.5656258  33.0370519
  52.6766471  81.2033096  32.0131613  52.8284902  81.1094125  32.7768366
  41.3548084  77.9818223  26.7204670  41.9321586  77.8454674  27.3596915
  40.6562145  77.5254007  26.9750254  41.3369105  77.8940489  26.8526959
  48.1115386  79.6352279  24.9343153  47.8534630  78.8024014  24.9074452
  48.1663869  79.8609892  24.0935653  48.0815164  79.5450050  24.8063289
  53.1916436  71.7380729  25.0347245  52.4872763  71.2489915  25.1931165
  53.2401410  71.7503204  24.1635690  53.0946487  71.6670377  24.9286585
  47.0850098  77.1890041  25.4208047  46.5099689  77.3482210  26.0572008
  46.7085774  76.5525450  24.9576498  46.9452910  77.1187854  25.4462606
  50.7523387  75.6613390  30.2800426  50.3637819  75.2367608  29.6252617
  50.0878085  75.9095540  30.7877453  50.5970314  75.6352112  30.2588294
  60.3946656  75.4188395  23.0548256  60.1383221  74.6068337  22.8646139
  61.2375970  75.4265962  22.8278443  60.4812681  75.3000393  22.9933073
  36.8306917  76.8330116  23.4352488  36.9167169  76.4561984  24.2166018
  37.4582714  76.4590562  22.9572446  36.9363468  76.7215598  23.4797965
  54.5749748  69.3588019  27.7924410  54.9560260  68.6766190  28.1792284
  53.7713032  69.0697621  27.6100075  54.5126210  69.2155068  27.8228466
  47.7270233  83.3633513  23.6049545  48.3644180  83.1245260  24.1501338
  48.1525305  83.5670671  22.8702706  47.8846399  83.3584523  23.5766702
  48.3673048  78.5835802  17.9424434  48.7518201  78.3643509  18.6940979
  48.1184668  79.4098748  18.0725511  48.3875121  78.6733949  18.0725511
  48.5341589  71.8642217  37.6587019  48.2195030  72.6341780  37.3956581
  48.2131521  71.3012474  37.0739246  48.4400508  71.8952486  37.5328369
  50.1091705  83.8405935  25.2843331  50.1830713  83.6781107  26.1385181
  50.9261211  84.0296125  25.0403813  50.2408064  83.8442677  25.3741357
  46.0873485  70.2532739  23.2733215  45.2195911  70.3255338  23.3390824
  46.3748690  71.0554818  23.4621190  46.0013234  70.3826886  23.3107981
  55.2106374  70.4010598  31.6044537  55.9559966  70.2120409  31.1907962
  54.7943679  70.9268836  31.0458393  55.2591348  70.4512744  31.4609110
  62.5868645  77.7719827  26.5550042  63.1376567  77.1387896  26.7947134
  62.5712760  78.3035220  27.2465546  62.6653841  77.7568775  26.6928900
  49.2391036  81.6058424  31.1009935  48.7402730  82.3174192  31.1794824
  50.0491260  81.9259091  31.0628098  49.2847143  81.7585273  31.1066504
  45.5019154  80.8681377  25.3472656  45.2132402  80.2418848  25.8818383
  46.3702502  80.8101665  25.4137336  45.5879405  80.7668921  25.4363611
  56.2897051  76.0116161  25.6654638  55.9461817  75.2906496  26.0161888
  56.3890094  75.8030012  24.8232996  56.2539094  75.8740364  25.5926318
  45.7051427  82.5076628  21.2715021  46.4597395  82.8889667  21.4850484
  45.1122040  82.9587772  21.7261718  45.7288140  82.6305456  21.3697899
  48.1658094  74.4639469  36.3972233  47.3557870  74.7697248  36.2862076
  48.6432781  75.1845051  36.5124817  48.1161573  74.6154070  36.3979304
  44.0140838  73.7290998  20.7150091  43.7265633  73.3592269  19.9782038
  44.7011306  74.1985854  20.4533796  44.0729735  73.7437968  20.5665167
  48.4515979  80.7089209  22.0436627  48.2558762  81.3163943  21.4496930
  48.6750325  80.0157153  21.5628301  48.4550620  80.6966734  21.8852708
  46.8494509  77.5943946  22.1617496  47.5717161  77.7585105  21.7021302
  46.3702502  78.3153611  22.0556836  46.8858240  77.7242176  22.0783110
  54.8088017  73.9307745  27.5414181  53.9699117  73.9569024  27.3052444
  54.8792384  74.5778481  28.1219527  54.6956410  74.0303871  27.5923298
  44.5002126  80.0002019  31.2671636  45.0123223  80.2786272  30.6180395
  44.2138468  80.7391313  31.6334449  44.5336989  80.1504373  31.2261514
  53.2557295  70.8293122  22.2741797  53.9583648  70.6300871  21.7961755
  52.9901484  70.0569065  22.5810640  53.3203927  70.6856088  22.2487238
  58.6845541  79.1375732  24.8275423  58.5979515  79.2931158  25.6810201
  58.2296020  79.7813808  24.4534828  58.6048797  79.2551487  24.8982529
  41.5869032  74.5072211  21.5635372  41.6885169  75.3098372  21.8916348
  42.3824919  74.3059547  21.2658453  41.7196938  74.5958110  21.5670728
  48.0185851  72.0928407  31.3272677  47.8269048  72.1083542  32.1772101
  48.8684447  72.2892082  31.3039332  48.1161573  72.1242759  31.4495972
  42.4032764  74.6219389  29.3056494  42.2618256  73.7703330  29.4301002
  42.6873328  74.6648050  28.4818700  42.4240610  74.5019139  29.2024118
  52.5571357  76.4586479  23.4500982  52.3106071  76.3782230  24.2837771
  52.8856480  75.6739947  23.2563510  52.5692600  76.3312744  23.5448505
  54.7897491  79.4666214  33.4910145  54.7845529  78.5946030  33.4952571
  55.4958484  79.6654383  33.0179601  54.8942495  79.3670088  33.4217180
  48.5168384  79.1943198  32.8623965  48.6611760  79.7744406  32.2267075
  48.8644032  79.5719494  33.5673820  48.5895845  79.3363902  32.8722960
  50.6888301  78.3933366  30.6449097  49.9411615  78.5864380  30.2397375
  50.8429826  77.5678586  30.4073218  50.6010729  78.2998478  30.5494503
  50.9290078  72.2883917  31.5344500  51.3862692  73.0207891  31.6617293
  51.0046407  71.8650382  32.2931756  51.0081048  72.3341155  31.6645577
  43.1723069  72.5349737  32.6233944  42.6365259  71.9230095  32.9394711
  43.2340834  73.1097873  33.2767611  43.1018702  72.5296664  32.7669371
  55.4017404  65.4673792  25.4038343  55.5200972  65.9250255  24.6705646
  55.2279580  64.6619053  25.1174561  55.3936575  65.4167564  25.2539277
  48.8072456  74.2786021  28.3786324  48.0168531  74.0977481  28.7003660
  49.2033079  73.5012973  28.3616619  48.7489332  74.1373482  28.4238873
  54.1916142  81.9128451  26.1045770  53.5161144  81.6813683  26.6059157
  54.2008519  81.3049634  25.4787875  54.0934647  81.7887376  26.0861923
  51.3210286  76.7546280  32.8609823  51.2569428  77.6156236  32.7329960
  51.4607474  76.4378273  32.0605375  51.3325757  76.8346447  32.7238036
  50.0029380  79.4478419  27.0026026  49.5791629  79.6482918  26.2665045
  49.8274236  78.6007267  27.1150326  49.9140261  79.3527201  26.9099716
  45.2911825  79.9430471  22.4353999  45.4476444  79.8777273  23.2909991
  45.6312418  80.7179023  22.2232678  45.3645060  80.0479669  22.5308593
  51.8290970  79.3188354  21.3047362  52.3706515  78.8158735  21.7685983
  52.1437529  79.2653549  20.4936847  51.9555367  79.2367775  21.2531174
  52.9780239  74.2124659  31.3569663  53.1922209  73.5735573  30.8033016
  52.3614138  74.6570483  30.9277524  52.9185569  74.1834802  31.2120094
  41.8646087  77.1265421  22.7514766  42.2445052  77.5449966  22.0875033
  41.2901452  77.7078877  23.0583609  41.8357412  77.2743280  22.6991507
  55.1419327  75.8213724  32.2952970  54.3296009  75.5139614  32.3766142
  55.6009262  75.3412724  32.8595682  55.0899712  75.7050216  32.3907564
  52.2372835  77.2273795  37.0781672  52.7072466  77.8515912  37.4649546
  52.2834715  76.5590771  37.6374887  52.3140711  77.2208476  37.2181743
  49.3944108  69.3330823  27.8030476  48.8782597  68.6411014  27.9282055
  48.8338037  70.0001600  27.7493074  49.2350622  69.3294080  27.8136542
  51.4636342  69.8723783  29.6323328  51.0768095  69.8972814  30.4136858
  50.9769279  69.3065462  29.1797845  51.3348851  69.7919534  29.6811232
  57.4386321  76.4386438  28.2563030  57.0113929  76.3512786  27.5011130
  56.8012374  76.5464213  28.8417875  57.2815929  76.4419098  28.2308472
  50.9307399  71.5461963  34.1960000  51.7580828  71.2747112  34.2518614
  50.9515245  72.3422805  34.5523818  51.0560249  71.6241717  34.2575183
  45.5076888  78.6925826  27.3830260  44.6664895  78.5929700  27.5909154
  45.7166896  79.4621306  27.7344581  45.4141581  78.7917869  27.4657575
  42.9852455  76.3145363  25.2115011  42.5909153  76.3888375  24.4365121
  42.4292572  76.7003309  25.7623373  42.8455268  76.3827137  25.1782671
  54.6217402  69.2926657  24.8918890  54.8266995  69.2248965  25.7375887
  54.2943826  70.0985478  24.8240067  54.6032650  69.4012597  25.0078545
  49.3193553  76.6207225  26.6327858  49.0156691  76.0663213  27.2338266
  48.6172974  76.7999435  26.1455892  49.1709763  76.5652007  26.6497564
  48.3759650  73.9307745  21.1972560  48.6519385  73.2126657  20.7850127
  48.9758320  74.5292665  20.9893666  48.5052915  73.9128116  21.1053321
  57.8751090  69.8458421  24.3721655  57.2625403  70.3328823  24.7575387
  57.9715265  69.1701912  24.9159307  57.7988987  69.8176730  24.5100514
  51.8770171  71.6021262  19.4719155  52.3313917  71.7731823  20.1966999
  52.3510217  70.9889373  19.0716931  52.0138491  71.5372147  19.5192916
  45.3985696  81.0869588  28.8021893  44.8073629  81.7279086  28.7724908
  46.1606720  81.5107205  28.7753193  45.4233957  81.2445427  28.7937041
  45.7946319  72.2471586  29.4689911  46.2547801  72.3210515  30.2065035
  45.8402426  73.0452840  29.1189732  45.8696874  72.3765733  29.5262667
  47.4429669  72.9138281  34.0361938  47.0515234  72.2671628  34.4717716
  47.6115531  73.5049716  34.6556193  47.4100579  72.9052549  34.1924644
  49.2183191  78.3063797  20.5764162  49.9625236  78.6938073  20.8147112
  49.3643887  77.4621222  20.7404650  49.3493776  78.2394269  20.6358132
  51.1362766  70.1014055  25.6096023  50.2898811  70.2736863  25.4837373
  51.1333899  69.2963399  25.9461852  51.0109916  70.0075084  25.6407150
  52.2061067  73.8789270  26.4758081  51.7321021  73.3531032  26.9863392
  52.5779202  73.3318743  25.9072943  52.1910956  73.7205267  26.4673229
  42.5834097  75.8760777  31.8441627  43.4459710  75.7756486  31.7578957
  42.2525880  75.2955486  31.2827199  42.6619293  75.7752403  31.7487033
  58.4697797  78.9391646  27.8864862  58.2296020  78.0998061  27.8907288
  58.9489804  79.0191812  28.6105635  58.5049981  78.8273045  27.9939664
  54.1344566  74.7725824  19.5383835  53.6067585  74.8554568  18.8489544
  54.5940274  75.5143696  19.5348480  54.1246417  74.8946487  19.4358530
  60.4702984  75.7193103  25.8394121  60.2312754  75.6788937  25.0014906
  60.6336886  76.5664255  25.9659842  60.4593288  75.8385188  25.7347603
  57.0749014  80.1043052  31.7699166  57.7983213  79.6515578  31.5910186
  56.8098977  80.3847718  30.9871494  57.1430288  80.0794021  31.6277881
  45.9435883  74.7003226  28.5052045  45.3188953  74.7121618  27.8977998
  45.6081478  75.1763401  29.1543286  45.8021375  74.7721743  28.5108614
  46.1277631  73.0428344  14.5624730  45.7790436  73.6948069  15.0256280
  45.6474077  73.0285457  13.8348602  46.0047875  73.1371398  14.5235822
  52.8567804  80.2026930  29.9194181  52.2424797  79.6584981  30.2142816
  53.3735089  79.6891167  29.4399997  52.8423466  80.0463339  29.8918410
  52.0964101  81.2731200  27.6538480  51.6691709  80.6480919  27.2203915
  52.0889045  80.9906122  28.4797487  52.0323242  81.1383981  27.7118307
  45.2126628  76.3096373  30.7226914  45.3720115  75.5539698  31.1278636
  45.0319522  76.8587313  31.3767651  45.2091987  76.2790187  30.8789620
  53.1546931  68.4757609  31.2777703  52.6587492  68.6721283  30.5869270
  53.9115993  68.8750277  31.1066505  53.1933756  68.5635343  31.1497840
  50.4249811  72.1499955  27.8681014  50.4492298  71.6160067  27.1793794
  50.6761284  71.6417264  28.5306604  50.4659729  71.9960859  27.8645659
  37.9357401  79.4331450  27.3024158  37.8300850  79.3878294  26.4376242
  37.1857621  79.7785230  27.5838443  37.8093003  79.4772358  27.2161488
  46.7051133  70.8770773  27.2486758  46.7449505  71.3779980  27.9621466
  45.8800798  70.9681167  26.9792681  46.5890659  70.9652589  27.3137296
  48.8880746  80.4431513  35.3507053  48.0376376  80.5803227  35.4864698
  49.0508874  79.7095291  35.7954754  48.7864609  80.3545614  35.4362652
  48.1265496  77.3931283  29.5460657  47.2957426  77.5605101  29.3395905
  48.0717014  77.0167234  30.3309542  47.9954911  77.3621014  29.6309185
  45.9349280  70.8840176  35.1817068  46.5601983  70.3402309  35.4546500
  45.4799760  70.4035093  34.6124858  45.9597540  70.7329657  35.1378662
  46.5001540  75.6686874  20.0750775  46.6404501  76.1659339  20.7779416
  46.9984073  74.9673169  20.2164989  46.5942621  75.6388853  20.2002354
  46.5301763  76.5353986  17.4043352  47.1646842  77.1314411  17.3392813
  46.6127373  76.2357443  18.2189222  46.6358314  76.5794894  17.5146438
  59.5084328  79.0669463  30.2729716  60.1002169  79.7066714  30.3047914
  59.9443323  78.3692500  30.5621783  59.6602760  79.0587813  30.3210548
  48.1080745  72.4667961  17.3788794  48.4296587  71.9871043  16.7248056
  48.3707689  73.2767607  17.1879605  48.1946771  72.5157859  17.2544286
  51.3377718  83.4886835  30.8987610  50.8302809  84.0422682  31.3428240
  51.0404364  83.5495125  30.0806384  51.2182603  83.5793146  30.8436066
  53.5039900  71.8540155  29.7412273  53.9294972  71.4012681  29.1295799
  52.8896894  71.3000226  30.0177060  53.4768546  71.7054131  29.6917298
  43.0354750  78.7321826  20.6732898  43.5446980  79.3286334  21.0544203
  43.5089023  78.4647800  19.9909317  43.1798126  78.7807642  20.6287420
  51.9434123  68.3255255  23.1502850  51.3002441  68.1752901  23.7187988
  51.6033530  68.0797600  22.3851954  51.7979201  68.2667377  23.1205865
  56.5333470  76.2814682  22.5732858  55.8624660  76.8244384  22.4445924
  57.2273220  76.7509537  22.3314553  56.5362337  76.4312953  22.5188386
  56.6961597  72.7370565  25.4823232  57.0489207  72.3100288  26.1569030
  55.8376399  72.6521409  25.6124308  56.6211042  72.6615306  25.6018242
  45.3945282  75.3678085  23.5406078  44.6757271  75.7842217  23.8078942
  45.7657644  75.9332324  22.9897716  45.3437214  75.5127366  23.4988885
  54.6944863  76.0005934  29.4308074  54.6742790  75.8189229  30.2842853
  54.7424064  76.8717952  29.4067657  54.6979504  76.1022472  29.5531369
  52.6391193  82.5893126  35.3556550  52.5987048  81.9442803  34.7701706
  53.4514511  82.5329743  35.6681962  52.7534346  82.4852093  35.3153500
  51.1691857  74.4076085  18.8779458  50.5756696  74.7293081  18.3264025
  51.2067134  73.5617180  18.6700564  51.0866246  74.3300413  18.7662229
  58.1285657  67.8588977  26.4107544  57.6216522  67.1518117  26.3428722
  58.9253091  67.5282166  26.5408621  58.1712897  67.7062128  26.4206539
  54.0449673  74.3655589  22.3081208  53.8163366  74.3888291  21.4659566
  54.3047749  73.5413056  22.4276218  54.0495861  74.2471669  22.2006406
  48.3268902  76.2190062  31.9106308  47.8147805  75.6111245  32.2691339
  48.1548398  76.9346655  32.3780284  48.2258539  76.2353362  32.0322532
  43.1734616  74.6627638  34.5608670  43.0037207  75.3229012  34.0156876
  42.7300566  74.8734199  35.2821159  43.0833950  74.7913620  34.5870299
  47.0994436  72.9032136  23.6035403  47.5751802  73.2649215  22.9685585
  46.5983035  73.5588603  23.8835546  47.0959795  73.0526324  23.5512144
  52.2037972  74.1414307  34.3508564  52.7609402  73.9128116  33.7187029
  51.8799037  74.9019973  34.0743776  52.2384382  74.2198144  34.2165061
  40.0736681  77.5674503  29.8197160  39.5263400  76.8975149  29.9378028
  40.8629059  77.2004351  29.8840627  40.1088864  77.4139490  29.8465860
  49.9221089  77.2281960  35.3160571  50.6732416  77.5433637  35.6300125
  50.1143666  77.0261131  34.4894492  50.0612503  77.2449342  35.2403966
  49.1421089  75.0473335  16.9708787  49.5220054  75.0652965  16.1859902
  48.4013685  75.4927324  16.8499635  49.0889927  75.1155110  16.8372356
  56.7706379  73.3555527  22.5584366  56.7700606  73.2004183  23.4168642
  56.5662559  74.2018514  22.5025752  56.7406157  73.4576147  22.6772306
  38.8323650  76.7795311  26.9743183  38.6545411  76.3271920  27.6998098
  38.5442672  77.5821472  27.1581660  38.7636603  76.8317869  27.1086686
  54.4947231  78.0353028  26.2120573  54.9900897  77.3176023  26.1724593
  53.6847007  77.7323826  26.0975060  54.4491125  77.8850675  26.1894299
  40.5696120  79.3123035  24.0864942  39.7041640  79.3008725  23.9747713
  40.6694936  79.1253258  24.9336081  40.4570287  79.2829096  24.1953886
  56.5599050  80.7856716  28.8997702  56.9854122  80.2631138  28.3468127
  56.1955970  81.3837553  28.3786325  56.5685653  80.7966943  28.7406712
  53.1477650  84.4990980  25.2298859  53.6188828  85.2131243  25.3988844
  53.4837828  83.8989730  25.7658729  53.2672765  84.5162444  25.3331235
  50.0647145  69.2718451  32.1856954  50.1975050  68.4749444  32.5137930
  50.4492297  69.7984854  32.7655230  50.1403474  69.2318367  32.3200457
  53.7851596  84.2908914  31.9926552  53.2372542  83.6666798  31.7246617
  54.2464625  84.4803186  31.2770631  53.7718805  84.2267964  31.8476983
  56.5945460  72.3594269  29.3777744  56.0108449  72.8603475  28.9655312
  56.9149754  71.8523825  28.7442067  56.5558636  72.3586104  29.2236251
  49.1340260  71.2734864  19.6536419  49.9555954  71.4433176  19.4118114
  48.6709910  71.4282124  18.9302717  49.1871422  71.3216596  19.5108063
  47.7235591  69.2677626  30.4334848  48.2680004  68.9268753  31.0239189
  47.7772527  70.1263087  30.5756132  47.8124711  69.3432885  30.5416721
  22.1337464  13.1723915  22.7832203  22.8404231  12.6775945  22.9119137
  22.3225399  13.6132996  22.0534861  22.2665369  13.1642265  22.6941248
  19.2729758  16.5951451  20.6746278  19.3613104  16.4077592  21.5224488
  19.7019471  15.9488881  20.2751125  19.3491860  16.4714459  20.7418030
  16.8400218  15.8782611  19.6563940  16.2771053  15.4655221  20.1803601
  17.6021241  15.8035517  20.0757084  16.8694666  15.8060012  19.7956941
  13.4475116   8.1056219  21.3880986  13.6195620   7.9962114  22.2366267
  13.9844473   8.7510625  21.1512178  13.5520120   8.1848221  21.4786082
  19.3849817  16.0260470  23.3390062  20.1690234  16.1391318  23.7045804
  19.1846412  15.2001607  23.5348747  19.4715843  15.9207190  23.4224448
  19.5420211  17.9370572  16.9856517  18.7435456  17.6970072  17.2430386
  19.9906222  17.9884965  17.7323565  19.4894822  17.9092963  17.1341441
  18.6020948  11.6831017  24.8776705  17.8093928  11.9974529  25.0629325
  18.7169875  11.8982486  24.0397490  18.5016358  11.7614854  24.7815040
  19.5304740  11.5851221  19.8162002  20.1043602  10.9478465  19.9710566
  19.4519544  11.5855303  18.9471660  19.6037975  11.4916332  19.7108413
  24.8524888  12.9560199  19.8246855  24.6163526  12.1248263  19.7058916
  25.4968117  12.9045806  20.4101700  24.9119559  12.8257887  19.8932749
  25.8761309  12.7404647  15.8875150  25.5707126  13.4732704  16.2488465
  25.1567524  12.3342577  15.6067936  25.7248651  12.7886380  15.8988287
  31.5763101   9.3797648  15.2143494  31.5087601   9.3993607  14.3446081
  31.5618763  10.2227975  15.4399165  31.5641857   9.5071383  15.1195971
  16.0144109  11.9880632  18.0349982  15.5155803  12.6996399  18.1134870
  16.8244333  12.3081298  17.9968144  16.0600216  12.1407480  18.0406550
  14.9411167   4.8461676  23.3312280  14.1310943   5.1519456  23.2202122
  15.4185854   5.5667258  23.4464864  14.8914646   4.9976277  23.3319351
  21.5650564   9.8488421  20.4250192  21.5598602   8.9768238  20.4292618
  22.2711558  10.0476590  19.9519647  21.6695568   9.7492295  20.3557227
  15.2921457   9.5765405  19.7964012  15.4364833  10.1566613  19.1607122
  15.6397106   9.9541702  20.5013867  15.3648918   9.7186109  19.8063007
  14.3649212  17.7668177  16.6625039  14.5138776  17.2071093  16.0098443
  15.1449214  17.8460179  17.0457558  14.5023306  17.6953742  16.6221988
  16.8902513  17.9382820  17.9409530  16.8146184  17.2691630  18.4960318
  16.8192372  18.6400608  18.4550196  16.8683120  17.9427727  18.0986378
  16.2794147  21.3451140  16.3987530  16.7690077  20.6461929  16.2163195
  15.7078379  21.0475010  16.9863588  16.2678677  21.1977363  16.4588571
  22.4761151  13.9113209  25.3514321  23.2896016  13.6398358  25.5119454
  22.3156117  13.6120749  24.5474517  22.5731099  13.8268135  25.2559727
  21.9172401   6.2035931  19.2293016  21.1049082   5.8961822  19.3106189
  22.3762335   5.7234931  19.7935729  21.8652785   6.0872424  19.3247611
  19.0125908   7.6096003  24.0121719  19.4825539   8.2338119  24.3989593
  19.0587788   6.9412978  24.5714933  19.0893784   7.6030683  24.1521790
  22.4882395  14.9719499  20.6237162  23.1262115  14.4779695  20.2899618
  21.8456486  14.8996900  20.0389388  22.4876621  14.8878508  20.4879517
  22.5436651  15.6639308  17.2642518  23.3329029  15.3128372  17.3844600
  22.7180249  16.4775696  17.0019152  22.6856933  15.7325165  17.2430386
  14.1564977  14.2179153  18.2740003  14.0485332  14.2281215  19.1402061
  14.3660759  15.0433934  18.0844956  14.1715089  14.3420228  18.3744094
  28.2929191  11.2997565  16.7339218  28.3512315  11.7484214  17.4799195
  27.6595659  11.7096378  16.2969298  28.2080486  11.4271300  16.7791767
  21.9328286  16.9201107  13.1693965  21.7347974  17.4091922  12.4750176
  21.3115997  17.1242349  13.7478098  21.8115850  17.0217645  13.1517188
  23.8502088  10.4865259  18.7039213  24.5736286  10.0337786  18.5250233
  23.5852050  10.7669925  17.9211541  23.9183361  10.4616228  18.5617928
  15.6633819  10.8253720  22.2847100  14.8129450  10.9625435  22.4204744
  15.8261947  10.0917499  22.7294801  15.5617683  10.7367822  22.3702699
  26.2837402   9.4491670  17.2069763  26.8755242  10.0888921  17.2387961
  26.7196396   8.7514707  17.4961829  26.4355833   9.4410021  17.2550595
  18.1130791  13.8709043  17.8327657  17.6055883  14.4244890  18.2768287
  17.8157438  13.9317333  17.0146431  17.9935676  13.9615354  17.7776113
  17.3573277  18.8033601  14.7384663  17.1338931  18.0452430  15.1068690
  16.8683120  18.8331622  14.0165103  17.2516726  18.6955825  14.6861404
  19.4144266  12.9715333  22.2896597  19.3740121  12.3265010  21.7041753
  20.2267584  12.9151950  22.6022009  19.5287420  12.8674300  22.2493546
  18.9791045   4.5236514  21.2848610  19.5362475   4.2950324  20.6527076
  18.6552110   5.2842180  21.0083823  19.0137455   4.6020351  21.1505107
  16.6974162   7.6104168  22.2500618  17.4485489   7.9255844  22.5640172
  16.8896739   7.4083339  21.4234539  16.8365577   7.6271549  22.1744013
  23.3352123  11.1678923  15.8337749  23.7607195  10.6453345  15.2808174
  22.9709043  11.7659761  15.3126372  23.3438726  11.1789150  15.6746758
  12.9706203  19.4643141  14.5935094  13.2852762  20.2779529  14.6012876
  13.3799617  19.0793359  15.2617253  13.0774301  19.5271843  14.6939186
  22.0107707  16.4914501  24.3430978  22.1204673  15.7023061  24.6987725
  22.3398604  16.4020437  23.5405316  22.0760113  16.3620354  24.2773369
  20.5604669  14.6731122  18.9266599  20.0125615  14.0489005  18.6586664
  21.0217698  14.8625394  18.2110678  20.5471879  14.6090172  18.7817030
  20.1262996  15.6782194  15.4575940  20.9461369  15.5345160  15.7192235
  19.8457073  16.3028393  15.9992378  20.2059739  15.7492546  15.5763879
  36.5976646  23.3347046   8.4218816  36.5670650  24.1891683   8.5937086
  37.1957995  23.0342339   8.9804960  36.6813804  23.4163543   8.5293619
  29.7976331  22.4222697  13.1771747  28.9414226  22.5831195  13.2280863
  29.8443984  21.5514761  13.1976808  29.6775442  22.3173499  13.1877813
  24.1817470  31.9585415   8.9408978  23.4300370  31.5800953   8.7125023
  24.6303482  31.9903849   8.1927789  24.1367137  31.9071022   8.7966480
  29.6342430  32.3810784   4.3694525  29.2993799  33.0587706   3.9338747
  30.1469301  31.9916096   3.7811397  29.6608011  32.4235363   4.2181317
  29.1746722  34.3325053  10.3105637  29.5586101  34.9011952   9.7710412
  29.1105863  33.6074563   9.8311453  29.2220149  34.3100517  10.1599499
  32.6428152  24.4814741  15.8203398  33.1884112  25.1599828  15.8797368
  32.5845028  24.3402202  14.9604980  32.7144066  24.5606743  15.7015459
  25.7602227  31.9703807  11.2071751  25.8612590  31.1604161  11.5168878
  25.1643972  31.8760753  10.5771429  25.6874765  31.8368835  11.1597989
  34.4193220  25.9099348   6.6937126  34.3032746  26.6607034   7.1229264
  35.2149107  25.6523301   6.9433213  34.5197810  25.9834195   6.7941218
  25.6002966  36.8881396  12.6086607  26.2440422  37.3294560  12.9982765
  25.9259222  36.0834822  12.5216866  25.7434795  36.8346591  12.6532084
  18.9567271  27.9924094  10.8324084  18.7217455  27.1591746  10.7256353
  19.0952912  28.2728759  10.0185285  18.9422933  27.9107597  10.6966439
  21.2557358  20.1609824  13.7308392  20.6362390  19.5702471  13.5618407
  21.1541222  20.7521259  13.0972715  21.1495034  20.1613907  13.6113382
  26.3023546  29.8993371   7.9806468  26.6239387  30.4398578   7.3767777
  26.9495642  29.3290142   8.1128758  26.4449601  29.8952546   7.9113504
  28.3525254  21.9009366   8.0640855  29.0505419  22.0797494   8.5562318
  28.6677587  21.3779705   7.4411245  28.5020591  21.8503138   8.0442865
  20.9826491  23.7062106  15.9751961  20.8585188  24.2924551  16.6101780
  21.6344776  23.2122302  16.2764236  21.0600141  23.7200910  16.1137890
  28.5413189  28.2879811   8.0520647  28.9806825  27.6796912   8.4975419
  28.3917852  27.9087184   7.2806112  28.5834655  28.1418282   8.0039814
  26.0084832  26.8823823  15.2539472  26.6533835  26.3896266  14.9350421
  26.2486609  27.0248609  16.0805550  26.1395418  26.8301265  15.3289005
  28.5470924  29.7278729  14.9046365  28.8294167  28.9330134  14.6833121
  29.2757084  30.2059316  14.9251426  28.6960487  29.6813326  14.8749380
  26.5252118  17.2701763  12.1462130  26.1955448  17.7212906  11.4765829
  25.8497119  17.1917926  12.6935136  26.3762554  17.3252898  12.1285353
  32.1422526  26.6406992   5.0051416  32.0573821  27.4967959   5.1500985
  32.6306909  26.3651316   5.6733575  32.2011423  26.7264314   5.1253497
  33.7328525  13.2587286  10.3911740  33.4181966  13.9490764  10.8232163
  33.2155467  13.2032068   9.6897241  33.6092996  13.3522174  10.3508690
  33.0740959  23.2591787   6.5049151  32.5452431  23.4751420   7.1646457
  33.5965979  23.9527925   6.4250120  33.0729412  23.3934923   6.5904750
  38.5289012  28.8338091  11.8782195  37.6986715  29.0448735  12.0415612
  38.4798264  28.0075146  11.6024479  38.3995747  28.7427697  11.8619561
  20.5184596  32.8709764  12.1080291  20.0352174  33.5960254  12.0839874
  21.3307914  33.1685894  12.2190448  20.5675343  33.0212118  12.1207570
  26.5898750  31.6641945  14.7130105  26.0725691  31.3049360  14.1091413
  27.2873141  31.1404120  14.7236171  26.6164331  31.5339633  14.6260364
  27.8132801  31.3967919  19.6563940  27.2503636  30.9840529  20.1803601
  28.5753825  31.3220825  20.0757084  27.8427250  31.3245320  19.7956941
  23.3728793  33.3865940  12.2600570  24.0749372  32.8717929  12.3173327
  23.2926276  33.7140092  13.0647446  23.4652553  33.3580167  12.3873363
  38.0242970  21.4808492  15.6732617  37.1871391  21.5510679  15.9080211
  37.9931201  21.4832986  14.8006919  37.8961253  21.4918719  15.5792165
  24.4207699  23.6241527  21.3880986  24.5928203  23.5147422  22.2366267
  24.9577057  24.2695933  21.1512178  24.5252703  23.7033529  21.4786082
  22.6979568  29.5772292  11.7686178  23.5368468  29.8095225  11.8159940
  22.7291337  28.7076604  11.6993214  22.8261286  29.4829239  11.7650823
  23.3232271  29.9973168  16.0699484  23.8630496  29.8544299  16.7402856
  22.6402218  30.3969918  16.4383510  23.3024425  30.0352838  16.2233906
  32.7473156  25.6764168  11.2644508  33.5030671  26.1095682  11.3033417
  32.8535481  25.0268938  11.8379144  32.8743327  25.6441652  11.3542534
  35.7853327  29.5037445  12.0146911  35.3488559  29.5074188  12.7705883
  35.4516243  30.1842944  11.5826489  35.6715947  29.6049901  12.0627744
  18.7269416  26.2173458  16.2233905  18.4607832  25.4012575  16.3824896
  18.7407981  26.2626614  15.3529421  18.6894139  26.1030363  16.1187387
  35.7050810  16.5451273  14.2576339  36.3476719  16.6149378  14.8438255
  35.9573831  15.8780496  13.7555881  35.8372942  16.4577622  14.2703618
  23.4768023  19.7551837  18.8700913  22.7839820  19.2848816  19.1161645
  24.0928350  19.5290141  19.4442620  23.4652553  19.6518968  18.9910066
  30.5152794  33.4555880  16.9856517  29.7168040  33.2155380  17.2430386
  30.9638806  33.5070273  17.7323565  30.4627405  33.4278271  17.1341441
  38.9197674  26.2218365  10.9066549  39.5814108  25.6609034  10.8062457
  38.2789085  25.7270396  11.2319240  38.9226541  26.0654774  10.9398889
  29.8074481  29.5188497   3.2147472  30.2225630  29.1873521   2.5231968
  28.9766411  29.2857399   3.0867608  29.7462490  29.4359753   3.0938319
  19.1362830  27.0032238  13.5045650  18.9538403  26.9779124  12.6517942
  19.8712499  27.4731176  13.5434559  19.2176894  27.0693600  13.3843568
  35.2062504  27.2383748  10.6478537  35.4418093  27.3828947   9.8205388
  35.3552068  28.0026156  11.0410051  35.2628307  27.3722802  10.5842141
  22.2008582  23.7217241  20.0127758  22.9248554  23.7070271  20.4992653
  22.3024718  24.4312596  19.5149727  22.3226791  23.8241944  20.0106545
  37.0352961  26.0785414   8.4848141  37.3661178  26.6113054   7.8788236
  37.6086049  26.1324301   9.1410092  37.1686640  26.1654982   8.4925923
  32.2484850  23.9250316   9.1671721  32.3431704  24.6639610   9.6211347
  31.6243694  23.4967792   9.6006286  32.1693880  23.9711637   9.2979869
  30.5037324  27.1036529  19.8162002  31.0776186  26.4663773  19.9710566
  30.4252128  27.1040611  18.9471660  30.5770559  27.0101640  19.7108413
  19.1033740  23.8825738  13.6544716  19.6807243  23.7462189  14.2936962
  18.4047802  23.4261523  13.9090301  19.0854762  23.7948005  13.7867006
  25.8601043  25.5359794  11.8683200  25.6020287  24.7031529  11.8414499
  25.9149525  25.7617407  11.0275700  25.8300820  25.4457565  11.7403336
  30.9402093  17.6388245  11.9687292  30.2358419  17.1497430  12.1271211
  30.9887067  17.6510719  11.0975737  30.8432144  17.5677893  11.8626632
  24.8335755  23.0897557  12.3548094  24.2585346  23.2489725  12.9912055
  24.4571431  22.4532966  11.8916545  24.6938567  23.0195369  12.3802653
  28.5009043  21.5620906  17.2140473  28.1123476  21.1375124  16.5592664
  27.8363742  21.8103055  17.7217499  28.3455971  21.5359627  17.1928341
  38.1432312  21.3195910   9.9888303  37.8868877  20.5075852   9.7986186
  38.9861626  21.3273478   9.7618490  38.2298338  21.2007908   9.9273120
  32.3235405  15.2595535  14.7264457  32.7045917  14.5773706  15.1132331
  31.5198689  14.9705137  14.5440121  32.2611867  15.1162583  14.7568513
  29.6047982  25.7919510   5.4117280  30.4188620  26.0834403   5.3000051
  29.5407123  25.1379373   4.8375573  29.7150721  25.7384705   5.3106117
  25.4755890  29.2641028  10.5389592  26.1129837  29.0252775  11.0841385
  25.9010961  29.4678187   9.8042752  25.6332056  29.2592038  10.5106749
  20.1668532  31.5029364  14.4223896  20.2072678  31.7744215  13.5943675
  20.7263056  32.0271272  14.8381683  20.2551878  31.6205119  14.3615784
  26.2827245  17.7649733  24.5927065  25.9680686  18.5349296  24.3296628
  25.9617178  17.2019989  24.0079292  26.1886164  17.7960001  24.4668415
  36.8493892  28.2589955  15.8875150  36.5439709  28.9918012  16.2488465
  36.1300108  27.8527885  15.6067936  36.6981235  28.3071688  15.8988287
  27.8577362  29.7413450  12.2183378  27.9316370  29.5788622  13.0725228
  28.6746868  29.9303640  11.9743860  27.9893720  29.7450193  12.3081404
  42.5495685  24.8982956  15.2143494  42.4820185  24.9178915  14.3446081
  42.5351347  25.7413283  15.4399165  42.5374441  25.0256691  15.1195971
  21.6183119  30.0871313   9.2477822  20.7921236  30.3333050   9.1212100
  21.6795110  30.0083394  10.1139880  21.5057285  30.1116262   9.3566766
  32.9592031  16.3018114  18.5384584  33.7045623  16.1127924  18.1248009
  32.5429336  16.8276352  17.9798440  33.0077005  16.3520259  18.3949157
  26.3981948  32.7048194   6.9496851  26.6880246  32.3137175   6.2256078
  27.1285428  32.8864898   7.3902127  26.5488832  32.6742007   6.9079658
  40.3354302  23.6727342  13.4890088  40.8862223  23.0395411  13.7287181
  40.3198417  24.2042735  14.1805593  40.4139498  23.6576290  13.6268947
  26.9876693  27.5065939  18.0349982  26.4888386  28.2181707  18.1134870
  27.7976917  27.8266606  17.9968144  27.0332799  27.6592788  18.0406550
  24.3387863  34.6815576  10.0157001  24.1188159  34.3912931  10.8083668
  24.1182385  34.0230531   9.4874914  24.2735457  34.5415284  10.0545910
  23.2504810  26.7688892  12.2812703  22.9618059  26.1426364  12.8158430
  24.1188158  26.7109180  12.3477383  23.3365062  26.6676437  12.3703657
  34.0382708  21.9123676  12.5994685  33.6947474  21.1914011  12.9501934
  34.1375751  21.7037527  11.7573043  34.0024751  21.7747879  12.5266365
  26.5055819  36.0544966   8.7987694  27.1579877  35.5221408   9.0278720
  25.8081428  35.7013618   9.1855568  26.4986537  35.9234489   8.8899861
  23.4537084  28.4084144   8.2055068  24.2083052  28.7897183   8.4190530
  22.8607696  28.8595287   8.6601764  23.4773797  28.5312971   8.3037946
  34.4995737  28.3749380   8.1418673  35.0653770  29.0342590   8.0577216
  33.8523641  28.7199078   8.6135075  34.4874494  28.5231321   8.1991429
  25.9143751  20.3646984  23.3312280  25.1043526  20.6704764  23.2202122
  26.3918437  21.0852566  23.4464864  25.8647229  20.5161585  23.3319351
  24.7735310  29.5792705  13.5795183  24.2516064  29.7192997  14.2647048
  25.1609331  28.8203369  13.7697301  24.7539011  29.4878229  13.7096260
  30.9702315  31.3188164   7.5655752  30.7288991  30.5856025   7.1582817
  31.1503648  31.8675021   6.9122085  30.9609939  31.2910555   7.4085975
  26.2001636  26.6096724   8.9776674  26.0044419  27.2171458   8.3836977
  26.4235981  25.9164668   8.4968348  26.2036277  26.5974249   8.8192755
  24.5980166  23.4951462   9.0957543  25.3202818  23.6592620   8.6361349
  24.1188159  24.2161127   8.9896882  24.6343897  23.6249691   9.0123157
  32.5573674  19.8315261  14.4754228  31.7184774  19.8576539  14.2392491
  32.6278041  20.4785996  15.0559574  32.4442067  19.9311386  14.5263344
  22.2487783  25.9009534  18.2011683  22.7608880  26.1793787  17.5520442
  21.9624125  26.6398828  18.5674496  22.2822646  26.0511888  18.1601561
  31.0042952  16.7300638   9.2081844  31.7069305  16.5308386   8.7301802
  30.7387140  15.9576580   9.5150687  31.0689584  16.5863604   9.1827285
  36.4331197  25.0383247  11.7615469  36.3465172  25.1938673  12.6150248
  35.9781677  25.6821323  11.3874874  36.3534454  25.1559002  11.8322576
  25.7671508  17.9935923  18.2612724  25.5754705  18.0091057  19.1112148
  26.6170104  18.1899597  18.2379379  25.8647230  18.0250274  18.3836019
  20.1518421  20.5226904  16.2396541  20.0103913  19.6710845  16.3641049
  20.4358984  20.5655565  15.4158747  20.1726267  20.4026654  16.1364165
  30.3057013  22.3593994  10.3841029  30.0591728  22.2789745  11.2177818
  30.6342136  21.5747462  10.1903556  30.3178257  22.2320260  10.4788552
  34.2005062  29.0677354  14.1727810  34.0619422  29.7658400  14.6776552
  33.4205060  28.9126010  13.8163992  34.0648289  29.1477520  14.1954084
  26.2654041  25.0950713  19.7964012  26.4097416  25.6751921  19.1607122
  26.6129689  25.4727010  20.5013867  26.3381502  25.2371417  19.8063007
  28.4373958  24.2940881  17.5789144  27.6897272  24.4871896  17.1737422
  28.5915483  23.4686101  17.3413265  28.3496386  24.2005993  17.4834549
  25.3381796  33.2853485  16.6625039  25.4871359  32.7256401  16.0098443
  26.1181798  33.3645487  17.0457558  25.4755889  33.2139050  16.6221988
  35.6958435  28.4255608   4.9344309  35.3165244  27.6392746   4.9273599
  35.0324680  28.9742465   4.7915954  35.5416910  28.3900432   4.9125106
  27.8635096  33.4568128  17.9409530  27.7878767  32.7876938  18.4960318
  27.7924955  34.1585916  18.4550196  27.8415703  33.4613035  18.0986378
  28.6775735  18.1891432  18.4684547  29.1348349  18.9215406  18.5957339
  28.7532064  17.7657897  19.2271803  28.7566705  18.2348670  18.5985624
  20.9208726  18.4357252  19.5573991  20.3850916  17.8237610  19.8734758
  20.9826491  19.0105388  20.2107658  20.8504359  18.4304180  19.7009418
  33.1503061  11.3681307  12.3378390  33.2686629  11.8257771  11.6045693
  32.9765237  10.5626569  12.0514608  33.1422232  11.3175079  12.1879324
  28.5205343  31.9769127   8.7733136  29.2855234  31.7078770   8.4515800
  28.4183433  31.4919137   9.4903198  28.6186839  31.8658691   8.8312963
  26.5558113  20.1793536  15.3126371  25.7654188  19.9984996  15.6343707
  26.9518736  19.4020489  15.2956666  26.4974989  20.0380997  15.3578920
  31.9401799  27.8135966  13.0385817  31.2646801  27.5821198  13.5399204
  31.9494175  27.2057149  12.4127922  31.8420304  27.6894891  13.0201969
  29.0695943  22.6553795  19.7949870  29.0055084  23.5163752  19.6670007
  29.2093131  22.3385788  18.9945422  29.0811413  22.7353962  19.6578083
  33.9418534  30.6701099   5.2695995  34.0238371  31.4768085   4.9457446
  34.4268276  30.6897058   5.9936769  34.0255692  30.7921761   5.3282894
  27.7515037  25.3485935  13.9366073  27.3277286  25.5490434  13.2005091
  27.5759892  24.5014783  14.0490373  27.6625918  25.2534716  13.8439763
  27.2526731  36.8636448  16.3987530  27.7422661  36.1647237  16.2163195
  26.6810963  36.5660318  16.9863588  27.2411261  36.7162671  16.4588571
  23.0397482  25.8437986   9.3694046  23.1962101  25.7784789  10.2250038
  23.3798075  26.6186539   9.1572725  23.1130717  25.9487184   9.4648640
  29.5776627  25.2195870   8.2387409  30.1192172  24.7166251   8.7026029
  29.8923186  25.1661064   7.4276894  29.7041024  25.1375290   8.1871221
  27.7463076  30.6113221   5.5227437  27.8155897  29.7527760   5.6620437
  28.5251532  30.8285102   5.1946461  27.8715927  30.5166085   5.4944594
  30.7265896  20.1132174  18.2909709  30.9407866  19.4743088  17.7373063
  30.1099795  20.5577998  17.8617571  30.6671225  20.0842318  18.1460140
  32.1370564  33.0350922   9.7363930  31.7450356  32.7317638   9.0186796
  32.2923636  33.8720012   9.5468884  32.1024154  33.1134759   9.6020427
  32.8904984  21.7221239  19.2293016  32.0781666  21.4147130  19.3106189
  33.3494919  21.2420239  19.7935729  32.8385369  21.6057732  19.3247611
  32.3010239  29.6000911   9.6769961  31.9424894  29.7715554  10.4533993
  31.8148950  30.0614117   9.1197959  32.1768936  29.6939882   9.7095230
  30.1180625  13.2232110  13.2797052  29.2474183  13.1970831  13.2330362
  30.3720966  13.0509302  12.4622898  30.0274185  13.1942253  13.1517189
  29.9858492  23.1281311  24.0121719  30.4558123  23.7523427  24.3989593
  30.0320372  22.4598286  24.5714933  30.0626367  23.1215991  24.1521790
  27.1429765  15.2338338  14.7370522  26.6268254  14.5418530  14.8622101
  26.5823694  15.9009115  14.6833121  26.9836278  15.2301596  14.7476588
  29.2121999  15.7731298  16.5663375  28.8253752  15.7980330  17.3476905
  28.7254936  15.2072977  16.1137892  29.0834508  15.6927049  16.6151279
  35.1871978  22.3393953  15.1903077  34.7599586  22.2520302  14.4351177
  34.5498031  22.4471729  15.7757921  35.0301585  22.3426613  15.1648519
  28.8779140  12.6598284  18.8573635  29.5072258  13.1958584  18.5794705
  29.0465003  12.5675643  19.7087201  28.9956935  12.7259646  18.9422163
  28.6793055  17.4469478  21.1300047  29.5066485  17.1754627  21.1858661
  28.7000901  18.2430320  21.4863865  28.8045905  17.5249233  21.1915229
  33.5169235  31.1824615  17.2642518  34.3061613  30.8313680  17.3844600
  33.6912833  31.9961004  17.0019152  33.6589516  31.2510473  17.2430386
  23.2562545  24.5933341  14.3170307  22.4150552  24.4937215  14.5249201
  23.4652553  25.3628821  14.6684628  23.1627238  24.6925385  14.3997622
  20.7338112  22.2152878  12.1455058  20.3394810  22.2895890  11.3705168
  20.1778229  22.6010824  12.6963420  20.5940924  22.2834653  12.1122718
  32.3703059  15.1934172  11.8258937  32.5752652  15.1256480  12.6715934
  32.0429483  15.9992993  11.7580114  32.3518307  15.3020113  11.9418592
  27.0679210  22.5214740  13.5667905  26.7642348  21.9670729  14.1678312
  26.3658631  22.7006950  13.0795939  26.9195420  22.4659523  13.5837610
  25.1297561  29.7364461  18.2740003  25.0217916  29.7466523  19.1402061
  25.3393343  30.5619241  18.0844956  25.1447672  29.8605536  18.3744094
  35.6236747  15.7465936  11.3061702  35.0111060  16.2336339  11.6915434
  35.7200922  15.0709427  11.8499353  35.5474644  15.7184245  11.4440560
  23.1471353  26.9877104  15.7361940  22.5559286  27.6286602  15.7064955
  23.9092377  27.4114721  15.7093240  23.1719614  27.1452942  15.7277087
  23.5431976  18.1479101  16.4029958  24.0033457  18.2218031  17.1405081
  23.5888083  18.9460355  16.0529779  23.6182531  18.2773248  16.4602714
  25.1915326  18.8145796  20.9701985  24.8000891  18.1679143  21.4057763
  25.3601188  19.4057231  21.5896240  25.1586236  18.8060064  21.1264691
  39.2661775  26.8182873  16.7339218  39.3244898  27.2669522  17.4799195
  38.6328242  27.2281686  16.2969298  39.1813070  26.9456608  16.7791767
  32.9060869  32.4386415  13.1693965  32.7080558  32.9277230  12.4750176
  32.2848580  32.6427657  13.7478098  32.7848434  32.5402953  13.1517188
  26.9668848  24.2071312   7.5104209  27.7110893  24.5945588   7.7487159
  27.1129544  23.3628737   7.6744697  27.0979433  24.1401785   7.5698179
  28.8848423  16.0021571  12.5436070  28.0384468  16.1744379  12.4177420
  28.8819556  15.1970915  12.8801899  28.7595573  15.9082600  12.5747197
  29.9546723  19.7796785  13.4098128  29.4806678  19.2538547  13.9203439
  30.3264859  19.2326258  12.8412990  29.9396612  19.6212782  13.4013275
  20.3319754  21.7768292  18.7781674  21.1945367  21.6764001  18.6919004
  20.0011537  21.1963001  18.2167246  20.4104950  21.6759919  18.6827080
  36.2183454  24.8399161  14.8204909  35.9781677  24.0005576  14.8247335
  36.6975461  24.9199328  15.5445682  36.2535638  24.7280561  14.9279711
  38.2188641  21.6200618  12.7734168  37.9798411  21.5796452  11.9354952
  38.3822542  22.4671770  12.8999889  38.2078945  21.7392703  12.6687650
  34.8234671  26.0050567  18.7039213  35.5468870  25.5523094  18.5250233
  34.5584634  26.2855233  17.9211541  34.8915945  25.9801536  18.5617928
  23.6921540  20.6010741  15.4392092  23.0674610  20.6129133  14.8318045
  23.3567134  21.0770916  16.0883332  23.5507031  20.6729258  15.4448661
  20.4047215  28.6611201  16.8795856  19.8747140  27.9703640  16.9290831
  20.6772308  28.6521386  16.0508565  20.3671937  28.5578333  16.7643272
  31.4367306  29.2436903   5.6033539  32.1601505  29.7095016   5.4598112
  30.9967897  29.3110513   4.8531136  31.4782998  29.3220740   5.4718320
  30.6053461  26.1034446  16.8534228  29.9910454  25.5592496  17.1482863
  31.1220746  25.5898682  16.3740044  30.5909123  25.9470855  16.8258456
  29.8449758  27.1738716  14.5878527  29.4177366  26.5488434  14.1543962
  29.8374702  26.8913638  15.4137534  29.7808899  27.0391496  14.6458354
  22.9612285  22.2103889  17.6566961  23.1205772  21.4547213  18.0618683
  22.7805179  22.7594828  18.3107698  22.9577644  22.1797702  17.8129667
  30.9032588  14.3765124  18.2117750  30.4073149  14.5728799  17.5209317
  31.6601650  14.7757793  18.0406552  30.9419413  14.4642858  18.0837887
  28.1735468  18.0507470  14.8021061  28.1977955  17.5167582  14.1133841
  28.4246941  17.5424779  15.4646651  28.2145386  17.8968374  14.7985705
  15.6843057  25.3338965  14.2364205  15.5786506  25.2885810  13.3716289
  14.9343277  25.6792746  14.5178490  15.5578660  25.3779873  14.1501534
  24.4536790  16.7778288  14.1826805  24.4935161  17.2787495  14.8961512
  23.6286454  16.8688682  13.9132728  24.3376316  16.8660105  14.2477343
  26.6366403  26.3439028  22.2847100  25.7862033  26.4810743  22.4204744
  26.7994530  25.6102807  22.7294801  26.5350266  26.2553130  22.3702699
  25.8751153  23.2938798  16.4800704  25.0443083  23.4612616  16.2735952
  25.8202670  22.9174749  17.2649589  25.7440568  23.2628530  16.5649232
  23.6834936  16.7847691  22.1157115  24.3087640  16.2409824  22.3886547
  23.2285416  16.3042609  21.5464905  23.7083197  16.6337173  22.0718708
  37.2569985  24.9676978  17.2069763  37.8487825  25.6074229  17.2387961
  37.6928980  24.2700015  17.4961829  37.4088416  24.9595329  17.2550595
  29.0863375  29.3894351  17.8327657  28.5788466  29.9430197  18.2768287
  28.7890021  29.4502640  17.0146431  28.9668260  29.4800662  17.7776113
  31.2525557  17.7547670  16.6752320  31.6780629  17.3020197  16.0635846
  30.6382550  17.2007741  16.9517107  31.2254203  17.6061646  16.6257345
  31.6971155  33.3057608   5.7631600  30.9800465  33.1318471   5.2978837
  32.3477893  33.0710181   5.2307086  31.6873006  33.2453401   5.6160818
  34.2819127  22.1822197   9.5072905  33.6110316  22.7251899   9.3785971
  34.9758877  22.6517052   9.2654600  34.2847994  22.3320468   9.4528433
  28.3305860  34.3218909  14.7384663  28.1071515  33.5637738  15.1068690
  27.8415704  34.3516930  14.0165103  28.2249309  34.2141133  14.6861404
  34.4447254  18.6378080  12.4163278  34.7974864  18.2107803  13.0909077
  33.5862055  18.5528924  12.5464355  34.3696699  18.5622821  12.5358289
  23.1430939  21.2685600  10.4746125  22.4242928  21.6849733  10.7418988
  23.5143301  21.8339839   9.9237763  23.0922871  21.4134882  10.4328932
  32.4430520  21.9013449  16.3648121  32.4228447  21.7196744  17.2182900
  32.4909721  22.7725468  16.3407704  32.4465161  22.0029987  16.4871415
  30.3876850  28.4900641  22.2896597  30.3472705  27.8450318  21.7041753
  31.2000168  28.4337258  22.6022009  30.5020003  28.3859608  22.2493546
  26.9784317  34.5419367  12.1921748  26.5644716  33.8793497  11.8025590
  27.6631691  34.6897226  11.6717442  27.0182689  34.4660025  12.0578245
  30.3449611  33.7009452  12.9445365  29.9465895  33.8111723  12.1766185
  29.7300831  33.9091519  13.5271924  30.1948501  33.7483020  12.9176664
  35.8771314  13.7596492  13.3447591  35.3702179  13.0525632  13.2768768
  36.6738748  13.4289681  13.4748667  35.9198553  13.6069644  13.3546586
  31.7935330  20.2663105   9.2421255  31.5649023  20.2895806   8.3999613
  32.0533406  19.4420572   9.3616265  31.7981518  20.1479184   9.1346452
  26.0754558  22.1197578  18.8446355  25.5633461  21.5118761  19.2031386
  25.9034055  22.8354170  19.3120331  25.9744195  22.1360877  18.9662579
  20.9220273  20.5635153  21.4948717  20.7522863  21.2236528  20.9496923
  20.4786223  20.7741714  22.2161206  20.8319607  20.6921135  21.5210346
  24.8480092  18.8039651  10.5375450  25.3237459  19.1656731   9.9025631
  24.3468692  19.4596118  10.8175593  24.8445451  18.9533840  10.4852191
  38.0791454  28.2761419   6.3288455  38.4625060  29.0252775   6.5586552
  37.2835567  28.5227239   6.0700444  38.0185236  28.4231113   6.3246029
  29.9523629  20.0421822  21.2848610  30.5095059  19.8135632  20.6527076
  29.6284694  20.8027488  21.0083823  29.9870039  20.1205659  21.1505107
  17.8222338  23.4682018  16.7537206  17.2749057  22.7982664  16.8718075
  18.6114716  23.1011866  16.8180674  17.8574521  23.3147005  16.7805907
  27.6706746  23.1289476  22.2500618  28.4218073  23.4441152  22.5640172
  27.8629322  22.9268646  21.4234539  27.8098160  23.1456857  22.1744013
  34.5192036  19.2563042   9.4924413  34.5186263  19.1011698  10.3508689
  34.3148216  20.1026029   9.4365799  34.4891814  19.3583663   9.6112352
  16.5809307  22.6802826  13.9083230  16.4031068  22.2279435  14.6338145
  16.2928329  23.4828988  14.0921707  16.5122260  22.7325384  14.0426732
  32.2432888  23.9360544  13.1460620  32.7386553  23.2183539  13.1064640
  31.4332664  23.6331341  13.0315107  32.1976781  23.7858190  13.1234346
  27.6891500  27.7858357   5.2957624  26.8802822  27.4625030   5.2490934
  28.1966409  27.0791579   5.2285873  27.6441166  27.6339673   5.2787919
  18.3181777  25.2130550  11.0204989  17.4527296  25.2016240  10.9087760
  18.4180593  25.0260773  11.8676128  18.2055944  25.1836611  11.1293933
  34.3084707  26.6864231  15.8337749  34.7339779  26.1638653  15.2808174
  33.9441627  27.2845069  15.3126372  34.3171310  26.6974458  15.6746758
  23.9438787  34.9828449  14.5935094  24.2585346  35.7964837  14.6012876
  24.3532200  34.5978667  15.2617253  24.0506885  35.0457151  14.6939186
  30.8963306  30.3998495  12.1638906  31.3674485  31.1138758  12.3328891
  31.2323485  29.7997246  12.6998776  31.0158422  30.4169960  12.2671282
  27.8132801  15.1725966  19.1197001  27.9460707  14.3756959  19.4477976
  28.1977954  15.6992369  19.6995276  27.8889130  15.1325883  19.2540504
  31.5337253  30.1916430  18.9266599  30.9858199  29.5674313  18.6586664
  31.9950282  30.3810702  18.2110678  31.5204462  30.1275480  18.7817030
  30.8865157  12.0956292  15.7178094  30.0811120  11.9854022  16.0345932
  30.7571892  12.1968748  14.8607960  30.7485289  12.0939962  15.6386135
  34.3431117  18.2601784  16.3117791  33.7594106  18.7610991  15.8995358
  34.6635411  17.7531340  15.6782114  34.3044292  18.2593619  16.1576298
  25.4721248  15.1685141  17.3674895  26.0165661  14.8276268  17.9579236
  25.5258184  16.0270603  17.5096179  25.5610368  15.2440400  17.4756768
  21.2851807  28.9301557  14.2413702  21.8896664  28.8897391  13.6127523
  21.0779120  29.7772709  14.2717758  21.3440704  29.0489560  14.1529819
  31.0995579  31.1967502  15.4575940  31.9193953  31.0530468  15.7192235
  30.8189657  31.8213701  15.9992378  31.1792322  31.2677854  15.5763879
  16.5203089  27.9136175  14.1112626  16.4227367  27.1032446  14.4202682
  17.3031959  27.8927968  13.7258894  16.6219226  27.7903265  14.0999489
  47.5709229  38.8532354   8.4218816  47.5403234  39.7076991   8.5937086
  48.1690578  38.5527647   8.9804960  47.6546387  38.9348851   8.5293619
  40.7708914  37.9408005  13.1771747  39.9146810  38.1016503  13.2280863
  40.8176568  37.0700069  13.1976808  40.6508026  37.8358807  13.1877813
  35.1550054  47.4770723   8.9408978  34.4032954  47.0986261   8.7125023
  35.6036066  47.5089156   8.1927789  35.1099721  47.4256330   8.7966480
  40.6075014  47.8996092   4.3694525  40.2726382  48.5773014   3.9338747
  41.1201884  47.5101404   3.7811397  40.6340595  47.9420671   4.2181317
  40.1479305  49.8510361  10.3105637  40.5318685  50.4197260   9.7710412
  40.0838446  49.1259871   9.8311453  40.1952732  49.8285824  10.1599499
  43.6160735  40.0000049  15.8203398  44.1616695  40.6785135  15.8797368
  43.5577612  39.8587510  14.9604980  43.6876650  40.0792051  15.7015459
  36.7334810  47.4889115  11.2071751  36.8345173  46.6789469  11.5168878
  36.1376555  47.3946061  10.5771429  36.6607349  47.3554143  11.1597989
  45.3925804  41.4284656   6.6937126  45.2765330  42.1792342   7.1229264
  46.1881691  41.1708609   6.9433213  45.4930393  41.5019503   6.7941218
  36.5735550  52.4066704  12.6086607  37.2173005  52.8479868  12.9982765
  36.8991805  51.6020130  12.5216866  36.7167378  52.3531899  12.6532084
  29.9299855  43.5109402  10.8324084  29.6950039  42.6777054  10.7256353
  30.0685495  43.7914067  10.0185285  29.9155517  43.4292905  10.6966439
  32.2289942  35.6795132  13.7308392  31.6094974  35.0887779  13.5618407
  32.1273806  36.2706567  13.0972715  32.1227617  35.6799215  13.6113382
  37.2756130  45.4178679   7.9806468  37.5971971  45.9583886   7.3767777
  37.9228226  44.8475450   8.1128758  37.4182185  45.4137854   7.9113504
  39.3257838  37.4194674   8.0640855  40.0238002  37.5982801   8.5562318
  39.6410170  36.8965013   7.4411245  39.4753175  37.3688446   8.0442865
  31.9559075  39.2247414  15.9751961  31.8317772  39.8109859  16.6101780
  32.6077359  38.7307610  16.2764236  32.0332724  39.2386218  16.1137890
  39.5145773  43.8065119   8.0520647  39.9539408  43.1982219   8.4975419
  39.3650436  43.4272492   7.2806112  39.5567239  43.6603590   8.0039814
  36.9817416  42.4009131  15.2539472  37.6266419  41.9081574  14.9350421
  37.2219193  42.5433917  16.0805550  37.1128001  42.3486573  15.3289005
  39.5203507  45.2464037  14.9046365  39.8026750  44.4515442  14.6833121
  40.2489668  45.7244624  14.9251426  39.6693071  45.1998634  14.8749380
  37.4984701  32.7887071  12.1462130  37.1688031  33.2398214  11.4765829
  36.8229703  32.7103234  12.6935136  37.3495137  32.8438206  12.1285353
  43.1155110  42.1592300   5.0051416  43.0306405  43.0153267   5.1500985
  43.6039493  41.8836624   5.6733575  43.1744007  42.2449622   5.1253497
  44.7061109  28.7772593  10.3911740  44.3914550  29.4676072  10.8232163
  44.1888051  28.7217376   9.6897241  44.5825579  28.8707482  10.3508690
  44.0473543  38.7777094   6.5049151  43.5185014  38.9936728   7.1646457
  44.5698563  39.4713233   6.4250120  44.0461996  38.9120231   6.5904750
  49.5021596  44.3523399  11.8782195  48.6719299  44.5634043  12.0415612
  49.4530848  43.5260453  11.6024479  49.3728331  44.2613005  11.8619561
  35.9373151  42.6740311   5.3056619  35.3530366  43.1790343   5.7122483
  35.5343246  42.4482698   4.5653211  35.7912454  42.7148560   5.2561644
  31.4917179  48.3895072  12.1080291  31.0084757  49.1145562  12.0839874
  32.3040497  48.6871202  12.2190448  31.5407927  48.5397426  12.1207570
  37.5631333  47.1827253  14.7130105  37.0458275  46.8234668  14.1091413
  38.2605724  46.6589427  14.7236171  37.5896914  47.0524941  14.6260364
  38.7865385  46.9153227  19.6563940  38.2236220  46.5025837  20.1803601
  39.5486408  46.8406133  20.0757084  38.8159834  46.8430628  19.7956941
  40.3950365  38.9205963   3.7825540  40.6346369  39.1283947   2.9700883
  40.7166206  38.1163472   3.8914484  40.4787523  38.8320064   3.6786093
  35.7040655  30.8499359   7.6285078  36.4586623  31.2177676   7.3902128
  35.5268190  31.2238913   8.3964257  35.7895134  30.9597547   7.7069966
  34.3461376  48.9051248  12.2600570  35.0481956  48.3903237  12.3173327
  34.2658860  49.2325400  13.0647446  34.4385137  48.8765474  12.3873363
  48.9975554  36.9993800  15.6732617  48.1603975  37.0695987  15.9080211
  48.9663785  37.0018294  14.8006919  48.8693836  37.0104027  15.5792165
  35.3940283  39.1426835  21.3880986  35.5660787  39.0332730  22.2366267
  35.9309641  39.7881241  21.1512178  35.4985287  39.2218837  21.4786082
  34.0597720  33.2569678   4.3263191  33.8773293  33.4741559   3.5004183
  34.9223333  33.3708691   4.3821805  34.1602309  33.3059576   4.2117678
  33.6712152  45.0957600  11.7686178  34.5101051  45.3280533  11.8159940
  33.7023921  44.2261912  11.6993214  33.7993869  45.0014547  11.7650823
  34.2964855  45.5158475  16.0699484  34.8363080  45.3729606  16.7402856
  33.6134801  45.9155226  16.4383510  34.2757009  45.5538146  16.2233906
  39.7397439  30.2596089   7.3612214  40.4683600  30.0812044   6.9150371
  39.8292332  31.1014168   7.5719392  39.8604101  30.3579967   7.3265732
  43.7205740  41.1949476  11.2644508  44.4763255  41.6280990  11.3033417
  43.8268064  40.5454246  11.8379144  43.8475910  41.1626960  11.3542534
  46.7585911  45.0222753  12.0146911  46.3221143  45.0259496  12.7705883
  46.4248826  45.7028252  11.5826489  46.6448531  45.1235209  12.0627744
  29.7002000  41.7358766  16.2233905  29.4340415  40.9197883  16.3824896
  29.7140564  41.7811922  15.3529421  29.6626722  41.6215671  16.1187387
  46.6783394  32.0636581  14.2576339  47.3209302  32.1334686  14.8438255
  46.9306415  31.3965804  13.7555881  46.8105526  31.9762930  14.2703618
  33.6059747  36.5343851   2.8385664  32.8917924  36.2482030   3.2508096
  34.0903716  36.8740476   3.4792051  33.5719110  36.5425500   2.9941299
  34.4500606  35.2737145  18.8700913  33.7572403  34.8034124  19.1161645
  35.0660934  35.0475449  19.4442620  34.4385136  35.1704276  18.9910066
  41.4885378  48.9741188  16.9856517  40.6900624  48.7340688  17.2430386
  41.9371389  49.0255581  17.7323565  41.4359989  48.9463579  17.1341441
  49.8930257  41.7403673  10.9066549  50.5546691  41.1794342  10.8062457
  49.2521669  41.2455704  11.2319240  49.8959125  41.5840082  10.9398889
  40.7807065  45.0373805   3.2147472  41.1958213  44.7058828   2.5231968
  39.9498994  44.8042707   3.0867608  40.7195074  44.9545061   3.0938319
  30.1095414  42.5217546  13.5045650  29.9270987  42.4964432  12.6517942
  30.8445083  42.9916483  13.5434559  30.1909477  42.5878908  13.3843568
  46.1795088  42.7569056  10.6478537  46.4150677  42.9014254   9.8205388
  46.3284651  43.5211464  11.0410051  46.2360891  42.8908110  10.5842141
  33.1741165  39.2402548  20.0127758  33.8981138  39.2255579  20.4992653
  33.2757302  39.9497904  19.5149727  33.2959374  39.3427252  20.0106545
  48.0085545  41.5970722   8.4848141  48.3393762  42.1298362   7.8788236
  48.5818633  41.6509609   9.1410092  48.1419224  41.6840290   8.4925923
  43.2217434  39.4435624   9.1671721  43.3164288  40.1824918   9.6211347
  42.5976277  39.0153100   9.6006286  43.1426464  39.4896945   9.2979869
  41.4769908  42.6221837  19.8162002  42.0508769  41.9849081  19.9710566
  41.3984711  42.6225919  18.9471660  41.5503142  42.5286948  19.7108413
  30.0766324  39.4011046  13.6544716  30.6539827  39.2647497  14.2936962
  29.3780386  38.9446830  13.9090301  30.0587345  39.3133313  13.7867006
  43.4740455  41.2884364   2.4008673  43.3920618  41.3586551   3.2663660
  44.1120175  41.8514108   2.2092414  43.5560292  41.3823335   2.4998623
  36.8333626  41.0545102  11.8683200  36.5752870  40.2216837  11.8414499
  36.8882109  41.2802715  11.0275700  36.8033404  40.9642873  11.7403336
  41.9134676  33.1573553  11.9687292  41.2091003  32.6682738  12.1271211
  41.9619651  33.1696027  11.0975737  41.8164728  33.0863201  11.8626632
  35.8068338  38.6082864  12.3548094  35.2317930  38.7675033  12.9912055
  35.4304015  37.9718274  11.8916545  35.6671151  38.5380677  12.3802653
  39.4741627  37.0806214  17.2140473  39.0856060  36.6560431  16.5592664
  38.8096325  37.3288363  17.7217499  39.3188555  37.0544935  17.1928341
  49.1164896  36.8381218   9.9888303  48.8601461  36.0261160   9.7986186
  49.9594210  36.8458786   9.7618490  49.2030921  36.7193216   9.9273120
  25.5525157  38.2522939  10.3692535  25.6385409  37.8754808  11.1506065
  26.1800955  37.8783385   9.8912493  25.6581708  38.1408421  10.4138012
  43.2967988  30.7780842  14.7264457  43.6778500  30.0959014  15.1132331
  42.4931273  30.4890445  14.5440121  43.2344450  30.6347891  14.7568513
  40.5780565  41.3104818   5.4117280  41.3921204  41.6019711   5.3000051
  40.5139706  40.6564681   4.8375573  40.6883304  41.2570013   5.3106117
  46.7990055  43.9930814  19.8246855  46.5628693  43.1618879  19.7058916
  47.4433284  43.9416422  20.4101700  46.8584726  43.8628502  19.8932749
  36.4488473  44.7826336  10.5389592  37.0862420  44.5438083  11.0841385
  36.8743545  44.9863495   9.8042752  36.6064640  44.7777346  10.5106749
  31.1401116  47.0214672  14.4223896  31.1805261  47.2929523  13.5943675
  31.6995640  47.5456580  14.8381683  31.2284462  47.1390427  14.3615784
  37.0891288  40.0028626   4.8764481  37.4736441  39.7836332   5.6281026
  36.8402909  40.8291571   5.0065558  37.1093361  40.0926772   5.0065558
  47.8226476  43.7775263  15.8875150  47.5172293  44.5103320  16.2488465
  47.1032692  43.3713193  15.6067936  47.6713818  43.8256996  15.8988287
  38.8309945  45.2598758  12.2183378  38.9048954  45.0973930  13.0725228
  39.6479452  45.4488948  11.9743860  38.9626304  45.2635501  12.3081404
  53.5228268  40.4168264  15.2143494  53.4552768  40.4364223  14.3446081
  53.5083931  41.2598591  15.4399165  53.5107025  40.5441999  15.1195971
  32.5915702  45.6056621   9.2477822  31.7653820  45.8518358   9.1212100
  32.6527693  45.5268702  10.1139880  32.4789869  45.6301570   9.3566766
  34.8091726  31.6725562  10.2073262  33.9414151  31.7448162  10.2730871
  35.0966930  32.4747641  10.3961237  34.7231474  31.8019709  10.2448028
  43.9324615  31.8203422  18.5384584  44.6778207  31.6313232  18.1248009
  43.5161919  32.3461660  17.9798440  43.9809589  31.8705567  18.3949157
  37.3714531  48.2233501   6.9496851  37.6612830  47.8322483   6.2256078
  38.1018012  48.4050206   7.3902127  37.5221415  48.1927315   6.9079658
  51.3086885  39.1912650  13.4890088  51.8594807  38.5580719  13.7287181
  51.2931001  39.7228043  14.1805593  51.3872082  39.1761598  13.6268947
  37.9609276  43.0251247  18.0349982  37.4620970  43.7367015  18.1134870
  38.7709501  43.3451914  17.9968144  38.0065383  43.1778096  18.0406550
  35.3120447  50.2000884  10.0157001  35.0920742  49.9098239  10.8083668
  35.0914969  49.5415839   9.4874914  35.2468041  50.0600592  10.0545910
  34.2237394  42.2874200  12.2812703  33.9350643  41.6611672  12.8158430
  35.0920742  42.2294488  12.3477383  34.3097646  42.1861745  12.3703657
  45.0115292  37.4308984  12.5994685  44.6680058  36.7099319  12.9501934
  45.1108334  37.2222835  11.7573043  44.9757335  37.2933187  12.5266365
  37.4788402  51.5730274   8.7987694  38.1312460  51.0406716   9.0278720
  36.7814011  51.2198926   9.1855568  37.4719120  51.4419797   8.8899861
  34.4269667  43.9269451   8.2055068  35.1815635  44.3082490   8.4190530
  33.8340280  44.3780595   8.6601764  34.4506381  44.0498279   8.3037946
  45.4728321  43.8934688   8.1418673  46.0386353  44.5527898   8.0577216
  44.8256224  44.2384386   8.6135075  45.4607077  44.0416629   8.1991429
  36.8876334  35.8832292  23.3312280  36.0776110  36.1890071  23.2202122
  37.3651021  36.6037874  23.4464864  36.8379813  36.0346893  23.3319351
  35.7467894  45.0978013  13.5795183  35.2248647  45.2378304  14.2647048
  36.1341914  44.3388677  13.7697301  35.7271595  45.0063537  13.7096260
  32.7359078  35.1483822   7.6490138  32.4483874  34.7785092   6.9122085
  33.4229546  35.6178677   7.3873843  32.7947975  35.1630791   7.5005214
  41.9434899  46.8373472   7.5655752  41.7021575  46.1041333   7.1582817
  42.1236232  47.3860329   6.9122085  41.9342523  46.8095863   7.4085975
  37.1734219  42.1282032   8.9776674  36.9777002  42.7356766   8.3836977
  37.3968565  41.4349976   8.4968348  37.1768860  42.1159557   8.8192755
  35.5712749  39.0136770   9.0957543  36.2935401  39.1777928   8.6361349
  35.0920742  39.7346435   8.9896882  35.6076480  39.1434999   9.0123157
  43.5306257  35.3500569  14.4754228  42.6917358  35.3761847  14.2392491
  43.6010624  35.9971304  15.0559574  43.4174651  35.4496694  14.5263344
  33.2220366  41.4194842  18.2011683  33.7341463  41.6979095  17.5520442
  32.9356709  42.1584136  18.5674496  33.2555229  41.5697196  18.1601561
  41.9775535  32.2485946   9.2081844  42.6801888  32.0493694   8.7301802
  41.7119724  31.4761888   9.5150687  42.0422168  32.1048912   9.1827285
  47.4063781  40.5568555  11.7615469  47.3197755  40.7123981  12.6150248
  46.9514261  41.2006631  11.3874874  47.3267038  40.6744310  11.8322576
  36.7404092  33.5121231  18.2612724  36.5487289  33.5276365  19.1112148
  37.5902688  33.7084905  18.2379379  36.8379814  33.5435582  18.3836019
  31.1251005  36.0412212  16.2396541  30.9836496  35.1896153  16.3641049
  31.4091568  36.0840873  15.4158747  31.1458851  35.9211962  16.1364165
  41.2789597  37.8779302  10.3841029  41.0324311  37.7975053  11.2177818
  41.6074720  37.0932770  10.1903556  41.2910841  37.7505568  10.4788552
  45.1737646  44.5862662  14.1727810  45.0352005  45.2843708  14.6776552
  44.3937644  44.4311318  13.8163992  45.0380873  44.6662828  14.1954084
  43.5115731  40.8859037  20.4250192  43.5063769  40.0138854  20.4292618
  44.2176725  41.0847206  19.9519647  43.6160735  40.7862911  20.3557227
  37.2386624  40.6136021  19.7964012  37.3830000  41.1937229  19.1607122
  37.5862273  40.9912318  20.5013867  37.3114086  40.7556725  19.8063007
  39.4106542  39.8126189  17.5789144  38.6629856  40.0057204  17.1737422
  39.5648067  38.9871409  17.3413265  39.3228969  39.7191301  17.4834549
  46.6691019  43.9440916   4.9344309  46.2897827  43.1578053   4.9273599
  46.0057264  44.4927773   4.7915954  46.5149493  43.9085739   4.9125106
  38.8367680  48.9753436  17.9409530  38.7611351  48.3062246  18.4960318
  38.7657539  49.6771224  18.4550196  38.8148287  48.9798343  18.0986378
  39.6508319  33.7076740  18.4684547  40.1080933  34.4400714  18.5957339
  39.7264647  33.2843205  19.2271803  39.7299288  33.7533978  18.5985624
  31.8941310  33.9542560  19.5573991  31.3583499  33.3422918  19.8734758
  31.9559075  34.5290696  20.2107658  31.8236943  33.9489488  19.7009418
  44.1235645  26.8866615  12.3378390  44.2419213  27.3443079  11.6045693
  43.9497820  26.0811876  12.0514608  44.1154816  26.8360387  12.1879324
  39.4937927  47.4954435   8.7733136  40.2587818  47.2264078   8.4515800
  39.3916017  47.0104445   9.4903198  39.5919422  47.3843999   8.8312963
  37.5290697  35.6978844  15.3126371  36.7386771  35.5170304  15.6343707
  37.9251319  34.9205797  15.2956666  37.4707573  35.5566305  15.3578920
  42.0156587  44.5266618   0.7533085  42.7829572  44.5866743   0.3438937
  41.5687896  43.9547060   0.2689403  42.0630015  44.4503194   0.6210795
  42.9134383  43.3321274  13.0385817  42.2379385  43.1006506  13.5399204
  42.9226759  42.7242457  12.4127922  42.8152887  43.2080199  13.0201969
  40.0428527  38.1739103  19.7949870  39.9787668  39.0349060  19.6670007
  40.1825715  37.8571096  18.9945422  40.0543997  38.2539270  19.6578083
  44.9151117  46.1886407   5.2695995  44.9970955  46.9953393   4.9457446
  45.4000860  46.2082366   5.9936769  44.9988275  46.3107069   5.3282894
  38.7247621  40.8671242  13.9366073  38.3009870  41.0675742  13.2005091
  38.5492476  40.0200090  14.0490373  38.6358501  40.7720024  13.8439763
  34.0130066  41.3623294   9.3694046  34.1694685  41.2970097  10.2250038
  34.3530659  42.1371846   9.1572725  34.0863301  41.4672492   9.4648640
  40.5509210  40.7381177   8.2387409  41.0924756  40.2351559   8.7026029
  40.8655769  40.6846372   7.4276894  40.6773607  40.6560598   8.1871221
  38.7195660  46.1298529   5.5227437  38.7888480  45.2713067   5.6620437
  39.4984115  46.3470410   5.1946461  38.8448510  46.0351393   5.4944594
  41.6998480  35.6317482  18.2909709  41.9140449  34.9928396  17.7373063
  41.0832379  36.0763306  17.8617571  41.6403809  35.6027626  18.1460140
  43.1103148  48.5536230   9.7363930  42.7182939  48.2502945   9.0186796
  43.2656220  49.3905320   9.5468884  43.0756737  48.6320067   9.6020427
  30.5864327  38.5458244   9.6854813  30.9663292  38.9642789   9.0215080
  30.0119692  39.1271700   9.9923656  30.5575652  38.6936103   9.6331554
  43.8637568  37.2406547  19.2293016  43.0514249  36.9332438  19.3106189
  44.3227502  36.7605547  19.7935729  43.8117952  37.1243040  19.3247611
  43.2742822  45.1186219   9.6769961  42.9157477  45.2900862  10.4533993
  42.7881533  45.5799425   9.1197959  43.1501519  45.2125190   9.7095230
  41.0913208  28.7417418  13.2797052  40.2206766  28.7156139  13.2330362
  41.3453550  28.5694610  12.4622898  41.0006768  28.7127561  13.1517189
  38.0631188  40.7985385   2.2170195  38.3523713  41.5750267   2.4913769
  38.1502987  40.2874116   2.9184694  38.1185444  40.8377303   2.3612693
  38.1162349  30.7523646  14.7370522  37.6000837  30.0603838  14.8622101
  37.5556278  31.4194423  14.6833121  37.9568862  30.7486904  14.7476588
  40.1854582  31.2916606  16.5663375  39.7986335  31.3165638  17.3476905
  39.6987520  30.7258285  16.1137892  40.0567091  31.2112357  16.6151279
  46.1604562  37.8579261  15.1903077  45.7332170  37.7705610  14.4351177
  45.5230615  37.9657037  15.7757921  46.0034169  37.8611921  15.1648519
  39.8511724  28.1783592  18.8573635  40.4804842  28.7143892  18.5794705
  40.0197587  28.0860951  19.7087201  39.9689519  28.2444954  18.9422163
  39.6525639  32.9654786  21.1300047  40.4799068  32.6939935  21.1858661
  39.6733485  33.7615628  21.4863865  39.7778489  33.0434541  21.1915229
  44.4901818  46.7009923  17.2642518  45.2794196  46.3498988  17.3844600
  44.6645416  47.5146312  17.0019152  44.6322100  46.7695781  17.2430386
  34.2295129  40.1118649  14.3170307  33.3883135  40.0122523  14.5249201
  34.4385137  40.8814129  14.6684628  34.1359821  40.2110692  14.3997622
  31.7070696  37.7338186  12.1455058  31.3127393  37.8081198  11.3705168
  31.1510813  38.1196132  12.6963420  31.5673508  37.8019961  12.1122718
  43.3435642  30.7119480  11.8258937  43.5485236  30.6441788  12.6715934
  43.0162066  31.5178301  11.7580114  43.3250890  30.8205421  11.9418592
  38.0411794  38.0400048  13.5667905  37.7374931  37.4856037  14.1678312
  37.3391214  38.2192258  13.0795939  37.8928003  37.9844831  13.5837610
  37.0977891  35.3500568   8.1312607  37.3737625  34.6319481   7.7190174
  37.6976560  35.9485488   7.9233713  37.2271155  35.3320939   8.0393368
  36.1030145  45.2549769  18.2740003  35.9950500  45.2651831  19.1402061
  36.3125926  46.0804549  18.0844956  36.1180256  45.3790844  18.3744094
  46.5969330  31.2651244  11.3061702  45.9843644  31.7521646  11.6915434
  46.6933505  30.5894735  11.8499353  46.5207228  31.2369553  11.4440560
  40.5988411  33.0214085   6.4059202  41.0532158  33.1924646   7.1307046
  41.0728457  32.4082196   6.0056977  40.7356731  32.9564971   6.4532963
  34.1203937  42.5062411  15.7361940  33.5291870  43.1471910  15.7064955
  34.8824960  42.9300029  15.7093240  34.1452197  42.6638250  15.7277087
  34.5164559  33.6664409  16.4029958  34.9766041  33.7403339  17.1405081
  34.5620666  34.4645663  16.0529779  34.5915115  33.7958556  16.4602714
  36.1647909  34.3331104  20.9701985  35.7733474  33.6864451  21.4057763
  36.3333772  34.9242539  21.5896240  36.1318819  34.3245372  21.1264691
  50.2394358  42.3368181  16.7339218  50.2977482  42.7854830  17.4799195
  49.6060826  42.7466994  16.2969298  50.1545653  42.4641916  16.7791767
  43.8793453  47.9571723  13.1693965  43.6813141  48.4462537  12.4750176
  43.2581164  48.1612965  13.7478098  43.7581017  48.0588261  13.1517188
  37.9401431  39.7256620   7.5104209  38.6843476  40.1130896   7.7487159
  38.0862127  38.8814045   7.6744697  38.0712016  39.6587093   7.5698179
  39.8581007  31.5206879  12.5436070  39.0117052  31.6929687  12.4177420
  39.8552139  30.7156222  12.8801899  39.7328157  31.4267908  12.5747197
  40.9279307  35.2982093  13.4098128  40.4539261  34.7723855  13.9203439
  41.2997443  34.7511566  12.8412990  40.9129196  35.1398090  13.4013275
  31.3052337  37.2953600  18.7781674  32.1677950  37.1949309  18.6919004
  30.9744120  36.7148309  18.2167246  31.3837534  37.1945227  18.6827080
  47.1916038  40.3584469  14.8204909  46.9514261  39.5190884  14.8247335
  47.6708045  40.4384636  15.5445682  47.2268221  40.2465869  14.9279711
  42.8562807  36.1918648   6.4723882  42.3285825  36.2747392   5.7829591
  43.3158515  36.9336519   6.4688527  42.8464657  36.3139310   6.3698577
  49.1921225  37.1385926  12.7734168  48.9530995  37.0981760  11.9354952
  49.3555126  37.9857078  12.8999889  49.1811528  37.2578011  12.6687650
  45.7967255  41.5235875  18.7039213  46.5201454  41.0708402  18.5250233
  45.5317217  41.8040541  17.9211541  45.8648528  41.4986844  18.5617928
  34.6654123  36.1196049  15.4392092  34.0407193  36.1314441  14.8318045
  34.3299718  36.5956224  16.0883332  34.5239615  36.1914566  15.4448661
  34.8495872  34.4621167   1.4964777  34.5008676  35.1140893   1.9596326
  34.3692318  34.4478280   0.7688648  34.7266116  34.5564221   1.4575868
  31.3779799  44.1796509  16.8795856  30.8479723  43.4888948  16.9290831
  31.6504892  44.1706694  16.0508565  31.3404521  44.0763641  16.7643272
  42.4099889  44.7622211   5.6033539  43.1334088  45.2280324   5.4598112
  41.9700480  44.8295821   4.8531136  42.4515581  44.8406048   5.4718320
  41.5786044  41.6219754  16.8534228  40.9643037  41.0777804  17.1482863
  42.0953329  41.1083990  16.3740044  41.5641707  41.4656163  16.8258456
  40.8182341  42.6924024  14.5878527  40.3909949  42.0673742  14.1543962
  40.8107286  42.4098945  15.4137534  40.7541483  42.5576804  14.6458354
  33.9344869  37.7289197  17.6566961  34.0938355  36.9732521  18.0618683
  33.7537762  38.2780136  18.3107698  33.9310228  37.6983010  17.8129667
  41.8765172  29.8950432  18.2117750  41.3805733  30.0914106  17.5209317
  42.6334234  30.2943100  18.0406552  41.9151996  29.9828166  18.0837887
  39.1468051  33.5692778  14.8021061  39.1710538  33.0352890  14.1133841
  39.3979525  33.0610087  15.4646651  39.1877970  33.4153682  14.7985705
  26.6575641  40.8524273  14.2364205  26.5519090  40.8071117  13.3716289
  25.9075861  41.1978054  14.5178490  26.5311244  40.8965181  14.1501534
  35.4269373  32.2963596  14.1826805  35.4667745  32.7972803  14.8961512
  34.6019038  32.3873990  13.9132728  35.3108899  32.3845413  14.2477343
  37.6098986  41.8624336  22.2847100  36.7594617  41.9996051  22.4204744
  37.7727114  41.1288115  22.7294801  37.5082850  41.7738438  22.3702699
  36.8483737  38.8124106  16.4800704  36.0175666  38.9797924  16.2735952
  36.7935254  38.4360057  17.2649589  36.7173152  38.7813837  16.5649232
  35.2219781  37.0879698   7.0090822  35.3622742  37.5852162   7.7119463
  35.7202313  36.3865992   7.1505035  35.3160861  37.0581677   7.1342401
  35.2520003  37.9546809   4.3383398  35.8865082  38.5507234   4.2732860
  35.3345614  37.6550266   5.1529269  35.3576554  37.9987717   4.4486485
  48.2302569  40.4862286  17.2069763  48.8220409  41.1259537  17.2387961
  48.6661563  39.7885323  17.4961829  48.3821000  40.4780636  17.2550595
  36.8298986  33.8860784   4.3128840  37.1514827  33.4063867   3.6588103
  37.0925930  34.6960430   4.1219652  36.9165011  33.9350682   4.1884333
  40.0595959  44.9079659  17.8327657  39.5521050  45.4615505  18.2768287
  39.7622605  44.9687948  17.0146431  39.9400844  44.9985970  17.7776113
  42.2258141  33.2732978  16.6752320  42.6513212  32.8205505  16.0635846
  41.6115134  32.7193049  16.9517107  42.1986786  33.1246954  16.6257345
  31.7572991  40.1514650   7.6072945  32.2665220  40.7479157   7.9884250
  32.2307263  39.8840623   6.9249364  31.9016367  40.2000465   7.5627467
  42.6703739  48.8242916   5.7631600  41.9533049  48.6503778   5.2978837
  43.3210476  48.5895488   5.2307086  42.6605589  48.7638709   5.6160818
  40.6652364  29.7448078  10.0842897  40.0220682  29.5945724  10.6528035
  40.3251771  29.4990423   9.3192001  40.5197441  29.6860200  10.0545912
  45.2551710  37.7007505   9.5072905  44.5842900  38.2437207   9.3785971
  45.9491460  38.1702360   9.2654600  45.2580578  37.8505776   9.4528433
  39.3038444  49.8404217  14.7384663  39.0804098  49.0823046  15.1068690
  38.8148287  49.8702238  14.0165103  39.1981893  49.7326441  14.6861404
  45.4179838  34.1563388  12.4163278  45.7707448  33.7293111  13.0909077
  44.5594639  34.0714232  12.5464355  45.3429282  34.0808129  12.5358289
  34.1163523  36.7870908  10.4746125  33.3975512  37.2035041  10.7418988
  34.4875885  37.3525147   9.9237763  34.0655454  36.9320190  10.4328932
  43.4163103  37.4198757  16.3648121  43.3961031  37.2382052  17.2182900
  43.4642304  38.2910775  16.3407704  43.4197744  37.5215295  16.4871415
  41.3609433  44.0085949  22.2896597  41.3205288  43.3635626  21.7041753
  42.1732751  43.9522566  22.6022009  41.4752587  43.9044916  22.2493546
  37.9516901  50.0604675  12.1921748  37.5377299  49.3978805  11.8025590
  38.6364275  50.2082534  11.6717442  37.9915272  49.9845333  12.0578245
  41.3182195  49.2194760  12.9445365  40.9198478  49.3297030  12.1766185
  40.7033414  49.4276826  13.5271924  41.1681084  49.2668328  12.9176664
  39.8910097  35.8268908   5.8119504  39.2974936  36.1485904   5.2604071
  39.9285375  34.9810003   5.6040611  39.8084486  35.7493236   5.7002276
  46.8503898  29.2781800  13.3447591  46.3434762  28.5710940  13.2768768
  47.6471331  28.9474989  13.4748667  46.8931137  29.1254952  13.3546586
  42.7667914  35.7848412   9.2421255  42.5381607  35.8081114   8.3999613
  43.0265990  34.9605879   9.3616265  42.7714102  35.6664492   9.1346452
  37.0487142  37.6382885  18.8446355  36.5366045  37.0304068  19.2031386
  36.8766638  38.3539478  19.3120331  36.9476779  37.6546185  18.9662579
  35.8212676  34.3224959  10.5375450  36.2970042  34.6842039   9.9025631
  35.3201276  34.9781426  10.8175593  35.8178035  34.4719148  10.4852191
  49.0524038  43.7946727   6.3288455  49.4357643  44.5438083   6.5586552
  48.2568151  44.0412547   6.0700444  48.9917820  43.9416421   6.3246029
  40.9256212  35.5607130  21.2848610  41.4827642  35.3320940  20.6527076
  40.6017277  36.3212796  21.0083823  40.9602622  35.6390967  21.1505107
  28.7954921  38.9867326  16.7537206  28.2481641  38.3167972  16.8718075
  29.5847299  38.6197174  16.8180674  28.8307105  38.8332313  16.7805907
  38.6439330  38.6474783  22.2500618  39.3950657  38.9626460  22.5640172
  38.8361906  38.4453954  21.4234539  38.7830744  38.6642165  22.1744013
  37.8639329  36.4666159   3.9048834  38.2438294  36.4845788   3.1199949
  37.1231925  36.9120147   3.7839682  37.8108167  36.5347933   3.7712402
  45.4924620  34.7748350   9.4924413  45.4918846  34.6197006  10.3508689
  45.2880800  35.6211337   9.4365799  45.4624398  34.8768971   9.6112352
  27.5541891  38.1988134  13.9083230  27.3763652  37.7464743  14.6338145
  27.2660913  39.0014296  14.0921707  27.4854844  38.2510692  14.0426732
  43.2165472  39.4545852  13.1460620  43.7119137  38.7368847  13.1064640
  42.4065247  39.1516649  13.0315107  43.1709365  39.3043498  13.1234346
  38.6624083  43.3043665   5.2957624  37.8535406  42.9810338   5.2490934
  39.1698992  42.5976887   5.2285873  38.6173750  43.1524981   5.2787919
  29.2914361  40.7315858  11.0204989  28.4259880  40.7201548  10.9087760
  29.3913176  40.5446081  11.8676128  29.1788527  40.7021919  11.1293933
  45.2817291  42.2049539  15.8337749  45.7072362  41.6823961  15.2808174
  44.9174210  42.8030376  15.3126372  45.2903893  42.2159766  15.6746758
  34.9171370  50.5013757  14.5935094  35.2317929  51.3150145  14.6012876
  35.3264784  50.1163975  15.2617253  35.0239468  50.5642459  14.6939186
  41.8695890  45.9183803  12.1638906  42.3407068  46.6324066  12.3328891
  42.2056069  45.3182553  12.6998776  41.9891005  45.9355268  12.2671282
  38.7865385  30.6911274  19.1197001  38.9193291  29.8942267  19.4477976
  39.1710538  31.2177677  19.6995276  38.8621714  30.6511191  19.2540504
  42.5069836  45.7101737  18.9266599  41.9590782  45.0859621  18.6586664
  42.9682865  45.8996010  18.2110678  42.4937046  45.6460788  18.7817030
  41.8597740  27.6141600  15.7178094  41.0543704  27.5039330  16.0345932
  41.7304476  27.7154056  14.8607960  41.7217873  27.6125270  15.6386135
  45.3163701  33.7787092  16.3117791  44.7326690  34.2796298  15.8995358
  45.6367995  33.2716648  15.6782114  45.2776876  33.7778927  16.1576298
  37.8558500  32.6927687   6.5876466  38.6774194  32.8626000   6.3458161
  37.3928151  32.8474948   5.8642763  37.9089662  32.7409420   6.4448110
  36.4453832  30.6870449  17.3674895  36.9898245  30.3461576  17.9579236
  36.4990768  31.5455911  17.5096179  36.5342951  30.7625708  17.4756768
  32.2584391  44.4486865  14.2413702  32.8629248  44.4082699  13.6127523
  32.0511703  45.2958017  14.2717758  32.3173288  44.5674868  14.1529819
  42.0728163  46.7152810  15.4575940  42.8926536  46.5715776  15.7192235
  41.7922240  47.3399009  15.9992378  42.1524906  46.7863162  15.5763879
  27.4935673  43.4321483  14.1112626  27.3959951  42.6217754  14.4202682
  28.2764543  43.4113276  13.7258894  27.5951809  43.3088573  14.0999489
  58.5441813  54.3717662   8.4218816  58.5135817  55.2262299   8.5937086
  59.1423162  54.0712954   8.9804960  58.6278971  54.4534158   8.5293619
  51.7441498  53.4593313  13.1771747  50.8879393  53.6201811  13.2280863
  51.7909152  52.5885377  13.1976808  51.6240609  53.3544115  13.1877813
  46.1282638  62.9956031   8.9408978  45.3765537  62.6171569   8.7125023
  46.5768649  63.0274464   8.1927789  46.0832304  62.9441638   8.7966480
  55.0535214  59.7279839  22.7832203  55.7601982  59.2331869  22.9119137
  55.2423150  60.1688920  22.0534861  55.1863120  59.7198189  22.6941248
  54.5893319  55.5185357  15.8203398  55.1349279  56.1970443  15.8797368
  54.5310195  55.3772818  14.9604980  54.6609233  55.5977358  15.7015459
  47.7067394  63.0074423  11.2071751  47.8077757  62.1974777  11.5168878
  47.1109139  62.9131369  10.5771429  47.6339932  62.8739451  11.1597989
  47.5468133  67.9252012  12.6086607  48.1905589  68.3665176  12.9982765
  47.8724389  67.1205438  12.5216866  47.6899962  67.8717207  12.6532084
  40.9032438  59.0294709  10.8324084  40.6682623  58.1962362  10.7256353
  41.0418079  59.3099375  10.0185285  40.8888101  58.9478213  10.6966439
  43.2022526  51.1980440  13.7308392  42.5827557  50.6073087  13.5618407
  43.1006389  51.7891875  13.0972715  43.0960201  51.1984523  13.6113382
  50.2990421  52.9379982   8.0640855  50.9970586  53.1168109   8.5562318
  50.6142754  52.4150321   7.4411245  50.4485758  52.8873754   8.0442865
  42.9291659  54.7432722  15.9751961  42.8050355  55.3295167  16.6101780
  43.5809943  54.2492918  16.2764236  43.0065308  54.7571526  16.1137890
  50.4878357  59.3250427   8.0520647  50.9271992  58.7167527   8.4975419
  50.3383019  58.9457800   7.2806112  50.5299822  59.1788898   8.0039814
  47.9550000  57.9194439  15.2539472  48.5999002  57.4266882  14.9350421
  48.1951777  58.0619225  16.0805550  48.0860585  57.8671881  15.3289005
  50.4936091  60.7649345  14.9046365  50.7759334  59.9700750  14.6833121
  51.2222251  61.2429932  14.9251426  50.6425655  60.7183942  14.8749380
  48.4717285  48.3072379  12.1462130  48.1420615  48.7583522  11.4765829
  47.7962287  48.2288542  12.6935136  48.3227721  48.3623514  12.1285353
  55.6793693  44.2957901  10.3911740  55.3647134  44.9861380  10.8232163
  55.1620634  44.2402684   9.6897241  55.5558163  44.3892790  10.3508690
  60.4754179  59.8708707  11.8782195  59.6451882  60.0819350  12.0415612
  60.4263432  59.0445761  11.6024479  60.3460915  59.7798313  11.8619561
  42.4649763  63.9080380  12.1080291  41.9817341  64.6330870  12.0839874
  43.2773081  64.2056510  12.2190448  42.5140510  64.0582734  12.1207570
  48.5363917  62.7012561  14.7130105  48.0190858  62.3419976  14.1091413
  49.2338308  62.1774735  14.7236171  48.5629498  62.5710249  14.6260364
  52.1927509  63.1507375  20.6746278  52.2810855  62.9633515  21.5224488
  52.6217221  62.5044805  20.2751125  52.2689611  63.0270383  20.7418030
  49.7597969  62.4338535  19.6563940  49.1968803  62.0211145  20.1803601
  50.5218992  62.3591441  20.0757084  49.7892417  62.3615936  19.7956941
  46.6773239  46.3684667   7.6285078  47.4319207  46.7362984   7.3902128
  46.5000773  46.7424221   8.3964257  46.7627717  46.4782855   7.7069966
  45.3193960  64.4236556  12.2600570  46.0214539  63.9088545  12.3173327
  45.2391443  64.7510708  13.0647446  45.4117720  64.3950782  12.3873363
  59.9708138  52.5179107  15.6732617  59.1336559  52.5881295  15.9080211
  59.9396368  52.5203602  14.8006919  59.8426420  52.5289334  15.5792165
  45.0330303  48.7754986   4.3263191  44.8505877  48.9926867   3.5004183
  45.8955916  48.8893999   4.3821805  45.1334893  48.8244884   4.2117678
  44.6444735  60.6142908  11.7686178  45.4833635  60.8465841  11.8159940
  44.6756505  59.7447220  11.6993214  44.7726453  60.5199855  11.7650823
  45.2697438  61.0343783  16.0699484  45.8095663  60.8914914  16.7402856
  44.5867385  61.4340534  16.4383510  45.2489592  61.0723454  16.2233906
  50.7130023  45.7781397   7.3612214  51.4416183  45.5997352   6.9150371
  50.8024916  46.6199476   7.5719392  50.8336685  45.8765275   7.3265732
  54.6938323  56.7134784  11.2644508  55.4495838  57.1466298  11.3033417
  54.8000648  56.0639554  11.8379144  54.8208494  56.6812268  11.3542534
  57.7318494  60.5408061  12.0146911  57.2953726  60.5444804  12.7705883
  57.3981410  61.2213560  11.5826489  57.6181114  60.6420517  12.0627744
  40.6734584  57.2544074  16.2233905  40.4072999  56.4383191  16.3824896
  40.6873148  57.2997230  15.3529421  40.6359306  57.1400979  16.1187387
  57.6515977  47.5821889  14.2576339  58.2941886  47.6519994  14.8438255
  57.9038998  46.9151112  13.7555881  57.7838109  47.4948238  14.2703618
  44.5792330  52.0529159   2.8385664  43.8650508  51.7667338   3.2508096
  45.0636299  52.3925784   3.4792051  44.5451694  52.0610808   2.9941299
  52.4617961  64.4926496  16.9856517  51.6633207  64.2525996  17.2430386
  52.9103973  64.5440889  17.7323565  52.4092573  64.4648887  17.1341441
  60.8662841  57.2588981  10.9066549  61.5279275  56.6979650  10.8062457
  60.2254253  56.7641012  11.2319240  60.8691708  57.1025390  10.9398889
  41.0827997  58.0402854  13.5045650  40.9003570  58.0149740  12.6517942
  41.8177666  58.5101791  13.5434559  41.1642061  58.1064216  13.3843568
  57.1527671  58.2754364  10.6478537  57.3883261  58.4199562   9.8205388
  57.3017235  59.0396772  11.0410051  57.2093475  58.4093418  10.5842141
  54.1950017  54.9620932   9.1671721  54.2896872  55.7010226   9.6211347
  53.5708861  54.5338408   9.6006286  54.1159047  55.0082253   9.2979869
  52.4502491  58.1407145  19.8162002  53.0241353  57.5034389  19.9710566
  52.3717295  58.1411227  18.9471660  52.5235726  58.0472256  19.7108413
  41.0498908  54.9196354  13.6544716  41.6272410  54.7832805  14.2936962
  40.3512969  54.4632138  13.9090301  41.0319929  54.8318620  13.7867006
  47.8066210  56.5730410  11.8683200  47.5485454  55.7402145  11.8414499
  47.8614693  56.7988023  11.0275700  47.7765988  56.4828181  11.7403336
  52.8867260  48.6758861  11.9687292  52.1823587  48.1868046  12.1271211
  52.9352234  48.6881335  11.0975737  52.7897311  48.6048509  11.8626632
  46.7800922  54.1268172  12.3548094  46.2050513  54.2860341  12.9912055
  46.4036598  53.4903581  11.8916545  46.6403734  54.0565985  12.3802653
  50.4474210  52.5991522  17.2140473  50.0588643  52.1745739  16.5592664
  49.7828909  52.8473671  17.7217499  50.2921138  52.5730243  17.1928341
  60.0897480  52.3566526   9.9888303  59.8334044  51.5446468   9.7986186
  60.9326794  52.3644093   9.7618490  60.1763505  52.2378524   9.9273120
  36.5257741  53.7708247  10.3692535  36.6117993  53.3940115  11.1506065
  37.1533538  53.3968693   9.8912493  36.6314292  53.6593729  10.4138012
  54.2700572  46.2966150  14.7264457  54.6511084  45.6144322  15.1132331
  53.4663856  46.0075753  14.5440121  54.2077034  46.1533199  14.7568513
  57.7722639  59.5116122  19.8246855  57.5361276  58.6804187  19.7058916
  58.4165868  59.4601730  20.4101700  57.8317310  59.3813810  19.8932749
  47.4221057  60.3011644  10.5389592  48.0595004  60.0623391  11.0841385
  47.8476129  60.5048803   9.8042752  47.5797223  60.2962654  10.5106749
  42.1133699  62.5399980  14.4223896  42.1537845  62.8114831  13.5943675
  42.6728223  63.0641888  14.8381683  42.2017045  62.6575735  14.3615784
  48.0623872  55.5213933   4.8764481  48.4469025  55.3021640   5.6281026
  47.8135492  56.3476879   5.0065558  48.0825945  55.6112080   5.0065558
  58.7959060  59.2960571  15.8875150  58.4904877  60.0288628  16.2488465
  58.0765275  58.8898501  15.6067936  58.6446402  59.3442304  15.8988287
  49.8042529  60.7784066  12.2183378  49.8781537  60.6159238  13.0725228
  50.6212035  60.9674256  11.9743860  49.9358888  60.7820809  12.3081404
  64.4960852  55.9353572  15.2143494  64.4285352  55.9549531  14.3446081
  64.4816514  56.7783899  15.4399165  64.4839608  56.0627306  15.1195971
  43.5648286  61.1241929   9.2477822  42.7386403  61.3703666   9.1212100
  43.6260277  61.0454010  10.1139880  43.4522453  61.1486878   9.3566766
  45.7824309  47.1910870  10.2073262  44.9146735  47.2633470  10.2730871
  46.0699514  47.9932949  10.3961237  45.6964057  47.3205017  10.2448028
  54.9057198  47.3388730  18.5384584  55.6510790  47.1498540  18.1248009
  54.4894503  47.8646967  17.9798440  54.9542172  47.3890875  18.3949157
  62.2819469  54.7097958  13.4890088  62.8327391  54.0766027  13.7287181
  62.2663584  55.2413351  14.1805593  62.3604665  54.6946906  13.6268947
  48.9341860  58.5436555  18.0349982  48.4353554  59.2552323  18.1134870
  49.7442084  58.8637222  17.9968144  48.9797967  58.6963404  18.0406550
  46.2853030  65.7186192  10.0157001  46.0653326  65.4283547  10.8083668
  46.0647552  65.0601147   9.4874914  46.2200624  65.5785900  10.0545910
  45.1969977  57.8059508  12.2812703  44.9083226  57.1796980  12.8158430
  46.0653326  57.7479796  12.3477383  45.2830229  57.7047053  12.3703657
  55.9847875  52.9494292  12.5994685  55.6412641  52.2284627  12.9501934
  56.0840918  52.7408143  11.7573043  55.9489918  52.8118495  12.5266365
  45.4002251  59.4454759   8.2055068  46.1548219  59.8267798   8.4190530
  44.8072864  59.8965903   8.6601764  45.4238964  59.5683587   8.3037946
  46.7200477  60.6163321  13.5795183  46.1981231  60.7563612  14.2647048
  47.1074498  59.8573985  13.7697301  46.7004178  60.5248845  13.7096260
  43.7091661  50.6669129   7.6490138  43.4216457  50.2970400   6.9122085
  44.3962130  51.1363985   7.3873843  43.7680559  50.6816099   7.5005214
  48.1466803  57.6467340   8.9776674  47.9509586  58.2542074   8.3836977
  48.3701149  56.9535284   8.4968348  48.1501444  57.6344865   8.8192755
  46.5445333  54.5322078   9.0957543  47.2667985  54.6963236   8.6361349
  46.0653326  55.2531742   8.9896882  46.5809064  54.6620307   9.0123157
  54.5038841  50.8685876  14.4754228  53.6649941  50.8947155  14.2392491
  54.5743208  51.5156612  15.0559574  54.3907234  50.9682002  14.5263344
  52.9508119  47.7671253   9.2081844  53.6534472  47.5679002   8.7301802
  52.6852308  46.9947196   9.5150687  53.0154751  47.6234219   9.1827285
  58.3796364  56.0753863  11.7615469  58.2930339  56.2309289  12.6150248
  57.9246844  56.7191939  11.3874874  58.2999621  56.1929618  11.8322576
  41.2819856  51.4450342   8.4975419  41.3835993  52.2476503   8.8256394
  42.0775743  51.2437678   8.1998500  41.4147762  51.5336241   8.5010774
  42.0983588  51.5597520  16.2396541  41.9569080  50.7081461  16.3641049
  42.3824152  51.6026181  15.4158747  42.1191434  51.4397270  16.1364165
  52.2522181  53.3964610  10.3841029  52.0056895  53.3160361  11.2177818
  52.5807304  52.6118078  10.1903556  52.2643424  53.2690876  10.4788552
  56.1470229  60.1047970  14.1727810  56.0084589  60.8029015  14.6776552
  55.3670227  59.9496626  13.8163992  56.0113456  60.1848136  14.1954084
  54.4848315  56.4044345  20.4250192  54.4796353  55.5324162  20.4292618
  55.1909308  56.6032514  19.9519647  54.5893319  56.3048219  20.3557227
  50.3839125  55.3311497  17.5789144  49.6362439  55.5242512  17.1737422
  50.5380650  54.5056717  17.3413265  50.2961553  55.2376609  17.4834549
  47.2846963  64.3224101  16.6625039  47.4336527  63.7627017  16.0098443
  48.0646965  64.4016102  17.0457558  47.4221056  64.2509666  16.6221988
  49.8100263  64.4938744  17.9409530  49.7343935  63.8247554  18.4960318
  49.7390123  65.1956532  18.4550196  49.7880870  64.4983651  18.0986378
  50.6240902  49.2262048  18.4684547  51.0813516  49.9586022  18.5957339
  50.6997231  48.8028513  19.2271803  50.7031872  49.2719286  18.5985624
  55.0968228  42.4051923  12.3378390  55.2151796  42.8628386  11.6045693
  54.9230404  41.5997184  12.0514608  55.0887399  42.3545695  12.1879324
  48.5023280  51.2164152  15.3126371  47.7119355  51.0355612  15.6343707
  48.8983903  50.4391104  15.2956666  48.4440156  51.0751613  15.3578920
  53.8866966  58.8506582  13.0385817  53.2111968  58.6191814  13.5399204
  53.8959343  58.2427765  12.4127922  53.7885471  58.7265507  13.0201969
  51.0161110  53.6924411  19.7949870  50.9520252  54.5534367  19.6670007
  51.1558298  53.3756404  18.9945422  51.0276580  53.7724578  19.6578083
  49.6980204  56.3856550  13.9366073  49.2742453  56.5861049  13.2005091
  49.5225059  55.5385398  14.0490373  49.6091085  56.2905332  13.8439763
  49.1991898  67.9007063  16.3987530  49.6887828  67.2017853  16.2163195
  48.6276130  67.6030933  16.9863588  49.1876428  67.7533287  16.4588571
  44.9862649  56.8808602   9.3694046  45.1427268  56.8155405  10.2250038
  45.3263242  57.6557154   9.1572725  45.0595884  56.9857800   9.4648640
  51.5241794  56.2566485   8.2387409  52.0657339  55.7536866   8.7026029
  51.8388353  56.2031680   7.4276894  51.6506191  56.1745906   8.1871221
  55.3958901  60.4669133  25.3514321  56.2093767  60.1954282  25.5119454
  55.2353868  60.1676673  24.5474517  55.4928850  60.3824059  25.2559727
  52.6731063  51.1502790  18.2909709  52.8873033  50.5113704  17.7373063
  52.0564962  51.5948614  17.8617571  52.6136392  51.1212934  18.1460140
  41.5596911  54.0643552   9.6854813  41.9395876  54.4828097   9.0215080
  40.9852276  54.6457008   9.9923656  41.5308236  54.2121411   9.6331554
  54.8370151  52.7591855  19.2293016  54.0246833  52.4517745  19.3106189
  55.2960086  52.2790855  19.7935729  54.7850536  52.6428347  19.3247611
  52.0645792  44.2602726  13.2797052  51.1939350  44.2341447  13.2330362
  52.3186133  44.0879918  12.4622898  51.9739352  44.2312869  13.1517189
  49.0894932  46.2708954  14.7370522  48.5733421  45.5789145  14.8622101
  48.5288861  46.9379731  14.6833121  48.9301446  46.2672212  14.7476588
  51.1587166  46.8101914  16.5663375  50.7718919  46.8350946  17.3476905
  50.6720103  46.2443593  16.1137892  51.0299675  46.7297665  16.6151279
  55.4080145  61.5275423  20.6237162  56.0459866  61.0335619  20.2899618
  54.7654237  61.4552824  20.0389388  55.4074372  61.4434432  20.4879517
  57.1337145  53.3764569  15.1903077  56.7064753  53.2890918  14.4351177
  56.4963198  53.4842345  15.7757921  56.9766753  53.3797229  15.1648519
  50.8244308  43.6968900  18.8573635  51.4537426  44.2329200  18.5794705
  50.9930170  43.6046258  19.7087201  50.9422102  43.7630262  18.9422163
  55.4634402  62.2195231  17.2642518  56.2526780  61.8684296  17.3844600
  55.6378000  63.0331620  17.0019152  55.6054684  62.2881088  17.2430386
  45.2027712  55.6303957  14.3170307  44.3615719  55.5307831  14.5249201
  45.4117720  56.3999437  14.6684628  45.1092405  55.7296000  14.3997622
  42.6803279  53.2523494  12.1455058  42.2859977  53.3266506  11.3705168
  42.1243396  53.6381440  12.6963420  42.5406092  53.3205269  12.1122718
  54.3168226  46.2304788  11.8258937  54.5217819  46.1627096  12.6715934
  53.9894650  47.0363609  11.7580114  54.2983474  46.3390728  11.9418592
  49.0144377  53.5585356  13.5667905  48.7107515  53.0041345  14.1678312
  48.3123798  53.7377566  13.0795939  48.8660587  53.5030139  13.5837610
  48.0710474  50.8685876   8.1312607  48.3470209  50.1504789   7.7190174
  48.6709144  51.4670796   7.9233713  48.2003739  50.8506247   8.0393368
  47.0762728  60.7735077  18.2740003  46.9683083  60.7837139  19.1402061
  47.2858510  61.5989857  18.0844956  47.0912839  60.8976152  18.3744094
  57.5701914  46.7836552  11.3061702  56.9576227  47.2706954  11.6915434
  57.6666089  46.1080043  11.8499353  57.4939811  46.7554861  11.4440560
  51.5720995  48.5399393   6.4059202  52.0264741  48.7109954   7.1307046
  52.0461041  47.9267504   6.0056977  51.7089315  48.4750279   6.4532963
  45.0936520  58.0247719  15.7361940  44.5024453  58.6657218  15.7064955
  45.8557544  58.4485337  15.7093240  45.1184781  58.1823558  15.7277087
  45.4897143  49.1849717  16.4029958  45.9498625  49.2588647  17.1405081
  45.5353250  49.9830971  16.0529779  45.5647698  49.3143864  16.4602714
  61.2126942  57.8553489  16.7339218  61.2710065  58.3040138  17.4799195
  60.5793409  58.2652302  16.2969298  61.1278237  57.9827224  16.7791767
  54.8526036  63.4757031  13.1693965  54.6545725  63.9647845  12.4750176
  54.2313747  63.6798272  13.7478098  54.7313601  63.5773569  13.1517188
  48.9134015  55.2441928   7.5104209  49.6576060  55.6316204   7.7487159
  49.0594711  54.3999353   7.6744697  49.0444600  55.1772401   7.5698179
  50.8313590  47.0392187  12.5436070  49.9849635  47.2114994  12.4177420
  50.8284723  46.2341530  12.8801899  50.7060740  46.9453216  12.5747197
  51.9011891  50.8167401  13.4098128  51.4271845  50.2909163  13.9203439
  52.2730026  50.2696874  12.8412990  51.8861780  50.6583398  13.4013275
  58.1648621  55.8769777  14.8204909  57.9246844  55.0376192  14.8247335
  58.6440628  55.9569943  15.5445682  58.2000805  55.7651176  14.9279711
  53.8295390  51.7103956   6.4723882  53.3018409  51.7932700   5.7829591
  54.2891098  52.4521827   6.4688527  53.8197241  51.8324618   6.3698577
  60.1653808  52.6571234  12.7734168  59.9263578  52.6167068  11.9354952
  60.3287709  53.5042386  12.8999889  60.1544112  52.7763319  12.6687650
  56.7699838  57.0421183  18.7039213  57.4934037  56.5893710  18.5250233
  56.5049801  57.3225849  17.9211541  56.8381112  57.0172152  18.5617928
  45.6386707  51.6381357  15.4392092  45.0139777  51.6499749  14.8318045
  45.3032302  52.1141532  16.0883332  45.4972199  51.7099874  15.4448661
  45.8228455  49.9806475   1.4964777  45.4741260  50.6326200   1.9596326
  45.3424901  49.9663588   0.7688648  45.6998699  50.0749529   1.4575868
  42.3512382  59.6981817  16.8795856  41.8212307  59.0074256  16.9290831
  42.6237476  59.6892002  16.0508565  42.3137105  59.5948949  16.7643272
  52.5518628  57.1405061  16.8534228  51.9375621  56.5963112  17.1482863
  53.0685913  56.6269298  16.3740044  52.5374290  56.9841471  16.8258456
  51.7914925  58.2109331  14.5878527  51.3642533  57.5859050  14.1543962
  51.7839869  57.9284253  15.4137534  51.7274066  58.0762112  14.6458354
  44.9077452  53.2474505  17.6566961  45.0670939  52.4917829  18.0618683
  44.7270346  53.7965444  18.3107698  44.9042811  53.2168318  17.8129667
  52.8497755  45.4135740  18.2117750  52.3538316  45.6099414  17.5209317
  53.6066817  45.8128408  18.0406552  52.8884580  45.5013474  18.0837887
  50.1200635  49.0878086  14.8021061  50.1443122  48.5538198  14.1133841
  50.3712108  48.5795395  15.4646651  50.1610553  48.9338990  14.7985705
  37.6308225  56.3709581  14.2364205  37.5251674  56.3256425  13.3716289
  36.8808444  56.7163362  14.5178490  37.5043827  56.4150489  14.1501534
  46.4001957  47.8148904  14.1826805  46.4400329  48.3158111  14.8961512
  45.5751622  47.9059298  13.9132728  46.2841483  47.9030721  14.2477343
  47.8216320  54.3309414  16.4800704  46.9908250  54.4983232  16.2735952
  47.7667837  53.9545365  17.2649589  47.6905735  54.2999145  16.5649232
  46.1952364  52.6065006   7.0090822  46.3355325  53.1037470   7.7119463
  46.6934897  51.9051300   7.1505035  46.2893445  52.5766984   7.1342401
  46.2252587  53.4732117   4.3383398  46.8597666  54.0692542   4.2732860
  46.3078197  53.1735574   5.1529269  46.3309138  53.5173025   4.4486485
  59.2035152  56.0047594  17.2069763  59.7952993  56.6444845  17.2387961
  59.6394147  55.3070631  17.4961829  59.3553584  55.9965944  17.2550595
  47.8031569  49.4046092   4.3128840  48.1247410  48.9249175   3.6588103
  48.0658513  50.2145738   4.1219652  47.8897595  49.4535990   4.1884333
  51.0328542  60.4264966  17.8327657  50.5253633  60.9800813  18.2768287
  50.7355188  60.4873256  17.0146431  50.9133427  60.5171278  17.7776113
  53.1990724  48.7918286  16.6752320  53.6245796  48.3390812  16.0635846
  52.5847717  48.2378357  16.9517107  53.1719370  48.6432262  16.6257345
  42.7305574  55.6699957   7.6072945  43.2397804  56.2664465   7.9884250
  43.2039847  55.4025931   6.9249364  42.8748950  55.7185773   7.5627467
  51.6384947  45.2633386  10.0842897  50.9953265  45.1131032  10.6528035
  51.2984354  45.0175731   9.3192001  51.4930025  45.2045508  10.0545912
  56.2284294  53.2192813   9.5072905  55.5575484  53.7622515   9.3785971
  56.9224044  53.6887668   9.2654600  56.2313161  53.3691084   9.4528433
  50.2771027  65.3589525  14.7384663  50.0536682  64.6008354  15.1068690
  49.7880871  65.3887546  14.0165103  50.1714476  65.2511749  14.6861404
  56.3912421  49.6748696  12.4163278  56.7440031  49.2478419  13.0909077
  55.5327223  49.5899540  12.5464355  56.3161866  49.5993437  12.5358289
  45.0896106  52.3056216  10.4746125  44.3708095  52.7220349  10.7418988
  45.4608468  52.8710455   9.9237763  45.0388038  52.4505497  10.4328932
  54.3895687  52.9384065  16.3648121  54.3693614  52.7567360  17.2182900
  54.4374888  53.8096083  16.3407704  54.3930328  53.0400603  16.4871415
  52.3342017  59.5271257  22.2896597  52.2937872  58.8820934  21.7041753
  53.1465335  59.4707874  22.6022009  52.4485170  59.4230224  22.2493546
  48.9249484  65.5789983  12.1921748  48.5109883  64.9164113  11.8025590
  49.6096859  65.7267842  11.6717442  48.9647856  65.5030641  12.0578245
  52.2914778  64.7380068  12.9445365  51.8931062  64.8482338  12.1766185
  51.6765998  64.9462134  13.5271924  52.1413668  64.7853636  12.9176664
  50.8642681  51.3454216   5.8119504  50.2707520  51.6671212   5.2604071
  50.9017958  50.4995311   5.6040611  50.7817070  51.2678544   5.7002276
  57.8236481  44.7967108  13.3447591  57.3167346  44.0896248  13.2768768
  58.6203915  44.4660297  13.4748667  57.8663720  44.6440260  13.3546586
  53.7400497  51.3033720   9.2421255  53.5114190  51.3266422   8.3999613
  53.9998573  50.4791187   9.3616265  53.7446685  51.1849800   9.1346452
  46.7945260  49.8410267  10.5375450  47.2702626  50.2027347   9.9025631
  46.2933859  50.4966734  10.8175593  46.7910619  49.9904455  10.4852191
  51.8988796  51.0792438  21.2848610  52.4560226  50.8506248  20.6527076
  51.5749861  51.8398104  21.0083823  51.9335206  51.1576275  21.1505107
  48.8371913  51.9851466   3.9048834  49.2170878  52.0031096   3.1199949
  48.0964509  52.4305455   3.7839682  48.7840751  52.0533241   3.7712402
  56.4657203  50.2933658   9.4924413  56.4651430  50.1382314  10.3508689
  56.2613383  51.1396645   9.4365799  56.4356981  50.3954278   9.6112352
  38.5274474  53.7173442  13.9083230  38.3496235  53.2650051  14.6338145
  38.2393496  54.5199604  14.0921707  38.4587427  53.7696000  14.0426732
  54.1898055  54.9731159  13.1460620  54.6851721  54.2554155  13.1064640
  53.3797831  54.6701957  13.0315107  54.1441949  54.8228806  13.1234346
  40.2646944  56.2501166  11.0204989  39.3992464  56.2386856  10.9087760
  40.3645760  56.0631389  11.8676128  40.1521111  56.2207227  11.1293933
  56.2549874  57.7234847  15.8337749  56.6804946  57.2009269  15.2808174
  55.8906794  58.3215684  15.3126372  56.2636477  57.7345074  15.6746758
  45.8903954  66.0199064  14.5935094  46.2050513  66.8335453  14.6012876
  46.2997367  65.6349283  15.2617253  45.9972052  66.0827767  14.6939186
  52.8428474  61.4369111  12.1638906  53.3139652  62.1509374  12.3328891
  53.1788652  60.8367861  12.6998776  52.9623589  61.4540576  12.2671282
  54.9305458  63.0470425  24.3430978  55.0402424  62.2578985  24.6987725
  55.2596355  62.9576361  23.5405316  54.9957864  62.9176278  24.2773369
  53.4802420  61.2287045  18.9266599  52.9323366  60.6044929  18.6586664
  53.9415449  61.4181317  18.2110678  53.4669629  61.1646096  18.7817030
  52.8330324  43.1326908  15.7178094  52.0276287  43.0224638  16.0345932
  52.7037059  43.2339364  14.8607960  52.6950457  43.1310578  15.6386135
  56.2896284  49.2972400  16.3117791  55.7059273  49.7981606  15.8995358
  56.6100578  48.7901956  15.6782114  56.2509460  49.2964235  16.1576298
  48.8291083  48.2112995   6.5876466  49.6506778  48.3811308   6.3458161
  48.3660734  48.3660256   5.8642763  48.8822246  48.2594728   6.4448110
  47.4186415  46.2055757  17.3674895  47.9630828  45.8646884  17.9579236
  47.4723351  47.0641218  17.5096179  47.5075535  46.2811016  17.4756768
  43.2316974  59.9672173  14.2413702  43.8361832  59.9268007  13.6127523
  43.0244287  60.8143325  14.2717758  43.2905871  60.0860175  14.1529819
  53.0460746  62.2338118  15.4575940  53.8659120  62.0901084  15.7192235
  52.7654824  62.8584317  15.9992378  53.1257490  62.3048470  15.5763879
  38.4668256  58.9506790  14.1112626  38.3692534  58.1403062  14.4202682
  39.2497126  58.9298584  13.7258894  38.5684393  58.8273881  14.0999489
  53.9024242  70.2618030  15.9751961  53.7782939  70.8480475  16.6101780
  54.5542527  69.7678225  16.2764236  53.9797891  70.2756834  16.1137890
  57.3405450  70.1797451  21.3880986  57.5125954  70.0703346  22.2366267
  57.8774808  70.8251856  21.1512178  57.4450454  70.2589453  21.4786082
  56.3965773  66.3107760  18.8700913  55.7037570  65.8404740  19.1161645
  57.0126101  66.0846065  19.4442620  56.3850303  66.2074892  18.9910066
  55.1206332  70.2773164  20.0127758  55.8446305  70.2626195  20.4992653
  55.2222469  70.9868520  19.5149727  55.2424541  70.3797868  20.0106545
  62.4951282  73.7572249  24.8776705  61.7024263  74.0715761  25.0629325
  62.6100209  73.9723717  24.0397490  62.3946692  73.8356086  24.7815040
  61.4206794  68.1176830  17.2140473  61.0321227  67.6931047  16.5592664
  60.7561492  68.3658979  17.7217499  61.2653722  68.0915551  17.1928341
  59.2024996  64.3205657  24.5927065  58.8878437  65.0905219  24.3296628
  58.8814929  63.7575913  24.0079292  59.1083915  64.3515925  24.4668415
  65.8789782  62.8574037  18.5384584  66.6243374  62.6683848  18.1248009
  65.4627086  63.3832275  17.9798440  65.9274756  62.9076183  18.3949157
  58.8341501  66.9202908  23.3312280  58.0241277  67.2260687  23.2202122
  59.3116188  67.6408490  23.4464864  58.7844980  67.0717509  23.3319351
  55.1685533  72.4565458  18.2011683  55.6806630  72.7349711  17.5520442
  54.8821876  73.1954752  18.5674496  55.2020396  72.6067812  18.1601561
  58.6869259  64.5491847  18.2612724  58.4952456  64.5646981  19.1112148
  59.5367855  64.7455521  18.2379379  58.7844981  64.5806198  18.3836019
  53.0716172  67.0782828  16.2396541  52.9301664  66.2266769  16.3641049
  53.3556735  67.1211489  15.4158747  53.0924018  66.9582578  16.1364165
  59.1851791  71.6506637  19.7964012  59.3295167  72.2307845  19.1607122
  59.5327440  72.0282934  20.5013867  59.2579253  71.7927341  19.8063007
  61.5973486  64.7447356  18.4684547  62.0546100  65.4771330  18.5957339
  61.6729815  64.3213821  19.2271803  61.6764456  64.7904594  18.5985624
  53.8406477  64.9913176  19.5573991  53.3048666  64.3793534  19.8734758
  53.9024242  65.5661312  20.2107658  53.7702110  64.9860103  19.7009418
  59.4755864  66.7349460  15.3126371  58.6851938  66.5540920  15.6343707
  59.8716487  65.9576412  15.2956666  59.4172740  66.5936921  15.3578920
  61.9893694  69.2109719  19.7949870  61.9252835  70.0719675  19.6670007
  62.1290882  68.8941712  18.9945422  62.0009164  69.2909886  19.6578083
  63.6463647  66.6688098  18.2909709  63.8605616  66.0299012  17.7373063
  63.0297546  67.1133922  17.8617571  63.5868976  66.6398242  18.1460140
  65.8102735  68.2777163  19.2293016  64.9979417  67.9703053  19.3106189
  66.2692669  67.7976163  19.7935729  65.7583120  68.1613655  19.3247611
  62.9056242  69.6837234  24.0121719  63.3755873  70.3079351  24.3989593
  62.9518123  69.0154210  24.5714933  62.9824118  69.6771915  24.1521790
  60.0627516  61.7894262  14.7370522  59.5466005  61.0974453  14.8622101
  59.5021445  62.4565039  14.6833121  59.9034029  61.7857520  14.7476588
  62.1319749  62.3287222  16.5663375  61.7451503  62.3536253  17.3476905
  61.6452687  61.7628901  16.1137892  62.0032258  62.2482973  16.6151279
  61.7976891  59.2154207  18.8573635  62.4270009  59.7514508  18.5794705
  61.9662754  59.1231566  19.7087201  61.9154686  59.2815570  18.9422163
  61.5990806  64.0025402  21.1300047  62.4264235  63.7310551  21.1858661
  61.6198652  64.7986244  21.4863865  61.7243656  64.0805156  21.1915229
  56.4629727  64.7035025  16.4029958  56.9231208  64.7773954  17.1405081
  56.5085833  65.5016279  16.0529779  56.5380282  64.8329172  16.4602714
  58.1113076  65.3701720  20.9701985  57.7198641  64.7235067  21.4057763
  58.2798939  65.9613155  21.5896240  58.0783987  65.3615988  21.1264691
  53.2517504  68.3324216  18.7781674  54.1143117  68.2319925  18.6919004
  52.9209287  67.7518925  18.2167246  53.3302701  68.2315842  18.6827080
  56.6119290  67.1566665  15.4392092  55.9872360  67.1685057  14.8318045
  56.2764885  67.6326840  16.0883332  56.4704782  67.2285182  15.4448661
  55.8810036  68.7659812  17.6566961  56.0403522  68.0103137  18.0618683
  55.7002929  69.3150752  18.3107698  55.8775395  68.7353626  17.8129667
  63.8230339  60.9321048  18.2117750  63.3270900  61.1284722  17.5209317
  64.5799401  61.3313716  18.0406552  63.8617163  61.0198782  18.0837887
  57.3734540  63.3334212  14.1826805  57.4132912  63.8343419  14.8961512
  56.5484205  63.4244606  13.9132728  57.2574066  63.4216029  14.2477343
  59.5564153  72.8994952  22.2847100  58.7059784  73.0366666  22.4204744
  59.7192281  72.1658730  22.7294801  59.4548017  72.8109053  22.3702699
  56.6032687  63.3403615  22.1157115  57.2285391  62.7965748  22.3886547
  56.1483167  62.8598533  21.5464905  56.6280948  63.1893096  22.0718708
  64.1723308  64.3103594  16.6752320  64.5978379  63.8576120  16.0635846
  63.5580301  63.7563665  16.9517107  64.1451953  64.1617570  16.6257345
  63.3074600  75.0456565  22.2896597  63.2670455  74.4006242  21.7041753
  64.1197919  74.9893182  22.6022009  63.4217754  74.9415532  22.2493546
  58.9952309  68.6753501  18.8446355  58.4831212  68.0674684  19.2031386
  58.8231805  69.3910094  19.3120331  58.8941946  68.6916801  18.9662579
  53.8418024  67.1191077  21.4948717  53.6720614  67.7792452  20.9496923
  53.3983974  67.3297638  22.2161206  53.7517357  67.2477059  21.5210346
  62.8721379  66.5977746  21.2848610  63.4292810  66.3691556  20.6527076
  62.5482444  67.3583412  21.0083823  62.9067790  66.6761583  21.1505107
  50.7420088  70.0237942  16.7537206  50.1946808  69.3538588  16.8718075
  51.5312466  69.6567790  16.8180674  50.7772272  69.8702929  16.7805907
  60.5904497  69.6845399  22.2500618  61.3415824  69.9997076  22.5640172
  60.7827073  69.4824570  21.4234539  60.7295911  69.7012781  22.1744013
  49.5007058  69.2358750  13.9083230  49.3228819  68.7835359  14.6338145
  49.2126080  70.0384911  14.0921707  49.4320011  69.2881308  14.0426732
  60.7330552  61.7281890  19.1197001  60.8658458  60.9312883  19.4477976
  61.1175705  62.2548293  19.6995276  60.8086881  61.6881806  19.2540504
  63.8062907  58.6512216  15.7178094  63.0008871  58.5409946  16.0345932
  63.6769643  58.7524672  14.8607960  63.6683040  58.6495886  15.6386135
  58.3918999  61.7241065  17.3674895  58.9363412  61.3832192  17.9579236
  58.4455935  62.5826526  17.5096179  58.4808118  61.7996324  17.4756768
  43.7753455  21.1472662   9.7172250  44.4820222  20.6524692   9.8459184
  43.9641390  21.5881743   8.9874908  43.9081360  21.1391012   9.6281295
  36.2686374  29.3444835  -0.4573346  36.9123829  29.7857999  -0.0677188
  36.5942629  28.5398262  -0.5443088  36.4118202  29.2910030  -0.4127869
  40.9145749  24.5700198   7.6086325  41.0029095  24.3826339   8.4564535
  41.3435462  23.9237628   7.2091172  40.9907852  24.4463206   7.6758076
  38.4816209  23.8531358   6.5903987  37.9187044  23.4403968   7.1143648
  39.2437232  23.7784264   7.0097130  38.5110658  23.7808759   6.7296987
  35.0891107  16.0804966   8.3221032  35.2611611  15.9710861   9.1706314
  35.6260464  16.7259372   8.0852225  35.1936111  16.1596968   8.4126129
  41.0265808  24.0009217  10.2730108  41.8106225  24.1140065  10.6385851
  40.8262403  23.1750354  10.4688794  41.1131834  23.8955937  10.3564494
  41.1836202  25.9119319   3.9196564  40.3851448  25.6718819   4.1770433
  41.6322213  25.9633712   4.6663612  41.1310813  25.8841711   4.0681488
  40.2436939  19.6579764  11.8116752  39.4509919  19.9723276  11.9969372
  40.3585866  19.8731233  10.9737537  40.1432349  19.7363601  11.7155087
  41.1720731  19.5599968   6.7502049  41.7459593  18.9227212   6.9050613
  41.0935535  19.5604050   5.8811707  41.2453966  19.4665079   6.6448460
  46.4940879  20.9308946   6.7586902  46.2579517  20.0997010   6.6398963
  47.1384108  20.8794553   7.3441746  46.5535550  20.8006634   6.8272796
  36.9510653  10.2213172  11.5267112  36.6364094  10.9912735  11.2636675
  36.6300585   9.6583428  10.9419339  36.8569572  10.2523441  11.4008462
  47.5177300  20.7153394   2.8215197  47.2123117  21.4481451   3.1828512
  46.7983516  20.3091324   2.5407983  47.3664642  20.7635127   2.8328334
  53.2179092  17.3546395   2.1483541  53.1503592  17.3742354   1.2786127
  53.2034754  18.1976722   2.3739211  53.2057848  17.4820130   2.0536018
  37.6560100  19.9629379   4.9690029  37.1571794  20.6745146   5.0474917
  38.4660324  20.2830045   4.9308191  37.7016207  20.1156227   4.9746597
  36.5827158  12.8210423  10.2652327  35.7726934  13.1268203  10.1542169
  37.0601845  13.5416005  10.3804911  36.5330637  12.9725024  10.2659398
  44.8688470  21.5240793   1.1067857  44.7302829  22.2221839   1.6116599
  44.0888468  21.3689449   0.7504039  44.7331697  21.6040960   1.1294131
  43.2066555  17.8237168   7.3590239  43.2014593  16.9516985   7.3632665
  43.9127549  18.0225337   6.8859694  43.3111559  17.7241042   7.2897274
  36.9337448  17.5514152   6.7304059  37.0780824  18.1315360   6.0947169
  37.2813097  17.9290449   7.4353913  37.0064910  17.6934856   6.7403054
  36.0065203  25.7416924   3.5965086  36.1554767  25.1819840   2.9438490
  36.7865205  25.8208926   3.9797604  36.1439297  25.6702489   3.5562035
  38.5318504  25.9131567   4.8749576  38.4562175  25.2440377   5.4300365
  38.4608363  26.6149355   5.3890243  38.5099111  25.9176474   5.0326425
  39.7379351  15.1117234   6.7289917  39.6738492  15.9727191   6.6010054
  39.8776538  14.7949228   5.9285468  39.7494821  15.1917401   6.5918130
  37.9210138  29.3199887   3.3327577  38.4106068  28.6210676   3.1503242
  37.3494370  29.0223757   3.9203635  37.9094668  29.1726110   3.3928618
  44.1177142  21.8861956  12.2854368  44.9312007  21.6147105  12.4459500
  43.9572108  21.5869496  11.4814564  44.2147090  21.8016882  12.1899774
  43.5588392  14.1784678   6.1633063  42.7465073  13.8710569   6.2446236
  44.0178326  13.6983678   6.7275775  43.5068776  14.0621171   6.2587657
  40.6541899  15.5844750  10.9461766  41.1241530  16.2086866  11.3329640
  40.7003779  14.9161725  11.5054980  40.7309775  15.5779430  11.0861837
  44.1298386  22.9468246   7.5577208  44.7678106  22.4528442   7.2239665
  43.4872477  22.8745647   6.9729435  44.1292612  22.8627255   7.4219563
  44.1852642  23.6388055   4.1982565  44.9745020  23.2877119   4.3184647
  44.3596240  24.4524443   3.9359199  44.3272924  23.7073912   4.1770433
  35.7980969  22.1927900   5.2080049  35.6901323  22.2029962   6.0742107
  36.0076750  23.0182681   5.0185003  35.8131080  22.3168975   5.3084141
  49.9345182  19.2746312   3.6679265  49.9928306  19.7232961   4.4139242
  49.3011650  19.6845125   3.2309345  49.8496477  19.4020047   3.7131814
  43.5744277  24.8949854   0.1034011  43.3763965  25.3840669  -0.5909777
  42.9531988  25.0991096   0.6818145  43.4531841  24.9966392   0.0857235
  45.4918079  18.4614006   5.6379260  46.2152278  18.0086533   5.4590280
  45.2268041  18.7418672   4.8551588  45.5599352  18.4364975   5.4957975
  41.2736868  18.5597885   3.7874275  40.6593861  18.0155935   4.0822910
  41.7904153  18.0462121   3.3080091  41.2592531  18.4034294   3.7598503
  37.3049810  18.8002468   9.2187146  36.4545441  18.9374182   9.3544791
  37.4677938  18.0666246   9.6634848  37.2033674  18.7116569   9.3042746
  47.9253393  17.4240417   4.1409809  48.5171233  18.0637668   4.1728008
  48.3612387  16.7263454   4.4301876  48.0771824  17.4158768   4.1890642
  39.7546783  21.8457790   4.7667703  39.2471874  22.3993637   5.2108334
  39.4573429  21.9066080   3.9486478  39.6351667  21.9364101   4.7116160
  38.9989268  26.7782348   1.6724710  38.7754922  26.0201177   2.0408737
  38.5099111  26.8080369   0.9505150  38.8932717  26.6704572   1.6201451
  41.0560257  20.9464080   9.2236644  41.0156112  20.3013757   8.6381800
  41.8683575  20.8900698   9.5362056  41.1703411  20.8423047   9.1833593
  41.0133019  26.1572891  -0.1214589  40.6149302  26.2675162  -0.8893768
  40.3984238  26.3654958   0.4611971  40.8631908  26.2046459  -0.1483289
  40.6207036  12.4985261   8.2188657  41.1778466  12.2699071   7.5867123
  40.2968101  13.2590927   7.9423870  40.6553446  12.5769098   8.0845154
  38.3390154  15.5852915   9.1840664  39.0901480  15.9004591   9.4980218
  38.5312730  15.3832086   8.3574586  38.4781568  15.6020296   9.1084060
  44.9768115  19.1427670   2.7677795  45.4023186  18.6202092   2.2148220
  44.6125034  19.7408508   2.2466418  44.9854717  19.1537897   2.6086805
  34.6122194  27.4391888   1.5275141  34.9268753  28.2528276   1.5352923
  35.0215608  27.0542106   2.1957300  34.7190292  27.5020590   1.6279233
  43.6523699  24.4663248  11.2771025  43.7620664  23.6771808  11.6327772
  43.9814595  24.3769184  10.4745363  43.7176104  24.3369101  11.2113416
  42.2020660  22.6479869   5.8606646  41.6541606  22.0237752   5.5926711
  42.6633689  22.8374141   5.1450725  42.1887870  22.5838919   5.7157077
  41.7678987  23.6530941   2.3915987  42.5877360  23.5093907   2.6532282
  41.4873064  24.2777140   2.9332425  41.8475730  23.7241293   2.5103926
  51.4392322  30.3971444   0.1111793  50.5830217  30.5579942   0.1620910
  51.4859976  29.5263508   0.1316855  51.3191433  30.2922246   0.1217859
  45.8233462  39.9334162  -4.1250975  45.0716361  39.5549700  -4.3534930
  46.2719473  39.9652596  -4.8732165  45.7783128  39.8819769  -4.2693473
  54.7486038  36.6657970   9.7172250  55.4552806  36.1710000   9.8459184
  54.9373974  37.1067051   8.9874908  54.8813944  36.6576320   9.6281295
  54.2844143  32.4563488   2.7543445  54.8300103  33.1348575   2.8137415
  54.2261019  32.3150949   1.8945027  54.3560057  32.5355490   2.6355506
  47.4018218  39.9452554  -1.8588202  47.5028581  39.1352908  -1.5491075
  46.8059963  39.8509500  -2.4888524  47.3290756  39.8117582  -1.9061964
  47.2418957  44.8630143  -0.4573346  47.8856413  45.3043307  -0.0677188
  47.5675213  44.0583569  -0.5443088  47.3850786  44.8095338  -0.4127869
  40.5983262  35.9672841  -2.2335869  40.3633446  35.1340493  -2.3403600
  40.7368903  36.2477506  -3.0474668  40.5838924  35.8856344  -2.3693514
  42.8973349  28.1358571   0.6648439  42.2778381  27.5451219   0.4958454
  42.7957213  28.7270006   0.0312762  42.7911025  28.1362654   0.5453428
  49.9941245  29.8758113  -5.0019098  50.6921410  30.0546241  -4.5097635
  50.3093578  29.3528452  -5.6248709  50.1436582  29.8251885  -5.0217088
  42.6242482  31.6810853   2.9092008  42.5001179  32.2673298   3.5441827
  43.2760767  31.1871049   3.2104283  42.7016132  31.6949657   3.0477937
  50.1829180  36.2628558  -5.0139307  50.6222816  35.6545659  -4.5684534
  50.0333843  35.8835931  -5.7853842  50.2250646  36.1167029  -5.0620139
  47.6500823  34.8572570   2.1879519  48.2949826  34.3645013   1.8690467
  47.8902601  34.9997357   3.0145597  47.7811409  34.8050012   2.2629052
  50.1886915  37.7027476   1.8386412  50.4710158  36.9078882   1.6173167
  50.9173075  38.1808063   1.8591473  50.3376479  37.6562073   1.8089427
  48.1668109  25.2450510  -0.9197823  47.8371439  25.6961653  -1.5894125
  47.4913110  25.1666673  -0.3724817  48.0178545  25.3001645  -0.9374600
  60.1705003  36.8086838  -1.1877758  59.3402706  37.0197482  -1.0244341
  60.1214255  35.9823893  -1.4635474  60.0411739  36.7176444  -1.2040392
  42.1600587  40.8458511  -0.9579663  41.6768165  41.5709001  -0.9820079
  42.9723905  41.1434641  -0.8469505  42.2091334  40.9960865  -0.9452383
  48.2314741  39.6390692   1.6470152  47.7141682  39.2798107   1.0431460
  48.9289132  39.1152867   1.6576218  48.2580322  39.5088380   1.5600411
  51.8878333  40.0885506   7.6086325  51.9761679  39.9011647   8.4564535
  52.3168045  39.4422936   7.2091172  51.9640435  39.9648514   7.6758076
  49.4548792  39.3716666   6.5903987  48.8919627  38.9589276   7.1143648
  50.2169816  39.2969572   7.0097130  49.4843241  39.2994067   6.7296987
  45.0144784  41.3614687  -0.8059383  45.7165363  40.8466676  -0.7486626
  44.9342267  41.6888839  -0.0012508  45.1068544  41.3328914  -0.6786591
  59.6658961  29.4557239   2.6072664  58.8287383  29.5259426   2.8420258
  59.6347192  29.4581733   1.7346966  59.5377244  29.4667466   2.5132212
  46.0623691  31.5990274   8.3221032  46.2344194  31.4896169   9.1706314
  46.5993048  32.2444680   8.0852225  46.1668694  31.6782276   8.4126129
  44.3395559  37.5521039  -1.2973775  45.1784459  37.7843972  -1.2500013
  44.3707329  36.6825351  -1.3666739  44.4677277  37.4577986  -1.3009130
  44.9648262  37.9721915   3.0039531  45.5046487  37.8293046   3.6742903
  44.2818209  38.3718665   3.3723557  44.9440416  38.0101585   3.1573952
  54.3889147  33.6512915  -1.8015445  55.1446662  34.0844430  -1.7626536
  54.4951472  33.0017685  -1.2280809  54.5159318  33.6190399  -1.7117419
  57.4269318  37.4786192  -1.0513042  56.9904550  37.4822935  -0.2954070
  57.0932234  38.1591691  -1.4833464  57.3131938  37.5798648  -1.0032209
  51.9998392  39.5194525  10.2730108  52.7838809  39.6325373  10.6385851
  51.7994987  38.6935662  10.4688794  52.0864417  39.4141245  10.3564494
  40.3685407  34.1922205   3.1573952  40.1023823  33.3761322   3.3164943
  40.3823972  34.2375361   2.2869468  40.3310130  34.0779110   3.0527434
  57.3466801  24.5200020   1.1916386  57.9892710  24.5898125   1.7778301
  57.5989822  23.8529243   0.6895928  57.4788933  24.4326369   1.2043665
  45.1184014  27.7300584   5.8040960  44.4255811  27.2597563   6.0501692
  45.7344341  27.5038888   6.3782667  45.1068544  27.6267715   5.9250113
  52.1568785  41.4304627   3.9196564  51.3584031  41.1904127   4.1770433
  52.6054797  41.4819020   4.6663612  52.1043397  41.4027018   4.0681488
  60.5613665  34.1967112  -2.1593405  61.2230099  33.6357781  -2.2597496
  59.9205077  33.7019143  -1.8340713  60.5642532  34.0403521  -2.1261064
  40.7778821  34.9780985   0.4385697  40.5954394  34.9527871  -0.4142011
  41.5128490  35.4479923   0.4774605  40.8592885  35.0442347   0.3183615
  56.8478495  35.2132495  -2.4181416  57.0834084  35.3577694  -3.2454565
  56.9968059  35.9774903  -2.0249902  56.9044299  35.3471549  -2.4817812
  43.8424573  31.6965988   6.9467805  44.5664545  31.6819018   7.4332700
  43.9440709  32.4061343   6.4489773  43.9642782  31.7990691   6.9446592
  51.2169522  35.1765072  11.8116752  50.4242503  35.4908584  11.9969372
  51.3318449  35.3916541  10.9737537  51.1164933  35.2548909  11.7155087
  53.8900841  31.8999063  -3.8988232  53.9847696  32.6388357  -3.4448606
  53.2659685  31.4716539  -3.4653667  53.8109871  31.9460384  -3.7680084
  52.1453315  35.0785276   6.7502049  52.7192177  34.4412520   6.9050613
  52.0668119  35.0789358   5.8811707  52.2186550  34.9850387   6.6448460
  40.7449731  31.8574485   0.5884763  41.3223234  31.7210936   1.2277009
  40.0463793  31.4010270   0.8430348  40.7270753  31.7696752   0.7207053
  47.5017034  33.5108541  -1.1976754  47.2436278  32.6780276  -1.2245454
  47.5565516  33.7366154  -2.0384253  47.4716811  33.4206312  -1.3256617
  52.5818084  25.6136992  -1.0972661  51.8774410  25.1246177  -0.9388742
  52.6303058  25.6259466  -1.9684217  52.4848135  25.5426640  -1.2033321
  46.4751746  31.0646304  -0.7111859  45.9001337  31.2238472  -0.0747898
  46.0987422  30.4281713  -1.1743408  46.3354558  30.9944116  -0.6857300
  50.1425034  29.5369653   4.1480520  49.7539467  29.1123871   3.4932711
  49.4779733  29.7851802   4.6557546  49.9871962  29.5108374   4.1268388
  53.9651396  23.2344282   1.6604504  54.3461908  22.5522453   2.0472378
  53.1614680  22.9453884   1.4780168  53.9027858  23.0911330   1.6908560
  57.4673463  36.4494254   6.7586902  57.2312100  35.6182318   6.6398963
  58.1116692  36.3979861   7.3441746  57.5268134  36.3191942   6.8272796
  47.1171881  37.2389775  -2.5270361  47.7545828  37.0001522  -1.9818568
  47.5426953  37.4426934  -3.2617201  47.2748047  37.2340785  -2.5553204
  41.8084523  39.4778111   1.3563942  41.8488669  39.7492962   0.5283722
  42.3679047  40.0020019   1.7721730  41.8967869  39.5953866   1.2955831
  47.9243236  25.7398480  11.5267112  47.6096677  26.5098043  11.2636675
  47.6033169  25.1768736  10.9419339  47.8302155  25.7708749  11.4008462
  58.4909883  36.2338702   2.8215197  58.1855701  36.9666759   3.1828512
  57.7716099  35.8276632   2.5407983  58.3397226  36.2820435   2.8328334
  49.4993353  37.7162197  -0.8476575  49.5732361  37.5537369   0.0065275
  50.3162859  37.9052387  -1.0916093  49.6309712  37.7198940  -0.7578550
  64.1911676  32.8731703   2.1483541  64.1236176  32.8927662   1.2786127
  64.1767338  33.7162030   2.3739211  64.1790432  33.0005438   2.0536018
  43.2599110  38.0620060  -3.8182132  42.4337227  38.3081798  -3.9447853
  43.3211101  37.9832141  -2.9520074  43.1473277  38.0865009  -3.7093187
  54.6008022  24.2766861   5.4724630  55.3461614  24.0876671   5.0588056
  54.1845327  24.8025099   4.9138487  54.6492996  24.3269006   5.3289204
  61.9770293  31.6476089   0.4230135  62.5278215  31.0144158   0.6627227
  61.9614408  32.1791482   1.1145640  62.0555489  31.6325037   0.5608994
  48.6292684  35.4814686   4.9690029  48.1304377  36.1930454   5.0474917
  49.4392908  35.8015353   4.9308191  48.6748791  35.6341535   4.9746597
  45.9803854  42.6564323  -3.0502952  45.7604150  42.3661678  -2.2576285
  45.7598376  41.9979278  -3.5785040  45.9151448  42.5164031  -3.0114043
  44.8920801  34.7437639  -0.7847250  44.6034050  34.1175111  -0.2501523
  45.7604149  34.6857927  -0.7182570  44.9781053  34.6425184  -0.6956296
  55.6798699  29.8872423  -0.4665268  55.3363465  29.1662758  -0.1158019
  55.7791742  29.6786274  -1.3086910  55.6440742  29.7496626  -0.5393588
  45.0953075  36.3832891  -4.8604885  45.8499043  36.7645930  -4.6469423
  44.5023687  36.8344034  -4.4058189  45.1189788  36.5061718  -4.7622007
  47.5559742  28.3395731  10.2652327  46.7459518  28.6453511  10.1542169
  48.0334429  29.0601313  10.3804911  47.5063221  28.4910332  10.2659398
  46.4151301  37.5541452   0.5135230  45.8932055  37.6941744   1.1987095
  46.8025322  36.7952116   0.7037347  46.3955002  37.4626976   0.6436307
  47.8417627  34.5845471  -4.0883279  47.6460410  35.1920205  -4.6822976
  48.0651973  33.8913415  -4.5691605  47.8452268  34.5722996  -4.2467198
  46.2396157  31.4700209  -3.9702410  46.9618809  31.6341367  -4.4298605
  45.7604150  32.1909874  -4.0763071  46.2759888  31.5998438  -4.0536796
  54.1989665  27.8064008   1.4094274  53.3600765  27.8325287   1.1732538
  54.2694032  28.4534743   1.9899621  54.0858058  27.9060133   1.4603391
  43.8903774  33.8758281   5.1351729  44.4024871  34.1542535   4.4860489
  43.6040116  34.6147575   5.5014542  43.9238637  34.0260635   5.0941607
  58.0747188  33.0131994  -1.3044484  57.9881163  33.1687420  -0.4509705
  57.6197668  33.6570070  -1.6785079  57.9950445  33.1307749  -1.2337377
  47.4087499  25.9684670   5.1952771  47.2170696  25.9839804   6.0452194
  48.2586095  26.1648344   5.1719426  47.5063221  25.9999021   5.3176066
  41.7934412  28.4975651   3.1736587  41.6519904  27.6459592   3.2981095
  42.0774975  28.5404312   2.3498793  41.8142258  28.3775401   3.0704211
  51.9473004  30.3342741  -2.6818924  51.7007719  30.2538492  -1.8482135
  52.2758128  29.5496209  -2.8756397  51.9594248  30.2069007  -2.5871401
  55.8421053  37.0426101   1.1067857  55.7035413  37.7407147   1.6116599
  55.0621051  36.8874757   0.7504039  55.7064280  37.1226267   1.1294131
  54.1799138  33.3422476   7.3590239  54.1747177  32.4702293   7.3632665
  54.8860132  33.5410645   6.8859694  54.2844142  33.2426350   7.2897274
  47.9070032  33.0699460   6.7304059  48.0513407  33.6500668   6.0947169
  48.2545680  33.4475757   7.4353913  47.9797493  33.2120164   6.7403054
  50.0789949  32.2689628   4.5129190  49.3313263  32.4620643   4.1077468
  50.2331474  31.4434848   4.2753312  49.9912377  32.1754740   4.4174596
  46.9797787  41.2602232   3.5965086  47.1287350  40.7005148   2.9438490
  47.7597789  41.3394234   3.9797604  47.1171880  41.1887797   3.5562035
  49.5051087  41.4316875   4.8749576  49.4294758  40.7625685   5.4300365
  49.4340947  42.1334663   5.3890243  49.4831694  41.4361782   5.0326425
  50.3191726  26.1640179   5.4024594  50.7764340  26.8964154   5.5297386
  50.3948055  25.7406644   6.1611850  50.3982696  26.2097417   5.5325671
  48.1974104  28.1542283   2.2466418  47.4070179  27.9733743   2.5683754
  48.5934727  27.3769236   2.2296713  48.1390980  28.0129744   2.2918966
  53.5817790  35.7884713  -0.0274136  52.9062792  35.5569946   0.4739251
  53.5910166  35.1805896  -0.6532031  53.4836295  35.6643638  -0.0457984
  50.7111934  30.6302542   6.7289917  50.6471076  31.4912499   6.6010054
  50.8509122  30.3134535   5.9285468  50.7227404  30.7102709   6.5918130
  49.3931028  33.3234682   0.8706120  48.9693277  33.5239181   0.1345138
  49.2175883  32.4763530   0.9830420  49.3041909  33.2283463   0.7779810
  48.8942722  44.8385195   3.3327577  49.3838652  44.1395984   3.1503242
  48.3226954  44.5409065   3.9203635  48.8827252  44.6911418   3.3928618
  44.6813473  33.8186733  -3.6965908  44.8378092  33.7533536  -2.8409915
  45.0214066  34.5935286  -3.9087228  44.7546708  33.9235931  -3.6011313
  51.2192618  33.1944617  -4.8272544  51.7608163  32.6914998  -4.3633924
  51.5339177  33.1409811  -5.6383059  51.3457015  33.1124038  -4.8788732
  55.0909725  37.4047264  12.2854368  55.9044591  37.1332413  12.4459500
  54.9304692  37.1054804  11.4814564  55.1879674  37.3202190  12.1899774
  52.3681887  28.0880921   5.2249756  52.5823857  27.4491835   4.6713110
  51.7515786  28.5326745   4.7957618  52.3087216  28.0591065   5.0800187
  41.2547735  31.0021683  -3.3805140  41.6346700  31.4206228  -4.0444873
  40.6803099  31.5835139  -3.0736297  41.2259060  31.1499542  -3.4328399
  54.5320975  29.6969986   6.1633063  53.7197657  29.3895877   6.2446236
  54.9910910  29.2168986   6.7275775  54.4801360  29.5806479   6.2587657
  51.7596616  21.1980857   0.2137099  50.8890174  21.1719578   0.1670408
  52.0136957  21.0258049  -0.6037055  51.6690176  21.1691000   0.0857236
  51.6274483  31.1030058  10.9461766  52.0974114  31.7272174  11.3329640
  51.6736363  30.4347033  11.5054980  51.7042359  31.0964738  11.0861837
  48.7845756  23.2087085   1.6710569  48.2684245  22.5167277   1.7962148
  48.2239685  23.8757862   1.6173168  48.6252270  23.2050343   1.6816635
  50.8537990  23.7480045   3.5003422  50.4669743  23.7729077   4.2816952
  50.3670927  23.1821724   3.0477938  50.7250499  23.6675796   3.5491326
  55.1030969  38.4653554   7.5577208  55.7410690  37.9713750   7.2239665
  54.4605061  38.3930955   6.9729435  55.1025196  38.3812563   7.4219563
  56.8287969  30.3142700   2.1243124  56.4015577  30.2269049   1.3691224
  56.1914022  30.4220476   2.7097968  56.6717577  30.3175360   2.0988566
  50.5195132  20.6347031   5.7913682  51.1488249  21.1707331   5.5134752
  50.6880994  20.5424390   6.6427247  50.6372926  20.7008393   5.8762210
  50.3209046  25.4218225   8.0640093  51.1482476  25.1503374   8.1198708
  50.3416892  26.2179067   8.4203912  50.4461896  25.4997980   8.1255276
  55.1585226  39.1573362   4.1982565  55.9477604  38.8062427   4.3184647
  55.3328824  39.9709751   3.9359199  55.3005507  39.2259220   4.1770433
  44.8978536  32.5682088   1.2510354  44.0566543  32.4685962   1.4589248
  45.1068544  33.3377569   1.6024675  44.8043229  32.6674132   1.3337669
  42.3754103  30.1901625  -0.9204895  41.9810801  30.2644637  -1.6954786
  41.8194220  30.5759572  -0.3696534  42.2356916  30.2583400  -0.9537236
  54.0119050  23.1682919  -1.2401016  54.2168643  23.1005227  -0.3944019
  53.6845474  23.9741740  -1.3079839  53.9934298  23.2768860  -1.1241361
  48.7095201  30.4963487   0.5007952  48.4058339  29.9419476   1.1018359
  48.0074622  30.6755697   0.0135986  48.5611411  30.4408270   0.5177657
  46.7713552  37.7113208   5.2080049  46.6633907  37.7215270   6.0742107
  46.9809334  38.5367989   5.0185003  46.7863663  37.8354283   5.3084141
  44.7887344  34.9625851   2.6701987  44.1975277  35.6035349   2.6405002
  45.5508368  35.3863468   2.6433286  44.8135605  35.1201689   2.6617134
  45.1847967  26.1227848   3.3370005  45.6449448  26.1966778   4.0745128
  45.2304074  26.9209102   2.9869826  45.2598522  26.2521995   3.3942761
  46.8331317  26.7894543   7.9042032  46.4416882  26.1427890   8.3397809
  47.0017179  27.3805978   8.5236287  46.8002227  26.7808811   8.0604738
  60.9077766  34.7931620   3.6679265  60.9660889  35.2418269   4.4139242
  60.2744233  35.2030433   3.2309345  60.8229061  34.9205355   3.7131814
  54.5476860  40.4135162   0.1034011  54.3496549  40.9025977  -0.5909777
  53.9264571  40.6176404   0.6818145  54.4264425  40.5151700   0.0857235
  48.6084839  32.1820059  -5.5555744  49.3526884  32.5694335  -5.3172794
  48.7545535  31.3377484  -5.3915257  48.7395424  32.1150532  -5.4961775
  50.5264414  23.9770318  -0.5223883  49.6800459  24.1493126  -0.6482533
  50.5235547  23.1719662  -0.1858055  50.4011564  23.8831347  -0.4912756
  51.5962715  27.7545532   0.3438175  51.1222669  27.2287294   0.8543486
  51.9680850  27.2075005  -0.2246963  51.5812603  27.5961529   0.3353322
  41.9735745  29.7517039   5.7121721  42.8361358  29.6512748   5.6259051
  41.6427528  29.1711748   5.1507293  42.0520941  29.6508666   5.6167127
  57.8599445  32.8147908   1.7544956  57.6197668  31.9754323   1.7587382
  58.3391452  32.8948075   2.4785729  57.8951629  32.7029308   1.8619758
  59.8604632  29.5949365  -0.2925785  59.6214402  29.5545199  -1.1305001
  60.0238533  30.4420517  -0.1660064  59.8494936  29.7141450  -0.3972303
  56.4650662  33.9799314   5.6379260  57.1884861  33.5271841   5.4590280
  56.2000625  34.2603980   4.8551588  56.5331936  33.9550283   5.4957975
  45.3337531  28.5759488   2.3732139  44.7090601  28.5877880   1.7658092
  44.9983126  29.0519663   3.0223379  45.1923023  28.6478005   2.3788707
  42.0463206  36.6359948   3.8135903  41.5163131  35.9452387   3.8630878
  42.3188300  36.6270133   2.9848612  42.0087929  36.5327080   3.6983319
  52.2469452  34.0783193   3.7874275  51.6326445  33.5341243   4.0822910
  52.7636737  33.5647429   3.3080091  52.2325114  33.9219602   3.7598503
  51.4865749  35.1487463   1.5218573  51.0593357  34.5237181   1.0884009
  51.4790693  34.8662385   2.3477581  51.4224890  35.0140243   1.5798401
  44.6028276  30.1852636   4.5907007  44.7621763  29.4295960   4.9958729
  44.4221170  30.7343575   5.2447745  44.5993635  30.1546450   4.7469713
  52.5448579  22.3513871   5.1457797  52.0489140  22.5477546   4.4549364
  53.3017641  22.7506540   4.9746599  52.5835404  22.4391605   5.0177934
  49.8151459  26.0256217   1.7361107  49.8393946  25.4916330   1.0473887
  50.0662932  25.5173526   2.3986698  49.8561377  25.8717121   1.7325752
  37.3259048  33.3087712   1.1704252  37.2202498  33.2634557   0.3056336
  36.5759268  33.6541493   1.4518536  37.1994651  33.3528620   1.0841581
  46.0952781  24.7527035   1.1166852  46.1351152  25.2536242   1.8301559
  45.2702446  24.8437429   0.8472775  45.9792307  24.8408852   1.1817390
  48.2782394  34.3187775   9.2187146  47.4278024  34.4559490   9.3544791
  48.4410521  33.5851554   9.6634848  48.1766257  34.2301877   9.3042746
  47.5167144  31.2687545   3.4140751  46.6859074  31.4361363   3.2075999
  47.4618661  30.8923496   4.1989636  47.3856559  31.2377277   3.4989279
  45.3250928  24.7596438   9.0497161  45.9503631  24.2158571   9.3226594
  44.8701407  24.2791356   8.4804952  45.3499188  24.6085920   9.0058755
  58.8985976  32.9425725   4.1409809  59.4903817  33.5822976   4.1728008
  59.3344971  32.2448762   4.4301876  59.0504407  32.9344076   4.1890642
  50.7279366  37.3643098   4.7667703  50.2204457  37.9178944   5.2108334
  50.4306012  37.4251388   3.9486478  50.6084251  37.4549409   4.7116160
  52.8941548  25.7296417   3.6092366  53.3196620  25.2768944   2.9975893
  52.2798541  25.1756488   3.8857154  52.8670194  25.5810393   3.5597392
  55.9235118  30.1570944  -3.5587048  55.2526307  30.7000646  -3.6873982
  56.6174868  30.6265799  -3.8005353  55.9263985  30.3069215  -3.6131520
  49.9721851  42.2967656   1.6724710  49.7487506  41.5386485   2.0408737
  49.4831695  42.3265677   0.9505150  49.8665300  42.1889880   1.6201451
  56.0863245  26.6126827  -0.6496675  56.4390855  26.1856550   0.0249124
  55.2278047  26.5277671  -0.5195598  56.0112690  26.5371568  -0.5301664
  44.7846930  29.2434347  -2.5913828  44.0658919  29.6598480  -2.3240965
  45.1559292  29.8088586  -3.1422190  44.7338862  29.3883629  -2.6331021
  54.0846511  29.8762196   3.2988167  54.0644438  29.6945491   4.1522946
  54.1325712  30.7474215   3.2747751  54.0881152  29.9778734   3.4211462
  52.0292841  36.4649388   9.2236644  51.9888696  35.8199065   8.6381800
  52.8416159  36.4086005   9.5362056  52.1435994  36.3608355   9.1833593
  48.6200308  42.5168114  -0.8738205  48.2060707  41.8542244  -1.2634363
  49.3047683  42.6645973  -1.3942511  48.6598680  42.4408772  -1.0081708
  51.9865602  41.6758199  -0.1214589  51.5881886  41.7860470  -0.8893768
  51.3716822  41.8840266   0.4611971  51.8364492  41.7231767  -0.1483289
  53.4351321  28.2411852  -3.8238699  53.2065014  28.2644553  -4.6660340
  53.6949397  27.4169319  -3.7043688  53.4397509  28.1227932  -3.9313501
  47.7170549  30.0946325   5.7786402  47.2049453  29.4867508   6.1371433
  47.5450046  30.8102917   6.2460377  47.6160186  30.1109624   5.9002625
  42.5636264  28.5383900   8.4288763  42.3938854  29.1985275   7.8836970
  42.1202214  28.7490461   9.1501253  42.4735598  28.6669882   8.4550393
  46.4896084  26.7788398  -2.5284503  46.9653450  27.1405478  -3.1634322
  45.9884683  27.4344865  -2.2484360  46.4861443  26.9282587  -2.5807762
  51.5939620  28.0170569   8.2188657  52.1511050  27.7884379   7.5867123
  51.2700685  28.7776235   7.9423870  51.6286030  28.0954406   8.0845154
  39.4638329  31.4430765   3.6877253  38.9165048  30.7731411   3.8058122
  40.2530707  31.0760613   3.7520721  39.4990512  31.2895752   3.7145954
  49.3122737  31.1038223   9.1840664  50.0634064  31.4189899   9.4980218
  49.5045314  30.9017393   8.3574586  49.4514151  31.1205604   9.1084060
  56.1608027  27.2311789  -3.5735540  56.1602254  27.0760445  -2.7151264
  55.9564207  28.0774776  -3.6294155  56.1307805  27.3332410  -3.4547601
  38.2225298  30.6551573   0.8423276  38.0447059  30.2028182   1.5678192
  37.9344320  31.4577735   1.0261754  38.1538251  30.7074131   0.9766779
  53.8848879  31.9109291   0.0800667  54.3802545  31.1932286   0.0404687
  53.0748655  31.6080088  -0.0344846  53.8392773  31.7606937   0.0574392
  39.9597768  33.1879297  -2.0454965  39.0943288  33.1764988  -2.1572193
  40.0596584  33.0009520  -1.1983825  39.8471935  33.1585358  -1.9366020
  55.9500698  34.6612978   2.7677795  56.3755770  34.1387400   2.2148220
  55.5857618  35.2593816   2.2466418  55.9587301  34.6723205   2.6086805
  45.5854778  42.9577196   1.5275141  45.9001337  43.7713584   1.5352923
  45.9948191  42.5727414   2.1957300  45.6922876  43.0205898   1.6279233
  52.5379298  38.3747242  -0.9021047  53.0090476  39.0887505  -0.7331062
  52.8739476  37.7745993  -0.3661178  52.6574413  38.3918707  -0.7988671
  54.6256282  39.9848556  11.2771025  54.7353248  39.1957116  11.6327772
  54.9547179  39.8954492  10.4745363  54.6908688  39.8554409  11.2113416
  49.4548793  23.1474713   6.0537048  49.5876698  22.3505706   6.3818023
  49.8393945  23.6741116   6.6335323  49.5305121  23.1074630   6.1880551
  53.1753244  38.1665177   5.8606646  52.6274190  37.5423060   5.5926711
  53.6366273  38.3559449   5.1450725  53.1620453  38.1024227   5.7157077
  52.5281148  20.0705039   2.6518141  51.7227111  19.9602769   2.9685979
  52.3987883  20.1717495   1.7948007  52.3901281  20.0688709   2.5726181
  55.9847108  26.2350531   3.2457838  55.4010097  26.7359738   2.8335405
  56.3051402  25.7280087   2.6122161  55.9460284  26.2342366   3.0916345
  42.9267798  36.9050304   1.1753749  43.5312655  36.8646138   0.5467570
  42.7195111  37.7521456   1.2057805  42.9856695  37.0238307   1.0869866
  52.7411570  39.1716249   2.3915987  53.5609944  39.0279215   2.6532282
  52.4605648  39.7962448   2.9332425  52.8208314  39.2426601   2.5103926
  38.1619080  35.8884922   1.0452672  38.0643358  35.0781193   1.3542729
  38.9447950  35.8676715   0.6598941  38.2635217  35.7652012   1.0339535
  53.8705933  43.6543879   0.6648439  53.2510965  43.0636526   0.4958454
  53.7689797  44.2455314   0.0312762  53.7643609  43.6547962   0.5453428
  53.5975066  47.1996161   2.9092008  53.4733763  47.7858606   3.5441827
  54.2493351  46.7056357   3.2104283  53.6748715  47.2134965   3.0477937
  57.0356274  47.1175582   8.3221032  57.2076778  47.0081477   9.1706314
  57.5725632  47.7629988   8.0852225  57.1401278  47.1967584   8.4126129
  62.9730976  55.0379833  10.2730108  63.7571392  55.1510681  10.6385851
  62.7727570  54.2120970  10.4688794  63.0597001  54.9326553  10.3564494
  51.3417991  49.7107513   3.1573952  51.0756406  48.8946630   3.3164943
  51.3556555  49.7560669   2.2869468  51.3042713  49.5964418   3.0527434
  56.0916597  43.2485892   5.8040960  55.3988394  42.7782871   6.0501692
  56.7076925  43.0224196   6.3782667  56.0801127  43.1453023   5.9250113
  54.8157156  47.2151296   6.9467805  55.5397129  47.2004326   7.4332700
  54.9173293  47.9246651   6.4489773  54.9375365  47.3175999   6.9446592
  62.1902106  50.6950380  11.8116752  61.3975087  51.0093892  11.9969372
  62.3051033  50.9101849  10.9737537  62.0897516  50.7734217  11.7155087
  61.1157618  45.0554961   4.1480520  60.7272051  44.6309179   3.4932711
  60.4512316  45.3037110   4.6557546  60.9604546  45.0293682   4.1268388
  64.9383980  38.7529590   1.6604504  65.3194491  38.0707761   2.0472378
  64.1347264  38.4639192   1.4780168  64.8760441  38.6096638   1.6908560
  58.8975820  41.2583788  11.5267112  58.5829261  42.0283351  11.2636675
  58.5765753  40.6954044  10.9419339  58.8034739  41.2894056  11.4008462
  65.5740606  39.7952169   5.4724630  66.3194198  39.6061979   5.0588056
  65.1577910  40.3210407   4.9138487  65.6225580  39.8454314   5.3289204
  58.5292325  43.8581039  10.2652327  57.7192101  44.1638819  10.1542169
  59.0067012  44.5786621  10.3804911  58.4795804  44.0095640  10.2659398
  54.8636357  49.3943589   5.1351729  55.3757454  49.6727842   4.4860489
  54.5772700  50.1332883   5.5014542  54.8971220  49.5445943   5.0941607
  58.3820083  41.4869978   5.1952771  58.1903280  41.5025112   6.0452194
  59.2318679  41.6833652   5.1719426  58.4795805  41.5184329   5.3176066
  52.7666996  44.0160959   3.1736587  52.6252487  43.1644900   3.2981095
  53.0507559  44.0589620   2.3498793  52.7874842  43.8960709   3.0704211
  58.8802615  48.5884768   6.7304059  59.0245991  49.1685976   6.0947169
  59.2278264  48.9661065   7.4353913  58.9530077  48.7305472   6.7403054
  61.2924310  41.6825487   5.4024594  61.7496924  42.4149461   5.5297386
  61.3680638  41.2591952   6.1611850  61.3715280  41.7282725   5.5325671
  53.5357301  41.9291307   6.4914038  52.9999490  41.3171665   6.8074805
  53.5975066  42.5039443   7.1447704  53.4652934  41.9238235   6.6349465
  59.1706688  43.6727591   2.2466418  58.3802762  43.4919051   2.5683754
  59.5667310  42.8954544   2.2296713  59.1123564  43.5315052   2.2918966
  61.6844518  46.1487850   6.7289917  61.6203659  47.0097807   6.6010054
  61.8241706  45.8319843   5.9285468  61.6959988  46.2288017   6.5918130
  66.0642309  52.9232572  12.2854368  66.8777174  52.6517721  12.4459500
  65.9037275  52.6240112  11.4814564  66.1612257  52.8387498  12.1899774
  63.3414471  43.6066229   5.2249756  63.5556440  42.9677143   4.6713110
  62.7248370  44.0512053   4.7957618  63.2819800  43.5776373   5.0800187
  65.5053559  45.2155294   6.1633063  64.6930240  44.9081185   6.2446236
  65.9643493  44.7354294   6.7275775  65.4533944  45.0991787   6.2587657
  62.7329199  36.7166165   0.2137099  61.8622757  36.6904886   0.1670408
  62.9869541  36.5443357  -0.6037055  62.6422760  36.6876308   0.0857236
  62.6007066  46.6215366  10.9461766  63.0706697  47.2457482  11.3329640
  62.6468946  45.9532341  11.5054980  62.6774942  46.6150046  11.0861837
  59.7578340  38.7272393   1.6710569  59.2416828  38.0352585   1.7962148
  59.1972269  39.3943170   1.6173168  59.5984853  38.7235651   1.6816635
  61.8270573  39.2665353   3.5003422  61.4402327  39.2914385   4.2816952
  61.3403511  38.7007032   3.0477938  61.6983082  39.1861104   3.5491326
  61.4927715  36.1532339   5.7913682  62.1220833  36.6892639   5.5134752
  61.6613578  36.0609698   6.6427247  61.6105510  36.2193701   5.8762210
  61.2941630  40.9403533   8.0640093  62.1215059  40.6688682   8.1198708
  61.3149476  41.7364375   8.4203912  61.4194480  41.0183288   8.1255276
  56.1580550  41.6413156   3.3370005  56.6182032  41.7152086   4.0745128
  56.2036657  42.4394410   2.9869826  56.2331106  41.7707303   3.3942761
  57.8063900  42.3079851   7.9042032  57.4149465  41.6613198   8.3397809
  57.9749763  42.8991286   8.5236287  57.7734811  42.2994119   8.0604738
  52.9468328  45.2702347   5.7121721  53.8093941  45.1698056   5.6259051
  52.6160111  44.6897056   5.1507293  53.0253525  45.1693974   5.6167127
  56.3070114  44.0944796   2.3732139  55.6823184  44.1063188   1.7658092
  55.9715709  44.5704971   3.0223379  56.1655606  44.1663313   2.3788707
  55.5760860  45.7037944   4.5907007  55.7354346  44.9481268   4.9958729
  55.3953753  46.2528883   5.2447745  55.5726219  45.6731757   4.7469713
  63.5181163  37.8699179   5.1457797  63.0221724  38.0662853   4.4549364
  64.2750225  38.2691847   4.9746599  63.5567987  37.9576913   5.0177934
  60.7884042  41.5441525   1.7361107  60.8126529  41.0101637   1.0473887
  61.0395516  41.0358834   2.3986698  60.8293961  41.3902429   1.7325752
  48.2991632  48.8273020   1.1704252  48.1935081  48.7819864   0.3056336
  47.5491852  49.1726801   1.4518536  48.1727235  48.8713928   1.0841581
  57.0685364  40.2712343   1.1166852  57.1083736  40.7721550   1.8301559
  56.2435029  40.3622737   0.8472775  56.9524890  40.3594160   1.1817390
  59.2514977  49.8373083   9.2187146  58.4010608  49.9744798   9.3544791
  59.4143105  49.1036862   9.6634848  59.1498841  49.7487185   9.3042746
  58.4899728  46.7872853   3.4140751  57.6591657  46.9546671   3.2075999
  58.4351245  46.4108804   4.1989636  58.3589143  46.7562585   3.4989279
  56.2983511  40.2781746   9.0497161  56.9236214  39.7343879   9.3226594
  55.8433991  39.7976664   8.4804952  56.3231772  40.1271227   9.0058755
  63.8674132  41.2481725   3.6092366  64.2929203  40.7954252   2.9975893
  63.2531125  40.6941796   3.8857154  63.8402777  41.0995701   3.5597392
  63.0025424  51.9834696   9.2236644  62.9621279  51.3384373   8.6381800
  63.8148743  51.9271313   9.5362056  63.1168578  51.8793663   9.1833593
  58.6903133  45.6131633   5.7786402  58.1782036  45.0052816   6.1371433
  58.5182629  46.3288225   6.2460377  58.5892770  45.6294932   5.9002625
  53.5368848  44.0569208   8.4288763  53.3671438  44.7170583   7.8836970
  53.0934798  44.2675769   9.1501253  53.4468181  44.1855190   8.4550393
  62.5672203  43.5355877   8.2188657  63.1243634  43.3069687   7.5867123
  62.2433268  44.2961543   7.9423870  62.6018614  43.6139714   8.0845154
  50.4370912  46.9616073   3.6877253  49.8897632  46.2916719   3.8058122
  51.2263290  46.5945921   3.7520721  50.4723096  46.8081060   3.7145954
  60.2855321  46.6223530   9.1840664  61.0366648  46.9375207   9.4980218
  60.4777897  46.4202701   8.3574586  60.4246735  46.6390912   9.1084060
  49.1957882  46.1736881   0.8423276  49.0179643  45.7213490   1.5678192
  48.9076904  46.9763043   1.0261754  49.1270835  46.2259439   0.9766779
  60.4281376  38.6660021   6.0537048  60.5609282  37.8691014   6.3818023
  60.8126529  39.1926424   6.6335323  60.5037705  38.6259938   6.1880551
  63.5013731  35.5890347   2.6518141  62.6959695  35.4788077   2.9685979
  63.3720467  35.6902803   1.7948007  63.3633864  35.5874017   2.5726181
  58.0869823  38.6619196   4.3014941  58.6314236  38.3210323   4.8919283
  58.1406759  39.5204658   4.4436226  58.1758942  38.7374455   4.4096815
   1.8094660  59.1097678  36.2497007   1.4948101  59.8001157  36.6817430
   1.2921602  59.0542461  35.5482508   1.6859130  59.2032567  36.2093956
   6.1009105  67.3318884  41.5317884   5.2637526  67.4021072  41.7665478
   6.0697336  67.3343379  40.6592186   5.9727387  67.3429111  41.4377432
   3.7816945  62.3961666  40.1161606   4.4242853  62.4659771  40.7023521
   4.0339966  61.7290889  39.6141148   3.9139077  62.3088015  40.1288885
   1.0358166  62.1528507  44.3969850   1.7811758  61.9638317  43.9833276
   0.6195470  62.6786744  43.8383707   1.0843140  62.2030652  44.2534424
   8.4120437  69.5237735  39.3475355   8.9628358  68.8905804  39.5872447
   8.3964552  70.0553128  40.0390860   8.4905633  69.5086683  39.4854214
   2.1148843  67.7634069  38.4579952   1.7713609  67.0424404  38.8087201
   2.2141885  67.5547920  37.6158310   2.0790886  67.6258272  38.3851632
   1.2269196  57.2191700  38.1963657   1.3452764  57.6768163  37.4630960
   1.0531371  56.4136961  37.9099875   1.2188367  57.1685472  38.0464591
   3.2638113  68.1904346  41.0488344   2.8365721  68.1030695  40.2936444
   2.6264166  68.2982121  41.6343188   3.1067720  68.1937006  41.0233786
   3.7002881  61.5976329  37.1646969   3.0877195  62.0846731  37.5500701
   3.7967056  60.9219820  37.7084620   3.6240779  61.5694638  37.3025827
   6.2954776  67.4711011  38.6319435   6.0564546  67.4306845  37.7940219
   6.4588677  68.3182163  38.7585156   6.2845079  67.5903096  38.5272917
   2.5213389  64.4888473  38.2748545   2.8740999  64.0618196  38.9494344
   1.6628190  64.4039317  38.4049622   2.4462833  64.4133214  38.3943556
   3.9537449  59.6106885  39.2032858   3.4468313  58.9036025  39.1354035
   4.7504882  59.2800074  39.3333934   3.9964688  59.4580037  39.2131853
   2.5958171  65.1073435  35.3509680   2.5952397  64.9522091  36.2093956
   2.3914351  65.9536422  35.2951065   2.5657949  65.2094055  35.4697619
   2.4197252  64.1112177  42.1703058   1.8360241  64.6121383  41.7580625
   2.7401546  63.6041733  41.5367381   2.3810427  64.1104012  42.0161565
   4.3693605  46.1235570  21.2144130   4.3387609  46.9780207  21.3862399
   4.9674953  45.8230863  21.7730274   4.4530762  46.2052067  21.3218932
   0.8787006  51.4797747  35.5757516   1.5853773  50.9849777  35.7044451
   1.0674941  51.9206828  34.8460174   1.0114912  51.4716097  35.4866562
   2.1910179  48.6987872  19.4862440   2.0749705  49.4495558  19.9154578
   2.9866066  48.4411825  19.7358527   2.2914768  48.7722719  19.5866531
   1.5045484  36.0475810  23.1837054   1.1898925  36.7379288  23.6157476
   0.9872426  35.9920592  22.4822555   1.3809954  36.1410698  23.1434003
   6.3005971  51.6226615  24.6707509   5.4703674  51.8337259  24.8340926
   6.2515223  50.7963670  24.3949793   6.1712706  51.5316221  24.6544875
   5.7959929  44.2697016  28.4657931   4.9588350  44.3399203  28.7005525
   5.7648160  44.2721510  27.5932233   5.6678211  44.2807243  28.3717478
   0.5190115  48.4652692  24.0569822   1.2747630  48.8984207  24.0958731
   0.6252439  47.8157462  24.6304458   0.6460285  48.4330176  24.1467848
   3.5570286  52.2925969  24.8072225   3.1205518  52.2962712  25.5631196
   3.2233201  52.9731468  24.3751802   3.4432906  52.3938425  24.8553058
   3.4767769  39.3339797  27.0501653   4.1193677  39.4037902  27.6363568
   3.7290790  38.6669020  26.5481195   3.6089901  39.2466146  27.0628932
   6.6914632  49.0106889  23.6991862   7.3531066  48.4497558  23.5987771
   6.0506044  48.5158920  24.0244553   6.6943500  48.8543298  23.7324202
   2.9779463  50.0272272  23.4403851   3.2135052  50.1717471  22.6130702
   3.1269026  50.7914680  23.8335365   3.0345266  50.1611326  23.3767455
   4.8069920  48.8673938  21.2773455   5.1378137  49.4001578  20.6713550
   5.3803008  48.9212825  21.9335406   4.9403599  48.9543506  21.2851237
   5.9149271  44.1084435  22.7813616   5.6585836  43.2964376  22.5911499
   6.7578585  44.1162002  22.5543804   6.0015297  43.9896432  22.7198434
   3.5974430  51.2634031  32.6172169   3.3613068  50.4322095  32.4984230
   4.2417659  51.2119638  33.2027013   3.6569101  51.1331719  32.6858063
   4.6210851  51.0478479  28.6800464   4.3156668  51.7806536  29.0413779
   3.9017067  50.6416409  28.3993250   4.4698193  51.0960212  28.6913601
  10.3212643  47.6871480  28.0068808  10.2537143  47.7067439  27.1371394
  10.3068306  48.5301807  28.2324478  10.3091400  47.8145215  27.9121285
   8.1071260  46.4615866  26.2815402   8.6579182  45.8283935  26.5212494
   8.0915376  46.9931259  26.9730906   8.1856457  46.4464814  26.4194260
   1.8099667  44.7012200  25.3919998   1.4664433  43.9802535  25.7427248
   1.9092709  44.4926051  24.5498357   1.7741710  44.5636403  25.3191678
   2.2712696  51.1637904  20.9343986   2.8370728  51.8231114  20.8502529
   1.6240599  51.5087602  21.4060389   2.2591452  51.3119845  20.9916743
   4.2048156  47.8271771  24.5540783   4.1182130  47.9827197  25.4075562
   3.7498636  48.4709847  24.1800188   4.1251413  47.9447526  24.6247890
   1.9722021  51.8565878  26.9653124   1.8336380  52.5546924  27.4701866
   1.1922019  51.7014534  26.6089306   1.8365248  51.9366044  26.9879398
   3.4675394  51.2144132  17.7269623   3.0882202  50.4281270  17.7198912
   2.8041639  51.7630989  17.5841267   3.3133868  51.1788956  17.7050420
   0.9220020  34.1569831  25.1303704   1.0403588  34.6146295  24.3971007
   0.7482195  33.3515093  24.8439921   0.9139191  34.1063603  24.9804638
   1.7135492  53.4589623  18.0621309   1.7955330  54.2656609  17.7382760
   2.1985235  53.4785582  18.7862082   1.7972650  53.5810285  18.1208207
   1.2210693  52.2187041  38.1439635   2.0345558  51.9472190  38.3044767
   1.0605659  51.9194581  37.3399831   1.3180641  52.1341967  38.0485041
   1.2331937  53.2793331  33.4162475   1.8711657  52.7853527  33.0824931
   0.5906028  53.2070732  32.8314702   1.2326163  53.1952340  33.2804830
   2.9588937  45.1282477  27.9828391   2.5316545  45.0408826  27.2276490
   2.3214990  45.2360253  28.5683235   2.8018544  45.1315137  27.9573832
   1.2886193  53.9713139  30.0567832   2.0778572  53.6202204  30.1769914
   1.4629791  54.7849528  29.7944466   1.4306475  54.0398997  30.0355700
   3.3953705  38.5354460  24.0987016   2.7828019  39.0224863  24.4840748
   3.4917880  37.8597951  24.6424667   3.3191603  38.5072769  24.2365874
   7.0378733  49.6071397  29.5264532   7.0961857  50.0558046  30.2724509
   6.4045201  50.0170210  29.0894612   6.9530028  49.7345132  29.5717080
   3.9900413  47.6287685  27.6130222   3.7498636  46.7894100  27.6172649
   4.4692420  47.7087852  28.3370996   4.0252596  47.5169085  27.7205025
   5.9905600  44.4089142  25.5659481   5.7515370  44.3684976  24.7280266
   6.1539501  45.2560294  25.6925203   5.9795903  44.5281227  25.4612963
   2.5951630  48.7939091  31.4964527   3.3185829  48.3411618  31.3175547
   2.3301592  49.0743757  30.7136854   2.6632903  48.7690060  31.3543242
   5.0286944  47.7565502  29.9995076   5.6204784  48.3962753  30.0313274
   5.4645938  47.0588539  30.2887143   5.1805375  47.7483853  30.0475909
   2.0536085  44.9710721  22.2998219   1.3827275  45.5140423  22.1711284
   2.7475835  45.4405576  22.0579914   2.0564953  45.1208992  22.2453747
   2.2164213  41.4266604  25.2088592   2.5691823  40.9996327  25.8834391
   1.3579014  41.3417448  25.3389668   2.1413657  41.3511345  25.3283602
   3.6488273  36.5485016  26.1372905   3.1419137  35.8414156  26.0694082
   4.4455706  36.2178205  26.2673981   3.6915512  36.3958168  26.1471900
   5.8508413  51.0649943  19.1213769   6.2342018  51.8141299  19.3511866
   5.0552526  51.3115763  18.8625758   5.7902195  51.2119637  19.1171343
   2.2908995  42.0451566  22.2849727   2.2903221  41.8900222  23.1434003
   2.0865175  42.8914553  22.2291112   2.2608773  42.1472187  22.4037666
   2.0801666  49.4752755  28.6263062   2.5056737  48.9527177  28.0733487
   1.7158586  50.0733593  28.1051685   2.0888268  49.4862982  28.4672072
   0.7557250  54.7988333  37.1356292   0.8654215  54.0096893  37.4913039
   1.0848146  54.7094269  36.3330630   0.8209655  54.6694186  37.0698682
   2.1148076  41.0490308  29.1043105   1.5311065  41.5499515  28.6920672
   2.4352370  40.5419864  28.4707428   2.0761251  41.0482143  28.9501612
  15.3426188  61.6420878  21.2144130  15.3120192  62.4965515  21.3862399
  15.9407537  61.3416171  21.7730274  15.4263346  61.7237375  21.3218932
   8.5425873  60.7296529  25.9697060   7.6863768  60.8905027  26.0206177
   8.5893527  59.8588593  25.9902121   8.4224984  60.6247331  25.9803126
  11.8519589  66.9983055  35.5757516  12.5586357  66.5035085  35.7044451
  12.0407525  67.4392136  34.8460174  11.9847495  66.9901405  35.4866562
  11.3877694  62.7888573  28.6128712  11.9333654  63.4673660  28.6722682
  11.3294570  62.6476034  27.7530293  11.4593608  62.8680575  28.4940773
  13.1642763  64.2173180  19.4862440  13.0482289  64.9680866  19.9154578
  13.9598649  63.9597133  19.7358527  13.2647352  64.2908027  19.5866531
   7.0974796  60.2083198  20.8566169   7.7954961  60.3871326  21.3487632
   7.4127129  59.6853537  20.2336558   7.2470133  60.1576970  20.8368179
   7.2862732  66.5953643  20.8445960   7.7256367  65.9870744  21.2900733
   7.1367394  66.2161016  20.0731425   7.3284197  66.4492114  20.7965128
   4.7534375  65.1897655  28.0464786   5.3983377  64.6970098  27.7275734
   4.9936152  65.3322441  28.8730864   4.8844960  65.1375097  28.1214319
   7.2920466  68.0352561  27.6971678   7.5743709  67.2403966  27.4758434
   8.0206626  68.5133148  27.7176739   7.4410030  67.9887158  27.6674694
   5.2701660  55.5775595  24.9387443   4.9404990  56.0286738  24.2691142
   4.5946662  55.4991758  25.4860450   5.1212096  55.6326730  24.9210667
  10.8872068  64.9480824  17.7976730  10.8023363  65.8041791  17.9426298
  11.3756451  64.6725148  18.4658889  10.9460965  65.0338146  17.9178811
  12.4778068  51.5661118  23.1837054  12.1631509  52.2564596  23.6157476
  11.9605009  51.5105900  22.4822555  12.3542538  51.6596006  23.1434003
  11.8190501  61.5665618  19.2974465  11.2901973  61.7825252  19.9571771
  12.3415521  62.2601757  19.2175434  11.8178954  61.7008755  19.3830064
  17.2738554  67.1411923  24.6707509  16.4436257  67.3522567  24.8340926
  17.2247807  66.3148977  24.3949793  17.1445290  67.0501529  24.6544875
   8.9911884  70.4210591  33.4671592   9.0795230  70.2336732  34.3149802
   9.4201596  69.7748021  33.0676438   9.0673986  70.2973599  33.5343343
   8.1667324  61.7094487  16.5750853   8.4063327  61.9172471  15.7626196
   8.4883165  60.9051996  16.6839798   8.2504481  61.6208589  16.4711406
   3.4757614  53.6387883  20.4210391   4.2303582  54.0066200  20.1827441
   3.2985148  54.0127437  21.1889571   3.5612092  53.7486071  20.4995280
  16.7692513  59.7882324  28.4657931  15.9320934  59.8584511  28.7005525
  16.7380744  59.7906818  27.5932233  16.6410795  59.7992551  28.3717478
   3.1657242  61.9315359  34.1806299   3.3377745  61.8221254  35.0291581
   3.7026599  62.5769765  33.9437491   3.2702246  62.0107361  34.2711396
   1.8314679  56.0458202  17.1188504   1.6490252  56.2630083  16.2929497
   2.6940292  56.1597215  17.1747119   1.9319268  56.0948100  17.0042991
   1.4429110  67.8846124  24.5611492   2.2818010  68.1169057  24.6085254
   1.4740880  67.0150436  24.4918527   1.5710828  67.7903071  24.5576137
   7.5114398  53.0484613  20.1537528   8.2400558  52.8700568  19.7075684
   7.6009291  53.8902692  20.3644706   7.6321060  53.1468491  20.1191046
  11.4922698  63.9838000  24.0569822  12.2480213  64.4169514  24.0958731
  11.5985023  63.3342770  24.6304458  11.6192869  63.9515484  24.1467848
  14.5302869  67.8111277  24.8072225  14.0938101  67.8148020  25.5631196
  14.1965785  68.4916776  24.3751802  14.4165489  67.9123733  24.8553058
   9.1031943  69.8519610  36.1315375   9.8872360  69.9650458  36.4971117
   8.9028538  69.0260747  36.3274061   9.1897969  69.7466330  36.2149761
  14.4500352  54.8525105  27.0501653  15.0926261  54.9223210  27.6363568
  14.7023373  54.1854328  26.5481195  14.5822485  54.7651454  27.0628932
   2.2217565  58.0625669  31.6626227   1.5289362  57.5922648  31.9086958
   2.8377892  57.8363973  32.2367934   2.2102095  57.9592800  31.7835379
  17.6647216  64.5292197  23.6991862  18.3263650  63.9682866  23.5987771
  17.0238628  64.0344228  24.0244553  17.6676083  64.3728606  23.7324202
  13.9512046  65.5457580  23.4403851  14.1867636  65.6902779  22.6130702
  14.1001610  66.3099988  23.8335365  14.0077850  65.6796634  23.3767455
   0.9458124  62.0291073  32.8053072   1.6698096  62.0144103  33.2917967
   1.0474260  62.7386428  32.3075040   1.0676333  62.1315776  32.8031859
  15.7802503  64.3859246  21.2773455  16.1110720  64.9186886  20.6713550
  16.3535591  64.4398133  21.9335406  15.9136182  64.4728814  21.2851237
   8.3203073  65.5090157  37.6702019   7.5276054  65.8233669  37.8554639
   8.4352000  65.7241626  36.8322804   8.2198484  65.5873994  37.5740354
  10.9934392  62.2324148  21.9597035  11.0881247  62.9713442  22.4136660
  10.3693236  61.8041624  22.3931599  10.9143422  62.2785469  22.0905182
   9.2486866  65.4110361  32.6087316   9.8225728  64.7737605  32.7635880
   9.1701670  65.4114443  31.7396973   9.3220101  65.3175472  32.5033727
   4.6050585  63.8433626  24.6608513   4.3469829  63.0105361  24.6339813
   4.6599068  64.0691239  23.8201014   4.5750363  63.7531397  24.5328650
   9.6851635  55.9462077  24.7612606   8.9807962  55.4571262  24.9196525
   9.7336609  55.9584551  23.8901050   9.5881686  55.8751725  24.6551946
   3.5785297  61.3971388  25.1473408   3.0034888  61.5563557  25.7837369
   3.2020973  60.7606798  24.6841859   3.4388109  61.3269201  25.1727966
   7.2458586  59.8694738  30.0065786   6.8573018  59.4448955  29.3517978
   6.5813284  60.1176887  30.5142813   7.0905513  59.8433459  29.9853654
  16.8881855  59.6269742  22.7813616  16.6318419  58.8149684  22.5911499
  17.7311169  59.6347310  22.5543804  16.9747880  59.5081740  22.7198434
  11.0684947  53.5669367  27.5189771  11.4495459  52.8847538  27.9057645
  10.2648231  53.2778969  27.3365435  11.0061409  53.4236415  27.5493827
   8.3497524  64.0993342  18.2042593   9.1638163  64.3908235  18.0925365
   8.2856665  63.4453205  17.6300886   8.4600263  64.0458537  18.1031431
  14.5707014  66.7819338  32.6172169  14.3345651  65.9507403  32.4984230
  15.2150243  66.7304946  33.2027013  14.6301685  66.6517026  32.6858063
   4.2205432  67.5714860  23.3314905   4.8579379  67.3326607  23.8766699
   4.6460504  67.7752019  22.5968066   4.3781598  67.5665870  23.3032063
   5.0276787  56.0723565  37.3852379   4.7130229  56.8423127  37.1221942
   4.7066720  55.5093821  36.8004606   4.9335707  56.1033833  37.2593729
  15.5943435  66.5663787  28.6800464  15.2889252  67.2991844  29.0413779
  14.8749650  66.1601717  28.3993250  15.4430777  66.6145520  28.6913601
   6.6026904  68.0487282  25.0108692   6.6765912  67.8862454  25.8650542
   7.4196410  68.2377472  24.7669173   6.7343263  68.0524025  25.1006717
  21.2945227  63.2056788  28.0068808  21.2269727  63.2252747  27.1371394
  21.2800889  64.0487115  28.2324478  21.2823983  63.3330523  27.9121285
   2.5808684  54.4614086  22.9998575   1.7131110  54.5336686  23.0656185
   2.8683889  55.2636165  23.1886550   2.4948433  54.5908233  23.0373342
  11.7041573  54.6091946  31.3309897  12.4495165  54.4201756  30.9173323
  11.2878878  55.1350184  30.7723754  11.7526547  54.6594091  31.1874470
  19.0803844  61.9801174  26.2815402  19.6311766  61.3469243  26.5212494
  19.0647959  62.5116567  26.9730906  19.1589040  61.9650122  26.4194260
   5.7326235  65.8139771  30.8275296   5.2337929  66.5255539  30.9060184
   6.5426459  66.1340438  30.7893458   5.7782342  65.9666620  30.8331864
   1.9954353  65.0762724  25.0738016   1.7067601  64.4500196  25.6083744
   2.8637701  65.0183012  25.1402697   2.0814604  64.9750269  25.1628971
  12.7832250  60.2197508  25.3919998  12.4397016  59.4987843  25.7427248
  12.8825293  60.0111359  24.5498357  12.7474293  60.0821711  25.3191678
  13.2445279  66.6823212  20.9343986  13.8103312  67.3416422  20.8502529
  12.5973183  67.0272910  21.4060389  13.2324036  66.8305153  20.9916743
   4.6593293  58.6720816  36.1237594   3.8493069  58.9778595  36.0127436
   5.1367980  59.3926398  36.2390178   4.6096772  58.8235417  36.1244665
   3.5184852  67.8866537  26.3720497   2.9965606  68.0266828  27.0572362
   3.9058873  67.1277201  26.5622614   3.4988553  67.7952061  26.5021573
   9.7151857  69.6261996  20.3581066   9.4738533  68.8929857  19.9508131
   9.8953190  70.1748853  19.7047399   9.7059481  69.5984387  20.2011289
   4.9451178  64.9170556  21.7701988   4.7493961  65.5245290  21.1762291
   5.1685524  64.2238500  21.2893662   4.9485819  64.9048081  21.6118069
   3.3429708  61.8025294  21.8882856   4.0652360  61.9666452  21.4286662
   2.8637701  62.5234959  21.7822196   3.3793439  61.9323523  21.8048470
  11.3023216  58.1389093  27.2679541  10.4634316  58.1650371  27.0317805
  11.3727583  58.7859828  27.8484888  11.1891609  58.2385218  27.3188658
   0.9937325  64.2083366  30.9936996   1.5058422  64.4867619  30.3445756
   0.7073667  64.9472660  31.3599809   1.0272188  64.3585720  30.9526874
   9.7492494  55.0374470  22.0007157  10.4518847  54.8382218  21.5227115
   9.4836683  54.2650412  22.3076001   9.8139126  54.8937436  21.9752599
  15.1780740  63.3457079  24.5540783  15.0914714  63.5012505  25.4075562
  14.7231219  63.9895155  24.1800188  15.0983996  63.4632834  24.6247890
   4.5121050  56.3009755  31.0538038   4.3204247  56.3164889  31.9037461
   5.3619646  56.4973429  31.0304693   4.6096772  56.3324106  31.1761333
   9.0506556  60.6667826  23.1766343   8.8041270  60.5863577  24.0103131
   9.3791679  59.8821294  22.9828870   9.0627799  60.5394092  23.2713866
  12.9454604  67.3751186  26.9653124  12.8068964  68.0732232  27.4701866
  12.1654602  67.2199842  26.6089306  12.8097831  67.4551352  26.9879398
  11.2832690  63.6747561  33.2175505  11.2780728  62.8027378  33.2217932
  11.9893683  63.8735730  32.7444961  11.3877694  63.5751435  33.1482541
   5.0103583  63.4024545  32.5889326   5.1546959  63.9825753  31.9532436
   5.3579231  63.7800842  33.2939180   5.0831044  63.5445249  32.5988321
   7.1823500  62.6014713  30.3714457   6.4346814  62.7945728  29.9662735
   7.3365025  61.7759933  30.1338578   7.0945928  62.5079825  30.2759863
  14.4407977  66.7329440  17.7269623  14.0614786  65.9466577  17.7198912
  13.7774223  67.2816297  17.5841267  14.2866452  66.6974264  17.7050420
   7.4225277  56.4965264  31.2609861   7.8797891  57.2289238  31.3882653
   7.4981606  56.0731729  32.0197117   7.5016247  56.5422502  31.3910937
  11.8952603  49.6755139  25.1303704  12.0136171  50.1331603  24.3971007
  11.7214779  48.8700401  24.8439921  11.8871774  49.6248911  24.9804638
   5.3007655  58.4867368  28.1051685   4.5103730  58.3058828  28.4269021
   5.6968278  57.7094321  28.0881979   5.2424531  58.3454829  28.1504233
  10.6851341  66.1209798  25.8311131  10.0096343  65.8895030  26.3324518
  10.6943718  65.5130981  25.2053236  10.5869846  65.9968723  25.8127283
   7.8145485  60.9627627  32.5875184   7.7504627  61.8237584  32.4595321
   7.9542673  60.6459620  31.7870735   7.8260955  61.0427794  32.4503397
  12.6868076  68.9774931  18.0621309  12.7687913  69.7841917  17.7382760
  13.1717818  68.9970890  18.7862082  12.7705234  69.0995593  18.1208207
   6.4964579  63.6559766  26.7291387   6.0726828  63.8564266  25.9930405
   6.3209435  62.8088614  26.8415687   6.4075460  63.5608548  26.6365077
   1.7847024  64.1511818  22.1619359   1.9411643  64.0858621  23.0175351
   2.1247617  64.9260370  21.9498039   1.8580259  64.2561016  22.2573953
   8.3226169  63.5269702  21.0312723   8.8641714  63.0240083  21.4951343
   8.6372728  63.4734896  20.2202208   8.4490566  63.4449122  20.9796535
  12.1943276  67.7372349  38.1439635  13.0078142  67.4657498  38.3044767
  12.0338243  67.4379889  37.3399831  12.2913225  67.6527275  38.0485041
   9.4715438  58.4206006  31.0835023   9.6857408  57.7816920  30.5298377
   8.8549337  58.8651830  30.6542885   9.4120768  58.3916150  30.9385454
  11.6354526  60.0295071  32.0218330  10.8231208  59.7220962  32.1031503
  12.0944461  59.5494071  32.5861042  11.5834911  59.9131564  32.1172924
  11.0459781  67.9074743  22.4695274  10.6874436  68.0789386  23.2459307
  10.5598492  68.3687949  21.9123273  10.9218478  68.0013714  22.5020543
   8.8630167  51.5305942  26.0722366   7.9923725  51.5044663  26.0255675
   9.1170508  51.3583134  25.2548211   8.7723727  51.5016085  25.9442503
   8.7308034  61.4355143  36.8047032   9.2007665  62.0597259  37.1914906
   8.7769914  60.7672118  37.3640247   8.8075910  61.4289823  36.9447104
   5.8879307  53.5412170  27.5295836   5.3717796  52.8492362  27.6547415
   5.3273236  54.2082947  27.4758435   5.7285821  53.5375428  27.5401902
   7.9571541  54.0805130  29.3588689   7.5703294  54.1054162  30.1402219
   7.4704478  53.5146809  28.9063205   7.8284050  54.0000881  29.4076592
  12.2064520  68.7978639  33.4162475  12.8444241  68.3038835  33.0824931
  11.5638612  68.7256040  32.8314702  12.2058747  68.7137648  33.2804830
  13.9321520  60.6467785  27.9828391  13.5049128  60.5594134  27.2276490
  13.2947573  60.7545561  28.5683235  13.7751128  60.6500445  27.9573832
   7.6228683  50.9672116  31.6498949   8.2521801  51.5032416  31.3720019
   7.7914545  50.8749475  32.5012514   7.7406477  51.0333478  31.7347477
   7.4242597  55.7543310  33.9225360   8.2516027  55.4828459  33.9783975
   7.4450444  56.5504152  34.2789178   7.5495448  55.8323065  33.9840543
  12.2618777  69.4898447  30.0567832  13.0511155  69.1387512  30.1769914
  12.4362375  70.3034836  29.7944466  12.4039059  69.5584305  30.0355700
   2.0012087  62.9007173  27.1095621   1.1600094  62.8011047  27.3174515
   2.2102095  63.6702653  27.4609942   1.9076780  62.9999216  27.1922936
  11.1152601  53.5008004  24.6184250  11.3202194  53.4330312  25.4641248
  10.7879025  54.3066825  24.5505428  11.0967849  53.6093945  24.7343906
   5.8128752  60.8288572  26.3593218   5.5091890  60.2744561  26.9603626
   5.1108173  61.0080782  25.8721253   5.6644962  60.7733355  26.3762924
   4.8694849  58.1389092  20.9237920   5.1454584  57.4208005  20.5115488
   5.4693519  58.7374012  20.7159026   4.9988114  58.1209463  20.8318681
  14.3686289  54.0539768  24.0987016  13.7560602  54.5410171  24.4840748
  14.4650464  53.3783259  24.6424667  14.2924186  54.0258077  24.2365874
   8.3705370  55.8102610  19.1984515   8.8249116  55.9813170  19.9232360
   8.8445416  55.1970720  18.7982291   8.5073690  55.7453495  19.2458277
   1.8920895  65.2950935  28.5287254   1.3008828  65.9360434  28.4990269
   2.6541919  65.7188553  28.5018553   1.9169156  65.4526774  28.5202401
   2.2881518  56.4552933  29.1955271   2.7483000  56.5291863  29.9330395
   2.3337625  57.2534187  28.8455093   2.3632073  56.5847080  29.2528028
   3.9364868  57.1219628  33.7627298   3.5450433  56.4752975  34.1983076
   4.1050730  57.7131063  34.3821554   3.9035778  57.1133896  33.9190004
  18.0111317  65.1256705  29.5264532  18.0694440  65.5743354  30.2724509
  17.3777784  65.5355518  29.0894612  17.9262612  65.2530440  29.5717080
  11.6510411  70.7460247  25.9619278  11.4530100  71.2351062  25.2675490
  11.0298122  70.9501489  26.5403412  11.5297976  70.8476785  25.9442501
   5.7118390  62.5145144  20.3029522   6.4560435  62.9019420  20.5412472
   5.8579086  61.6702569  20.4670010   5.8428975  62.4475617  20.3623492
   7.6297965  54.3095403  25.3361384   6.7834010  54.4818211  25.2102734
   7.6269098  53.5044747  25.6727212   7.5045115  54.2156432  25.3672511
   8.6996266  58.0870617  26.2023442   8.2256220  57.5612379  26.7128753
   9.0714401  57.5400090  25.6338303   8.6846155  57.9286614  26.1938589
  14.9632996  63.1472993  27.6130222  14.7231219  62.3079408  27.6172649
  15.4425003  63.2273160  28.3370996  14.9985180  63.0354393  27.7205025
  10.6279765  58.9807172  19.2649196  10.1002784  59.0635916  18.5754904
  11.0875473  59.7225043  19.2613840  10.6181616  59.1027834  19.1623891
  16.9638183  59.9274450  25.5659481  16.7247953  59.8870284  24.7280266
  17.1272085  60.7745602  25.6925203  16.9528487  60.0466535  25.4612963
  13.5684213  64.3124399  31.4964527  14.2918412  63.8596926  31.3175547
  13.3034176  64.5929065  30.7136854  13.6365487  64.2875368  31.3543242
   2.4371082  58.9084573  28.2317406   1.8124152  58.9202965  27.6243358
   2.1016677  59.3844748  28.8808646   2.2956574  58.9803090  28.2373974
  10.1816848  67.5510735  18.3958853  10.9051047  68.0168848  18.2523426
   9.7417439  67.6184345  17.6456450  10.2232540  67.6294572  18.2643634
   9.3503003  64.4108278  29.6459542   8.7359996  63.8666328  29.9408177
   9.8670288  63.8972514  29.1665358   9.3358665  64.2544687  29.6183770
   8.5899300  65.4812548  27.3803840   8.1626908  64.8562266  26.9469276
   8.5824244  65.1987469  28.2062848   8.5258441  65.3465328  27.4383668
   1.7061827  60.5177721  30.4492274   1.8655314  59.7621045  30.8543996
   1.5254721  61.0668660  31.1033012   1.7027186  60.4871534  30.6054980
   9.6482130  52.6838956  31.0043064   9.1522691  52.8802630  30.3134630
  10.4051192  53.0831624  30.8331865   9.6868955  52.7716690  30.8763200
   6.9185010  56.3581302  27.5946374   6.9427497  55.8241414  26.9059154
   7.1696483  55.8498611  28.2571965   6.9594928  56.2042206  27.5911019
   3.1986332  55.0852120  26.9752119   3.2384704  55.5861327  27.6886826
   2.3735997  55.1762514  26.7058042   3.0825858  55.1733937  27.0402657
   5.3815945  64.6512860  35.0772413   4.5311575  64.7884575  35.2130058
   5.5444073  63.9176639  35.5220115   5.2799808  64.5626962  35.1628012
   4.6200695  61.6012630  29.2726018   3.7892625  61.7686448  29.0661266
   4.5652213  61.2248581  30.0574903   4.4890110  61.5702361  29.3574546
   2.4284479  55.0921523  34.9082428   3.0537182  54.5483656  35.1811861
   1.9734959  54.6116441  34.3390219   2.4532739  54.9411004  34.8644022
   2.9936739  59.8768222  19.8016135   3.1339700  60.3740686  20.5044777
   3.4919272  59.1754516  19.9430349   3.0877820  59.8470201  19.9267714
  16.0019527  63.2750810  29.9995076  16.5937368  63.9148061  30.0313274
  16.4378522  62.5773847  30.2887143  16.1537959  63.2669160  30.0475909
   4.6015944  56.6749308  17.1054154   4.9231785  56.1952391  16.4513416
   4.8642888  57.4848954  16.9144966   4.6881970  56.7239206  16.9809646
   7.8312917  67.6968183  30.6252970   7.3238008  68.2504029  31.0693601
   7.5339563  67.7576472  29.8071745   7.7117802  67.7874494  30.5701427
   9.9975099  56.0621502  29.4677633  10.4230171  55.6094029  28.8561160
   9.3832093  55.5081573  29.7442421   9.9703745  55.9135478  29.4182658
   8.4369322  52.5336602  22.8768210   7.7937640  52.3834248  23.4453349
   8.0968729  52.2878947  22.1117315   8.2914400  52.4748724  22.8471225
  13.0268669  60.4896029  22.2998219  12.3559859  61.0325731  22.1711284
  13.7208419  60.9590884  22.0579914  13.0297536  60.6394300  22.2453747
  13.1896796  56.9451912  25.2088592  13.5424406  56.5181635  25.8834391
  12.3311598  56.8602756  25.3389668  13.1146241  56.8696653  25.3283602
   1.8880481  59.5759432  23.2671439   1.1692470  59.9923565  23.5344302
   2.2592843  60.1413671  22.7163077   1.8372413  59.7208714  23.2254246
  11.1880062  60.2087281  29.1573434  11.1677989  60.0270576  30.0108213
  11.2359263  61.0799300  29.1333018  11.1914703  60.3103819  29.2796729
   9.1326392  66.7974473  35.0821911   9.0922247  66.1524150  34.4967067
   9.9449710  66.7411090  35.3947323   9.2469545  66.6933440  35.0418860
   7.6627056  58.6157432  18.6044818   7.0691895  58.9374428  18.0529385
   7.7002333  57.7698527  18.3965924   7.5801445  58.5381760  18.4927589
  14.6220856  52.0670324  26.1372905  14.1151721  51.3599464  26.0694082
  15.4188290  51.7363513  26.2673981  14.6648095  51.9143476  26.1471900
  10.5384872  58.5736936  22.0346568  10.3098565  58.5969638  21.1924926
  10.7982948  57.7494404  22.1541579  10.5431060  58.4553016  21.9271766
   4.8204101  60.4271410  31.6371668   4.3083004  59.8192592  31.9956700
   4.6483597  61.1428002  32.1045644   4.7193738  60.4434709  31.7587892
   3.5929635  57.1113483  23.3300764   4.0687001  57.4730563  22.6950945
   3.0918234  57.7669950  23.6100907   3.5894994  57.2607672  23.2777505
  16.8240996  66.5835251  19.1213769  17.2074602  67.3326607  19.3511866
  16.0285110  66.8301071  18.8625758  16.7634778  66.7304945  19.1171343
   8.6973171  58.3495654  34.0773924   9.2544601  58.1209464  33.4452389
   8.3734236  59.1101320  33.8009136   8.7319581  58.4279491  33.9430421
   6.4156288  61.4363307  35.0425931   7.1667615  61.7514984  35.3565485
   6.6078865  61.2342478  34.2159853   6.5547702  61.4530689  34.9669327
   5.6356288  59.2554683  16.6974148   6.0155253  59.2734312  15.9125263
   4.8948884  59.7008671  16.5764995   5.5825126  59.3236457  16.5637716
  13.2641578  57.5636874  22.2849727  13.2635805  57.4085530  23.1434003
  13.0597758  58.4099861  22.2291112  13.2341356  57.6657495  22.4037666
  10.9882430  62.2434376  25.9385933  11.4836096  61.5257371  25.8989954
  10.1782206  61.9405173  25.8240420  10.9426324  62.0932022  25.9159659
  13.0534249  64.9938063  28.6263062  13.4789321  64.4712485  28.0733487
  12.6891169  65.5918901  28.1051685  13.0620852  65.0048290  28.4672072
   9.6412849  68.7072327  24.9564220  10.1124027  69.4212590  25.1254205
   9.9773027  68.1071078  25.4924089   9.7607964  68.7243792  25.0596596
  11.7289833  70.3173641  37.1356292  11.8386799  69.5282201  37.4913039
  12.0580730  70.2279577  36.3330630  11.7942239  70.1879494  37.0698682
   6.5582344  53.4799798  31.9122314   6.6910249  52.6830791  32.2403290
   6.9427496  54.0066201  32.4920590   6.6338672  53.4399715  32.0465817
  10.2786795  68.4990262  31.7191912   9.7307741  67.8748145  31.4511978
  10.7399824  68.6884534  31.0035992  10.2654004  68.4349312  31.5742343
   9.6314699  50.4030124  28.5103408   8.8260663  50.2927854  28.8271246
   9.5021434  50.5042580  27.6533274   9.4934832  50.4013794  28.4311448
  13.0880659  56.5675616  29.1043105  12.5043648  57.0684822  28.6920672
  13.4084953  56.0605172  28.4707428  13.0493835  56.5667451  28.9501612
   5.6275458  55.4816211  19.3801779   6.4491153  55.6514524  19.1383474
   5.1645109  55.6363472  18.6568077   5.6806621  55.5297944  19.2373424
   4.2170790  53.4758973  30.1600208   4.7615203  53.1350100  30.7504550
   4.2707726  54.3344435  30.3021493   4.3059910  53.5514232  30.2682082
   9.8445121  69.5041334  28.2501254  10.6643495  69.3604300  28.5117549
   9.5639199  70.1287533  28.7917691   9.9241865  69.5751686  28.3689193
  16.2434243  71.0960903  24.9387443  15.9137573  71.5472046  24.2691142
  15.5679245  71.0177066  25.4860450  16.0944680  71.1512038  24.9210667
  23.4510651  67.0846425  23.1837054  23.1364092  67.7749904  23.6157476
  22.9337593  67.0291208  22.4822555  23.3275122  67.1781314  23.1434003
  14.4490197  69.1573191  20.4210391  15.2036165  69.5251508  20.1827441
  14.2717732  69.5312745  21.1889571  14.5344676  69.2671379  20.4995280
  27.7425096  75.3067631  28.4657931  26.9053517  75.3769819  28.7005525
  27.7113327  75.3092126  27.5932233  27.6143379  75.3177859  28.3717478
  12.8047262  71.5643510  17.1188504  12.6222835  71.7815391  16.2929497
  13.6672875  71.6782523  17.1747119  12.9051852  71.6133408  17.0042991
  18.4846981  68.5669921  20.1537528  19.2133142  68.3885876  19.7075684
  18.5741874  69.4088000  20.3644706  18.6053643  68.6653799  20.1191046
  25.4232936  70.3710413  27.0501653  26.0658844  70.4408518  27.6363568
  25.6755957  69.7039636  26.5481195  25.5555068  70.2836762  27.0628932
  20.6584218  71.4647385  24.7612606  19.9540545  70.9756570  24.9196525
  20.7069193  71.4769859  23.8901050  20.5614270  71.3937033  24.6551946
  27.8614438  75.1455050  22.7813616  27.6051003  74.3334992  22.5911499
  28.7043752  75.1532618  22.5543804  27.9480464  75.0267048  22.7198434
  22.0417531  69.0854674  27.5189771  22.4228042  68.4032846  27.9057645
  21.2380815  68.7964277  27.3365435  21.9793992  68.9421723  27.5493827
  16.0009371  71.5908873  37.3852379  15.6862812  72.3608435  37.1221942
  15.6799304  71.0279129  36.8004606  15.9068290  71.6219141  37.2593729
  13.5541268  69.9799394  22.9998575  12.6863693  70.0521994  23.0656185
  13.8416472  70.7821473  23.1886550  13.4681016  70.1093541  23.0373342
  22.6774157  70.1277254  31.3309897  23.4227749  69.9387064  30.9173323
  22.2611461  70.6535491  30.7723754  22.7259131  70.1779399  31.1874470
  23.7564834  75.7382816  25.3919998  23.4129600  75.0173151  25.7427248
  23.8557876  75.5296667  24.5498357  23.7206877  75.6007019  25.3191678
  22.2755799  73.6574400  27.2679541  21.4366900  73.6835679  27.0317805
  22.3460167  74.3045136  27.8484888  22.1624193  73.7570526  27.3188658
  20.7225078  70.5559777  22.0007157  21.4251430  70.3567526  21.5227115
  20.4569266  69.7835720  22.3076001  20.7871710  70.4122744  21.9752599
  15.4853634  71.8195063  31.0538038  15.2936831  71.8350197  31.9037461
  16.3352230  72.0158737  31.0304693  15.5829356  71.8509414  31.1761333
  18.3957861  72.0150572  31.2609861  18.8530475  72.7474546  31.3882653
  18.4714190  71.5917037  32.0197117  18.4748831  72.0607810  31.3910937
  22.8685187  65.1940447  25.1303704  22.9868755  65.6516911  24.3971007
  22.6947362  64.3885708  24.8439921  22.8604358  65.1434219  24.9804638
  20.4448022  73.9391314  31.0835023  20.6589991  73.3002228  30.5298377
  19.8281921  74.3837138  30.6542885  20.3853351  73.9101458  30.9385454
  19.8362751  67.0491250  26.0722366  18.9656308  67.0229971  26.0255675
  20.0903092  66.8768442  25.2548211  19.7456311  67.0201393  25.9442503
  16.8611891  69.0597478  27.5295836  16.3450380  68.3677670  27.6547415
  16.3005820  69.7268255  27.4758435  16.7018404  69.0560736  27.5401902
  18.9304124  69.5990438  29.3588689  18.5435878  69.6239470  30.1402219
  18.4437062  69.0332117  28.9063205  18.8016633  69.5186189  29.4076592
  18.5961266  66.4857424  31.6498949  19.2254384  67.0217724  31.3720019
  18.7647129  66.3934783  32.5012514  18.7139061  66.5518786  31.7347477
  18.3975181  71.2728618  33.9225360  19.2248610  71.0013767  33.9783975
  18.4183027  72.0689460  34.2789178  18.5228031  71.3508373  33.9840543
  22.0885185  69.0193312  24.6184250  22.2934778  68.9515620  25.4641248
  21.7611609  69.8252133  24.5505428  22.0700433  69.1279252  24.7343906
  25.3418872  69.5725076  24.0987016  24.7293186  70.0595478  24.4840748
  25.4383047  68.8968567  24.6424667  25.2656770  69.5443385  24.2365874
  19.3437953  71.3287917  19.1984515  19.7981700  71.4998478  19.9232360
  19.8177999  70.7156028  18.7982291  19.4806274  71.2638803  19.2458277
  18.6030549  69.8280711  25.3361384  17.7566594  70.0003518  25.2102734
  18.6001681  69.0230054  25.6727212  18.4777699  69.7341740  25.3672511
  19.6728849  73.6055925  26.2023442  19.1988803  73.0797687  26.7128753
  20.0446985  73.0585398  25.6338303  19.6578738  73.4471922  26.1938589
  27.9370767  75.4459758  25.5659481  27.6980537  75.4055592  24.7280266
  28.1004668  76.2930910  25.6925203  27.9261070  75.5651843  25.4612963
  20.6214714  68.2024264  31.0043064  20.1255275  68.3987938  30.3134630
  21.3783776  68.6016932  30.8331865  20.6601538  68.2901998  30.8763200
  17.8917593  71.8766610  27.5946374  17.9160080  71.3426722  26.9059154
  18.1429067  71.3683919  28.2571965  17.9327512  71.7227514  27.5911019
  14.1718916  70.6037428  26.9752119  14.2117287  71.1046635  27.6886826
  13.3468580  70.6947822  26.7058042  14.0558441  70.6919245  27.0402657
  13.4017062  70.6106831  34.9082428  14.0269766  70.0668964  35.1811861
  12.9467542  70.1301749  34.3390219  13.4265323  70.4596312  34.8644022
  20.9707683  71.5806810  29.4677633  21.3962755  71.1279337  28.8561160
  20.3564676  71.0266881  29.7442421  20.9436328  71.4320786  29.4182658
  19.4101906  68.0521910  22.8768210  18.7670224  67.9019556  23.4453349
  19.0701313  67.8064255  22.1117315  19.2646983  67.9934032  22.8471225
  24.1629380  72.4637220  25.2088592  24.5156990  72.0366943  25.8834391
  23.3044181  72.3788064  25.3389668  24.0878824  72.3881961  25.3283602
  25.5953440  67.5855632  26.1372905  25.0884305  66.8784772  26.0694082
  26.3920874  67.2548821  26.2673981  25.6380679  67.4328784  26.1471900
  21.5117456  74.0922244  22.0346568  21.2831149  74.1154946  21.1924926
  21.7715532  73.2679711  22.1541579  21.5163644  73.9738324  21.9271766
  24.2374162  73.0822182  22.2849727  24.2368388  72.9270838  23.1434003
  24.0330342  73.9285169  22.2291112  24.2073940  73.1842802  22.4037666
  17.5314927  68.9985106  31.9122314  17.6642833  68.2016099  32.2403290
  17.9160080  69.5251509  32.4920590  17.6071256  68.9585023  32.0465817
  20.6047282  65.9215432  28.5103408  19.7993246  65.8113162  28.8271246
  20.4754018  66.0227888  27.6533274  20.4667415  65.9199102  28.4311448
  24.0613243  72.0860924  29.1043105  23.4776232  72.5870130  28.6920672
  24.3817537  71.5790480  28.4707428  24.0226418  72.0852759  28.9501612
  16.6008042  71.0001519  19.3801779  17.4223736  71.1699832  19.1383474
  16.1377693  71.1548780  18.6568077  16.6539204  71.0483252  19.2373424
  15.1903374  68.9944281  30.1600208  15.7347787  68.6535408  30.7504550
  15.2440310  69.8529742  30.3021493  15.2792493  69.0699540  30.2682082
   0.5737830  28.4175878  22.5097563   1.2804597  27.9227909  22.6384498
   0.7625765  28.8584959  21.7800221   0.7065735  28.4094228  22.4206609
   3.2925254  28.2012162  19.5512216   3.0563892  27.3700227  19.4324276
   3.9368483  28.1497769  20.1367060   3.3519925  28.0709850  19.6198109
   4.3161675  27.9856610  15.6140510   4.0107492  28.7184667  15.9753826
   3.5967891  27.5794540  15.3333296   4.1649017  28.0338343  15.6253647
  10.0163467  24.6249611  14.9408855   9.9487967  24.6445570  14.0711441
  10.0019129  25.4679938  15.1664525  10.0042224  24.7523346  14.8461331
   0.9161517  29.1565172  25.0779682   1.7296382  28.8850321  25.2384814
   0.7556483  28.8572712  24.2739877   1.0131465  29.0720098  24.9825087
   0.9837017  30.9091271  16.9907879   1.7729395  30.5580335  17.1109960
   1.1580615  31.7227659  16.7284513   1.1257299  30.9777128  16.9695747
   6.7329557  26.5449528  16.4604579   6.7912681  26.9936177  17.2064555
   6.0996025  26.9548341  16.0234659   6.6480852  26.6723263  16.5057127
   2.2902454  25.7317223  18.4304573   3.0136653  25.2789749  18.2515593
   2.0252416  26.0121888  17.6476901   2.3583727  25.7068191  18.2883289
   4.7237768  24.6943633  16.9335123   5.3155608  25.3340884  16.9653321
   5.1596762  23.9966670  17.2227190   4.8756199  24.6861984  16.9815956
   1.7752490  26.4130886  15.5603109   2.2007561  25.8905308  15.0073534
   1.4109409  27.0111724  15.0391732   1.7839092  26.4241113  15.4012119
   0.4508074  31.7366464  24.0696339   0.5605039  30.9475025  24.4253086
   0.7798970  31.6472400  23.2670677   0.5160479  31.6072317  24.0038729
  15.0377012  38.5799009   8.1484177  15.0071016  39.4343646   8.3202446
  15.6358361  38.2794302   8.7070320  15.1214170  38.6615506   8.2558979
   8.2376697  37.6674660  12.9037107   7.3814592  37.8283158  12.9546224
   8.2844351  36.7966724  12.9242168   8.1175808  37.5625462  12.9143173
  11.5470413  43.9361186  22.5097563  12.2537181  43.4413217  22.6384498
  11.7358349  44.3770267  21.7800221  11.6798319  43.9279536  22.4206609
   7.6147088  49.5777016  10.0370997   7.9986467  50.1463915   9.4975773
   7.5506229  48.8526527   9.5576813   7.6620515  49.5552480   9.8864860
  11.0828518  39.7266704  15.5468759  11.6284478  40.4051791  15.6062728
  11.0245394  39.5854165  14.6870340  11.1544432  39.8058706  15.4280819
   4.2002593  47.2155770  10.9337111   4.3012956  46.4056124  11.2434239
   3.6044338  47.1212717  10.3036790   4.1275131  47.0820798  10.8863350
  12.8593587  41.1551311   6.4202487  12.7433112  41.9058997   6.8494625
  13.6549473  40.8975264   6.6698574  12.9598176  41.2286158   6.5206578
   4.0403332  52.1333359  12.3351967   4.6840788  52.5746523  12.7248126
   4.3659588  51.3286786  12.2482226   4.1835161  52.0798554  12.3797445
   6.7925620  37.1461329   7.7906216   7.4905785  37.3249457   8.2827679
   7.1077953  36.6231668   7.1676605   6.9420957  37.0955101   7.7708226
   6.9813556  43.5331774   7.7786007   7.4207191  42.9248875   8.2240780
   6.8318218  43.1539148   7.0071472   7.0235021  43.3870245   7.7305175
   4.4485199  42.1275786  14.9804833   5.0934201  41.6348229  14.6615781
   4.6886976  42.2700573  15.8070911   4.5795784  42.0753228  15.0554366
   6.9871290  44.9730692  14.6311725   7.2694533  44.1782098  14.4098481
   7.7157450  45.4511279  14.6516786   7.1360854  44.9265289  14.6014740
   4.9652484  32.5153726  11.8727490   4.6355814  32.9664869  11.2031189
   4.2897486  32.4369889  12.4200497   4.8162920  32.5704861  11.8550714
  10.5822892  41.8858955   4.7316776  10.4974187  42.7419922   4.8766345
  11.0707275  41.6103280   5.3998936  10.6411789  41.9716277   4.8518858
  11.5141325  38.5043750   6.2314512  10.9852797  38.7203383   6.8911818
  12.0366345  39.1979888   6.1515481  11.5129778  38.6386887   6.3170111
  16.9689378  44.0790054  11.6047556  16.1387081  44.2900698  11.7680973
  16.9198631  43.2527109  11.3289840  16.8396114  43.9879660  11.5884921
   5.0299116  46.9093908  14.4395465   4.5126057  46.5501323  13.8356774
   5.7273507  46.3856083  14.4501532   5.0564697  46.7791596  14.3525724
   8.6862708  47.3588722  20.4011639   8.7746054  47.1714863  21.2489849
   9.1152420  46.7126152  20.0016485   8.7624810  47.2351730  20.4683390
   6.2533168  46.6419882  19.3829301   5.6904002  46.2292492  19.9068962
   7.0154191  46.5672788  19.8022444   6.2827616  46.5697283  19.5222301
   1.8129159  48.6317903  11.9865931   2.5149738  48.1169893  12.0438687
   1.7326642  48.9592055  12.7912806   1.9052919  48.6032130  12.1138723
  16.4643337  36.7260455  15.3997977  15.6271758  36.7962642  15.6345572
  16.4331567  36.7284950  14.5272280  16.3361619  36.7370682  15.3057525
   2.8608066  38.8693490  21.1146346   3.0328569  38.7599385  21.9631627
   3.3977423  39.5147896  20.8777538   2.9653070  38.9485492  21.2051443
   1.1379934  44.8224255  11.4951539   1.9768834  45.0547188  11.5425300
   1.1691704  43.9528567  11.4258574   1.2661652  44.7281202  11.4916184
   1.7632637  45.2425131  15.7964844   2.3030862  45.0996262  16.4668217
   1.0802584  45.6421881  16.1648871   1.7424791  45.2804802  15.9499266
  11.1873522  40.9216131  10.9909869  11.9431037  41.3547646  11.0298778
  11.2935847  40.2720901  11.5644505  11.3143693  40.8893615  11.0807894
  14.2253693  44.7489409  11.7412272  13.7888925  44.7526151  12.4971243
  13.8916609  45.4294908  11.3091849  14.1116313  44.8501864  11.7893104
   8.7982767  46.7897741  23.0655422   9.5823184  46.9028589  23.4311164
   8.5979362  45.9638878  23.2614108   8.8848792  46.6844461  23.1489808
  14.1451176  31.7903236  13.9841700  14.7877085  31.8601341  14.5703615
  14.3974197  31.1232459  13.4821242  14.2773308  31.7029585  13.9968979
   1.9168389  35.0003800  18.5966274   1.2240186  34.5300779  18.8427005
   2.5328716  34.7742104  19.1707981   1.9052919  34.8970932  18.7175426
   8.9553160  48.7007843  16.7121878   8.1568406  48.4607343  16.9695746
   9.4039172  48.7522236  17.4588925   8.9027772  48.6730235  16.8606802
  17.3598040  41.4670328  10.6331909  18.0214474  40.9060997  10.5327817
  16.7189452  40.9722359  10.9584600  17.3626907  41.3106737  10.6664249
  13.6462870  42.4835711  10.3743898  13.8818460  42.6280910   9.5470748
  13.7952434  43.2478119  10.7675411  13.7028674  42.6174765  10.3107502
   0.6408948  38.9669204  19.7393119   1.3648920  38.9522234  20.2258014
   0.7425084  39.6764559  19.2415087   0.7627157  39.0693907  19.7371906
  15.4753327  41.3237377   8.2113502  15.8061544  41.8565017   7.6053596
  16.0486415  41.3776265   8.8675453  15.6087006  41.4106946   8.2191283
   8.0153897  42.4468288  24.6042066   7.2226878  42.7611800  24.7894686
   8.1302824  42.6619757  23.7662851   7.9149308  42.5252125  24.5080401
  10.6885216  39.1702279   8.8937082  10.7832071  39.9091574   9.3476707
  10.0644060  38.7419755   9.3271646  10.6094246  39.2163600   9.0245229
   8.9437690  42.3488492  19.5427363   9.5176552  41.7115736  19.6975927
   8.8652494  42.3492574  18.6737020   9.0170925  42.2553603  19.4373773
   4.3001409  40.7811757  11.5948560   4.0420653  39.9483492  11.5679859
   4.3549891  41.0069370  10.7541060   4.2701187  40.6909528  11.4668697
   9.3802459  32.8840208  11.6952653   8.6758786  32.3949393  11.8536572
   9.4287433  32.8962682  10.8241097   9.2832510  32.8129856  11.5891992
   3.2736121  38.3349520  12.0813455   2.6985712  38.4941688  12.7177416
   2.8971797  37.6984929  11.6181905   3.1338933  38.2647333  12.1068013
   6.9409409  36.8072869  16.9405833   6.5523842  36.3827087  16.2858024
   6.2764108  37.0555019  17.4482860   6.7856337  36.7811590  16.9193701
  16.5832679  36.5647874   9.7153663  16.3269243  35.7527815   9.5251546
  17.4261993  36.5725441   9.4883851  16.6698704  36.4459871   9.6538480
  10.7635771  30.5047498  14.4529817  11.1446283  29.8225669  14.8397692
   9.9599055  30.2157100  14.2705482  10.7012233  30.3614546  14.4833873
   8.0448348  41.0371474   5.1382640   8.8588987  41.3286366   5.0265412
   7.9807489  40.3831336   4.5640933   8.1551087  40.9836668   5.0371477
  14.2657838  43.7197470  19.5512216  14.0296475  42.8885534  19.4324276
  14.9101067  43.6683077  20.1367060  14.3252509  43.5895158  19.6198109
   3.9156256  44.5092991  10.2654952   4.5530203  44.2704739  10.8106746
   4.3411328  44.7130150   9.5308113   4.0732422  44.5044001  10.2372110
   4.7227611  33.0101696  24.3192426   4.4081052  33.7801259  24.0561989
   4.4017544  32.4471952  23.7344653   4.6286530  33.0411965  24.1933776
  15.2894259  43.5041918  15.6140510  14.9840076  44.2369975  15.9753826
  14.5700474  43.0979848  15.3333296  15.1381601  43.5523651  15.6253647
   6.2977728  44.9865414  11.9448738   6.3716736  44.8240585  12.7990588
   7.1147234  45.1755603  11.7009220   6.4294087  44.9902156  12.0346764
  20.9896051  40.1434919  14.9408855  20.9220551  40.1630878  14.0711441
  20.9751713  40.9865246  15.1664525  20.9774807  40.2708654  14.8461331
  11.3992397  31.5470077  18.2649944  12.1445989  31.3579887  17.8513369
  10.9829702  32.0728315  17.7063800  11.4477371  31.5972222  18.1214517
  18.7754668  38.9179305  13.2155449  19.3262590  38.2847374  13.4552541
  18.7598783  39.4494698  13.9070953  18.8539864  38.9028253  13.3534307
   5.4277059  42.7517903  17.7615342   4.9288752  43.4633670  17.8400231
   6.2377283  43.0718569  17.7233505   5.4733166  42.9044751  17.7671911
   1.6905176  42.0140856  12.0078063   1.4018425  41.3878327  12.5423791
   2.5588524  41.9561143  12.0742744   1.7765428  41.9128400  12.0969018
  12.9396103  43.6201343   7.8684033  13.5054136  44.2794553   7.7842576
  12.2924007  43.9651041   8.3400435  12.9274860  43.7683284   7.9256790
   4.3544117  35.6098947  23.0577641   3.5443893  35.9156727  22.9467483
   4.8318804  36.3304529  23.1730225   4.3047596  35.7613548  23.0584712
   3.2135676  44.8244668  13.3060544   2.6916430  44.9644960  13.9912408
   3.6009697  44.0655332  13.4962661   3.1939377  44.7330192  13.4361620
   9.4102681  46.5640127   7.2921112   9.1689357  45.8307988   6.8848177
   9.5904014  47.1126984   6.6387446   9.4010305  46.5362518   7.1351335
   4.6402002  41.8548687   8.7042035   4.4444785  42.4623422   8.1102338
   4.8636348  41.1616631   8.2233709   4.6436643  41.8426213   8.5458116
   3.0380532  38.7403425   8.8222903   3.7603184  38.9044583   8.3626709
   2.5588525  39.4613090   8.7162243   3.0744263  38.8701655   8.7388517
  10.9974040  35.0767224  14.2019588  10.1585140  35.1028503  13.9657851
  11.0678407  35.7237959  14.7824935  10.8842433  35.1763350  14.2528705
   9.4443318  31.9752601   8.9347204  10.1469671  31.7760349   8.4567162
   9.1787507  31.2028543   9.2416047   9.5089950  31.8315567   8.9092646
  14.8731563  40.2835211  11.4880830  14.7865538  40.4390637  12.3415609
  14.4182043  40.9273286  11.1140235  14.7934820  40.4010966  11.5587937
   4.2071874  33.2387886  17.9878085   4.0155071  33.2543020  18.8377508
   5.0570470  33.4351560  17.9644739   4.3047596  33.2702237  18.1101379
   8.7457380  37.6045958  10.1106389   8.4992094  37.5241709  10.9443178
   9.0742503  36.8199425   9.9168917   8.7578623  37.4772223  10.2053912
  12.6405428  44.3129317  13.8993171  12.5019788  45.0110363  14.4041913
  11.8605426  44.1577973  13.5429352  12.5048655  44.3929484  13.9219445
  10.9783513  40.6125692  20.1515552  10.9731552  39.7405509  20.1557979
  11.6844507  40.8113861  19.6785008  11.0828517  40.5129566  20.0822588
   4.7054407  40.3402676  19.5229372   4.8497783  40.9203884  18.8872482
   5.0530055  40.7178973  20.2279227   4.7781868  40.4823380  19.5328367
   6.8774324  39.5392845  17.3054504   6.1297638  39.7323859  16.9002782
   7.0315849  38.7138064  17.0678625   6.7896752  39.4457956  17.2099910
   3.7782162  48.5305448  16.3890399   3.9271726  47.9708364  15.7363804
   4.5582164  48.6097450  16.7722918   3.9156255  48.4591013  16.3487348
  14.1358801  43.6707571   4.6609670  13.7565610  42.8844709   4.6538959
  13.4725047  44.2194428   4.5181314  13.9817276  43.6352395   4.6390467
   6.3035462  48.7020091  17.6674890   6.2279134  48.0328901  18.2225678
   6.2325322  49.4037879  18.1815556   6.2816069  48.7064998  17.8251738
   7.1176101  33.4343395  18.1949908   7.5748715  34.1667370  18.3222700
   7.1932430  33.0109861  18.9537164   7.1967071  33.4800633  18.3250984
  11.5903427  26.6133270  12.0643751  11.7086995  27.0709734  11.3311053
  11.4165603  25.8078532  11.7779968  11.5822598  26.5627043  11.9144684
   6.9605709  47.2221090   8.4998496   7.7255600  46.9530733   8.1781160
   6.8583799  46.7371100   9.2168559   7.0587205  47.1110654   8.5578324
   4.9958479  35.4245499  15.0391732   4.2054554  35.2436959  15.3609068
   5.3919102  34.6472452  15.0222026   4.9375355  35.2832960  15.0844280
  10.3802165  43.0587929  12.7651178   9.7047167  42.8273162  13.2664565
  10.3894541  42.4509112  12.1393283  10.2820670  42.9346855  12.7467330
   7.5096309  37.9005758  19.5215231   7.4455451  38.7615715  19.3935367
   7.6493497  37.5837752  18.7210782   7.5211779  37.9805925  19.3843444
  12.3818900  45.9153062   4.9961356  12.4638737  46.7220048   4.6722807
  12.8668642  45.9349021   5.7202129  12.4656058  46.0373724   5.0548254
   6.1915403  40.5937898  13.6631434   5.7677652  40.7942397  12.9270452
   6.0160258  39.7466746  13.7755733   6.1026284  40.4986679  13.5705124
   5.6927097  52.1088411  16.1252891   6.1823027  51.4099200  15.9428555
   5.1211329  51.8112281  16.7128948   5.6811627  51.9614634  16.1853932
   1.4797848  41.0889949   9.0959406   1.6362467  41.0236752   9.9515398
   1.8198441  41.8638502   8.8838086   1.5531083  41.1939147   9.1914000
   8.0176993  40.4647833   7.9652769   8.5592538  39.9618214   8.4291390
   8.3323552  40.4113027   7.1542255   8.1441390  40.3827254   7.9136581
  11.8894100  44.6750480  25.0779682  12.7028966  44.4035629  25.2384814
  11.7289067  44.3758020  24.2739877  11.9864049  44.5905406  24.9825087
   9.1666262  35.3584137  18.0175070   9.3808232  34.7195051  17.4638424
   8.5500161  35.8029961  17.5882932   9.1071591  35.3294281  17.8725501
  10.5770930  48.2802886   9.4629291  10.1850722  47.9769601   8.7452157
  10.7324002  49.1171975   9.2734244  10.5424520  48.3586722   9.3285788
  11.3305350  36.9673202  18.9558377  10.5182032  36.6599093  19.0371550
  11.7895285  36.4872203  19.5201089  11.2785735  36.8509695  19.0512971
  10.7410605  44.8452874   9.4035321  10.3825260  45.0167517  10.1799354
  10.2549316  45.3066080   8.8463320  10.6169302  44.9391845   9.4360590
   8.5580991  28.4684073  13.0062413   7.6874549  28.4422794  12.9595722
   8.8121332  28.2961265  12.1888258   8.4674551  28.4394217  12.8782549
   8.4258858  38.3733274  23.7387079   8.8958489  38.9975390  24.1254953
   8.4720738  37.7050249  24.2980294   8.5026734  38.3667954  23.8787151
   5.5830131  30.4790301  14.4635883   5.0668620  29.7870493  14.5887462
   5.0224060  31.1461078  14.4098482   5.4236645  30.4753559  14.4741949
   7.6522365  31.0183261  16.2928736   7.2654118  31.0432293  17.0742265
   7.1655302  30.4524940  15.8403252   7.5234874  30.9379012  16.3416639
  11.9015344  45.7356770  20.3502522  12.5395065  45.2416966  20.0164978
  11.2589436  45.6634171  19.7654749  11.9009571  45.6515779  20.2144877
  13.6272344  37.5845916  14.9168438  13.1999952  37.4972265  14.1616537
  12.9898397  37.6923692  15.5023282  13.4701952  37.5878576  14.8913879
   7.3179507  27.9050247  18.5838995   7.9472625  28.4410547  18.3060066
   7.4865369  27.8127606  19.4352561   7.4357301  27.9711609  18.6687524
   7.1193421  32.6921442  20.8565407   7.9466851  32.4206590  20.9124021
   7.1401267  33.4882283  21.2129225   7.2446272  32.7701196  20.9180590
  11.9569601  46.4276579  16.9907879  12.7461979  46.0765643  17.1109960
  12.1313199  47.2412967  16.7284513  12.0989883  46.4962436  16.9695747
   1.6962911  39.8385304  14.0435668   0.8550918  39.7389178  14.2514562
   1.9052919  40.6080785  14.3949988   1.6027604  39.9377348  14.1262983
  10.8103425  30.4386135  11.5524297  11.0153018  30.3708443  12.3981294
  10.4829849  31.2444957  11.4845475  10.7918673  30.5472076  11.6683952
   5.5079576  37.7666704  13.2933265   5.2042714  37.2122692  13.8943673
   4.8058997  37.9458913  12.8061299   5.3595786  37.7111486  13.3102971
   3.5697927  44.9816424  18.0005363   3.4618282  44.9918486  18.8667421
   3.7793709  45.8071205  17.8110317   3.5848038  45.1057499  18.1009455
  14.0637113  30.9917900  11.0327063  13.4511426  31.4788302  11.4180795
  14.1601288  30.3161390  11.5764714  13.9875010  30.9636208  11.1705921
   1.5871719  42.2329067  15.4627301   0.9959652  42.8738565  15.4330316
   2.3492743  42.6566684  15.4358600   1.6119980  42.3904905  15.4542448
   1.9832342  33.3931064  16.1295318   2.4433824  33.4669994  16.8670442
   2.0288449  34.1912318  15.7795140   2.0582897  33.5225211  16.1868075
   3.6315692  34.0597759  20.6967345   3.2401257  33.4131106  21.1323123
   3.8001554  34.6509195  21.3161601   3.5986602  34.0512027  20.8530051
  17.7062141  42.0634836  16.4604579  17.7645264  42.5121485  17.2064555
  17.0728608  42.4733649  16.0234659  17.6213436  42.1908571  16.5057127
  11.3461235  47.6838378  12.8959325  11.1480924  48.1729193  12.2015536
  10.7248946  47.8879620  13.4743458  11.2248800  47.7854916  12.8782548
   5.4069214  39.4523275   7.2369569   6.1511259  39.8397551   7.4752519
   5.5529910  38.6080700   7.4010057   5.5379799  39.3853748   7.2963539
   7.3248789  31.2473534  12.2701431   6.4784834  31.4196342  12.1442781
   7.3219922  30.4422878  12.6067259   7.1995939  31.1534563  12.3012558
   8.3947090  35.0248748  13.1363489   7.9207044  34.4990510  13.6468800
   8.7665225  34.4778221  12.5678350   8.3796979  34.8664745  13.1278636
  14.6583820  40.0851124  14.5470269  14.4182043  39.2457539  14.5512696
  15.1375827  40.1651291  15.2711043  14.6936004  39.9732524  14.6545071
  16.6589007  36.8652581  12.4999528  16.4198777  36.8248415  11.6620313
  16.8222908  37.7123733  12.6265249  16.6479311  36.9844666  12.3953010
  13.2635037  41.2502530  18.4304573  13.9869236  40.7975057  18.2515593
  12.9985000  41.5307196  17.6476901  13.3316311  41.2253499  18.2883289
   2.1321906  35.8462704  15.1657453   1.5074976  35.8581096  14.5583405
   1.7967501  36.3222879  15.8148693   1.9907398  35.9181221  15.1714021
   9.8767672  44.4888866   5.3298899  10.6001871  44.9546979   5.1863473
   9.4368263  44.5562476   4.5796496   9.9183364  44.5672703   5.1983681
   9.0453827  41.3486409  16.5799589   8.4310820  40.8044459  16.8748224
   9.5621112  40.8350645  16.1005405   9.0309489  41.1922818  16.5523817
   8.2850124  42.4190679  14.3143887   7.8577732  41.7940397  13.8809323
   8.2775068  42.1365601  15.1402894   8.2209265  42.2843459  14.3723715
   1.4012651  37.4555852  17.3832321   1.5606138  36.6999176  17.7884043
   1.2205545  38.0046791  18.0373059   1.3978010  37.4249666  17.5395027
   9.3432954  29.6217087  17.9383111   8.8473515  29.8180762  17.2474677
  10.1002016  30.0209756  17.7671912   9.3819779  29.7094821  17.8103247
   6.6135834  33.2959433  14.5286421   6.6378321  32.7619546  13.8399201
   6.8647307  32.7876742  15.1912012   6.6545752  33.1420337  14.5251066
   2.8937156  32.0230252  13.9092165   2.9335528  32.5239458  14.6226873
   2.0686821  32.1140645  13.6398089   2.7776682  32.1112068  13.9742704
   5.0766769  41.5890992  22.0112460   4.2262399  41.7262706  22.1470105
   5.2394897  40.8554770  22.4560162   4.9750632  41.5005093  22.0968059
   4.3151519  38.5390761  16.2066064   3.4843449  38.7064579  16.0001313
   4.2603036  38.1626712  16.9914950   4.1840934  38.5080493  16.2914593
   2.1235303  32.0299654  21.8422475   2.7488006  31.4861787  22.1151907
   1.6685782  31.5494572  21.2730266   2.1483563  31.8789136  21.7984069
  15.6970351  40.2128941  16.9335123  16.2888192  40.8526192  16.9653321
  16.1329346  39.5151978  17.2227190  15.8488782  40.2047292  16.9815956
   7.5263741  44.6346314  17.5593017   7.0188832  45.1882161  18.0033648
   7.2290387  44.6954604  16.7411792   7.4068626  44.7252625  17.5041474
   9.6925923  32.9999633  16.4017680  10.1180995  32.5472160  15.7901206
   9.0782916  32.4459704  16.6782468   9.6654569  32.8513610  16.3522705
  12.7219493  37.4274160   9.2338266  12.0510683  37.9703862   9.1051331
  13.4159243  37.8969015   8.9919960  12.7248360  37.5772431   9.1793793
   6.7706226  49.5670872  14.4650024   6.5471881  48.8089701  14.8334050
   6.2816070  49.5968893  13.7430464   6.6649675  49.4593096  14.4126765
  12.8847620  33.8830044  12.1428639  13.2375230  33.4559766  12.8174438
  12.0262422  33.7980887  12.2729715  12.8097065  33.8074784  12.2623649
   1.5831305  36.5137563  10.2011485   0.8643294  36.9301696  10.4684349
   1.9543667  37.0791802   9.6503124   1.5323237  36.6586845  10.1594292
  10.8830886  37.1465412  16.0913481  10.8628813  36.9648707  16.9448260
  10.9310087  38.0177431  16.0673065  10.8865527  37.2481950  16.2136776
   8.8277216  43.7352604  22.0161958   8.7873071  43.0902281  21.4307114
   9.6400534  43.6789222  22.3287370   8.9420369  43.6311571  21.9758907
   5.4184683  49.7871330  11.9187109   5.0045082  49.1245460  11.5290950
   6.1032058  49.9349189  11.3982803   5.4583055  49.7111988  11.7843606
   8.7849977  48.9461415  12.6710725   8.3866261  49.0563686  11.9031545
   8.1701197  49.1543482  13.2537285   8.6348867  48.9934983  12.6442025
  14.3171680  29.0048455  13.0712951  13.8102545  28.2977595  13.0034129
  15.1139114  28.6741644  13.2014028  14.3598919  28.8521607  13.0811946
  10.2335696  35.5115068   8.9686615  10.0049389  35.5347769   8.1264973
  10.4933772  34.6872535   9.0881626  10.2381884  35.3931148   8.8611813
   4.5154925  37.3649541  18.5711715   4.0033828  36.7570724  18.9296747
   4.3434421  38.0806133  19.0385691   4.4144562  37.3812840  18.6927939
   3.2880459  34.0491614  10.2640811   3.7637825  34.4108694   9.6290992
   2.7869058  34.7048082  10.5440954   3.2845818  34.1985803  10.2117552
  16.5191820  43.5213382   6.0553816  16.9025426  44.2704738   6.2851913
  15.7235933  43.7679202   5.7965805  16.4585602  43.6683076   6.0511389
   8.3923995  35.2873785  21.0113971   8.9495425  35.0587595  20.3792436
   8.0685060  36.0479451  20.7349183   8.4270405  35.3657622  20.8770468
   6.1107112  38.3741439  21.9765978   6.8618439  38.6893115  22.2905532
   6.3029689  38.1720610  21.1499900   6.2498526  38.3908820  21.9009374
  12.9592402  34.5015005   9.2189773  12.9586629  34.3463662  10.0774050
  12.7548582  35.3477992   9.1631159  12.9292180  34.6035626   9.3377713
  10.6833254  39.1812507  12.8725980  11.1786920  38.4635502  12.8330001
   9.8733030  38.8783304  12.7580467  10.6377148  39.0310153  12.8499706
  12.7485073  41.9316194  15.5603109  13.1740145  41.4090616  15.0073534
  12.3841993  42.5297032  15.0391732  12.7571676  41.9426421  15.4012119
   2.3839153  50.2280412  14.3200455   2.6985712  51.0416800  14.3278236
   2.7932566  49.8430630  14.9882614   2.4907251  50.2909114  14.4204546
   9.3363673  45.6450459  11.8904267   9.8074851  46.3590721  12.0594252
   9.6723851  45.0449209  12.4264136   9.4558788  45.6621923  11.9936642
  11.4240657  47.2551772  24.0696339  11.5337623  46.4660332  24.4253086
  11.7531554  47.1657708  23.2670677  11.4893063  47.1257625  24.0038729
   6.2533168  30.4177929  18.8462361   6.3861073  29.6208923  19.1743337
   6.6378320  30.9444332  19.4260637   6.3289496  30.3777846  18.9805864
   9.9737619  45.4368393  18.6531959   9.4258565  44.8126276  18.3852024
  10.4350648  45.6262665  17.9376039   9.9604828  45.3727443  18.5082390
   9.3265523  27.3408255  15.4443455   8.5211486  27.2305985  15.7611293
   9.1972258  27.4420711  14.5873320   9.1885656  27.3391925  15.3651495
  12.7831483  33.5053747  16.0383151  12.1994472  34.0062954  15.6260719
  13.1035777  32.9983303  15.4047475  12.7444659  33.5045582  15.8841659
   3.9121614  30.4137104  17.0940255   4.4566027  30.0728231  17.6844597
   3.9658550  31.2722566  17.2361540   4.0010734  30.4892364  17.2022128
   9.5395945  46.4419465  15.1841300  10.3594319  46.2982431  15.4457596
   9.2590023  47.0665664  15.7257738   9.6192689  46.5129817  15.3029240
  26.0109596  54.0984317   8.1484177  25.9803600  54.9528954   8.3202446
  26.6090944  53.7979610   8.7070320  26.0946754  54.1800814   8.2558979
  19.2109280  53.1859968  12.9037107  18.3547176  53.3468466  12.9546224
  19.2576934  52.3152032  12.9242168  19.0908392  53.0810770  12.9143173
  22.5202997  59.4546494  22.5097563  23.2269764  58.9598524  22.6384498
  22.7090932  59.8955575  21.7800221  22.6530903  59.4464844  22.4206609
  18.5879671  65.0962324  10.0370997  18.9719051  65.6649223   9.4975773
  18.5238813  64.3711834   9.5576813  18.6353099  65.0737788   9.8864860
  22.0561101  55.2452012  15.5468759  22.6017062  55.9237099  15.6062728
  21.9977978  55.1039473  14.6870340  22.1277016  55.3244014  15.4280819
  15.1735176  62.7341078  10.9337111  15.2745539  61.9241432  11.2434239
  14.5776922  62.6398025  10.3036790  15.1007715  62.6006106  10.8863350
  23.8326170  56.6736619   6.4202487  23.7165696  57.4244305   6.8494625
  24.6282057  56.4160572   6.6698574  23.9330760  56.7471466   6.5206578
  15.0135916  67.6518667  12.3351967  15.6573371  68.0931831  12.7248126
  15.3392171  66.8472093  12.2482226  15.1567745  67.5983862  12.3797445
  10.6690308  50.9247095  13.4573753  10.0495340  50.3339743  13.2883767
  10.5674172  51.5158531  12.8238076  10.5627984  50.9251178  13.3378742
  17.7658204  52.6646637   7.7906216  18.4638368  52.8434765   8.2827679
  18.0810536  52.1416976   7.1676605  17.9153541  52.6140409   7.7708226
  10.3959441  54.4699377  15.7017322  10.2718138  55.0561822  16.3367140
  11.0477726  53.9759573  16.0029597  10.4733090  54.4838181  15.8403251
  17.9546139  59.0517082   7.7786007  18.3939775  58.4434183   8.2240780
  17.8050802  58.6724455   7.0071472  17.9967605  58.9055553   7.7305175
  15.4217782  57.6461094  14.9804833  16.0666785  57.1533537  14.6615781
  15.6619559  57.7885881  15.8070911  15.5528367  57.5938536  15.0554366
  17.9603873  60.4916000  14.6311725  18.2427116  59.6967406  14.4098481
  18.6890034  60.9696587  14.6516786  18.1093437  60.4450597  14.6014740
  21.5555476  57.4044263   4.7316776  21.4706771  58.2605230   4.8766345
  22.0439859  57.1288587   5.3998936  21.6144373  57.4901585   4.8518858
  23.1461475  44.0224557  10.1177101  22.8314916  44.7128035  10.5497523
  22.6288417  43.9669339   9.4162602  23.0225946  44.1159445  10.0774050
  22.4873909  54.0229058   6.2314512  21.9585380  54.2388691   6.8911818
  23.0098929  54.7165196   6.1515481  22.4862362  54.1572194   6.3170111
  27.9421962  59.5975362  11.6047556  27.1119665  59.8086006  11.7680973
  27.8931214  58.7712417  11.3289840  27.8128697  59.5064968  11.5884921
  16.0031699  62.4279216  14.4395465  15.4858641  62.0686631  13.8356774
  16.7006091  61.9041391  14.4501532  16.0297281  62.2976904  14.3525724
  19.6595291  62.8774030  20.4011639  19.7478637  62.6900171  21.2489849
  20.0885004  62.2311460  20.0016485  19.7357394  62.7537038  20.4683390
  17.2265751  62.1605190  19.3829301  16.6636586  61.7477800  19.9068962
  17.9886775  62.0858096  19.8022444  17.2560200  62.0882591  19.5222301
  18.8350731  54.1657926   3.5090900  19.0746735  54.3735910   2.6966243
  19.1566572  53.3615435   3.6179845  18.9187889  54.0772028   3.4051453
  14.1441021  46.0951322   7.3550438  14.8986989  46.4629639   7.1167488
  13.9668556  46.4690877   8.1229618  14.2295500  46.2049510   7.4335327
  12.7861743  64.1503211  11.9865931  13.4882322  63.6355200  12.0438687
  12.7059226  64.4777363  12.7912806  12.8785503  64.1217438  12.1138723
  27.4375920  52.2445763  15.3997977  26.6004341  52.3147950  15.6345572
  27.4064151  52.2470258  14.5272280  27.3094203  52.2555990  15.3057525
  13.8340649  54.3878798  21.1146346  14.0061153  54.2784693  21.9631627
  14.3710007  55.0333204  20.8777538  13.9385653  54.4670800  21.2051443
  12.4998086  48.5021641   4.0528551  12.3173659  48.7193522   3.2269544
  13.3623699  48.6160654   4.1087165  12.6002675  48.5511539   3.9383038
  12.1112518  60.3409563  11.4951539  12.9501417  60.5732496  11.5425300
  12.1424287  59.4713875  11.4258574  12.2394236  60.2466510  11.4916184
  12.7365221  60.7610439  15.7964844  13.2763446  60.6181570  16.4668217
  12.0535167  61.1607189  16.1648871  12.7157375  60.7990109  15.9499266
  18.1797805  45.5048052   7.0877575  18.9083966  45.3264007   6.6415731
  18.2692698  46.3466132   7.2984753  18.3004467  45.6031930   7.0531092
  22.1606106  56.4401439  10.9909869  22.9163621  56.8732954  11.0298778
  22.2668430  55.7906209  11.5644505  22.2876276  56.4078923  11.0807894
  25.1986277  60.2674716  11.7412272  24.7621509  60.2711459  12.4971243
  24.8649192  60.9480215  11.3091849  25.0848897  60.3687172  11.7893104
  19.7715351  62.3083049  23.0655422  20.5555767  62.4213897  23.4311164
  19.5711945  61.4824186  23.2614108  19.8581376  62.2029769  23.1489808
   8.1402366  56.9810729  15.9499266   7.8740781  56.1649846  16.1090256
   8.1540930  57.0263885  15.0794781   8.1027088  56.8667634  15.8452748
  25.1183760  47.3088544  13.9841700  25.7609668  47.3786649  14.5703615
  25.3706781  46.6417767  13.4821242  25.2505892  47.2214893  13.9968979
  12.8900972  50.5189108  18.5966274  12.1972769  50.0486087  18.8427005
  13.5061300  50.2927412  19.1707981  12.8785502  50.4156239  18.7175426
  19.9285744  64.2193151  16.7121878  19.1300990  63.9792651  16.9695746
  20.3771755  64.2707544  17.4588925  19.8760355  64.1915542  16.8606802
  28.3330623  56.9855636  10.6331909  28.9947057  56.4246305  10.5327817
  27.6922035  56.4907667  10.9584600  28.3359491  56.8292045  10.6664249
   8.5495780  57.7669509  13.2311010   8.3671353  57.7416395  12.3783302
   9.2845449  58.2368447  13.2699919   8.6309844  57.8330871  13.1108929
  24.6195454  58.0021019  10.3743898  24.8551043  58.1466218   9.5470748
  24.7685018  58.7663427  10.7675411  24.6761257  58.1360073  10.3107502
  11.6141531  54.4854512  19.7393119  12.3381504  54.4707542  20.2258014
  11.7157668  55.1949867  19.2415087  11.7359740  54.5879215  19.7371906
  26.4485911  56.8422685   8.2113502  26.7794128  57.3750325   7.6053596
  27.0218999  56.8961572   8.8675453  26.5819590  56.9292254   8.2191283
  18.9886481  57.9653596  24.6042066  18.1959462  58.2797108  24.7894686
  19.1035408  58.1805065  23.7662851  18.8881891  58.0437433  24.5080401
  21.6617800  54.6887587   8.8937082  21.7564654  55.4276881   9.3476707
  21.0376643  54.2605063   9.3271646  21.5826830  54.7348908   9.0245229
  19.9170274  57.8673800  19.5427363  20.4909135  57.2301044  19.6975927
  19.8385077  57.8677882  18.6737020  19.9903508  57.7738911  19.4373773
   8.5166690  54.6463009  13.3810077   9.0940193  54.5099460  14.0202322
   7.8180752  54.1898794  13.6355661   8.4987711  54.5585276  13.5132366
  21.9140821  56.5336327   2.1274034  21.8320984  56.6038514   2.9929021
  22.5520542  57.0966071   1.9357774  21.9960658  56.6275298   2.2263983
  15.2733992  56.2997065  11.5948560  15.0153237  55.4668800  11.5679859
  15.3282475  56.5254678  10.7541060  15.2433770  56.2094836  11.4668697
  20.3535042  48.4025516  11.6952653  19.6491369  47.9134701  11.8536572
  20.4020017  48.4147990  10.8241097  20.2565094  48.3315164  11.5891992
  14.2468704  53.8534828  12.0813455  13.6718296  54.0126996  12.7177416
  13.8704381  53.2170237  11.6181905  14.1071517  53.7832641  12.1068013
  17.9141993  52.3258177  16.9405833  17.5256426  51.9012395  16.2858024
  17.2496691  52.5740327  17.4482860  17.7588921  52.2996898  16.9193701
  27.5565262  52.0833182   9.7153663  27.3001827  51.2713123   9.5251546
  28.3994576  52.0910749   9.4883851  27.6431288  51.9645179   9.6538480
  21.7368355  46.0232806  14.4529817  22.1178866  45.3410977  14.8397692
  20.9331639  45.7342408  14.2705482  21.6744816  45.8799854  14.4833873
  19.0180931  56.5556781   5.1382640  19.8321570  56.8471674   5.0265412
  18.9540073  55.9016644   4.5640933  19.1283670  56.5021976   5.0371477
  25.2390421  59.2382778  19.5512216  25.0029059  58.4070842  19.4324276
  25.8833650  59.1868385  20.1367060  25.2985092  59.1080466  19.6198109
  14.8888840  60.0278299  10.2654952  15.5262786  59.7890046  10.8106746
  15.3143911  60.2315458   9.5308113  15.0465006  60.0229309  10.2372110
   9.5801482  62.2666635  14.1489256   9.6205627  62.5381486  13.3209036
  10.1396006  62.7908543  14.5647044   9.6684828  62.3842390  14.0881144
  15.6960195  48.5287004  24.3192426  15.3813636  49.2986567  24.0561989
  15.3750128  47.9657260  23.7344653  15.6019114  48.5597273  24.1933776
  26.2626842  59.0227226  15.6140510  25.9572659  59.7555283  15.9753826
  25.5433058  58.6165156  15.3333296  26.1114184  59.0708959  15.6253647
  17.2710312  60.5050722  11.9448738  17.3449320  60.3425893  12.7990588
  18.0879818  60.6940911  11.7009220  17.4026670  60.5087464  12.0346764
  31.9628634  55.6620227  14.9408855  31.8953135  55.6816186  14.0711441
  31.9484297  56.5050554  15.1664525  31.9507391  55.7893962  14.8461331
  13.2492092  46.9177525   9.9338622  12.3814517  46.9900125   9.9996231
  13.5367296  47.7199604  10.1226597  13.1631840  47.0471672   9.9713389
  22.3724981  47.0655385  18.2649944  23.1178573  46.8765195  17.8513369
  21.9562285  47.5913623  17.7063800  22.4209955  47.1157530  18.1214517
  29.7487252  54.4364613  13.2155449  30.2995173  53.8032682  13.4552541
  29.7331367  54.9680006  13.9070953  29.8272448  54.4213561  13.3534307
  16.4009642  58.2703210  17.7615342  15.9021336  58.9818978  17.8400231
  17.2109867  58.5903877  17.7233505  16.4465749  58.4230059  17.7671911
  12.6637760  57.5326164  12.0078063  12.3751009  56.9063635  12.5423791
  13.5321108  57.4746451  12.0742744  12.7498012  57.4313708  12.0969018
  23.4515658  52.6760947  12.3260045  23.1080424  51.9551282  12.6767295
  23.5508700  52.4674798  11.4838403  23.4157701  52.5385150  12.2531725
  23.9128687  59.1386651   7.8684033  24.4786720  59.7979861   7.7842576
  23.2656590  59.4836349   8.3400435  23.9007443  59.2868592   7.9256790
  15.3276700  51.1284255  23.0577641  14.5176476  51.4342035  22.9467483
  15.8051387  51.8489837  23.1730225  15.2780179  51.2798856  23.0584712
  14.1868260  60.3429976  13.3060544  13.6649014  60.4830268  13.9912408
  14.5742280  59.5840640  13.4962661  14.1671961  60.2515500  13.4361620
  11.1759444  50.3935785   7.3755498  10.8884240  50.0237055   6.6387446
  11.8629912  50.8630640   7.1139203  11.2348341  50.4082754   7.2270574
  20.3835265  62.0825435   7.2921112  20.1421941  61.3493296   6.8848177
  20.5636598  62.6312292   6.6387446  20.3742889  62.0547826   7.1351335
  15.6134586  57.3733995   8.7042035  15.4177368  57.9808729   8.1102338
  15.8368931  56.6801939   8.2233709  15.6169227  57.3611520   8.5458116
  14.0113116  54.2588733   8.8222903  14.7335768  54.4229891   8.3626709
  13.5321108  54.9798398   8.7162243  14.0476846  54.3886962   8.7388517
  21.9706623  50.5952532  14.2019588  21.1317724  50.6213811  13.9657851
  22.0410990  51.2423267  14.7824935  21.8575017  50.6948657  14.2528705
  11.6620732  56.6646805  17.9277043  12.1741829  56.9431059  17.2785803
  11.3757075  57.4036099  18.2939856  11.6955595  56.8149159  17.8866921
  20.4175901  47.4937909   8.9347204  21.1202254  47.2945657   8.4567162
  20.1520090  46.7213851   9.2416047  20.4822534  47.3500875   8.9092646
  25.8464147  55.8020518  11.4880830  25.7598122  55.9575944  12.3415609
  25.3914627  56.4458594  11.1140235  25.7667404  55.9196274  11.5587937
   8.7487639  51.1716997   8.2240779   8.8503775  51.9743159   8.5521755
   9.5443525  50.9704333   7.9263860   8.8815544  51.2602896   8.2276135
  15.1804458  48.7573194  17.9878085  14.9887655  48.7728328  18.8377508
  16.0303054  48.9536868  17.9644739  15.2780180  48.7887545  18.1101379
   9.5651371  51.2864175  15.9661901   9.4236863  50.4348116  16.0906409
   9.8491934  51.3292836  15.1424107   9.5859217  51.1663925  15.8629525
  19.7189963  53.1231266  10.1106389  19.4724677  53.0427016  10.9443178
  20.0475086  52.3384733   9.9168917  19.7311207  52.9957531  10.2053912
  23.6138012  59.8314625  13.8993171  23.4752371  60.5295671  14.4041913
  22.8338010  59.6763281  13.5429352  23.4781239  59.9114792  13.9219445
  21.9516097  56.1311000  20.1515552  21.9464136  55.2590817  20.1557979
  22.6577091  56.3299169  19.6785008  22.0561101  56.0314874  20.0822588
  15.6786990  55.8587984  19.5229372  15.8230366  56.4389192  18.8872482
  16.0262639  56.2364281  20.2279227  15.7514452  56.0008688  19.5328367
  17.8506908  55.0578152  17.3054504  17.1030222  55.2509167  16.9002782
  18.0048433  54.2323372  17.0678625  17.7629335  54.9643264  17.2099910
  14.7514745  64.0490756  16.3890399  14.9004309  63.4893672  15.7363804
  15.5314747  64.1282758  16.7722918  14.8888839  63.9776321  16.3487348
  25.1091385  59.1892879   4.6609670  24.7298193  58.4030017   4.6538959
  24.4457630  59.7379736   4.5181314  24.9549860  59.1537703   4.6390467
  17.2768046  64.2205399  17.6674890  17.2011717  63.5514209  18.2225678
  17.2057905  64.9223187  18.1815556  17.2548653  64.2250306  17.8251738
  18.0908685  48.9528703  18.1949908  18.5481299  49.6852678  18.3222700
  18.1665014  48.5295168  18.9537164  18.1699655  48.9985941  18.3250984
  10.3341676  49.1994523  19.2839351   9.7983865  48.5874881  19.6000119
  10.3959441  49.7742659  19.9373018  10.2637309  49.1941451  19.4274778
  22.5636011  42.1318578  12.0643751  22.6819579  42.5895042  11.3311053
  22.3898186  41.3263840  11.7779968  22.5555182  42.0812351  11.9144684
  17.9338293  62.7406398   8.4998496  18.6988184  62.4716041   8.1781160
  17.8316383  62.2556408   9.2168559  18.0319788  62.6295962   8.5578324
  15.9691063  50.9430807  15.0391732  15.1787137  50.7622267  15.3609068
  16.3651686  50.1657760  15.0222026  15.9107939  50.8018268  15.0844280
  21.3534749  58.5773237  12.7651178  20.6779751  58.3458470  13.2664565
  21.3627125  57.9694420  12.1393283  21.2553254  58.4532163  12.7467330
  18.4828893  53.4191066  19.5215231  18.4188034  54.2801023  19.3935367
  18.6226081  53.1023059  18.7210782  18.4944363  53.4991233  19.3843444
  23.3551484  61.4338370   4.9961356  23.4371321  62.2405356   4.6722807
  23.8401226  61.4534329   5.7202129  23.4388641  61.5559032   5.0548254
  17.1647987  56.1123206  13.6631434  16.7410236  56.3127705  12.9270452
  16.9892842  55.2652054  13.7755733  17.0758867  56.0171987  13.5705124
  16.6659680  67.6273719  16.1252891  17.1555611  66.9284508  15.9428555
  16.0943913  67.3297589  16.7128948  16.6544210  67.4799942  16.1853932
  12.4530432  56.6075257   9.0959406  12.6095051  56.5422060   9.9515398
  12.7931025  57.3823810   8.8838086  12.5263667  56.7124455   9.1914000
  18.9909576  55.9833141   7.9652769  19.5325122  55.4803522   8.4291390
  19.3056135  55.9298335   7.1542255  19.1173974  55.9012562   7.9136581
  22.8626684  60.1935788  25.0779682  23.6761549  59.9220937  25.2384814
  22.7021650  59.8943328  24.2739877  22.9596632  60.1090714  24.9825087
  20.1398846  50.8769445  18.0175070  20.3540815  50.2380359  17.4638424
  19.5232745  51.3215269  17.5882932  20.0804175  50.8479589  17.8725501
  21.5503514  63.7988193   9.4629291  21.1583305  63.4954909   8.7452157
  21.7056586  64.6357283   9.2734244  21.5157104  63.8772030   9.3285788
   9.0264693  53.7910208   9.4120173   9.4063658  54.2094752   8.7480441
   8.4520058  54.3723663   9.7189017   8.9976018  53.9388066   9.3596914
  22.3037934  52.4858510  18.9558377  21.4914616  52.1784401  19.0371550
  22.7627868  52.0057510  19.5201089  22.2518319  52.3695003  19.0512971
  21.7143188  60.3638182   9.4035321  21.3557843  60.5352825  10.1799354
  21.2281899  60.8251388   8.8463320  21.5901885  60.4577153   9.4360590
  19.5313574  43.9869381  13.0062413  18.6607132  43.9608102  12.9595722
  19.7853916  43.8146573  12.1888258  19.4407135  43.9579524  12.8782549
  19.3991441  53.8918582  23.7387079  19.8691072  54.5160698  24.1254953
  19.4453321  53.2235557  24.2980294  19.4759317  53.8853262  23.8787151
  16.5562715  45.9975609  14.4635883  16.0401204  45.3055801  14.5887462
  15.9956644  46.6646386  14.4098482  16.3969228  45.9938867  14.4741949
  18.6254948  46.5368569  16.2928736  18.2386702  46.5617601  17.0742265
  18.1387886  45.9710248  15.8403252  18.4967457  46.4564320  16.3416639
  22.8747928  61.2542078  20.3502522  23.5127648  60.7602274  20.0164978
  22.2322019  61.1819479  19.7654749  22.8742154  61.1701087  20.2144877
  24.6004928  53.1031224  14.9168438  24.1732536  53.0157573  14.1616537
  23.9630981  53.2109000  15.5023282  24.4434535  53.1063884  14.8913879
  18.2912090  43.4235555  18.5838995  18.9205208  43.9595855  18.3060066
  18.4597953  43.3312914  19.4352561  18.4089885  43.4896917  18.6687524
  18.0926005  48.2106749  20.8565407  18.9199434  47.9391898  20.9124021
  18.1133851  49.0067591  21.2129225  18.2178855  48.2886504  20.9180590
  22.9302184  61.9461887  16.9907879  23.7194563  61.5950951  17.1109960
  23.1045782  62.7598275  16.7284513  23.0722466  62.0147744  16.9695747
  12.6695495  55.3570612  14.0435668  11.8283501  55.2574486  14.2514562
  12.8785503  56.1266093  14.3949988  12.5760187  55.4562656  14.1262983
  10.1471062  52.9790149  11.8720418   9.7527760  53.0533161  11.0970528
   9.5911179  53.3648096  12.4228780  10.0073874  53.0471924  11.8388078
  21.7836009  45.9571443  11.5524297  21.9885602  45.8893751  12.3981294
  21.4562433  46.7630264  11.4845475  21.7651256  46.0657384  11.6683952
  16.4812160  53.2852011  13.2933265  16.1775297  52.7308000  13.8943673
  15.7791580  53.4644221  12.8061299  16.3328370  53.2296794  13.3102971
  15.5378257  50.5952531   7.8577967  15.8137991  49.8771444   7.4455535
  16.1376926  51.1937451   7.6499073  15.6671521  50.5772902   7.7658728
  14.5430511  60.5001732  18.0005363  14.4350866  60.5103794  18.8667421
  14.7526292  61.3256513  17.8110317  14.5580622  60.6242807  18.1009455
  25.0369696  46.5103207  11.0327063  24.4244010  46.9973610  11.4180795
  25.1333871  45.8346698  11.5764714  24.9607594  46.4821516  11.1705921
  19.0388777  48.2666049   6.1324562  19.4932524  48.4376609   6.8572407
  19.5128823  47.6534159   5.7322338  19.1757097  48.2016934   6.1798324
  12.5604303  57.7514375  15.4627301  11.9692236  58.3923873  15.4330316
  13.3225326  58.1751992  15.4358600  12.5852563  57.9090213  15.4542448
  12.9564926  48.9116372  16.1295318  13.4166407  48.9855302  16.8670442
  13.0021032  49.7097626  15.7795140  13.0315481  49.0410519  16.1868075
  14.6048275  49.5783067  20.6967345  14.2133840  48.9316414  21.1323123
  14.7734138  50.1694502  21.3161601  14.5719186  49.5697335  20.8530051
  28.6794724  57.5820144  16.4604579  28.7377848  58.0306793  17.2064555
  28.0461192  57.9918957  16.0234659  28.5946019  57.7093879  16.5057127
  22.3193819  63.2023686  12.8959325  22.1213508  63.6914501  12.2015536
  21.6981530  63.4064928  13.4743458  22.1981383  63.3040224  12.8782548
  16.3801797  54.9708583   7.2369569  17.1243842  55.3582859   7.4752519
  16.5262493  54.1266008   7.4010057  16.5112382  54.9039056   7.2963539
  18.2981373  46.7658842  12.2701431  17.4517418  46.9381650  12.1442781
  18.2952505  45.9608186  12.6067259  18.1728523  46.6719871  12.3012558
  19.3679673  50.5434056  13.1363489  18.8939627  50.0175818  13.6468800
  19.7397809  49.9963529  12.5678350  19.3529562  50.3850053  13.1278636
   9.7452703  52.5405563  18.5047034  10.6078316  52.4401272  18.4184364
   9.4144486  51.9600272  17.9432607   9.8237900  52.4397190  18.4092440
  25.6316404  55.6036432  14.5470269  25.3914627  54.7642847  14.5512696
  26.1108411  55.6836599  15.2711043  25.6668587  55.4917832  14.6545071
  21.2963173  51.4370611   6.1989242  20.7686191  51.5199355   5.5094951
  21.7558881  52.1788482   6.1953887  21.2865023  51.5591273   6.0963938
  27.6321591  52.3837889  12.4999528  27.3931361  52.3433723  11.6620313
  27.7955492  53.2309041  12.6265249  27.6211894  52.5029974  12.3953010
  24.2367621  56.7687838  18.4304573  24.9601820  56.3160365  18.2515593
  23.9717583  57.0492504  17.6476901  24.3048894  56.7438807  18.2883289
  13.1054489  51.3648012  15.1657453  12.4807559  51.3766404  14.5583405
  12.7700084  51.8408187  15.8148693  12.9639981  51.4366529  15.1714021
   9.8180165  59.4248472  16.6061217   9.2880089  58.7340911  16.6556192
  10.0905258  59.4158657  15.7773925   9.7804887  59.3215604  16.4908633
  20.8500255  60.0074174   5.3298899  21.5734454  60.4732287   5.1863473
  20.4100846  60.0747784   4.5796496  20.8915948  60.0858011   5.1983681
  20.0186410  56.8671717  16.5799589  19.4043403  56.3229767  16.8748224
  20.5353695  56.3535953  16.1005405  20.0042073  56.7108126  16.5523817
  19.2582708  57.9375987  14.3143887  18.8310316  57.3125705  13.8809323
  19.2507652  57.6550909  15.1402894  19.1941849  57.8028767  14.3723715
  12.3745235  52.9741160  17.3832321  12.5338721  52.2184484  17.7884043
  12.1938128  53.5232099  18.0373059  12.3710594  52.9434974  17.5395027
  20.3165538  45.1402395  17.9383111  19.8206099  45.3366070  17.2474677
  21.0734600  45.5395064  17.7671912  20.3552362  45.2280129  17.8103247
  17.5868417  48.8144741  14.5286421  17.6110904  48.2804854  13.8399201
  17.8379891  48.3062050  15.1912012  17.6278336  48.6605645  14.5251066
  13.8669739  47.5415560  13.9092165  13.9068111  48.0424766  14.6226873
  13.0419404  47.6325953  13.6398089  13.7509265  47.6297376  13.9742704
  16.0499352  57.1076299  22.0112460  15.1994983  57.2448014  22.1470105
  16.2127480  56.3740078  22.4560162  15.9483216  57.0190401  22.0968059
  15.2884103  54.0576069  16.2066064  14.4576033  54.2249887  16.0001313
  15.2335620  53.6812020  16.9914950  15.1573518  54.0265801  16.2914593
  13.0967886  47.5484962  21.8422475  13.7220590  47.0047095  22.1151907
  12.6418366  47.0679880  21.2730266  13.1216147  47.3974444  21.7984069
  13.6620147  52.3331661   6.7356182  13.8023108  52.8304125   7.4384824
  14.1602679  51.6317955   6.8770396  13.7561228  52.3033640   6.8607761
  26.6702935  55.7314249  16.9335123  27.2620775  56.3711500  16.9653321
  27.1061929  55.0337286  17.2227190  26.8221366  55.7232600  16.9815956
  15.2699352  49.1312747   4.0394201  15.5915193  48.6515830   3.3853463
  15.5326296  49.9412393   3.8485013  15.3565377  49.1802645   3.9149693
  18.4996325  60.1531622  17.5593017  17.9921416  60.7067468  18.0033648
  18.2022971  60.2139912  16.7411792  18.3801210  60.2437933  17.5041474
  20.6658507  48.5184941  16.4017680  21.0913578  48.0657468  15.7901206
  20.0515500  47.9645012  16.6782468  20.6387152  48.3698917  16.3522705
  19.1052730  44.9900041   9.8108257  18.4621048  44.8397687  10.3793396
  18.7652137  44.7442386   9.0457362  18.9597807  44.9312164   9.7811272
  23.6952076  52.9459468   9.2338266  23.0243266  53.4889170   9.1051331
  24.3891826  53.4154323   8.9919960  23.6980944  53.0957739   9.1793793
  17.7438810  65.0856180  14.4650024  17.5204464  64.3275009  14.8334050
  17.2548653  65.1154201  13.7430464  17.6382259  64.9778404  14.4126765
  23.8580204  49.4015351  12.1428639  24.2107814  48.9745074  12.8174438
  22.9995005  49.3166195  12.2729715  23.7829648  49.3260092  12.2623649
  12.5563889  52.0322871  10.2011485  11.8375878  52.4487004  10.4684349
  12.9276251  52.5977110   9.6503124  12.5055820  52.1772153  10.1594292
  21.8563470  52.6650720  16.0913481  21.8361397  52.4834015  16.9448260
  21.9042670  53.5362739  16.0673065  21.8598111  52.7667258  16.2136776
  19.8009799  59.2537912  22.0161958  19.7605654  58.6087589  21.4307114
  20.6133118  59.1974529  22.3287370  19.9152953  59.1496879  21.9758907
  16.3917267  65.3056638  11.9187109  15.9777666  64.6430768  11.5290950
  17.0764641  65.4534497  11.3982803  16.4315639  65.2297296  11.7843606
  19.7582561  64.4646723  12.6710725  19.3598844  64.5748994  11.9031545
  19.1433781  64.6728790  13.2537285  19.6081450  64.5120291  12.6442025
  18.3310463  51.0720871   5.5384865  17.7375302  51.3937868   4.9869432
  18.3685741  50.2261967   5.3305971  18.2484852  50.9945199   5.4267636
  25.2904264  44.5233763  13.0712951  24.7835128  43.8162903  13.0034129
  26.0871698  44.1926952  13.2014028  25.3331503  44.3706915  13.0811946
  21.2068280  51.0300376   8.9686615  20.9781973  51.0533077   8.1264973
  21.4666356  50.2057843   9.0881626  21.2114468  50.9116456   8.8611813
  15.4887508  52.8834849  18.5711715  14.9766411  52.2756032  18.9296747
  15.3167004  53.5991441  19.0385691  15.3877145  52.8998148  18.6927939
  10.3353223  51.3272424  21.2214077  10.1655813  51.9873799  20.6762284
   9.8919173  51.5378985  21.9426566  10.2452556  51.4558406  21.2475707
  14.2613042  49.5676922  10.2640811  14.7370408  49.9294002   9.6290992
  13.7601642  50.2233389  10.5440954  14.2578401  49.7171111  10.2117552
  27.4924404  59.0398690   6.0553816  27.8758009  59.7890046   6.2851913
  26.6968517  59.2864510   5.7965805  27.4318186  59.1868384   6.0511389
  19.3656578  50.8059093  21.0113971  19.9228009  50.5772903  20.3792436
  19.0417643  51.5664759  20.7349183  19.4002989  50.8842930  20.8770468
   7.2355287  54.2319290  16.4802567   6.6882007  53.5619935  16.5983435
   8.0247665  53.8649137  16.5446034   7.2707471  54.0784276  16.5071268
  17.0839696  53.8926747  21.9765978  17.8351023  54.2078423  22.2905532
  17.2762272  53.6905917  21.1499900  17.2231110  53.9094128  21.9009374
  16.3039695  51.7118122   3.6314195  16.6838660  51.7297751   2.8465309
  15.5632291  52.1572111   3.5105042  16.2508533  51.7799896   3.4977763
  23.9324986  50.0200313   9.2189773  23.9319212  49.8648969  10.0774050
  23.7281166  50.8663300   9.1631159  23.9024764  50.1220934   9.3377713
   5.9942257  53.4440097  13.6348590   5.8164018  52.9916706  14.3603506
   5.7061279  54.2466259  13.8187068   5.9255210  53.4962655  13.7692093
  21.6565838  54.6997815  12.8725980  22.1519503  53.9820810  12.8330001
  20.8465614  54.3968612  12.7580467  21.6109731  54.5495461  12.8499706
  23.7217657  57.4501502  15.5603109  24.1472728  56.9275924  15.0073534
  23.3574577  58.0482340  15.0391732  23.7304259  57.4611729  15.4012119
  13.3571737  65.7465720  14.3200455  13.6718296  66.5602108  14.3278236
  13.7665150  65.3615938  14.9882614  13.4639835  65.8094422  14.4204546
  20.3096256  61.1635766  11.8904267  20.7807434  61.8776029  12.0594252
  20.6456435  60.5634517  12.4264136  20.4291371  61.1807231  11.9936642
  22.3973241  62.7737080  24.0696339  22.5070206  61.9845640  24.4253086
  22.7264137  62.6843016  23.2670677  22.4625647  62.6442933  24.0038729
  17.2265751  45.9363237  18.8462361  17.3593657  45.1394230  19.1743337
  17.6110904  46.4629640  19.4260637  17.3022080  45.8963154  18.9805864
  20.9470203  60.9553701  18.6531959  20.3991148  60.3311584  18.3852024
  21.4083231  61.1447973  17.9376039  20.9337412  60.8912751  18.5082390
  20.2998106  42.8593563  15.4443455  19.4944070  42.7491293  15.7611293
  20.1704842  42.9606019  14.5873320  20.1618239  42.8577233  15.3651495
  23.7564067  49.0239055  16.0383151  23.1727056  49.5248262  15.6260719
  24.0768361  48.5168611  15.4047475  23.7177242  49.0230890  15.8841659
  16.2958866  47.9379650   6.3141826  17.1174560  48.1077963   6.0723521
  15.8328517  48.0926911   5.5908124  16.3490028  47.9861383   6.1713471
  14.8854198  45.9322412  17.0940255  15.4298611  45.5913539  17.6844597
  14.9391134  46.7907874  17.2361540  14.9743317  46.0077671  17.2022128
  10.6984757  59.6938828  13.9679063  11.3029614  59.6534662  13.3392884
  10.4912069  60.5409980  13.9983119  10.7573654  59.8126831  13.8795179
  20.5128529  61.9604773  15.1841300  21.3326903  61.8167739  15.4457596
  20.2322606  62.5850972  15.7257738  20.5925272  62.0315125  15.3029240
  36.9842179  69.6169625   8.1484177  36.9536184  70.4714262   8.3202446
  37.5823528  69.3164918   8.7070320  37.0679337  69.6986122   8.2558979
  30.1841864  68.7045276  12.9037107  29.3279760  68.8653774  12.9546224
  30.2309518  67.8337340  12.9242168  30.0640975  68.5996078  12.9143173
  33.4935581  74.9731802  22.5097563  34.2002348  74.4783832  22.6384498
  33.6823516  75.4140883  21.7800221  33.6263486  74.9650152  22.4206609
  33.0293685  70.7637320  15.5468759  33.5749645  71.4422407  15.6062728
  32.9710561  70.6224781  14.6870340  33.1009599  70.8429322  15.4280819
  21.6422892  66.4432403  13.4573753  21.0227923  65.8525050  13.2883767
  21.5406755  67.0343838  12.8238076  21.5360567  66.4436486  13.3378742
  28.7390787  68.1831945   7.7906216  29.4370952  68.3620073   8.2827679
  29.0543120  67.6602284   7.1676605  28.8886124  68.1325717   7.7708226
  21.3692025  69.9884685  15.7017322  21.2450722  70.5747130  16.3367140
  22.0210309  69.4944881  16.0029597  21.4465674  70.0023489  15.8403251
  26.3950366  73.1646402  14.9804833  27.0399368  72.6718845  14.6615781
  26.6352143  73.3071188  15.8070911  26.5260951  73.1123844  15.0554366
  28.9336457  76.0101308  14.6311725  29.2159700  75.2152713  14.4098481
  29.6622617  76.4881895  14.6516786  29.0826021  75.9635905  14.6014740
  26.9117651  63.5524342  11.8727490  26.5820981  64.0035485  11.2031189
  26.2362653  63.4740505  12.4200497  26.7628087  63.6075477  11.8550714
  34.1194059  59.5409865  10.1177101  33.8047500  60.2313343  10.5497523
  33.6021000  59.4854647   9.4162602  33.9958529  59.6344753  10.0774050
  25.1173605  61.6136630   7.3550438  25.8719573  61.9814947   7.1167488
  24.9401140  61.9876184   8.1229618  25.2028083  61.7234818   7.4335327
  38.4108504  67.7631071  15.3997977  37.5736925  67.8333258  15.6345572
  38.3796735  67.7655565  14.5272280  38.2826786  67.7741298  15.3057525
  24.8073233  69.9064106  21.1146346  24.9793736  69.7970001  21.9631627
  25.3442590  70.5518512  20.8777538  24.9118237  69.9856108  21.2051443
  23.4730670  64.0206949   4.0528551  23.2906243  64.2378830   3.2269544
  24.3356283  64.1345962   4.1087165  23.5735259  64.0696847   3.9383038
  29.1530389  61.0233360   7.0877575  29.8816549  60.8449315   6.6415731
  29.2425282  61.8651440   7.2984753  29.2737051  61.1217238   7.0531092
  33.1338689  71.9586747  10.9909869  33.8896205  72.3918261  11.0298778
  33.2401014  71.3091517  11.5644505  33.2608860  71.9264231  11.0807894
  36.1718861  75.7860024  11.7412272  35.7354092  75.7896767  12.4971243
  35.8381776  76.4665523  11.3091849  36.0581481  75.8872480  11.7893104
  30.7447934  77.8268357  23.0655422  31.5288351  77.9399205  23.4311164
  30.5444529  77.0009494  23.2614108  30.8313960  77.7215077  23.1489808
  19.1134950  72.4996037  15.9499266  18.8473365  71.6835154  16.1090256
  19.1273514  72.5449193  15.0794781  19.0759672  72.3852942  15.8452748
  36.0916343  62.8273852  13.9841700  36.7342252  62.8971957  14.5703615
  36.3439364  62.1603075  13.4821242  36.2238476  62.7400201  13.9968979
  23.8633556  66.0374416  18.5966274  23.1705353  65.5671395  18.8427005
  24.4793883  65.8112720  19.1707981  23.8518086  65.9341547  18.7175426
  39.3063207  72.5040944  10.6331909  39.9679641  71.9431613  10.5327817
  38.6654619  72.0092975  10.9584600  39.3092074  72.3477353  10.6664249
  19.5228363  73.2854817  13.2311010  19.3403937  73.2601703  12.3783302
  20.2578032  73.7553755  13.2699919  19.6042427  73.3516179  13.1108929
  22.5874115  70.0039820  19.7393119  23.3114087  69.9892850  20.2258014
  22.6890252  70.7135175  19.2415087  22.7092324  70.1064523  19.7371906
  29.9619064  73.4838904  24.6042066  29.1692045  73.7982416  24.7894686
  30.0767992  73.6990373  23.7662851  29.8614475  73.5622741  24.5080401
  32.6350383  70.2072895   8.8937082  32.7297238  70.9462189   9.3476707
  32.0109227  69.7790371   9.3271646  32.5559413  70.2534216   9.0245229
  30.8902857  73.3859108  19.5427363  31.4641719  72.7486352  19.6975927
  30.8117661  73.3863190  18.6737020  30.9636092  73.2924219  19.4373773
  19.4899274  70.1648317  13.3810077  20.0672776  70.0284768  14.0202322
  18.7913335  69.7084102  13.6355661  19.4720295  70.0770584  13.5132366
  26.2466576  71.8182373  11.5948560  25.9885820  70.9854108  11.5679859
  26.3015059  72.0439986  10.7541060  26.2166354  71.7280144  11.4668697
  31.3267626  63.9210824  11.6952653  30.6223953  63.4320009  11.8536572
  31.3752600  63.9333298  10.8241097  31.2297678  63.8500472  11.5891992
  25.2201288  69.3720135  12.0813455  24.6450879  69.5312304  12.7177416
  24.8436964  68.7355545  11.6181905  25.0804100  69.3017948  12.1068013
  38.5297846  67.6018489   9.7153663  38.2734411  66.7898431   9.5251546
  39.3727160  67.6096057   9.4883851  38.6163871  67.4830487   9.6538480
  32.7100938  61.5418114  14.4529817  33.0911450  60.8596285  14.8397692
  31.9064222  61.2527716  14.2705482  32.6477400  61.3985162  14.4833873
  36.2123005  74.7568086  19.5512216  35.9761642  73.9256150  19.4324276
  36.8566234  74.7053693  20.1367060  36.2717676  74.6265773  19.6198109
  25.8621423  75.5463607  10.2654952  26.4995370  75.3075354  10.8106746
  26.2876495  75.7500766   9.5308113  26.0197589  75.5414617  10.2372110
  26.6692779  64.0472312  24.3192426  26.3546220  64.8171875  24.0561989
  26.3482711  63.4842568  23.7344653  26.5751698  64.0782580  24.1933776
  37.2359426  74.5412534  15.6140510  36.9305243  75.2740591  15.9753826
  36.5165641  74.1350464  15.3333296  37.0846768  74.5894267  15.6253647
  28.2442895  76.0236029  11.9448738  28.3181903  75.8611201  12.7990588
  29.0612401  76.2126219  11.7009220  28.3759254  76.0272772  12.0346764
  42.9361218  71.1805535  14.9408855  42.8685718  71.2001494  14.0711441
  42.9216880  72.0235862  15.1664525  42.9239974  71.3079270  14.8461331
  24.2224676  62.4362833   9.9338622  23.3547101  62.5085433   9.9996231
  24.5099880  63.2384912  10.1226597  24.1364424  62.5656980   9.9713389
  33.3457564  62.5840693  18.2649944  34.0911156  62.3950503  17.8513369
  32.9294869  63.1098931  17.7063800  33.3942539  62.6342838  18.1214517
  40.7219835  69.9549921  13.2155449  41.2727757  69.3217990  13.4552541
  40.7063951  70.4865314  13.9070953  40.8005032  69.9398869  13.3534307
  27.3742226  73.7888518  17.7615342  26.8753920  74.5004286  17.8400231
  28.1842450  74.1089185  17.7233505  27.4198333  73.9415367  17.7671911
  23.6370344  73.0511471  12.0078063  23.3483592  72.4248943  12.5423791
  24.5053692  72.9931759  12.0742744  23.7230595  72.9499016  12.0969018
  34.4248241  68.1946255  12.3260045  34.0813007  67.4736590  12.6767295
  34.5241284  67.9860106  11.4838403  34.3890284  68.0570458  12.2531725
  26.3009284  66.6469563  23.0577641  25.4909060  66.9527343  22.9467483
  26.7783971  67.3675145  23.1730225  26.2512763  66.7984164  23.0584712
  25.1600844  75.8615284  13.3060544  24.6381597  76.0015576  13.9912408
  25.5474864  75.1025948  13.4962661  25.1404544  75.7700808  13.4361620
  22.1492028  65.9121093   7.3755498  21.8616823  65.5422363   6.6387446
  22.8362496  66.3815948   7.1139203  22.2080925  65.9268062   7.2270574
  26.5867169  72.8919303   8.7042035  26.3909952  73.4994037   8.1102338
  26.8101515  72.1987247   8.2233709  26.5901810  72.8796828   8.5458116
  24.9845699  69.7774041   8.8222903  25.7068351  69.9415199   8.3626709
  24.5053692  70.4983706   8.7162243  25.0209430  69.9072270   8.7388517
  32.9439207  66.1137840  14.2019588  32.1050307  66.1399118  13.9657851
  33.0143574  66.7608575  14.7824935  32.8307600  66.2133965  14.2528705
  22.6353316  72.1832113  17.9277043  23.1474413  72.4616366  17.2785803
  22.3489659  72.9221407  18.2939856  22.6688179  72.3334467  17.8866921
  31.3908485  63.0123217   8.9347204  32.0934838  62.8130965   8.4567162
  31.1252674  62.2399159   9.2416047  31.4555117  62.8686183   8.9092646
  36.8196731  71.3205826  11.4880830  36.7330705  71.4761252  12.3415609
  36.3647211  71.9643902  11.1140235  36.7399987  71.4381581  11.5587937
  19.7220222  66.6902305   8.2240779  19.8236359  67.4928466   8.5521755
  20.5176109  66.4889641   7.9263860  19.8548128  66.7788204   8.2276135
  26.1537041  64.2758502  17.9878085  25.9620238  64.2913636  18.8377508
  27.0035637  64.4722176  17.9644739  26.2512763  64.3072853  18.1101379
  20.5383954  66.8049483  15.9661901  20.3969446  65.9533424  16.0906409
  20.8224518  66.8478144  15.1424107  20.5591800  66.6849233  15.8629525
  30.6922547  68.6416573  10.1106389  30.4457261  68.5612324  10.9443178
  31.0207670  67.8570041   9.9168917  30.7043790  68.5142839  10.2053912
  34.5870595  75.3499933  13.8993171  34.4484955  76.0480979  14.4041913
  33.8070593  75.1948589  13.5429352  34.4513822  75.4300099  13.9219445
  32.9248681  71.6496308  20.1515552  32.9196719  70.7776125  20.1557979
  33.6309674  71.8484477  19.6785008  33.0293685  71.5500182  20.0822588
  26.6519574  71.3773292  19.5229372  26.7962950  71.9574500  18.8872482
  26.9995223  71.7549589  20.2279227  26.7247035  71.5193996  19.5328367
  28.8239491  70.5763460  17.3054504  28.0762805  70.7694475  16.9002782
  28.9781017  69.7508680  17.0678625  28.7361919  70.4828572  17.2099910
  29.0641268  64.4714011  18.1949908  29.5213882  65.2037985  18.3222700
  29.1397597  64.0480476  18.9537164  29.1432238  64.5171249  18.3250984
  21.3074260  64.7179831  19.2839351  20.7716449  64.1060189  19.6000119
  21.3692024  65.2927967  19.9373018  21.2369892  64.7126759  19.4274778
  33.5368594  57.6503886  12.0643751  33.6552162  58.1080350  11.3311053
  33.3630770  56.8449148  11.7779968  33.5287765  57.5997658  11.9144684
  26.9423646  66.4616115  15.0391732  26.1519721  66.2807575  15.3609068
  27.3384269  65.6843068  15.0222026  26.8840522  66.3203576  15.0844280
  32.3267333  74.0958545  12.7651178  31.6512334  73.8643777  13.2664565
  32.3359709  73.4879728  12.1393283  32.2285837  73.9717470  12.7467330
  29.4561477  68.9376374  19.5215231  29.3920618  69.7986331  19.3935367
  29.5958664  68.6208367  18.7210782  29.4676947  69.0176541  19.3843444
  28.1380570  71.6308514  13.6631434  27.7142820  71.8313013  12.9270452
  27.9625426  70.7837361  13.7755733  28.0491451  71.5357295  13.5705124
  23.4263015  72.1260565   9.0959406  23.5827635  72.0607368   9.9515398
  23.7663609  72.9009118   8.8838086  23.4996250  72.2309763   9.1914000
  29.9642160  71.5018449   7.9652769  30.5057705  70.9988830   8.4291390
  30.2788719  71.4483643   7.1542255  30.0906557  71.4197869   7.9136581
  33.8359267  75.7121096  25.0779682  34.6494133  75.4406245  25.2384814
  33.6754234  75.4128636  24.2739877  33.9329216  75.6276022  24.9825087
  31.1131429  66.3954753  18.0175070  31.3273399  65.7565667  17.4638424
  30.4965329  66.8400577  17.5882932  31.0536759  66.3664897  17.8725501
  19.9997277  69.3095515   9.4120173  20.3796242  69.7280060   8.7480441
  19.4252642  69.8908971   9.7189017  19.9708602  69.4573374   9.3596914
  33.2770517  68.0043818  18.9558377  32.4647199  67.6969709  19.0371550
  33.7360452  67.5242818  19.5201089  33.2250902  67.8880311  19.0512971
  30.5046158  59.5054689  13.0062413  29.6339716  59.4793410  12.9595722
  30.7586499  59.3331881  12.1888258  30.4139718  59.4764832  12.8782549
  30.3724025  69.4103890  23.7387079  30.8423656  70.0346006  24.1254953
  30.4185905  68.7420865  24.2980294  30.4491901  69.4038570  23.8787151
  27.5295299  61.5160917  14.4635883  27.0133787  60.8241109  14.5887462
  26.9689227  62.1831694  14.4098482  27.3701812  61.5124175  14.4741949
  29.5987532  62.0553877  16.2928736  29.2119285  62.0802909  17.0742265
  29.1120469  61.4895556  15.8403252  29.4700041  61.9749628  16.3416639
  33.8480511  76.7727386  20.3502522  34.4860232  76.2787582  20.0164978
  33.2054603  76.7004787  19.7654749  33.8474738  76.6886395  20.2144877
  35.5737511  68.6216532  14.9168438  35.1465120  68.5342881  14.1616537
  34.9363564  68.7294308  15.5023282  35.4167119  68.6249192  14.8913879
  29.2644674  58.9420863  18.5838995  29.8937792  59.4781163  18.3060066
  29.4330536  58.8498222  19.4352561  29.3822468  59.0082225  18.6687524
  29.0658589  63.7292057  20.8565407  29.8932018  63.4577206  20.9124021
  29.0866435  64.5252899  21.2129225  29.1911439  63.8071812  20.9180590
  33.9034768  77.4647194  16.9907879  34.6927146  77.1136259  17.1109960
  34.0778366  78.2783583  16.7284513  34.0455050  77.5333052  16.9695747
  23.6428078  70.8755920  14.0435668  22.8016085  70.7759794  14.2514562
  23.8518086  71.6451400  14.3949988  23.5492771  70.9747964  14.1262983
  21.1203645  68.4975457  11.8720418  20.7260343  68.5718469  11.0970528
  20.5643762  68.8833403  12.4228780  20.9806458  68.5657232  11.8388078
  32.7568592  61.4756751  11.5524297  32.9618186  61.4079059  12.3981294
  32.4295016  62.2815572  11.4845475  32.7383840  61.5842692  11.6683952
  27.4544743  68.8037319  13.2933265  27.1507881  68.2493308  13.8943673
  26.7524164  68.9829529  12.8061299  27.3060953  68.7482102  13.3102971
  26.5110840  66.1137839   7.8577967  26.7870575  65.3956752   7.4455535
  27.1109510  66.7122759   7.6499073  26.6404105  66.0958210   7.7658728
  36.0102280  62.0288515  11.0327063  35.3976593  62.5158918  11.4180795
  36.1066455  61.3532006  11.5764714  35.9340178  62.0006824  11.1705921
  30.0121361  63.7851357   6.1324562  30.4665107  63.9561917   6.8572407
  30.4861407  63.1719467   5.7322338  30.1489681  63.7202242   6.1798324
  23.5336886  73.2699682  15.4627301  22.9424820  73.9109181  15.4330316
  24.2957910  73.6937300  15.4358600  23.5585147  73.4275521  15.4542448
  23.9297509  64.4301680  16.1295318  24.3898991  64.5040610  16.8670442
  23.9753616  65.2282934  15.7795140  24.0048064  64.5595827  16.1868075
  25.5780859  65.0968375  20.6967345  25.1866424  64.4501722  21.1323123
  25.7466722  65.6879810  21.3161601  25.5451769  65.0882643  20.8530051
  39.6527308  73.1005452  16.4604579  39.7110432  73.5492101  17.2064555
  39.0193775  73.5104265  16.0234659  39.5678603  73.2279187  16.5057127
  27.3534381  70.4893891   7.2369569  28.0976426  70.8768167   7.4752519
  27.4995077  69.6451316   7.4010057  27.4844966  70.4224364   7.2963539
  29.2713956  62.2844150  12.2701431  28.4250001  62.4566958  12.1442781
  29.2685089  61.4793494  12.6067259  29.1461106  62.1905179  12.3012558
  30.3412257  66.0619364  13.1363489  29.8672211  65.5361126  13.6468800
  30.7130393  65.5148837  12.5678350  30.3262146  65.9035361  13.1278636
  20.7185287  68.0590871  18.5047034  21.5810900  67.9586580  18.4184364
  20.3877070  67.4785580  17.9432607  20.7970483  67.9582498  18.4092440
  36.6048987  71.1221740  14.5470269  36.3647210  70.2828155  14.5512696
  37.0840994  71.2021907  15.2711043  36.6401171  71.0103140  14.6545071
  32.2695756  66.9555919   6.1989242  31.7418775  67.0384663   5.5094951
  32.7291465  67.6973790   6.1953887  32.2597607  67.0776581   6.0963938
  38.6054174  67.9023197  12.4999528  38.3663944  67.8619031  11.6620313
  38.7688076  68.7494349  12.6265249  38.5944478  68.0215282  12.3953010
  35.2100204  72.2873146  18.4304573  35.9334403  71.8345673  18.2515593
  34.9450167  72.5677812  17.6476901  35.2781478  72.2624115  18.2883289
  24.0787073  66.8833320  15.1657453  23.4540143  66.8951712  14.5583405
  23.7432668  67.3593495  15.8148693  23.9372565  66.9551837  15.1714021
  30.9918994  72.3857025  16.5799589  30.3775987  71.8415075  16.8748224
  31.5086279  71.8721261  16.1005405  30.9774656  72.2293434  16.5523817
  30.2315291  73.4561295  14.3143887  29.8042899  72.8311013  13.8809323
  30.2240236  73.1736217  15.1402894  30.1674432  73.3214075  14.3723715
  23.3477818  68.4926468  17.3832321  23.5071305  67.7369792  17.7884043
  23.1670712  69.0417407  18.0373059  23.3443177  68.4620281  17.5395027
  31.2898121  60.6587703  17.9383111  30.7938682  60.8551377  17.2474677
  32.0467183  61.0580372  17.7671912  31.3284946  60.7465437  17.8103247
  28.5601001  64.3330049  14.5286421  28.5843488  63.7990161  13.8399201
  28.8112474  63.8247358  15.1912012  28.6010920  64.1790953  14.5251066
  24.8402323  63.0600867  13.9092165  24.8800695  63.5610074  14.6226873
  24.0151988  63.1511261  13.6398089  24.7241849  63.1482684  13.9742704
  27.0231936  72.6261607  22.0112460  26.1727566  72.7633322  22.1470105
  27.1860064  71.8925386  22.4560162  26.9215799  72.5375709  22.0968059
  26.2616686  69.5761377  16.2066064  25.4308616  69.7435195  16.0001313
  26.2068204  69.1997328  16.9914950  26.1306101  69.5451109  16.2914593
  24.0700470  63.0670270  21.8422475  24.6953173  62.5232403  22.1151907
  23.6150950  62.5865188  21.2730266  24.0948730  62.9159751  21.7984069
  24.6352730  67.8516969   6.7356182  24.7755691  68.3489433   7.4384824
  25.1335263  67.1503263   6.8770396  24.7293811  67.8218948   6.8607761
  37.6435518  71.2499557  16.9335123  38.2353359  71.8896808  16.9653321
  38.0794513  70.5522594  17.2227190  37.7953950  71.2417908  16.9815956
  26.2431936  64.6498055   4.0394201  26.5647777  64.1701138   3.3853463
  26.5058879  65.4597701   3.8485013  26.3297961  64.6987953   3.9149693
  29.4728908  75.6716930  17.5593017  28.9653999  76.2252776  18.0033648
  29.1755554  75.7325219  16.7411792  29.3533793  75.7623241  17.5041474
  31.6391090  64.0370249  16.4017680  32.0646162  63.5842776  15.7901206
  31.0248084  63.4830320  16.6782468  31.6119736  63.8884225  16.3522705
  30.0785313  60.5085349   9.8108257  29.4353631  60.3582995  10.3793396
  29.7384720  60.2627694   9.0457362  29.9330391  60.4497471   9.7811272
  34.6684660  68.4644776   9.2338266  33.9975850  69.0074478   9.1051331
  35.3624410  68.9339631   8.9919960  34.6713527  68.6143047   9.1793793
  34.8312787  64.9200659  12.1428639  35.1840397  64.4930382  12.8174438
  33.9727589  64.8351503  12.2729715  34.7562232  64.8445400  12.2623649
  23.5296472  67.5508179  10.2011485  22.8108461  67.9672312  10.4684349
  23.9008835  68.1162418   9.6503124  23.4788404  67.6957461  10.1594292
  32.8296053  68.1836028  16.0913481  32.8093980  68.0019323  16.9448260
  32.8775254  69.0548047  16.0673065  32.8330694  68.2852566  16.2136776
  30.7742383  74.7723220  22.0161958  30.7338238  74.1272897  21.4307114
  31.5865701  74.7159837  22.3287370  30.8885536  74.6682187  21.9758907
  29.3043047  66.5906179   5.5384865  28.7107886  66.9123176   4.9869432
  29.3418324  65.7447274   5.3305971  29.2217436  66.5130507   5.4267636
  36.2636847  60.0419071  13.0712951  35.7567712  59.3348211  13.0034129
  37.0604281  59.7112260  13.2014028  36.3064087  59.8892223  13.0811946
  32.1800863  66.5485684   8.9686615  31.9514556  66.5718385   8.1264973
  32.4398939  65.7243151   9.0881626  32.1847051  66.4301763   8.8611813
  26.4620092  68.4020157  18.5711715  25.9498995  67.7941340  18.9296747
  26.2899588  69.1176749  19.0385691  26.3609729  68.4183456  18.6927939
  21.3085806  66.8457732  21.2214077  21.1388397  67.5059107  20.6762284
  20.8651756  67.0564293  21.9426566  21.2185140  66.9743714  21.2475707
  25.2345626  65.0862230  10.2640811  25.7102992  65.4479310   9.6290992
  24.7334225  65.7418697  10.5440954  25.2310985  65.2356419  10.2117552
  30.3389162  66.3244401  21.0113971  30.8960592  66.0958211  20.3792436
  30.0150227  67.0850067  20.7349183  30.3735572  66.4028238  20.8770468
  18.2087871  69.7504597  16.4802567  17.6614590  69.0805243  16.5983435
  18.9980249  69.3834445  16.5446034  18.2440055  69.5969584  16.5071268
  28.0572279  69.4112055  21.9765978  28.8083606  69.7263731  22.2905532
  28.2494856  69.2091225  21.1499900  28.1963693  69.4279436  21.9009374
  27.2772279  67.2303430   3.6314195  27.6571244  67.2483059   2.8465309
  26.5364875  67.6757418   3.5105042  27.2241117  67.2985204   3.4977763
  34.9057569  65.5385621   9.2189773  34.9051796  65.3834277  10.0774050
  34.7013749  66.3848608   9.1631159  34.8757347  65.6406242   9.3377713
  16.9674840  68.9625405  13.6348590  16.7896601  68.5102014  14.3603506
  16.6793862  69.7651567  13.8187068  16.8987794  69.0147963  13.7692093
  32.6298421  70.2183123  12.8725980  33.1252087  69.5006118  12.8330001
  31.8198197  69.9153920  12.7580467  32.5842315  70.0680769  12.8499706
  34.6950240  72.9686810  15.5603109  35.1205312  72.4461232  15.0073534
  34.3307160  73.5667648  15.0391732  34.7036843  72.9797037  15.4012119
  31.2828840  76.6821074  11.8904267  31.7540018  77.3961337  12.0594252
  31.6189018  76.0819825  12.4264136  31.4023955  76.6992539  11.9936642
  33.3705824  78.2922388  24.0696339  33.4802790  77.5030948  24.4253086
  33.6996721  78.2028324  23.2670677  33.4358230  78.1628241  24.0038729
  28.1998335  61.4548545  18.8462361  28.3326240  60.6579538  19.1743337
  28.5843487  61.9814948  19.4260637  28.2754664  61.4148462  18.9805864
  31.9202786  76.4739009  18.6531959  31.3723732  75.8496892  18.3852024
  32.3815815  76.6633281  17.9376039  31.9069996  76.4098059  18.5082390
  31.2730690  58.3778871  15.4443455  30.4676654  58.2676601  15.7611293
  31.1437425  58.4791327  14.5873320  31.1350823  58.3762541  15.3651495
  34.7296650  64.5424363  16.0383151  34.1459639  65.0433569  15.6260719
  35.0500944  64.0353919  15.4047475  34.6909826  64.5416198  15.8841659
  27.2691450  63.4564958   6.3141826  28.0907144  63.6263271   6.0723521
  26.8061100  63.6112219   5.5908124  27.3222612  63.5046691   6.1713471
  25.8586781  61.4507720  17.0940255  26.4031194  61.1098847  17.6844597
  25.9123717  62.3093182  17.2361540  25.9475901  61.5262979  17.2022128
  31.4861112  77.4790081  15.1841300  32.3059486  77.3353047  15.4457596
  31.2055190  78.1036280  15.7257738  31.5657856  77.5500433  15.3029240
  37.6425362  79.5657620  24.3192426  37.3278803  80.3357182  24.0561989
  37.3215295  79.0027876  23.7344653  37.5484281  79.5967888  24.1933776
  44.3190148  78.1026001  18.2649944  45.0643740  77.9135811  17.8513369
  43.9027452  78.6284239  17.7063800  44.3675122  78.1528146  18.1214517
  37.1269625  79.7943810  17.9878085  36.9352822  79.8098944  18.8377508
  37.9768221  79.9907484  17.9644739  37.2245347  79.8258161  18.1101379
  40.0373852  79.9899319  18.1949908  40.4946466  80.7223293  18.3222700
  40.1130181  79.5665784  18.9537164  40.1164822  80.0356557  18.3250984
  38.5027882  77.0346225  14.4635883  37.9866371  76.3426417  14.5887462
  37.9421811  77.7017002  14.4098482  38.3434395  77.0309483  14.4741949
  40.5720116  77.5739185  16.2928736  40.1851869  77.5988217  17.0742265
  40.0853053  77.0080864  15.8403252  40.4432624  77.4934936  16.3416639
  40.2377257  74.4606171  18.5838995  40.8670375  74.9966471  18.3060066
  40.4063120  74.3683530  19.4352561  40.3555052  74.5267533  18.6687524
  40.0391172  79.2477365  20.8565407  40.8664602  78.9762514  20.9124021
  40.0599018  80.0438207  21.2129225  40.1644022  79.3257120  20.9180590
  42.2630705  76.1773011  17.9383111  41.7671266  76.3736685  17.2474677
  43.0199767  76.5765679  17.7671912  42.3017529  76.2650745  17.8103247
  35.8134907  78.5786175  13.9092165  35.8533278  79.0795382  14.6226873
  34.9884571  78.6696569  13.6398089  35.6974433  78.6667992  13.9742704
  35.0433053  78.5855578  21.8422475  35.6685757  78.0417711  22.1151907
  34.5883533  78.1050496  21.2730266  35.0681314  78.4345059  21.7984069
  42.6123674  79.5555557  16.4017680  43.0378746  79.1028084  15.7901206
  41.9980667  79.0015628  16.6782468  42.5852319  79.4069533  16.3522705
  39.1730918  76.9733853  18.8462361  39.3058824  76.1764846  19.1743337
  39.5576071  77.5000256  19.4260637  39.2487247  76.9333770  18.9805864
  42.2463273  73.8964179  15.4443455  41.4409237  73.7861909  15.7611293
  42.1170009  73.9976635  14.5873320  42.1083406  73.8947849  15.3651495
  36.8319365  76.9693028  17.0940255  37.3763778  76.6284155  17.6844597
  36.8856301  77.8278490  17.2361540  36.9208484  77.0448287  17.2022128
  22.2153821  36.3924625   9.4437610  22.9220588  35.8976656   9.5724544
  22.4041756  36.8333706   8.7140268  22.3481727  36.3842975   9.3546656
  19.3546115  39.8152161   7.3351685  19.4429461  39.6278302   8.1829896
  19.7835828  39.1689591   6.9356532  19.4308218  39.6915169   7.4023437
  16.9216575  39.0983321   6.3169348  16.3587410  38.6855931   6.8409009
  17.6837599  39.0236227   6.7362491  16.9511024  39.0260722   6.4562348
  13.5291473  31.3256929   8.0486393  13.7011977  31.2162824   8.8971674
  14.0660831  31.9711335   7.8117585  13.6336477  31.4048931   8.1391489
  19.4666175  39.2461180   9.9995469  20.2506591  39.3592028  10.3651211
  19.2662769  38.4202318  10.1954155  19.5532200  39.1407900  10.0829855
  19.6236568  41.1571282   3.6461925  18.8251814  40.9170783   3.9035793
  20.0722579  41.2085675   4.3928972  19.5711179  41.1293674   3.7946849
  18.6837305  34.9031727  11.5382113  17.8910286  35.2175239  11.7234732
  18.7986232  35.1183196  10.7002897  18.5832715  34.9815564  11.4420447
  19.6121098  34.8051931   6.4767409  20.1859959  34.1679175   6.6315973
  19.5335901  34.8056014   5.6077067  19.6854332  34.7117043   6.3713820
  24.9341245  36.1760909   6.4852263  24.6979883  35.3448974   6.3664323
  25.5784474  36.1246516   7.0707107  24.9935916  36.0458597   6.5538156
  15.3911019  25.4665135  11.2532473  15.0764460  26.2364698  10.9902035
  15.0700952  24.9035391  10.6684700  15.2969938  25.4975404  11.1273823
  25.9577666  35.9605358   2.5480557  25.6523483  36.6933414   2.9093873
  25.2383882  35.5543287   2.2673343  25.8065008  36.0087091   2.5593694
  31.6579458  32.5998358   1.8748901  31.5903958  32.6194317   1.0051488
  31.6435121  33.4428685   2.1004572  31.6458215  32.7272093   1.7801378
  16.0960466  35.2081342   4.6955389  15.5972160  35.9197109   4.7740278
  16.9060691  35.5282008   4.6573552  16.1416573  35.3608190   4.7011958
  15.0227524  28.0662386   9.9917687  14.2127300  28.3720166   9.8807530
  15.5002211  28.7867968  10.1070272  14.9731003  28.2176987   9.9924759
  23.3088836  36.7692756   0.8333217  23.1703195  37.4673802   1.3381960
  22.5288834  36.6141413   0.4769399  23.1732063  36.8492923   0.8559492
  21.6466921  33.0689131   7.0855599  21.6414959  32.1968948   7.0898026
  22.3527915  33.2677301   6.6125055  21.7511925  32.9693006   7.0162634
  15.3737814  32.7966115   6.4569419  15.5181190  33.3767323   5.8212529
  15.7213463  33.1742412   7.1619274  15.4465276  32.9386819   6.4668414
  14.4465569  40.9868887   3.3230446  14.5955133  40.4271803   2.6703850
  15.2265571  41.0660889   3.7062965  14.5839663  40.9154453   3.2827395
  16.9718870  41.1583530   4.6014937  16.8962541  40.4892341   5.1565725
  16.9008729  41.8601318   5.1155603  16.9499477  41.1628437   4.7591785
  16.3610504  44.5651850   3.0592938  16.8506435  43.8662639   2.8768602
  15.7894737  44.2675720   3.6468995  16.3495034  44.4178073   3.1193978
  22.5577508  37.1313919  12.0119728  23.3712373  36.8599068  12.1724861
  22.3972474  36.8321459  11.2079924  22.6547456  37.0468845  11.9165134
  21.9988758  29.4236641   5.8898424  21.1865439  29.1162532   5.9711596
  22.4578692  28.9435642   6.4541136  21.9469143  29.3073134   5.9853018
  19.0942265  30.8296713  10.6727126  19.5641896  31.4538829  11.0595000
  19.1404145  30.1613688  11.2320341  19.1710141  30.8231393  10.8127197
  22.5698752  38.1920209   7.2842569  23.2078472  37.6980405   6.9505025
  21.9272843  38.1197610   6.6994796  22.5692978  38.1079218   7.1484924
  22.6253008  38.8840018   3.9247926  23.4145387  38.5329082   4.0450007
  22.7996606  39.6976406   3.6624559  22.7673290  38.9525875   3.9035794
  14.2381335  37.4379863   4.9345410  14.1301690  37.4481925   5.8007468
  14.4477116  38.2634644   4.7450364  14.2531446  37.5620938   5.0349501
  28.3745548  34.5198275   3.3944626  28.4328672  34.9684924   4.1404602
  27.7412016  34.9297088   2.9574706  28.2896843  34.6472010   3.4397174
  22.0144643  40.1401817  -0.1700628  21.8164332  40.6292632  -0.8644417
  21.3932354  40.3443059   0.4083505  21.8932207  40.2418356  -0.1877405
  23.9318445  33.7065970   5.3644620  24.6552644  33.2538496   5.1855640
  23.6668407  33.9870635   4.5816948  23.9999718  33.6816938   5.2223336
  15.7450176  34.0454431   8.9452507  14.8945807  34.1826145   9.0810152
  15.9078304  33.3118209   9.3900209  15.6434040  33.9568532   9.0308106
  26.3653759  32.6692380   3.8675170  26.9571599  33.3089631   3.8993368
  26.8012753  31.9715417   4.1567237  26.5172190  32.6610731   3.9156003
  18.1947149  37.0909753   4.4933064  17.6872240  37.6445600   4.9373694
  17.8973795  37.1518043   3.6751838  18.0752034  37.1816064   4.4381521
  17.4389634  42.0234311   1.3990071  17.2155288  41.2653140   1.7674097
  16.9499477  42.0532332   0.6770510  17.3333083  41.9156536   1.3466812
  19.4960623  36.1916043   8.9502004  19.4556478  35.5465720   8.3647160
  20.3083942  36.1352661   9.2627417  19.6103777  36.0875010   8.9098954
  19.0607402  27.7437224   7.9454018  19.6178833  27.5151034   7.3132483
  18.7368467  28.5042890   7.6689230  19.0953813  27.8221061   7.8110515
  16.7790520  30.8304878   8.9106025  17.5301847  31.1456555   9.2245579
  16.9713096  30.6284049   8.0839947  16.9181934  30.8472260   8.8349421
  23.4168481  34.3879633   2.4943156  23.8423552  33.8654055   1.9413581
  23.0525401  34.9860471   1.9731779  23.4255083  34.3989860   2.3352166
  13.0522560  42.6843851   1.2540501  13.3669119  43.4980239   1.2618283
  13.4615974  42.2994070   1.9222661  13.1590658  42.7472553   1.3544593
  22.0924065  39.7115211  11.0036385  22.2021030  38.9223772  11.3593133
  22.4214961  39.6221147  10.2010723  22.1576471  39.5821064  10.9378776
  20.6421026  37.8931832   5.5872006  20.0941972  37.2689715   5.3192071
  21.1034055  38.0826104   4.8716085  20.6288236  37.8290882   5.4422437
  20.2079353  38.8982904   2.1181347  21.0277727  38.7545871   2.3797642
  19.9273430  39.5229103   2.6597785  20.2876096  38.9693257   2.2369287
  36.6793003  46.5547756  -4.9175777  36.6487007  47.4092393  -4.7457507
  37.2774352  46.2543049  -4.3589633  36.7630161  46.6364253  -4.8100974
  29.8792688  45.6423407  -0.1622846  29.0230583  45.8031905  -0.1113729
  29.9260342  44.7715471  -0.1417785  29.7591799  45.5374209  -0.1516780
  33.1886405  51.9109933   9.4437610  33.8953172  51.4161964   9.5724544
  33.3774340  52.3519014   8.7140268  33.3214310  51.9028283   9.3546656
  32.7244509  47.7015451   2.4808806  33.2700469  48.3800538   2.5402775
  32.6661385  47.5602912   1.6210387  32.7960423  47.7807453   2.3620866
  25.8418584  55.1904517  -2.1322842  25.9428947  54.3804871  -1.8225714
  25.2460329  55.0961464  -2.7623163  25.7691123  55.0569545  -2.1796604
  25.6819323  60.1082106  -0.7307986  26.3256779  60.5495270  -0.3411828
  26.0075579  59.3035533  -0.8177727  25.8251152  60.0547301  -0.6862509
  21.3373716  43.3810534   0.3913799  20.7178747  42.7903182   0.2223814
  21.2357579  43.9721970  -0.2421877  21.2311391  43.3814617   0.2718789
  28.4341611  45.1210076  -5.2753738  29.1321776  45.2998204  -4.7832274
  28.7493944  44.5980416  -5.8983348  28.5836948  45.0703848  -5.2951727
  21.0642849  46.9262816   2.6357368  20.9401545  47.5125262   3.2707187
  21.7161133  46.4323012   2.9369643  21.1416498  46.9401621   2.7743298
  28.6229547  51.5080521  -5.2873946  29.0623182  50.8997622  -4.8419173
  28.4734209  51.1287895  -6.0588481  28.6651012  51.3618992  -5.3354779
  26.0901190  50.1024533   1.9144879  26.7350192  49.6096976   1.5955828
  26.3302967  50.2449320   2.7410958  26.2211775  50.0501975   1.9894413
  28.6287281  52.9479439   1.5651772  28.9110524  52.1530845   1.3438528
  29.3573441  53.4260026   1.5856833  28.7776845  52.9014036   1.5354787
  26.6068475  40.4902473  -1.1932463  26.2771805  40.9413616  -1.8628764
  25.9313477  40.4118636  -0.6459456  26.4578911  40.5453608  -1.2109240
  33.8144883  36.4787996  -2.9482852  33.4998324  37.1691474  -2.5162430
  33.2971824  36.4232778  -3.6497352  33.6909353  36.5722884  -2.9885903
  38.6105369  52.0538801  -1.4612397  37.7803072  52.2649445  -1.2978981
  38.5614622  51.2275856  -1.7370114  38.4812105  51.9628407  -1.4775032
  26.6715107  54.8842655   1.3735512  26.1542049  54.5250070   0.7696820
  27.3689498  54.3604830   1.3841578  26.6980688  54.7540343   1.2865771
  30.3278699  55.3337469   7.3351685  30.4162045  55.1463610   8.1829896
  30.7568411  54.6874899   6.9356532  30.4040801  55.2100477   7.4023437
  27.8949159  54.6168629   6.3169348  27.3319993  54.2041239   6.8409009
  28.6570182  54.5421535   6.7362491  27.9243607  54.5446030   6.4562348
  23.4545150  56.6066650  -1.0794022  24.1565729  56.0918640  -1.0221266
  23.3742633  56.9340802  -0.2747147  23.5468911  56.5780877  -0.9521230
  38.1059328  44.7009202   2.3338024  37.2687749  44.7711389   2.5685619
  38.0747559  44.7033697   1.4612326  37.9777610  44.7119429   2.2397572
  24.5024057  46.8442237   8.0486393  24.6744560  46.7348132   8.8971674
  25.0393414  47.4896643   7.8117585  24.6069061  46.9234239   8.1391489
  22.7795926  52.7973002  -1.5708414  23.6184825  53.0295935  -1.5234653
  22.8107695  51.9277314  -1.6401379  22.9077643  52.7029949  -1.5743770
  23.4048629  53.2173878   2.7304891  23.9446853  53.0745009   3.4008264
  22.7218575  53.6170628   3.0988917  23.3840782  53.2553549   2.8839313
  32.8289513  48.8964878  -2.0750084  33.5847028  49.3296393  -2.0361176
  32.9351838  48.2469648  -1.5015448  32.9559684  48.8642362  -1.9852059
  35.8669685  52.7238156  -1.3247681  35.4304916  52.7274898  -0.5688710
  35.5332600  53.4043655  -1.7568104  35.7532304  52.8250611  -1.2766849
  30.4398758  54.7646488   9.9995469  31.2239175  54.8777336  10.3651211
  30.2395353  53.9387625  10.1954155  30.5264784  54.6593208  10.0829855
  18.8085774  49.4374168   2.8839313  18.5424189  48.6213285   3.0430303
  18.8224338  49.4827324   2.0134828  18.7710496  49.3231073   2.7792795
  35.7867167  39.7651983   0.9181747  36.4293076  39.8350088   1.5043662
  36.0390188  39.0981206   0.4161288  35.9189300  39.6778332   0.9309026
  23.5584380  42.9752547   5.5306320  22.8656177  42.5049526   5.7767052
  24.1744707  42.7490851   6.1048028  23.5468910  42.8719679   5.6515473
  30.5969151  56.6756590   3.6461925  29.7984397  56.4356090   3.9035793
  31.0455163  56.7270983   4.3928972  30.5443763  56.6478982   3.7946849
  39.0014031  49.4419075  -2.4328044  39.6630465  48.8809744  -2.5332136
  38.3605443  48.9471106  -2.1075353  39.0042898  49.2855484  -2.3995704
  19.2179187  50.2232948   0.1651057  19.0354760  50.1979834  -0.6876651
  19.9528856  50.6931886   0.2039966  19.2993251  50.2894310   0.0448975
  35.2878861  50.4584458  -2.6916055  35.5234451  50.6029657  -3.5189205
  35.4368425  51.2226866  -2.2984542  35.3444665  50.5923512  -2.7552452
  22.2824939  46.9417951   6.6733166  23.0064911  46.9270981   7.1598060
  22.3841075  47.6513306   6.1755134  22.4043148  47.0442654   6.6711952
  29.6569888  50.4217035  11.5382113  28.8642869  50.7360547  11.7234732
  29.7718815  50.6368504  10.7002897  29.5565299  50.5000872  11.4420447
  32.3301207  47.1451026  -4.1722871  32.4248062  47.8840321  -3.7183246
  31.7060051  46.7168502  -3.7388307  32.2510237  47.1912347  -4.0414724
  30.5853681  50.3237239   6.4767409  31.1592543  49.6864483   6.6315973
  30.5068485  50.3241322   5.6077067  30.6586916  50.2302351   6.3713820
  19.1850098  47.1026449   0.3150124  19.7623600  46.9662899   0.9542369
  18.4864159  46.6462233   0.5695708  19.1671119  47.0148715   0.4472413
  25.9417400  48.7560504  -1.4711393  25.6836644  47.9232239  -1.4980094
  25.9965883  48.9818117  -2.3118893  25.9117178  48.6658275  -1.5991256
  31.0218450  40.8588955  -1.3707301  30.3174777  40.3698140  -1.2123381
  31.0703424  40.8711429  -2.2418856  30.9248501  40.7878603  -1.4767961
  24.9152112  46.3098267  -0.9846498  24.3401703  46.4690435  -0.3482537
  24.5387788  45.6733676  -1.4478048  24.7754924  46.2396080  -0.9591940
  28.5825401  44.7821616   3.8745880  28.1939833  44.3575834   3.2198071
  27.9180099  45.0303766   4.3822907  28.4272328  44.7560337   3.8533748
  38.2248670  44.5396621  -3.3506290  37.9685235  43.7276562  -3.5408407
  39.0677984  44.5474188  -3.5776103  38.3114695  44.4208618  -3.4121473
  32.4051762  38.4796245   1.3869864  32.7862274  37.7974416   1.7737738
  31.6015046  38.1905847   1.2045529  32.3428224  38.3363293   1.4173920
  35.9073829  51.6946217   6.4852263  35.6712466  50.8634281   6.3664323
  36.5517058  51.6431824   7.0707107  35.9668500  51.5643905   6.5538156
  25.5572247  52.4841738  -2.8005001  26.1946194  52.2453486  -2.2553208
  25.9827319  52.6878897  -3.5351840  25.7148413  52.4792748  -2.8287844
  20.2484889  54.7230075   1.0829303  20.2889035  54.9944926   0.2549082
  20.8079414  55.2471983   1.4987091  20.3368235  54.8405830   1.0221191
  26.3643603  40.9850443  11.2532473  26.0497044  41.7550006  10.9902035
  26.0433535  40.4220699  10.6684700  26.2702522  41.0160712  11.1273823
  36.9310250  51.4790665   2.5480557  36.6256067  52.2118722   2.9093873
  36.2116465  51.0728595   2.2673343  36.7797592  51.5272398   2.5593694
  27.9393719  52.9614161  -1.1211215  28.0132727  52.7989332  -0.2669365
  28.7563225  53.1504350  -1.3650733  28.0710078  52.9650903  -1.0313189
  42.6312042  48.1183666   1.8748901  42.5636542  48.1379625   1.0051488
  42.6167704  48.9613993   2.1004572  42.6190798  48.2457401   1.7801378
  33.0408388  39.5218824   5.1989991  33.7861980  39.3328634   4.7853416
  32.6245693  40.0477062   4.6403847  33.0893362  39.5720969   5.0554564
  40.4170659  46.8928052   0.1495496  40.9678581  46.2596121   0.3892588
  40.4014774  47.4243445   0.8411000  40.4955855  46.8777000   0.2874354
  27.0693050  50.7266650   4.6955389  26.5704744  51.4382417   4.7740278
  27.8793274  51.0467316   4.6573552  27.1149157  50.8793498   4.7011958
  23.3321168  49.9889603  -1.0581890  23.0434416  49.3627074  -0.5236163
  24.2004516  49.9309890  -0.9917209  23.4181419  49.8877147  -0.9690935
  34.1199065  45.1324386  -0.7399908  33.7763831  44.4114721  -0.3892658
  34.2192108  44.9238237  -1.5821550  34.0841108  44.9948589  -0.8128228
  25.9960108  43.5847694   9.9917687  25.1859884  43.8905474   9.8807530
  26.4734795  44.3053276  10.1070272  25.9463587  43.7362295   9.9924759
  24.8551668  52.7993415   0.2400591  24.3332421  52.9393707   0.9252455
  25.2425688  52.0404079   0.4302708  24.8355368  52.7078939   0.3701667
  26.2817993  49.8297434  -4.3617918  26.0860776  50.4372169  -4.9557615
  26.5052339  49.1365378  -4.8426244  26.2852634  49.8174960  -4.5201838
  24.6796523  46.7152172  -4.2437050  25.4019175  46.8793330  -4.7033244
  24.2004516  47.4361837  -4.3497710  24.7160254  46.8450402  -4.3271436
  32.6390031  43.0515971   1.1359635  31.8001131  43.0777250   0.8997898
  32.7094398  43.6986706   1.7164982  32.5258424  43.1512097   1.1868752
  22.3304140  49.1210244   4.8617090  22.8425237  49.3994498   4.2125850
  22.0440482  49.8599538   5.2279903  22.3639003  49.2712598   4.8206968
  31.0859309  39.9501348  -4.1312749  31.7885662  39.7509096  -4.6092791
  30.8203498  39.1777290  -3.8243906  31.1505941  39.8064314  -4.1567308
  36.5147555  48.2583958  -1.5779123  36.4281529  48.4139384  -0.7244345
  36.0598034  48.9022033  -1.9519718  36.4350811  48.3759713  -1.5072017
  25.8487865  41.2136633   4.9218131  25.6571062  41.2291767   5.7717555
  26.6986461  41.4100307   4.8984786  25.9463587  41.2450984   5.0441426
  20.2334778  43.7427614   2.9001948  20.0920270  42.8911555   3.0246456
  20.5175342  43.7856275   2.0764154  20.2542624  43.6227364   2.7969572
  30.3873371  45.5794705  -2.9553564  30.1408085  45.4990456  -2.1216775
  30.7158494  44.7948172  -3.1491036  30.3994614  45.4520970  -2.8606041
  32.6199505  48.5874439   7.0855599  32.6147543  47.7154256   7.0898026
  33.3260498  48.7862608   6.6125055  32.7244509  48.4878314   7.0162634
  26.3470398  48.3151423   6.4569419  26.4913774  48.8952631   5.8212529
  26.6946046  48.6927720   7.1619274  26.4197859  48.4572127   6.4668414
  28.5190315  47.5141592   4.2394551  27.7713629  47.7072606   3.8342829
  28.6731840  46.6886811   4.0018672  28.4312743  47.4206703   4.1439957
  25.4198153  56.5054195   3.3230446  25.5687717  55.9457111   2.6703850
  26.1998155  56.5846197   3.7062965  25.5572247  56.4339761   3.2827395
  27.9451454  56.6768838   4.6014937  27.8695125  56.0077648   5.1565725
  27.8741313  57.3786626   5.1155603  27.9232060  56.6813745   4.7591785
  28.7592092  41.4092142   5.1289955  29.2164706  42.1416117   5.2562747
  28.8348421  40.9858608   5.8877210  28.8383062  41.4549380   5.2591031
  21.0025083  41.6557962   6.2179398  20.4667273  41.0438320   6.5340166
  21.0642848  42.2306098   6.8713065  20.9320716  41.6504890   6.3614825
  33.2319418  34.5882018  -1.0016202  33.3502986  35.0458481  -1.7348900
  33.0581594  33.7827279  -1.2879985  33.2238589  34.5375790  -1.1515269
  26.6374470  43.3994246   1.9731779  25.8470545  43.2185706   2.2949114
  27.0335093  42.6221199   1.9562073  26.5791346  43.2581707   2.0184327
  32.0218156  51.0336676  -0.3008776  31.3463158  50.8021909   0.2004612
  32.0310533  50.4257859  -0.9266670  31.9236661  50.9095602  -0.3192623
  29.1512300  45.8754505   6.4555278  29.0871442  46.7364462   6.3275414
  29.2909488  45.5586499   5.6550829  29.1627771  45.9554672   6.3183490
  27.8331394  48.5686645   0.5971480  27.4093643  48.7691144  -0.1389501
  27.6576250  47.7215493   0.7095780  27.7442275  48.4735426   0.5045170
  27.3343088  60.0837158   3.0592938  27.8239018  59.3847947   2.8768602
  26.7627320  59.7861028   3.6468995  27.3227618  59.9363381   3.1193978
  23.1213839  49.0638696  -3.9700547  23.2778458  48.9985499  -3.1144555
  23.4614432  49.8387249  -4.1821867  23.1947074  49.1687894  -3.8745953
  29.6592984  48.4396580  -5.1007184  30.2008529  47.9366961  -4.6368563
  29.9739543  48.3861774  -5.9117699  29.7857381  48.3576001  -5.1523372
  33.5310091  52.6499227  12.0119728  34.3444957  52.3784376  12.1724861
  33.3705058  52.3506767  11.2079924  33.6280040  52.5654153  11.9165134
  30.8082253  43.3332884   4.9515117  31.0224223  42.6943798   4.3978471
  30.1916153  43.7778708   4.5222978  30.7487583  43.3043028   4.8065548
  19.6948101  46.2473647  -3.6539780  20.0747066  46.6658192  -4.3179513
  19.1203466  46.8287102  -3.3470937  19.6659426  46.3951505  -3.7063039
  32.9721341  44.9421949   5.8898424  32.1598023  44.6347840   5.9711596
  33.4311276  44.4620950   6.4541136  32.9201726  44.8258442   5.9853018
  30.1996982  36.4432820  -0.0597541  29.3290540  36.4171541  -0.1064231
  30.4537323  36.2710012  -0.8771695  30.1090542  36.4142964  -0.1877404
  30.0674849  46.3482021  10.6727126  30.5374480  46.9724137  11.0595000
  30.1136729  45.6798996  11.2320341  30.1442725  46.3416701  10.8127197
  27.2246122  38.4539048   1.3975930  26.7084611  37.7619240   1.5227509
  26.6640051  39.1209825   1.3438529  27.0652636  38.4502306   1.4081996
  29.2938356  38.9932008   3.2268782  28.9070109  39.0181040   4.0082312
  28.8071293  38.4273687   2.7743299  29.1650865  38.9127759   3.2756686
  33.5431335  53.7105517   7.2842569  34.1811056  53.2165713   6.9505025
  32.9005427  53.6382918   6.6994796  33.5425562  53.6264526   7.1484924
  35.2688335  45.5594663   1.8508485  34.8415944  45.4721012   1.0956584
  34.6314388  45.6672439   2.4363329  35.1117943  45.5627323   1.8253926
  28.9595498  35.8798994   5.5179042  29.5888616  36.4159294   5.2400113
  29.1281360  35.7876353   6.3692608  29.0773292  35.9460356   5.6027570
  28.7609413  40.6670189   7.7905454  29.5882842  40.3955337   7.8464068
  28.7817259  41.4631030   8.1469272  28.8862263  40.7449943   7.8520637
  33.5985592  54.4025326   3.9247926  34.3877970  54.0514390   4.0450007
  33.7729190  55.2161714   3.6624559  33.7405874  54.4711183   3.9035794
  23.3378902  47.8134051   0.9775714  22.4966909  47.7137926   1.1854608
  23.5468910  48.5829532   1.3290035  23.2443595  47.9126095   1.0603029
  20.8154469  45.4353588  -1.1939535  20.4211167  45.5096600  -1.9689425
  20.2594586  45.8211535  -0.6431173  20.6757282  45.5035363  -1.2271875
  32.4519416  38.4134882  -1.5135656  32.6569009  38.3457190  -0.6678659
  32.1245840  39.2193704  -1.5814479  32.4334664  38.5220823  -1.3976001
  27.1495567  45.7415451   0.2273312  26.8458705  45.1871439   0.8283720
  26.4474988  45.9207661  -0.2598654  27.0011777  45.6860233   0.2443018
  25.2113918  52.9565171   4.9345410  25.1034273  52.9667233   5.8007468
  25.4209700  53.7819952   4.7450364  25.2264029  53.0806246   5.0349501
  35.7053104  38.9666647  -2.0332890  35.0927417  39.4537049  -1.6479159
  35.8017279  38.2910137  -1.4895239  35.6291001  38.9384955  -1.8954032
  23.2287710  50.2077814   2.3967347  22.6375643  50.8487312   2.3670362
  23.9908734  50.6315431   2.3698647  23.2535971  50.3653652   2.3882495
  23.6248333  41.3679811   3.0635365  24.0849815  41.4418741   3.8010489
  23.6704440  42.1661065   2.7135186  23.6998888  41.4973958   3.1208121
  25.2731683  42.0346506   7.6307392  24.8817248  41.3879853   8.0663170
  25.4417546  42.6257942   8.2501647  25.2402593  42.0260774   7.7870098
  39.3478132  50.0383583   3.3944626  39.4061255  50.4870232   4.1404602
  38.7144599  50.4482396   2.9574706  39.2629427  50.1657318   3.4397174
  32.9877226  55.6587125  -0.1700628  32.7896915  56.1477940  -0.8644417
  32.3664938  55.8628367   0.4083505  32.8664791  55.7603663  -0.1877405
  27.0485205  47.4272022  -5.8290384  27.7927250  47.8146298  -5.5907434
  27.1945901  46.5829447  -5.6649896  27.1795790  47.3602495  -5.7696414
  28.9664780  39.2222281  -0.7958522  28.1200825  39.3945089  -0.9217173
  28.9635913  38.4171625  -0.4592694  28.8411930  39.1283310  -0.7647396
  30.0363081  42.9997495   0.0703535  29.5623035  42.4739257   0.5808846
  30.4081216  42.4526968  -0.4981603  30.0212970  42.8413492   0.0618683
  20.4136111  44.9969002   5.4387081  21.2761724  44.8964711   5.3524411
  20.0827894  44.4163711   4.8772653  20.4921307  44.8960629   5.3432487
  36.2999811  48.0599871   1.4810316  36.0598034  47.2206286   1.4852742
  36.7791818  48.1400038   2.2051089  36.3351995  47.9481271   1.5885118
  34.9051028  49.2251278   5.3644620  35.6285227  48.7723804   5.1855640
  34.6400991  49.5055943   4.5816948  34.9732302  49.2002246   5.2223336
  23.7737897  43.8211451   2.0997499  23.1490967  43.8329843   1.4923452
  23.4383492  44.2971626   2.7488740  23.6323389  43.8929968   2.1054068
  20.4863572  51.8811911   3.5401264  19.9563497  51.1904350   3.5896238
  20.7588666  51.8722096   2.7113972  20.4488295  51.7779043   3.4248680
  30.6869818  49.3235156   3.5139635  30.0726811  48.7793206   3.8088271
  31.2037103  48.8099392   3.0345451  30.6725480  49.1671565   3.4863864
  29.9266115  50.3939426   1.2483934  29.4993723  49.7689144   0.8149369
  29.9191059  50.1114348   2.0742941  29.8625256  50.2592206   1.3063761
  23.0428642  45.4304599   4.3172368  23.2022129  44.6747923   4.7224090
  22.8621536  45.9795538   4.9713106  23.0394001  45.3998413   4.4735074
  30.9848945  37.5965834   4.8723157  30.4889506  37.7929509   4.1814724
  31.7418007  37.9958503   4.7011959  31.0235770  37.6843568   4.7443294
  28.2551825  41.2708180   1.4626468  28.2794312  40.7368293   0.7739248
  28.5063298  40.7625489   2.1252059  28.2961743  41.1169084   1.4591113
  24.5353147  39.9978999   0.8432212  24.5751519  40.4988205   1.5566920
  23.7102812  40.0889392   0.5738135  24.4192673  40.0860815   0.9082750
  26.7182760  49.5639739   8.9452507  25.8678390  49.7011453   9.0810152
  26.8810888  48.8303517   9.3900209  26.6166623  49.4753840   9.0308106
  25.9567510  46.5139508   3.1406111  25.1259440  46.6813326   2.9341359
  25.9019028  46.1375459   3.9254997  25.8256925  46.4829240   3.2254639
  23.7651294  40.0048401   8.7762522  24.3903997  39.4610534   9.0491954
  23.3101774  39.5243319   8.2070312  23.7899554  39.8537883   8.7324116
  37.3386342  48.1877688   3.8675170  37.9304183  48.8274939   3.8993368
  37.7745337  47.4900725   4.1567237  37.4904774  48.1796039   3.9156003
  29.1679732  52.6095061   4.4933064  28.6604823  53.1630908   4.9373694
  28.8706378  52.6703351   3.6751838  29.0484617  52.7001372   4.4381521
  31.3341914  40.9748380   3.3357727  31.7596986  40.5220907   2.7241253
  30.7198908  40.4208451   3.6122514  31.3070560  40.8262357   3.2862752
  34.3635484  45.4022907  -3.8321688  33.6926674  45.9452609  -3.9608622
  35.0575234  45.8717762  -4.0739993  34.3664351  45.5521178  -3.8866160
  28.4122217  57.5419619   1.3990071  28.1887872  56.7838448   1.7674097
  27.9232061  57.5717640   0.6770510  28.3065667  57.4341843   1.3466812
  34.5263611  41.8578791  -0.9231314  34.8791221  41.4308514  -0.2485516
  33.6678413  41.7729634  -0.7930238  34.4513056  41.7823531  -0.8036304
  23.2247296  44.4886310  -2.8648468  22.5059285  44.9050443  -2.5975604
  23.5959659  45.0540549  -3.4156830  23.1739228  44.6335592  -2.9065661
  32.5246877  45.1214159   3.0253528  32.5044804  44.9397454   3.8788307
  32.5726078  45.9926178   3.0013112  32.5281518  45.2230697   3.1476823
  30.4693207  51.7101351   8.9502004  30.4289062  51.0651028   8.3647160
  31.2816525  51.6537969   9.2627417  30.5836360  51.6060318   8.9098954
  27.0600674  57.7620077  -1.1472845  26.6461073  57.0994207  -1.5369003
  27.7448049  57.9097936  -1.6677150  27.0999046  57.6860735  -1.2816347
  30.4265969  56.9210162  -0.3949228  30.0282252  57.0312433  -1.1628408
  29.8117188  57.1292229   0.1877332  30.2764858  56.9683730  -0.4217929
  35.9587671  36.9797202   0.0052998  35.4518536  36.2726342  -0.0625824
  36.7555105  36.6490391   0.1354075  36.0014911  36.8270354   0.0151993
  31.8751687  43.4863815  -4.0973338  31.6465380  43.5096516  -4.9394980
  32.1349763  42.6621282  -3.9778328  31.8797875  43.3679895  -4.2048140
  26.1570916  45.3398288   5.5051762  25.6449819  44.7319471   5.8636793
  25.9850412  46.0554880   5.9725738  26.0560553  45.3561587   5.6267986
  21.0036630  43.7835863   8.1554124  20.8339221  44.4437238   7.6102331
  20.5602580  43.9942424   8.8766613  20.9135964  43.9121845   8.1815753
  24.9296450  42.0240361  -2.8019142  25.4053816  42.3857441  -3.4368961
  24.4285049  42.6796829  -2.5219000  24.9261809  42.1734550  -2.8542401
  30.0339986  43.2622532   7.9454018  30.5911416  43.0336342   7.3132483
  29.7101051  44.0228198   7.6689230  30.0686396  43.3406369   7.8110515
  17.9038695  46.6882729   3.4142614  17.3565414  46.0183374   3.5323482
  18.6931073  46.3212576   3.4786081  17.9390878  46.5347715   3.4411314
  27.7523103  46.3490186   8.9106025  28.5034430  46.6641863   9.2245579
  27.9445680  46.1469357   8.0839947  27.8914517  46.3657567   8.8349421
  34.6008393  42.4763752  -3.8470180  34.6002620  42.3212409  -2.9885903
  34.3964573  43.3226739  -3.9028794  34.5708171  42.5784373  -3.7282240
  16.6625664  45.9003536   0.5688637  16.4847425  45.4480145   1.2943552
  16.3744686  46.7029698   0.7527114  16.5938617  45.9526094   0.7032140
  32.3249245  47.1561254  -0.1933973  32.8202911  46.4384249  -0.2329953
  31.5149021  46.8532051  -0.3079486  32.2793139  47.0058900  -0.2160247
  34.3901064  49.9064941   2.4943156  34.8156136  49.3839363   1.9413581
  34.0257984  50.5045779   1.9731779  34.3987667  49.9175168   2.3352166
  24.0255144  58.2029159   1.2540501  24.3401703  59.0165547   1.2618283
  24.4348557  57.8179377   1.9222661  24.1323242  58.2657861   1.3544593
  30.9779664  53.6199206  -1.1755687  31.4490842  54.3339468  -1.0065701
  31.3139842  53.0197956  -0.6395817  31.0974779  53.6370670  -1.0723311
  33.0656648  55.2300519  11.0036385  33.1753614  54.4409080  11.3593133
  33.3947545  55.1406455  10.2010723  33.1309054  55.1006372  10.9378776
  27.8949159  38.3926676   5.7802408  28.0277064  37.5957670   6.1083384
  28.2794311  38.9193079   6.3600684  27.9705488  38.3526593   5.9145911
  31.6153610  53.4117140   5.5872006  31.0674556  52.7875023   5.3192071
  32.0766639  53.6011412   4.8716085  31.6020819  53.3476190   5.4422437
  30.9681514  35.3157002   2.3783501  30.1627478  35.2054732   2.6951340
  30.8388249  35.4169458   1.5213367  30.8301647  35.3140672   2.2991542
  34.4247474  41.4802494   2.9723198  33.8410463  41.9811701   2.5600766
  34.7451768  40.9732050   2.3387522  34.3860650  41.4794329   2.8181705
  25.5537605  38.3885851   4.0280302  26.0982018  38.0476978   4.6184644
  25.6074541  39.2471313   4.1701586  25.6426725  38.4641111   4.1362175
  21.3668164  52.1502267   0.9019110  21.9713022  52.1098101   0.2732931
  21.1595477  52.9973419   0.9323166  21.4257061  52.2690270   0.8135226
  31.1811936  54.4168212   2.1181347  32.0010310  54.2731178   2.3797642
  30.9006014  55.0414411   2.6597785  31.2608680  54.4878564   2.2369287
  32.0375432  62.4448124   2.6357368  31.9134129  63.0310570   3.2707187
  32.6893717  61.9508320   2.9369643  32.1149082  62.4586928   2.7743298
  35.4756640  62.3627545   8.0486393  35.6477144  62.2533440   8.8971674
  36.0125998  63.0081951   7.8117585  35.5801644  62.4419547   8.1391489
  41.4131342  70.2831796   9.9995469  42.1971758  70.3962644  10.3651211
  41.2127936  69.4572933  10.1954155  41.4997367  70.1778516  10.0829855
  34.5316964  58.4937855   5.5306320  33.8388760  58.0234834   5.7767052
  35.1477291  58.2676159   6.1048028  34.5201493  58.3904987   5.6515473
  33.2557522  62.4603259   6.6733166  33.9797495  62.4456289   7.1598060
  33.3573659  63.1698614   6.1755134  33.3775732  62.5627962   6.6711952
  40.6302472  65.9402343  11.5382113  39.8375453  66.2545855  11.7234732
  40.7451399  66.1553812  10.7002897  40.5297882  66.0186180  11.4420447
  39.5557984  60.3006924   3.8745880  39.1672417  59.8761142   3.2198071
  38.8912682  60.5489074   4.3822907  39.4004912  60.2745645   3.8533748
  43.3784346  53.9981553   1.3869864  43.7594857  53.3159724   1.7737738
  42.5747630  53.7091155   1.2045529  43.3160807  53.8548601   1.4173920
  37.3376186  56.5035751  11.2532473  37.0229627  57.2735314  10.9902035
  37.0166119  55.9406007  10.6684700  37.2435105  56.5346020  11.1273823
  44.0140972  55.0404132   5.1989991  44.7594564  54.8513942   4.7853416
  43.5978276  55.5662370   4.6403847  44.0625946  55.0906277   5.0554564
  36.9692691  59.1033002   9.9917687  36.1592467  59.4090782   9.8807530
  37.4467378  59.8238584  10.1070272  36.9196170  59.2547603   9.9924759
  33.3036723  64.6395552   4.8617090  33.8157820  64.9179806   4.2125850
  33.0173066  65.3784846   5.2279903  33.3371587  64.7897906   4.8206968
  36.8220449  56.7321941   4.9218131  36.6303646  56.7477075   5.7717555
  37.6719045  56.9285615   4.8984786  36.9196171  56.7636292   5.0441426
  31.2067362  59.2612922   2.9001948  31.0652854  58.4096863   3.0246456
  31.4907925  59.3041583   2.0764154  31.2275208  59.1412672   2.7969572
  37.3202981  63.8336731   6.4569419  37.4646357  64.4137939   5.8212529
  37.6678630  64.2113028   7.1619274  37.3930443  63.9757435   6.4668414
  39.7324676  56.9277450   5.1289955  40.1897290  57.6601425   5.2562747
  39.8081005  56.5043916   5.8877210  39.8115646  56.9734688   5.2591031
  31.9757667  57.1743270   6.2179398  31.4399857  56.5623628   6.5340166
  32.0375432  57.7491406   6.8713065  31.9053300  57.1690198   6.3614825
  37.6107054  58.9179554   1.9731779  36.8203129  58.7371014   2.2949114
  38.0067677  58.1406507   1.9562073  37.5523930  58.7767015   2.0184327
  40.1244884  61.3939813   6.4555278  40.0604025  62.2549770   6.3275414
  40.2642072  61.0771807   5.6550829  40.1360354  61.4739980   6.3183490
  44.5042675  68.1684535  12.0119728  45.3177540  67.8969684  12.1724861
  44.3437641  67.8692075  11.2079924  44.6012623  68.0839461  11.9165134
  41.7814837  58.8518192   4.9515117  41.9956806  58.2129106   4.3978471
  41.1648736  59.2964016   4.5222978  41.7220166  58.8228336   4.8065548
  43.9453925  60.4607257   5.8898424  43.1330607  60.1533148   5.9711596
  44.4043859  59.9806257   6.4541136  43.8934310  60.3443750   5.9853018
  41.0407432  61.8667329  10.6727126  41.5107064  62.4909445  11.0595000
  41.0869313  61.1984304  11.2320341  41.1175308  61.8602009  10.8127197
  38.1978706  53.9724356   1.3975930  37.6817195  53.2804548   1.5227509
  37.6372635  54.6395133   1.3438529  38.0385219  53.9687614   1.4081996
  40.2670940  54.5117316   3.2268782  39.8802693  54.5366348   4.0082312
  39.7803877  53.9458995   2.7743299  40.1383448  54.4313067   3.2756686
  39.9328081  51.3984302   5.5179042  40.5621199  51.9344602   5.2400113
  40.1013944  51.3061661   6.3692608  40.0505876  51.4645664   5.6027570
  39.7341996  56.1855496   7.7905454  40.5615425  55.9140645   7.8464068
  39.7549842  56.9816338   8.1469272  39.8594846  56.2635251   7.8520637
  34.5980917  56.8865119   3.0635365  35.0582398  56.9604049   3.8010489
  34.6437023  57.6846373   2.7135186  34.6731472  57.0159266   3.1208121
  36.2464266  57.5531814   7.6307392  35.8549831  56.9065161   8.0663170
  36.4150129  58.1443249   8.2501647  36.2135177  57.5446082   7.7870098
  31.3868694  60.5154310   5.4387081  32.2494307  60.4150019   5.3524411
  31.0560477  59.9349019   4.8772653  31.4653891  60.4145937   5.3432487
  34.7470480  59.3396759   2.0997499  34.1223551  59.3515151   1.4923452
  34.4116075  59.8156934   2.7488740  34.6055972  59.4115276   2.1054068
  34.0161226  60.9489907   4.3172368  34.1754712  60.1933231   4.7224090
  33.8354119  61.4980846   4.9713106  34.0126585  60.9183721   4.4735074
  41.9581529  53.1151142   4.8723157  41.4622090  53.3114817   4.1814724
  42.7150591  53.5143811   4.7011959  41.9968353  53.2028876   4.7443294
  35.5085731  55.5164307   0.8432212  35.5484102  56.0173513   1.5566920
  34.6835395  55.6074700   0.5738135  35.3925257  55.6046123   0.9082750
  37.6915343  65.0825046   8.9452507  36.8410974  65.2196761   9.0810152
  37.8543471  64.3488825   9.3900209  37.5899207  64.9939148   9.0308106
  34.7383877  55.5233709   8.7762522  35.3636581  54.9795842   9.0491954
  34.2834357  55.0428627   8.2070312  34.7632138  55.3723191   8.7324116
  42.3074498  56.4933688   3.3357727  42.7329570  56.0406215   2.7241253
  41.6931491  55.9393759   3.6122514  42.2803143  56.3447665   3.2862752
  41.4425790  67.2286659   8.9502004  41.4021645  66.5836336   8.3647160
  42.2549109  67.1723277   9.2627417  41.5568944  67.1245626   8.9098954
  37.1303499  60.8583596   5.5051762  36.6182402  60.2504779   5.8636793
  36.9582995  61.5740188   5.9725738  37.0293136  60.8746895   5.6267986
  31.9769214  59.3021171   8.1554124  31.8071804  59.9622546   7.6102331
  31.5335164  59.5127732   8.8766613  31.8868547  59.4307153   8.1815753
  41.0072570  58.7807840   7.9454018  41.5644000  58.5521650   7.3132483
  40.6833635  59.5413506   7.6689230  41.0418980  58.8591677   7.8110515
  28.8771278  62.2068037   3.4142614  28.3297998  61.5368682   3.5323482
  29.6663657  61.8397884   3.4786081  28.9123462  62.0533023   3.4411314
  38.7255687  61.8675494   8.9106025  39.4767014  62.1827170   9.2245579
  38.9178263  61.6654665   8.0839947  38.8647101  61.8842875   8.8349421
  27.6358248  61.4188844   0.5688637  27.4580009  60.9665453   1.2943552
  27.3477270  62.2215006   0.7527114  27.5671201  61.4711402   0.7032140
  38.8681742  53.9111984   5.7802408  39.0009648  53.1142977   6.1083384
  39.2526895  54.4378387   6.3600684  38.9438071  53.8711901   5.9145911
  41.9414097  50.8342310   2.3783501  41.1360061  50.7240040   2.6951340
  41.8120833  50.9354766   1.5213367  41.8034230  50.8325980   2.2991542
  36.5270189  53.9071159   4.0280302  37.0714602  53.5662286   4.6184644
  36.5807125  54.7656621   4.1701586  36.6159308  53.9826418   4.1362175
  35.1707464  39.3005677  -5.0173560  35.3427968  39.1911571  -4.1688279
  35.7076822  39.9460082  -5.2542368  35.2752468  39.3797678  -4.9268464
  41.1082166  47.2209927  -3.0664484  41.8922582  47.3340775  -2.7008742
  40.9078760  46.3951065  -2.8705798  41.1948191  47.1156647  -2.9830098
  40.3253296  42.8780474  -1.5277841  39.5326277  43.1923986  -1.3425221
  40.4402223  43.0931943  -2.3657056  40.2248706  42.9564311  -1.6239506
  37.0327010  33.4413882  -1.8127481  36.7180451  34.2113445  -2.0757918
  36.7116943  32.8784138  -2.3975254  36.9385929  33.4724151  -1.9386131
  36.6643515  36.0411133  -3.0742266  35.8543291  36.3468913  -3.1852423
  37.1418202  36.7616715  -2.9589682  36.6146994  36.1925734  -3.0735195
  37.0153805  40.7714862  -6.6090534  37.1597181  41.3516070  -7.2447424
  37.3629454  41.1491159  -5.9040679  37.0881267  40.9135566  -6.5991539
  39.8195708  38.3317944  -6.6104676  39.7554849  39.1927901  -6.7384539
  39.9592896  38.0149938  -7.4109124  39.8311178  38.4118111  -6.7476463
  44.1993499  45.1062666  -1.0540225  45.0128364  44.8347815  -0.8935092
  44.0388465  44.8070206  -1.8580029  44.2963447  45.0217592  -1.1494819
  43.6404749  37.3985389  -7.1761530  42.8281431  37.0911279  -7.0948357
  44.0994683  36.9184389  -6.6118817  43.5885134  37.2821881  -7.0806935
  40.7358256  38.8045460  -2.3932827  41.2057888  39.4287576  -2.0064953
  40.7820137  38.1362435  -1.8339613  40.8126132  38.7980140  -2.2532756
  37.3866167  42.0203178  -4.1207446  36.5361798  42.1574892  -3.9849801
  37.5494295  41.2866956  -3.6759745  37.2850031  41.9317279  -4.0351847
  41.1376614  44.1664790  -4.1157949  41.0972469  43.5214467  -4.7012793
  41.9499933  44.1101408  -3.8032537  41.2519768  44.0623757  -4.1561000
  40.7023393  35.7185971  -5.1205936  41.2594824  35.4899781  -5.7527470
  40.3784458  36.4791637  -5.3970723  40.7369804  35.7969808  -5.2549438
  38.4206511  38.8053625  -4.1553928  39.1717838  39.1205302  -3.8414374
  38.6129087  38.6032796  -4.9820007  38.5597925  38.8221007  -4.2310533
  79.2147559  79.2147559  79.2147559 109.4712190 109.4712190 109.4712190
