default_name
 43858
  38.5120317  30.0604600  23.9805956  39.0058840  30.5020611  24.7429600
  38.2242043  30.7724336  23.3245854  39.0499681  29.2674567  23.6614253
  37.2236201  29.4762868  24.5291048  36.3785280  29.9388524  24.0192505
  37.1474057  27.9611026  24.3263999  37.0571622  27.7872072  23.2541519
  38.0889924  27.5440691  24.6836081  35.9713759  27.2783735  25.0591727
  36.2430712  27.2550736  26.1145113  35.1080455  27.9292899  24.9210770
  35.5340239  25.5522378  24.4999610  34.6068244  25.9057658  22.9988431
  35.2434298  26.4432802  22.2960553  34.2760496  24.9707125  22.5467766
  33.7385516  26.5177566  23.2431191  37.0998274  29.7637340  26.0490448
  35.9984750  29.9749428  26.5605500  38.2193870  29.6547080  26.7506307
  39.0653318  29.3018558  26.3263997  38.2031373  29.8603669  28.2037936
  37.3542689  29.2828898  28.5699110  39.5520601  29.2748727  28.8714446
  40.4100440  29.8488660  28.5214514  39.4833135  29.3503599  29.9566524
  39.6745494  28.2296622  28.5874895  37.8933696  31.3253253  28.5716929
  37.5168454  31.6066057  29.7082508  37.9137859  32.2321196  27.5804471
  38.1292708  31.9254436  26.6425689  37.5957870  33.6518814  27.7938973
  37.7548501  33.9196461  28.8384547  38.5201412  34.5378567  26.9065788
  38.5494130  34.1345280  25.8943692  38.1329142  35.5564148  26.8802198
  39.7928699  34.5441148  27.4352521  40.3634948  35.0898534  26.8892151
  36.1768353  34.0048657  27.4031147  35.7572089  35.1626898  27.5037134
  35.4499851  33.0248136  26.8519090  35.7889752  32.0736265  26.8726001
  34.1454348  33.2834303  26.2405451  33.9809355  34.3579439  26.1601722
  34.0818437  32.6652598  24.8211556  34.8253308  33.2087190  24.2380791
  34.4025887  31.6308147  24.9442249  32.7153052  32.6992039  24.0789115
  32.8094228  32.0707738  23.1932940  31.9710514  32.2708999  24.7502841
  32.2820132  34.0888909  23.6669794  33.0672323  35.0378815  23.8497298
  31.1480244  34.1985816  23.1608477  33.0685678  32.6079055  27.1201505
  32.9792543  31.3454341  27.1823619  32.3020333  33.4055073  27.8443675
  32.5001058  34.3924774  27.9265656  31.1367587  32.8506409  28.6006659
  31.4878946  32.1364049  29.3454274  30.3686821  33.9799788  29.3232213
  30.0634304  34.6780973  28.5437655  29.4835724  33.5539687  29.7956578
  31.2074049  34.7260082  30.3815984  32.0664867  35.1915461  29.8985314
  30.3346766  35.8290293  31.0693192  29.4755896  35.3641732  31.5530310
  30.9319527  36.3526691  31.8157530  29.9880332  36.5392560  30.3186416
  31.7478601  33.7625026  31.4293775  32.3790669  33.0164953  30.9465211
  32.3351936  34.3147424  32.1629794  30.9167742  33.2655282  31.9297892
  30.1577353  32.0892277  27.7017726  29.8609882  32.5300335  26.5882645
  29.6667953  30.9519646  28.2174077  30.1016079  30.5462637  29.0337679
  28.5274510  30.2345931  27.5986332  28.6451860  30.2091864  26.5153086
  28.3935865  28.7739133  28.1187109  27.6023368  28.2737004  27.5603103
  29.7308525  27.9939280  27.9361223  30.5225301  28.4933184  28.4946520
  29.6118432  26.9758955  28.3069938  29.9945799  27.9664025  26.8788661
  28.0219267  28.7667332  29.5024466  27.9434740  27.8600447  29.8079978
  27.2266057  30.9797691  27.8584607  27.1705481  31.8471179  28.7536246
  26.1823976  30.7079688  27.0491227  26.1005313  29.9522511  25.7788768
  25.9378004  28.8944759  25.9855903  27.0248830  30.0735452  25.2141108
  24.9041290  30.6061307  25.0863878  24.4434450  29.9215257  24.3742183
  25.2031838  31.5187894  24.5709057  23.9629446  30.9193743  26.2476476
  23.3966683  30.0442669  26.5664221  23.2739094  31.7262675  25.9981412
  24.9119690  31.3684097  27.3754016  25.0677299  32.4437250  27.2886046
  24.3985829  31.0358025  28.7950245  23.8984863  31.9445127  29.4595530
  24.6148656  29.8135551  29.2986732  25.0221435  29.0884326  28.7255926
  24.2261062  29.4768462  30.6798728  23.1846398  29.7609634  30.8306184
  24.3740580  27.9896192  30.9819509  25.3326025  27.6621768  30.5793678
  24.3751592  27.8687283  32.0652257  23.2464663  27.1411555  30.3733103
  22.3154233  27.3738226  30.8901525  23.1712316  27.4538703  29.3318458
  23.5007520  25.6357200  30.4356312  24.3478757  25.1859885  31.2424050
  22.8081593  24.8864794  29.6838102  25.0452035  30.2571764  31.7124179
  24.5188519  30.7126460  32.7423744  26.3436943  30.3921102  31.4537006
  26.7892965  29.9679606  30.6526794  27.1694581  31.1473719  32.3824713
  27.0015989  30.7858989  33.3969957  28.6613396  30.9906263  32.0456252
  28.7664495  31.1656839  30.9749217  29.1952054  31.7665740  32.5942530
  29.2486808  29.6193731  32.3989480  29.3740710  29.5533391  33.4796966
  28.5428469  28.8573946  32.0683629  30.6040892  29.3939901  31.7118020
  30.9768267  30.1734471  30.7965760  31.3101693  28.4581604  32.0805344
  26.7460505  32.6253268  32.3144405  26.6431434  33.2700659  33.3489566
  26.4761622  33.1747261  31.1244662  26.4762415  32.6409346  30.2670480
  26.1430270  34.5991645  31.0554947  26.9624836  35.1512635  31.5156869
  25.9190183  35.1465562  29.6285562  25.1174836  34.5588066  29.1811282
  25.5964474  36.1828807  29.7289526  27.1114459  35.0853657  28.7674214
  27.8996242  35.7015409  29.2000923  27.4539251  34.0527594  28.7000835
  26.7688881  35.6052003  27.3586137  25.8781475  35.1176951  26.9623579
  26.6211648  36.6851425  27.3600605  27.9011783  35.2886802  26.4906742
  27.8778160  34.4021256  26.0073787  28.9494160  36.0885880  26.3010371
  29.0151914  37.3092457  26.9009765  28.2610347  37.6160873  27.4986352
  29.8178379  37.9023044  26.7456069  29.9378142  35.6606464  25.5037116
  29.8724751  34.7525304  25.0664974  30.7435931  36.2481766  25.3436261
  24.8687179  34.8844097  31.7855992  24.7546875  35.9201274  32.4342838
  23.8961954  33.9690526  31.6854818  23.9929997  33.1691884  31.0764288
  22.6345943  34.1523713  32.3889310  22.2212350  35.1348341  32.1608956
  21.6271428  33.0852630  31.9550929  21.3882052  33.2015677  30.8979831
  22.0364846  32.0898057  32.1271509  20.4523947  33.2509489  32.7245318
  19.8056436  32.5896870  32.4675387  22.7972101  34.1462768  33.9100467
  22.2393515  34.9977836  34.6170996  23.5387241  33.1696748  34.3953813
  23.8532815  32.4480057  33.7626518  23.8811147  33.0534076  35.7844060
  22.9784810  32.9878088  36.3918995  24.6921981  31.8135659  35.9974560
  24.0403372  30.9685901  35.7756624  25.5075457  31.8423162  35.2746270
  25.2543666  31.6613947  37.3783208  26.1175084  30.9994426  37.3082735
  25.5810141  32.6509083  37.6981073  24.2718380  31.1041288  38.3869111
  23.0955559  30.7850576  38.0284699  24.7117696  30.9861531  39.5555547
  24.6560245  34.2613662  36.3342250  24.4643658  34.5821543  37.5015227
  25.5264936  34.8704394  35.5165317  25.6359759  34.5126028  34.5784135
  26.4022091  35.9689416  35.9501461  26.4746550  35.9663892  37.0377326
  27.8296920  35.8200683  35.3574116  27.6041179  35.7579897  34.2928170
  28.4786174  36.6762944  35.5414569  28.5461904  34.5227402  35.8097167
  27.8397240  33.6957547  35.7382942  29.7683782  34.2245306  34.9421558
  30.4755548  35.0509201  35.0134336  30.2455314  33.3077803  35.2885580
  29.4570343  34.1018867  33.9047919  28.8560783  34.5176096  37.3095711
  27.9270271  34.6019699  37.8733501  29.3578532  33.5868747  37.5742517
  29.5042151  35.3603278  37.5500781  25.9034307  37.3876874  35.6596888
  26.5783270  38.3557630  36.0598735  24.7325729  37.5045399  35.0275596
  24.1881813  36.6744640  34.8412503  24.1895394  38.7971534  34.6128802
  24.7764172  39.2219391  33.7984904  22.7560921  38.5808533  34.1217020
  22.7091633  37.6059326  33.6364944  22.0974345  38.5859700  34.9901742
  22.3173360  39.6418822  33.1552647  22.1476711  40.5861922  33.6725588
  23.0656969  39.7845882  32.3757180  21.0135587  39.1663398  32.5262710
  21.2156598  38.8067582  31.5173333  20.6049218  38.3531869  33.1261856
  19.9992647  40.3164797  32.4654839  19.0992842  39.9502527  31.9715067
  19.7581344  40.6113680  33.4867558  20.5314385  41.4963113  31.7193175
  20.7545342  41.2233770  30.7728320  19.8343924  42.2270500  31.7035765
  21.3651431  41.8360825  32.1771289  24.1543331  39.7774943  35.7869420
  24.6269851  40.9144225  35.6944411  23.5999743  39.2996497  36.9204997
  23.0946362  38.4252088  36.9297596  23.5078812  40.1698196  38.1005802
  23.2057879  41.1653652  37.7754222  22.4875044  39.6604106  39.1466170
  22.7174225  38.6260418  39.4021908  22.5713957  40.2816992  40.0382799
  21.0557548  39.7288835  38.6397072  20.7438742  40.4598173  37.6954703
  20.1534462  38.9388013  39.2689568  19.1879191  38.9450114  38.9726145
  20.4501678  38.3469681  40.0317088  24.8363282  40.5446902  38.7100139
  25.0083591  41.7015947  39.0992419  25.7747452  39.5962446  38.8052697
  25.5507678  38.6337000  38.5968438  27.1171654  39.9061921  39.2763425
  27.0565245  40.3766872  40.2576967  27.9746026  38.6389162  39.3922756
  28.0864399  38.1776019  38.4110617  28.9579457  38.8932115  39.7878387
  27.3315749  37.7286443  40.2724491  27.8610771  36.9317850  40.3514590
  27.8422302  40.9142091  38.4022356  28.6007226  41.7219099  38.8854721
  27.6172526  40.8352615  37.0933317  27.0591173  40.0882394  36.7053339
  28.2630463  41.7591178  36.1777631  29.3239866  41.8701871  36.4017459
  28.0926603  41.2573073  34.7213710  27.0763072  40.8823984  34.6006652
  28.3547559  42.4204388  33.6745156  29.3711365  42.7955666  33.7943087
  28.2271178  42.0350779  32.6629296  27.6463256  43.2308576  33.8461169
  29.0551608  40.0721559  34.4868097  30.0667128  40.4780027  34.4744888
  28.9454358  39.3969777  35.3354524  28.7967413  39.3007595  33.1816906
  28.9067488  39.9752215  32.3325150  29.5145856  38.4853522  33.0927545
  27.7854703  38.8941983  33.1934777  27.7234795  43.1898566  36.3870672
  28.5063372  44.1646560  36.4237823  26.4116282  43.2925572  36.5847075
  25.8245899  42.4771644  36.4816542  25.7642278  44.5915748  36.8491427
  26.0806677  45.3120768  36.0949267  24.2182683  44.4335625  36.7682078
  23.8852178  43.7218817  37.5236465  23.7440941  45.3989431  36.9451239
  23.9410695  44.0690233  35.7790813  26.2396565  45.1468516  38.1956063
  26.5186088  46.3518361  38.3434982  26.4231778  44.2549951  39.1735741
  26.3545971  43.2605624  39.0107870  26.7154522  44.7125867  40.5168561
  26.0689731  45.5487149  40.7834148  26.4636618  43.5519158  41.5175731
  25.4156518  43.2645139  41.4328705  27.0946946  42.7151191  41.2181253
  26.7751671  43.9329224  42.9784090  27.8188472  44.2427134  43.0319082
  26.1328561  44.7768193  43.2301501  26.5281888  42.7821185  43.9784295
  26.3549371  41.6001732  43.5476267  26.5228291  43.0695887  45.2070833
  28.1831367  45.1814777  40.6305245  28.4400595  46.2403859  41.2172825
  29.1281548  44.3585486  40.1216380  28.8390041  43.5719242  39.5579773
  30.5785667  44.5344605  40.3947428  30.7290505  45.2993040  41.1566275
  31.1670140  43.2198361  40.9003842  30.8353087  42.3805865  40.2890489
  32.2556394  43.2722486  40.8846444  30.7755077  42.9060959  42.3037174
  31.2745728  43.6742553  43.3705736  31.9562757  44.4997876  43.1659335
  30.9037111  43.3865325  44.6806603  31.2925808  43.9912386  45.4999353
  30.0410653  42.3327496  44.9450705  29.7551796  42.1112214  45.9733188
  29.5400338  41.5579583  43.8998974  28.8726536  40.7198868  44.1007453
  29.9039203  41.8668184  42.5740131  29.4974719  41.2839777  41.7474562
  31.3995286  44.9953301  39.2158353  32.4867668  45.5543399  39.3904977
  30.8714014  44.8138760  38.0214949  29.9189616  44.4977053  37.9075046
  31.7112602  44.9790335  36.8025588  32.6810852  45.4073308  37.0557390
  31.9354309  43.5904330  36.1726602  31.0046415  43.1270959  35.8454768
  32.6061524  43.6984619  35.3202739  32.5932579  42.6163322  37.1188638
  33.9088990  42.7361239  37.5007085  34.2141697  41.7551647  38.3533016
  35.1967334  41.7196122  38.8238369  33.1659308  40.9499850  38.4653681
  33.1218918  40.0919764  38.9963877  32.1224659  41.4808755  37.7260729
  31.1526504  40.9834064  37.7169268  31.1471938  45.9434865  35.8003385
  31.5733005  45.9350601  34.6018432  30.2835660  46.8438035  36.2621960
  29.9857089  46.8360418  37.2272453  29.7253602  47.9047880  35.3514160
  30.1803310  47.7608407  34.3714263  28.1822846  47.7557084  35.2101993
  27.7214198  47.9831356  36.1714385  27.6134169  48.7300386  34.1122848
  28.0735060  48.5028976  33.1506068  26.5335198  48.6025646  34.0369744
  27.8387933  49.7602223  34.3880156  27.9154677  46.4268525  34.7696069
  26.9679969  46.3057884  34.6734671  30.0602345  49.2388372  35.9682419
  30.0488595  49.3603504  37.1718337  30.3172890  50.2568549  35.1466655
  30.1087185  50.2049903  34.1597978  30.8994817  51.5003817  35.6714842
  30.8309102  51.5159809  36.7592129  32.3876232  51.5952361  35.2693889
  32.5334853  51.5880672  34.1892167  32.7184850  52.5518211  35.6738339
  33.1927623  50.4795219  35.8933368  33.6564614  50.5989921  37.1930244
  33.4626746  51.5292307  37.7270678  34.3489907  49.5766295  37.8144196
  34.7473898  49.6970206  38.8218351  34.5818531  48.3832492  37.1027865
  35.2555484  47.3742109  37.7483632  35.5023141  47.6032588  38.6473868
  34.1049792  48.2167327  35.8237644  34.2733196  47.2848877  35.2839247
  33.3928692  49.2655567  35.2122380  32.9934422  49.1390423  34.2059814
  30.2138314  52.7156860  35.1260045  29.8597845  52.7503322  33.9387870
  30.0658421  53.7071081  35.9936839  30.1605805  53.5606926  36.9885137
  29.7623420  55.0572884  35.5167804  29.0701694  55.0047493  34.6764020
  29.1231752  55.8816477  36.6213833  28.3077443  55.2895725  37.0368571
  29.8823860  56.0412448  37.3870385  28.5831102  57.2325651  36.1500926
  28.1754711  57.1395505  35.1434748  27.7919646  57.5372565  36.8351867
  29.6519380  58.3003254  36.1413728  30.4940762  58.3666039  37.0479606
  29.6448487  59.1330921  35.1030383  30.3360505  59.8671266  35.0435841
  28.9483016  59.0271379  34.3793690  31.0989322  55.6315675  35.1135982
  32.0406146  55.6732436  35.9401503  31.2176034  56.0232416  33.8482225
  30.4502906  55.9215655  33.1993833  32.4880665  56.5537601  33.3445355
  33.2307234  56.5148105  34.1414313  33.0101041  55.7533496  32.1504385
  32.2027806  55.8699578  31.4274374  33.9090310  56.2401086  31.7721581
  33.2910735  54.2553043  32.3682950  32.4506653  53.8236865  32.9119134
  33.4717362  53.5251318  31.0598004  34.3123153  53.9559158  30.5157868
  33.6681387  52.4709791  31.2554760  32.5654133  53.6204243  30.4618049
  34.4973253  54.0529549  33.2742610  34.3074450  54.5171107  34.2420442
  34.6741114  52.9862319  33.4119194  35.3754689  54.5104103  32.8185227
  32.3473789  58.0157115  32.9599809  31.4545219  58.4064169  32.2142512
  33.2537242  58.8005986  33.5069284  33.7057297  58.5117783  34.3627164
  33.5257649  60.1163072  33.0047585  32.6033795  60.6152531  32.7075088
  34.1903555  60.9372481  34.1223239  35.0960065  60.4195464  34.4383627
  34.4544946  61.9100552  33.7076230  33.2591169  61.1320676  35.3372292
  32.0092523  61.1056096  35.1742801  33.7763722  61.3054286  36.4695833
  34.3434728  60.1166158  31.6822020  34.9779346  59.0983946  31.3005662
  34.3014327  61.2588832  30.9420650  33.3624007  62.3924349  31.1160235
  33.6847159  62.9979134  31.9631415  32.3624994  62.0032001  31.3078379
  33.4480557  63.1307603  29.8155510  33.2944794  64.1970170  29.9817137
  32.6910205  62.7583806  29.1253826  34.8407248  62.8475206  29.2941374
  35.6078432  63.4776807  29.7441670  34.8815966  62.9449539  28.2092707
  35.0661437  61.3790900  29.6985070  34.5987612  60.6998219  28.9855927
  36.5717428  61.0577836  29.8028656  37.1536999  60.6158190  28.8387166
  37.2284913  61.2554492  30.9295694  36.8458323  61.6243483  31.7883971
  38.6635911  60.8913539  30.8997492  39.0231652  61.1831778  29.9130150
  39.1425044  61.5106225  31.6582001  39.0318133  59.4140759  31.1517477
  40.2057090  59.1093557  31.3185390  38.0581648  58.5065994  31.1756007
  37.0894979  58.7537182  31.0316693  38.3711076  57.1371667  31.6330829
  39.4200889  56.9178840  31.4339536  38.1175677  56.9867558  33.1275688
  38.3376347  55.9607629  33.4225405  38.7739306  57.6684861  33.6684307
  36.7818965  57.2840829  33.4325689  36.6394718  57.1845276  34.3767107
  37.7227118  56.0370088  30.8053823  36.9170796  56.2988324  29.9132616
  38.1335799  54.7871334  31.0530892  38.7769567  54.5894156  31.8061319
  37.6746035  53.6821646  30.2326096  36.6606969  53.8905826  29.8910623
  38.5770088  53.4627182  28.9965347  38.1694706  52.6573859  28.3854277
  38.6190047  54.3791719  28.4079356  40.3244257  53.0018835  29.3491612
  40.7056364  52.9189787  28.0776646  37.6827370  52.4256473  31.1156532
  38.3142430  52.4236206  32.1808363  36.9677168  51.4110644  30.6695650
  36.4349120  51.4963333  29.8157807  36.8520592  50.1583163  31.4456386
  37.7639338  50.0095464  32.0239565  35.6517262  50.1969349  32.4176788
  35.6720723  49.2909862  33.0234365  35.7618673  51.0679073  33.0637253
  34.3995875  50.2761046  31.7167059  33.6788944  50.2981551  32.3505158
  36.7583544  48.9660122  30.5303423  36.4061285  49.0871547  29.3233492
  37.0624349  47.7904766  31.0891231  37.3336101  47.7483037  32.0611236
  36.9178206  46.5172476  30.3440160  36.1657121  46.6341148  29.5637763
  38.2436177  46.1113983  29.6896587  39.0309199  46.3268344  30.4120448
  38.1940461  45.0363254  29.5168558  38.5314762  46.7793532  28.4576239
  39.3736051  46.4706206  28.1154209  36.6001631  45.4473931  31.3722086
  37.0005944  45.5816998  32.5397181  35.8982929  44.4158708  30.9076506
  35.5405535  44.4788319  29.9652294  35.5821503  43.2393371  31.6826728
  36.0148371  43.3194188  32.6799031  34.0495685  43.0983659  31.8192962
  33.8545523  43.8434826  32.5905738  33.5621425  43.3997819  30.8921154
  33.4970556  41.7420102  32.2687479  33.8435160  40.9674820  31.5845168
  33.9976156  41.4155913  33.7289042  33.6511297  42.1894910  34.4138316
  33.6010151  40.4498212  34.0421086  35.0870194  41.3816270  33.7409932
  31.9594965  41.6567237  32.1275270  31.6812018  41.8044747  31.0840611
  31.6175080  40.6762461  32.4589010  31.4944590  42.4292495  32.7399346
  36.1954123  41.9920589  31.0050566  36.0431268  41.8126201  29.7812196
  36.8515567  41.1334040  31.7990812  37.0242677  41.3597069  32.7681309
  37.3698179  39.8466654  31.2743726  37.0418101  39.7032497  30.2448377
  38.9042056  39.8487303  31.3044398  39.1996360  40.0588546  32.3323834
  39.3751294  38.9230549  30.9735987  39.4764800  40.9451423  30.4618676
  39.5223535  40.8577550  29.0913319  39.9746476  42.0051021  28.6008724
  40.0582213  42.1529098  27.5241797  40.2574526  42.8081674  29.6099520
  40.6457850  43.7380813  29.5424401  39.9357116  42.1709161  30.7858595
  40.0764731  42.6814046  31.7385866  36.8674272  38.6382708  32.0643126
  36.7040797  38.7553994  33.2527348  36.5782629  37.5280301  31.3517036
  36.6688229  37.5407594  30.3458526  36.1383618  36.2786074  31.9978808
  35.9653305  36.4030980  33.0668342  34.8442791  35.7730059  31.3474286
  35.0044156  35.6347733  30.2781540  34.5582563  34.8222883  31.7973477
  34.0493756  36.5022008  31.5039610  37.2162604  35.2519941  31.8216284
  37.9506550  35.2326279  30.8105921  37.3085226  34.3402823  32.7851549
  36.7722457  34.3802759  33.6400859  38.2274688  33.2557766  32.6101710
  38.3899720  33.0592977  31.5504126  39.5936811  33.6374167  33.2619952
  40.0216928  34.4459424  32.6693812  39.3836976  33.9976187  34.2691007
  40.6173167  32.4413239  33.3350324  41.4124481  32.7119354  34.0297527
  40.0985959  31.5565605  33.7041183  41.2319875  32.1169586  32.0058613
  41.7539401  33.0089934  31.2928680  41.1850065  30.8208887  31.6232276
  41.5834546  30.5443124  30.7373122  40.7516809  30.1352377  32.2250689
  37.6470895  32.0064321  33.2675219  37.4369932  32.0061806  34.4715154
  37.4513078  30.9376776  32.4769605  37.6283914  31.0233872  31.4863068
  36.9682809  29.6336625  32.9950719  36.2161195  29.7955562  33.7671747
  36.3299714  28.8034556  31.8459716  35.7057097  29.4743527  31.2558076
  37.1375677  28.4179997  31.2236277  35.4480427  27.5917480  32.3802596
  36.1211141  26.8418355  32.7958400  34.7960290  27.9701711  33.1675182
  34.5914053  26.9528553  31.2657685  35.2431414  26.5538494  30.4885085
  33.9906529  26.1458044  31.6851309  33.6984975  27.9369924  30.6667627
  32.8390250  28.1373594  31.1579443  33.9183496  28.5383795  29.5020990
  35.0164004  28.2496297  28.7967678  35.6775932  27.5736224  29.1516456
  35.1799088  28.7087700  27.9121466  33.0673289  29.4596210  29.0882731
  32.2661904  29.6944703  29.6567121  33.2215753  29.9250382  28.2052705
  38.1603574  28.8982921  33.5872088  39.2696027  28.8979860  33.0009991
  37.9567725  28.2853411  34.7607412  37.0515439  28.3413110  35.2051822
  39.0072142  27.5363586  35.4291688  39.8213589  27.3504554  34.7286635
  39.5567034  28.3062513  36.6737056  38.7532008  28.4279444  37.4001179
  40.7070426  27.5311971  37.3126419  41.5111744  27.4095009  36.5869266
  41.0791428  28.0798268  38.1778861  40.3530251  26.5502873  37.6297961
  40.0339624  29.7084901  36.1978418  40.7156331  29.5721471  35.3582964
  39.1621830  30.2742417  35.8691697  40.7740892  30.5029936  37.3565090
  41.6463034  29.9380412  37.6854024  41.0918752  31.4769481  36.9843211
  40.0928535  30.6401337  38.1962771  38.4156324  26.2028190  35.8744921
  37.3656555  26.1569349  36.5417434  39.1162073  25.1229508  35.5070231
  39.9614721  25.2416998  34.9670921  38.6363549  23.7491070  35.7641999
  37.5522482  23.7473233  35.8773755  39.0105018  22.8285565  34.5828982
  40.0659209  23.0433809  34.4154464  38.8723886  21.7531040  34.6943739
  38.2859858  23.2273701  33.3275436  36.9339003  23.0325553  33.1860161
  36.5206202  23.5654828  32.0440884  35.4761075  23.5031623  31.7387881
  37.5650192  24.1174568  31.4526252  37.5594251  24.5942081  30.5622451
  38.6747250  23.9406608  32.2459507  39.6354580  24.3541705  31.9391887
  39.2059875  23.3187351  37.1133214  40.0807939  22.4688713  37.1936664
  38.7160862  23.9854334  38.1498960  38.0355028  24.7077881  37.9625210
  39.1443022  23.7768449  39.5361311  39.2780853  22.7134682  39.7347040
  40.4469262  24.4902020  39.8248062  40.3261614  25.5574881  39.6392895
  40.7250996  24.3322625  40.8668115  41.2293189  24.0955209  39.1765873
  38.0297436  24.2602853  40.4505056  37.1695667  25.0213281  40.0140625
  38.0025954  23.7803440  41.7251790  38.9617445  22.8382288  42.3548973
  39.7961739  23.3841058  42.7951767  39.3398831  22.1316156  41.6161090
  38.0966294  22.1782308  43.3869431  38.6983750  21.7483315  44.1876852
  37.4773503  21.4001200  42.9406938  37.2197803  23.3586274  43.9047167
  37.8519650  23.9228447  44.5903553  36.2801863  23.1105612  44.3984026
  36.9449226  24.1914287  42.6421367  35.9742154  24.0340032  42.1719846
  37.1110643  25.6689361  42.9812144  38.2574057  26.1374617  43.0992956
  35.9846717  26.3705867  43.1778770  34.5886205  25.9669721  42.9059629
  34.3982481  24.9933777  43.3575963  34.4326735  25.9040794  41.8290117
  33.7969735  27.0422854  43.5258743  33.6189329  26.8151390  44.5769714
  32.8422204  27.1462425  43.0103737  34.6446103  28.3030375  43.3633440
  34.4495504  28.9643344  44.2075816  34.4506007  28.8360581  42.4325652
  36.0975231  27.8287110  43.3996584  36.6814686  28.2562445  42.5845995
  36.7746354  28.1469932  44.7318665  37.4301075  29.1850128  44.8401015
  36.6542685  27.2548625  45.7385022  36.0101870  26.4773682  45.7109151
  37.3679930  27.5157036  46.9793972  37.1652819  28.5366584  47.3029071
  36.9256748  26.5338229  48.1155217  37.4936102  26.7866145  49.0108680
  35.8642302  26.6987318  48.3005638  37.1631029  25.0378439  47.7559712
  38.0566635  25.0157927  47.1321410  37.3578894  24.5067477  48.6876870
  35.9927764  24.3523625  47.0059218  35.1822539  25.0345427  46.3322718
  35.8831648  23.0908657  47.1154304  38.8701540  27.5232656  46.7411936
  39.6012003  28.3222190  47.3631572  39.3690880  26.6481572  45.8712762
  38.8025246  25.9209484  45.4586350  40.7961667  26.6785094  45.5549238
  41.3804216  26.7125154  46.4744829  41.1897707  25.4254202  44.7719957
  40.9102049  24.6194785  45.4505236  40.5232639  25.4211912  43.9095278
  42.6181253  25.2216150  44.3073070  42.7761772  25.8522961  43.4324574
  43.6589653  25.5753317  45.3909902  43.5018298  24.9446961  46.2660365
  44.6625958  25.4092030  44.9995468  43.5484752  26.6222193  45.6736893
  42.7668017  23.7561946  43.9081926  42.0685145  23.5255665  43.1036399
  43.7859600  23.5734599  43.5675671  42.5522745  23.1213796  44.7678942
  41.2104709  27.9517378  44.7719362  42.2230991  28.6063405  45.0890252
  40.4438596  28.2939806  43.7466723  39.6852677  27.7114613  43.4221590
  40.7348059  29.5504780  43.0057670  41.7245296  29.5321857  42.5494648
  39.6841266  29.7950412  41.8975630  38.6871803  29.7187042  42.3315790
  39.8688082  31.1981795  41.2752082  40.8654299  31.2751202  40.8405517
  39.1208838  31.3525671  40.4974717  39.7505033  31.9575135  42.0482007
  39.7640866  28.7020456  40.7935516  39.5797009  27.7233140  41.2364831
  39.0132669  28.9015477  40.0289809  40.7554023  28.7143245  40.3405139
  40.7724114  30.7431223  43.9790784  41.6976410  31.5864699  43.9340337
  39.7582307  30.8254542  44.8320830  38.9732082  30.2002605  44.7181886
  39.6491937  31.9176342  45.8327607  39.7090306  32.8810993  45.3265455
  38.2967477  31.8429851  46.6029245  37.4352202  31.9633717  45.9461319
  38.2349454  30.8798742  47.1095781  38.1761328  32.9015275  47.6716349
  38.1241947  32.6949863  49.0215002  38.1403119  31.6548086  49.3468774
  38.0607798  33.8846218  49.6978692  38.0254342  33.9929801  50.7014173
  38.0599358  34.9115794  48.7832314  38.0018685  36.2821529  49.0030889
  37.9505497  36.6431318  50.0302983  38.0132445  37.1185215  47.8777368
  37.9733090  38.2000106  48.0076845  38.0766679  36.5796966  46.5503996
  38.0773695  37.2273366  45.6736662  38.1404159  35.1833635  46.3437017
  38.1635632  34.8042728  45.3220094  38.1391421  34.3345851  47.4850831
  40.8857229  32.0051457  46.7800417  41.4073151  33.0760735  47.0756114
  41.3336715  30.8385152  47.2715792  40.8294665  29.9855373  47.0758612
  42.5188215  30.7641142  48.1358089  42.3466325  31.2926410  49.0734173
  42.8058516  29.2782485  48.4517925  43.3260480  29.2064818  49.4069598
  41.8636869  28.7332292  48.5099277  43.6225101  28.7111450  47.4196469
  43.7976634  27.7889101  47.6206540  43.7509202  31.4200548  47.4956247
  44.6306697  31.9106679  48.1910359  43.8209701  31.4606556  46.1569726
  43.0988345  31.0351086  45.5934751  44.9340670  32.0941537  45.4822064
  45.8547205  32.0764186  46.0654575  45.1877865  31.4291704  44.0858080
  44.2561502  31.4442278  43.5201867  46.2823051  32.1808005  43.2950475
  47.2144286  32.1657669  43.8598664  46.4340333  31.6942696  42.3315294
  45.9715448  33.2132633  43.1352106  45.5117115  29.9366261  44.2763598
  46.5694906  29.8746488  44.5320217  44.9138014  29.5903026  45.1193681
  45.2251885  29.0427291  43.0359152  45.8231303  29.3881792  42.1925708
  45.4839406  28.0089305  43.2648412  44.1674408  29.1038349  42.7799158
  44.6806704  33.5957403  45.2681181  45.5525582  34.4500554  45.5598275
  43.5162852  33.8869142  44.6893850  42.9094555  33.1269018  44.4169182
  43.0830451  35.2865418  44.3813143  43.7605564  35.8354179  43.7272404
  41.6920063  35.2665548  43.7395250  41.1224154  34.4666832  44.2126750
  40.9184528  36.6225609  43.8966349  41.4872459  37.4228873  43.4232923
  39.9413022  36.5413015  43.4205319  40.7886577  36.8468558  44.9553826
  41.8427682  34.8542591  42.2897812  42.2920467  33.8624881  42.2383880
  40.8625277  34.8336347  41.8135429  42.4823750  35.5695478  41.7727069
  43.0664253  36.1679984  45.6497712  43.3413240  37.3798721  45.5843955
  42.7489513  35.5758357  46.7961353  42.4775926  34.6031769  46.8160995
  42.6149133  36.3717293  48.0469595  42.1679121  37.3403958  47.8234102
  41.7184549  35.6386325  49.0530214  41.4028340  36.3392833  49.8260486
  40.8415138  35.2521367  48.5336994  42.4891901  34.4678637  49.7031296
  42.7731363  33.7554908  48.9285328  43.3862892  34.8567612  50.1848701
  41.6004649  33.7553578  50.7614334  40.6935767  33.3746412  50.2916380
  42.1489515  32.9292139  51.2139244  41.2224414  34.6996234  51.8140006
  40.3374269  35.1705218  51.6911047  41.9450744  34.9812532  52.8897609
  43.1300703  34.3815621  53.0808403  43.4703164  33.7147797  52.4028036
  43.6764135  34.5996657  53.9018394  41.4773279  35.8547629  53.7744698
  40.5808695  36.2938484  53.6206310  42.0202912  36.0758259  54.5969178
  43.9282598  36.8252519  48.6942988  43.9327947  37.7073301  49.5634900
  45.0293345  36.2010825  48.2818014  44.9264448  35.4663929  47.5964225
  46.3571790  36.4577125  48.8257768  46.3087960  36.5751252  49.9083536
  47.2698864  35.2753250  48.5031472  47.2225647  35.0889049  47.4302505
  48.2893003  35.5440152  48.7800965  46.8570400  34.0255444  49.2507784
  45.7911359  33.8474233  49.1085743  47.4207482  33.1706923  48.8771972
  47.1447422  34.2139500  50.7260451  46.6886700  35.1365437  51.0850966
  46.7562608  33.3709021  51.2974048  48.5922509  34.2943305  50.9336953
  49.1817048  34.0721086  50.1442266  49.1697446  34.6423143  52.0773724
  48.4142657  34.9619709  53.1279329  47.4077012  34.9377468  53.0483019
  48.8518299  35.2269508  53.9988077  50.5003217  34.6642338  52.1722782
  51.0647531  34.4156223  51.3724597  50.9371001  34.9293368  53.0435093
  46.9279308  37.7927659  48.2981806  47.8185773  37.8280872  47.4429314
  46.4377255  38.8722016  48.8853982  45.6947126  38.7722787  49.5621896
  46.8698251  40.2263408  48.5216596  46.7074257  40.4067456  47.4590309
  46.0534584  41.2405991  49.3190596  44.9910555  41.1317666  49.1009891
  46.2229512  41.0849389  50.3844901  46.4078781  42.6776129  49.0313186
  45.9365378  43.2952861  47.8675694  45.3138089  42.7347812  47.1703300
  46.2667877  44.6456981  47.5944549  45.8934669  45.1172283  46.6853942
  47.0613412  45.3689183  48.4767900  47.3218702  46.4049598  48.2603585
  47.5248497  44.7631776  49.6420488  48.1434574  45.3191873  50.3465187
  47.1843530  43.4053433  49.9100730  47.5383986  42.9244768  50.8219496
  48.3792495  40.4333871  48.7203522  49.0131742  41.1312639  47.9442482
  48.9790318  39.7558757  49.7098514  48.4322536  39.2097265  50.3601238
  50.4214091  39.8551980  49.9292863  50.7429671  40.8857785  49.7789419
  50.7952305  39.4250544  51.3702985  51.8844999  39.4310351  51.4097409
  50.4020040  40.1375641  52.0954211  50.2861353  38.0373159  51.6995294
  49.1466365  37.6588785  51.2811163  51.0014298  37.3317406  52.4290568
  51.2960524  39.0797715  48.9653263  52.5114178  39.2778418  48.9779390
  50.7137327  38.2108849  48.1461427  49.7082779  38.1151810  48.1470366
  51.4887180  37.3881476  47.2146632  52.5114512  37.7577198  47.1402844
  51.5257971  35.9417479  47.7297070  50.4951030  35.6201743  47.8792370
  51.9881804  35.3295045  46.9554591  52.2902879  35.7858694  49.0143796
  52.1555938  36.6732386  49.6328731  51.9296300  34.9097885  49.5533696
  53.7801834  35.6095450  48.6908274  54.0639897  36.3233932  47.9175398
  54.3652309  35.7980610  49.5909833  54.0541357  34.1695583  48.1894677
  54.3560269  33.5812510  49.0559876  53.1131783  33.7827063  47.7982596
  55.1162831  34.0765752  47.1249927  55.9883836  34.4345937  47.4874331
  55.2359205  33.1115025  46.8521894  54.8365410  34.6213000  46.3218001
  50.9061726  37.3382956  45.8073332  50.6324835  36.2624394  45.3039877
  50.6963114  38.5053339  45.1732363  51.1982823  39.8262682  45.5828311
  52.2162160  39.7301599  45.9605539  50.5582034  40.2348659  46.3647811
  51.1271784  40.6282813  44.3011341  52.1097058  40.6199629  43.8292551
  50.8508465  41.6539027  44.5457618  50.1291298  40.0126700  43.4540563
  50.3954355  40.1542079  42.4066083  49.1288332  40.4080152  43.6307159
  50.1719958  38.5070385  43.8088624  49.1874232  38.0403856  43.8396874
  51.0590044  37.7621108  42.8024533  50.5529199  37.2328652  41.8211768
  52.3562434  37.6995156  43.0519484  52.7421508  38.2061231  43.8358640
  53.2832071  37.0771688  42.1026577  53.0748914  37.4355970  41.0945739
  54.7480719  37.4323887  42.4616157  55.3735044  37.1320543  41.6209417
  54.8019825  38.5139548  42.5857465  55.2452060  36.7470308  43.7377501
  54.7239462  35.7933301  43.8204792  56.3158890  36.5679654  43.6393856
  55.0010251  37.5456782  45.0074682  53.9823567  38.2194516  45.1758578
  55.9650265  37.4786783  45.9145522  55.8720597  37.9840242  46.7840832
  56.7881703  36.9225824  45.7320888  53.0170217  35.5581921  41.9221031
  53.4804364  34.9489974  40.9414371  52.2126198  34.9550096  42.8001654
  51.8260576  35.4301459  43.6032311  51.8739372  33.5297081  42.5987038
  52.7974365  32.9513537  42.5712364  50.9698513  32.9423362  43.6480908
  50.7115691  31.9255693  43.3521588  51.6367772  32.9178274  44.9998833
  51.8949532  33.9343586  45.2967150  50.9555735  32.4874516  45.7339387
  52.5426959  32.3139272  44.9477632  49.7678420  33.7279857  43.7039688
  49.1792965  33.3654557  44.3701419  51.1649836  33.3472648  41.2537320
  51.2612662  32.2722661  40.6624931  50.5025862  34.3872819  40.7431763
  50.2594730  35.1815158  41.3177961  49.9565007  34.3222716  39.3672612
  50.4928594  33.5644799  38.7961479  48.4815826  33.9613930  39.3870656
  48.2002346  33.5878526  38.4024793  48.3970204  33.1572125  40.1179848
  47.5742480  35.0793633  39.7717881  46.9209208  35.8152106  38.7965665
  47.1003574  35.5802228  37.7474322  46.0659271  36.8184516  39.1322213
  45.5364031  37.3749658  38.3589179  45.8586067  37.1274073  40.4860122
  45.0302119  38.1609534  40.8188206  44.6503247  38.5985806  40.0534659
  46.4843680  36.4144802  41.4834999  46.3256314  36.6564675  42.5343783
  47.3180760  35.3860543  41.1364593  47.7972656  34.7877319  41.9113708
  50.1691944  35.5260483  38.4098955  49.9281697  35.4310623  37.1835947
  50.6104763  36.6417769  38.9389285  50.6868730  36.7690665  39.9379582
  50.9311125  37.7597285  38.0786014  50.4090532  37.6748380  37.1255290
  50.4828640  39.0559111  38.7699985  51.1702574  39.2294999  39.5979215
  50.5848439  39.8583749  38.0394151  49.0523072  39.0264061  39.2954447
  48.3488729  38.8672500  38.4781623  48.9338891  38.2348533  40.0353929
  48.7733000  40.3906877  39.9543010  49.2970392  40.3832439  40.9101989
  49.2177337  41.1432228  39.3029416  47.3461617  40.7120963  40.1766944
  46.7551147  40.4067275  39.3132630  46.9813439  40.1983750  41.0661310
  47.2143033  42.2704485  40.3789438  47.5518995  42.7466503  39.5547106
  46.2449976  42.5091764  40.5324219  47.7615655  42.5535546  41.1792276
  52.4189664  37.7903413  37.7350035  53.2834915  38.2356612  38.5809329
  52.7296805  37.4759933  36.4707092  52.0137746  37.4043072  35.7618798
  54.1294072  37.1506434  36.0935383  54.6368360  36.7017624  36.9474241
  54.1833335  36.1524739  34.9024851  53.3662207  36.2552265  34.1884348
  55.1277516  36.3807009  34.4084337  54.2388223  34.7002101  35.2864729
  55.0476892  34.2156139  36.2955506  54.9237361  32.9011487  36.3710936
  55.4686773  32.3339960  37.1257299  54.0856644  32.5072711  35.4273536
  53.7913713  31.5574733  35.2502222  53.6696818  33.6109911  34.7119380
  53.0024181  33.4877615  33.8588994  55.0169962  38.3659796  35.7301766
  56.2444045  38.1818189  35.4289862  54.4058616  39.5618354  35.7614414
  53.4121265  39.6027535  35.9372700  55.1292301  40.8175312  35.5804221
  55.9425406  40.6860150  34.8667493  54.1733854  41.8839253  35.0414057
  53.2408971  41.9792107  35.5977197  54.7123233  42.8308826  35.0717022
  53.7898184  41.6464378  33.5839404  54.7925792  41.6779485  32.5806579
  55.8230283  41.8966738  32.8607182  54.4664285  41.4297031  31.2325207
  55.2287123  41.4945828  30.4561092  53.1599054  41.0998559  30.8969743
  52.9139255  40.8947388  29.8550910  52.1455990  41.0278969  31.8964313
  51.1216835  40.7673159  31.6284860  52.4754667  41.2967319  33.2388892
  51.7092957  41.2332857  34.0115835  55.6770921  41.3115849  36.9174966
  56.2687879  42.3638939  36.9641329  55.4014047  40.5899297  38.0098277
  54.8163241  39.7679865  37.9630363  55.8945053  41.0233504  39.3314159
  56.2160772  42.0647407  39.3454528  54.8095655  40.8024728  40.4194911
  54.4621402  39.7712314  40.3567441  55.3874997  41.0841319  41.8929663
  55.7347176  42.1153872  41.9566290  54.6011873  40.9199115  42.6297467
  56.2190021  40.4083401  42.0929872  53.5976706  41.6693986  40.0724530
  53.9345013  42.7057189  40.0986465  53.3053230  41.4085205  39.0553124
  52.3850304  41.4977404  41.0171578  52.6765030  41.7589001  42.0344774
  51.5754949  42.1514781  40.6925371  52.0473261  40.4617004  40.9911449
  57.1776561  40.3055174  39.7215232  57.2266767  39.0556023  39.8132643
  58.1988102  41.0835338  40.0353940  58.1246236  42.0867142  39.9447039
  59.4517498  40.5283343  40.4862929  59.6528399  39.5820296  39.9841282
  60.5698293  41.4981372  40.1580240  60.5281692  41.7166545  39.0909655
  60.4015939  42.4149996  40.7229666  61.9724432  40.9180438  40.5150352
  62.0255105  40.8753858  41.6029070  62.0047223  39.9064970  40.1102721
  63.1630524  41.7223905  39.9763412  64.0658232  41.1995140  40.2921008
  63.0925823  41.7003242  38.8888457  63.2207971  43.1482075  40.4451540
  62.4142415  43.6902792  39.9514670  63.0518950  43.1480626  41.5219879
  64.5442616  43.8245793  40.1413236  64.7007580  43.8252023  39.1435219
  64.5213904  44.7761369  40.4791327  65.2917213  43.3226869  40.5990431
  59.4173473  40.2556411  42.0022226  59.8382627  39.1913883  42.4637269
  58.9178400  41.2123055  42.7643936  58.6490932  42.1017234  42.3684008
  58.7876082  41.0267446  44.2338077  58.5520558  39.9872784  44.4621150
  60.1247438  41.3964489  44.9291531  60.0821169  41.0876131  45.9736159
  60.9429154  40.8769771  44.4303100  60.3439320  42.8132551  44.8580364
  61.1728255  43.0309214  45.2906525  57.6409690  41.8803710  44.7537216
  57.1617845  42.8171278  44.0934853  57.1619157  41.5587633  45.9518558
  57.5319478  40.7945455  46.4987989  56.0725766  42.3316607  46.5036056
  56.0785569  43.3417532  46.0940002  54.7426354  41.6646470  46.1414454
  54.5768750  41.6831376  45.0642821  54.7132695  40.6341399  46.4954128
  53.3129374  42.4914116  46.8837107  52.3978669  41.6734537  46.3713737
  56.2603765  42.3578428  48.0141865  56.5629128  41.3238060  48.6070657
  56.1704098  43.5185120  48.6121849  56.1618456  44.4080445  48.1338986
  56.2589457  43.5170323  50.0702066  56.1390877  42.5022537  50.4496239
  57.6056157  44.0406771  50.5097132  57.7963145  43.7301110  51.5369824
  58.3805858  43.6362259  49.8586060  57.6169108  45.4418832  50.4352639
  58.4743900  45.7702979  50.7153943  55.0879343  44.2368988  50.7306917
  54.5001206  45.1919602  50.1822841  54.7388258  43.7376093  51.9174888
  55.2161492  42.9143080  52.2557738  53.7066715  44.3139599  52.7389426
  53.3608421  45.2467159  52.2934456  52.5192263  43.3425843  52.8284147
  52.8702748  42.3657083  53.1609468  51.5538598  43.8549167  53.7743798
  51.2019830  44.8316356  53.4422595  50.7097627  43.1684758  53.8407082
  52.0208149  43.9515409  54.7545422  51.8225079  43.1938817  51.4630499
  52.5334548  42.8093730  50.7317431  50.9860535  42.5010600  51.5549297
  51.4541993  44.1658174  51.1347352  54.2982952  44.5709485  54.1412704
  55.3902455  44.1195456  54.4521419  53.5537880  45.2746363  54.9722298
  52.7761302  45.7894037  54.5844643  53.8423280  45.4207689  56.4229751
  54.7314856  46.0291975  56.5882407  52.6462031  46.1197314  57.0660726
  51.7422209  45.6462614  56.6830039  52.7107495  45.9608495  58.1424974
  52.5979533  47.6237946  56.7738968  53.2335093  47.8470846  55.9169774
  51.5644731  47.8737490  56.5340204  53.0517367  48.4424346  57.9659540
  52.3536707  49.4344892  58.3185068  54.0981592  48.0686313  58.5619842
  54.1712959  44.1227056  57.1910610  53.4723245  43.1071926  57.0336501
  51.0337187  41.9931265  59.8733593  51.3354556  41.2269628  60.4582075
  49.6090335  42.3507075  59.8742296  49.2205077  42.2542502  60.8880554
  49.3700052  43.7998061  59.3891070  49.8412134  43.9298687  58.4148658
  48.3023500  44.0029457  59.3057607  49.9469256  44.8723219  60.2976605
  50.2207485  44.6125614  61.6510605  50.0154276  43.6230424  62.0594664
  50.7592625  45.6242173  62.4830502  50.9750839  45.4083671  63.5294395
  51.0164257  46.9091387  61.9602453  51.4302815  47.6874230  62.6014136
  50.7384908  47.1845547  60.6121369  50.9334904  48.1723433  60.1945858
  50.1987705  46.1622503  59.7918157  49.9697310  46.3667108  58.7459492
  48.8136022  41.3852491  58.9956210  49.3192118  40.9315101  57.9603004
  47.5803419  41.0677688  59.4061005  47.2709590  41.2959744  60.3400726
  46.6709308  40.3121260  58.5372379  47.2154488  39.5254353  58.0150148
  45.5229058  39.6683320  59.3374035  45.9341246  38.9676559  60.0640749
  44.9627227  40.4445864  59.8586750  44.6027218  38.9318419  58.3935053
  44.1907271  39.6319993  57.6667723  45.1621275  38.1550678  57.8721738
  43.4646498  38.2936323  59.1867317  42.4236955  38.9829579  59.3565715
  43.6471018  37.1228747  59.6152618  46.1547773  41.2819301  57.4551257
  45.8737270  42.4506377  57.7355278  46.0523701  40.8158586  56.2166319
  46.3649225  39.8908875  55.9580997  45.6722023  41.7382269  55.1550806
  46.1531761  42.7014616  55.3252050  46.1011134  41.2097093  53.7637789
  45.7623861  40.1757404  53.6984235  45.5774848  41.8107166  53.0203387
  47.6703351  41.2729498  53.4883627  48.1239261  40.6532124  54.2618493
  47.8115692  40.8009327  52.5160691  48.4825109  42.9245943  53.4828025
  49.3204810  43.0334469  55.1030436  50.0466401  42.2254518  55.1921278
  49.8327072  43.9921745  55.1840767  48.5826460  42.9477360  55.9007618
  44.1845953  42.1076853  55.2986911  43.3004213  41.2374942  55.3562208
  43.9366316  43.4092740  55.4403348  44.7141645  44.0515380  55.3852103
  42.6032701  43.9555138  55.6651467  41.8031541  43.2322808  55.5075155
  42.5090403  44.4866640  57.1059611  42.6238960  43.6597927  57.8068114
  43.2983607  45.2188514  57.2761816  41.1502886  45.1462077  57.3167222
  41.0348863  45.9735241  56.6164860  40.3604209  44.4144660  57.1471186
  41.0568848  45.6727033  58.7449039  41.1717422  44.8458331  59.4457551
  41.8462043  46.4048916  58.9151226  39.7485762  46.3209836  58.9866938
  39.0795904  46.3530855  58.2306998  39.4135637  46.8632189  60.1540190
  40.2403877  46.8600962  61.1957737  41.1532226  46.4362839  61.1108286
  39.9516417  47.2815493  62.0670387  38.2105976  47.4202005  60.2614661
  37.5851273  47.4208730  59.4684425  37.9280654  47.8399410  61.1355898
  42.3936696  45.1084597  54.6522763  43.3658617  45.6829564  54.1739146
  41.1401199  45.4302786  54.3338807  40.3951724  44.7730029  54.5159283
  40.8274431  46.6444783  53.5527371  41.2197050  46.5768228  52.5380191
  39.2820943  46.9297838  53.4763767  38.8896965  46.9127556  54.4931526
  38.9580990  48.2772107  52.8274693  39.3498067  48.2948203  51.8104364
  37.8775994  48.4186444  52.8026139  39.4157794  49.0793208  53.4064768
  38.5660445  45.8088011  52.7232902  38.7255498  44.8629589  53.2410185
  37.4982437  46.0234508  52.6805528  38.9630059  45.7394879  51.7105127
  41.6401619  47.8398520  54.0404747  41.6737718  48.1693173  55.2632314
  42.3144817  48.4776033  53.0807565  42.3030985  48.0764610  52.1539045
  43.0643127  49.7157053  53.2913508  42.9300934  50.3778255  52.4359671
  42.7090505  50.2126494  54.1940881  44.5430157  49.4039076  53.4479701
  45.3520648  50.3239539  53.3896057  44.9296444  48.1336158  53.6610849
  44.2630807  47.3851981  53.7862376  46.3759937  47.7963271  53.6652036
  46.8803187  48.4100718  54.4115767  46.6216606  46.3448884  53.9893031
  45.9919236  45.6959028  53.3807406  47.6683288  46.0815110  53.8369277
  46.2416162  45.9301372  55.7364841  46.5622571  44.6424992  55.6466177
  46.9574716  48.0290877  52.2692276  46.2233658  47.9586652  51.2649575
  48.2576503  48.2657491  52.2127865  48.8144564  48.3676682  53.0492546
  48.9087813  48.5055967  50.9002384  48.2240004  48.2958451  50.0785460
  49.4263598  49.9802093  50.7576889  49.9831529  50.0575205  49.8238234
  48.2581155  51.0095444  50.7517428  47.7011061  50.9331423  51.6855537
  48.6614949  52.0171626  50.6512946  47.5927534  50.7999358  49.9142119
  50.3398829  50.2582799  51.8297949  50.6617766  51.1592087  51.7503462
  50.0411493  47.5043329  50.6266851  50.6291394  46.8944602  51.5754785
  50.3693508  47.2969155  49.3412004  49.8325679  47.6997278  48.5864119
  51.5183173  46.4488681  49.0025611  52.0586076  46.1809727  49.9105355
  51.0562820  45.1687932  48.3148914  51.9442552  44.5532811  48.1708513
  50.3773253  44.6699531  49.0064666  50.3530055  45.3743018  46.9674280
  49.5297379  46.0778189  47.0915046  51.0644645  45.7723407  46.2438998
  49.7956852  44.0049751  46.4518162  50.6190976  43.3538812  46.1582726
  49.2120188  43.5211405  47.2349746  48.9296098  44.2228490  45.2861484
  49.0274052  45.0996879  44.7945296  48.0155899  43.3463660  44.8530442
  47.8434829  42.1734822  45.4846564  48.4075899  41.9507987  46.2923044
  47.1507483  41.5195749  45.1490621  47.2675469  43.6331681  43.7535674
  47.4047294  44.5077108  43.2672998  46.5783531  42.9702697  43.4284885
  52.4646548  47.2126767  48.0827307  51.9874482  48.0761127  47.3134523
  53.7685043  46.9556553  48.1863329  54.1280854  46.3646207  48.9221854
  54.7134422  47.5836468  47.2868197  54.1943452  48.3474075  46.7077626
  55.8831591  48.2443192  48.0343913  56.3098323  47.4368067  48.6293476
  56.6302066  48.6095667  47.3296827  55.4542549  49.3821813  48.9554195
  54.5605400  50.1893028  48.6385463  56.1003648  49.5094694  50.0108856
  55.2256030  46.5719803  46.2937360  55.9861991  45.6902494  46.6296305
  54.8617100  46.7676467  45.0267090  54.3430540  47.5941134  44.7658489
  55.2177569  45.8058749  43.9720059  55.5060395  44.8230308  44.3448461
  54.0102643  45.6355287  42.9994404  53.6284163  46.6279109  42.7597133
  54.4025502  44.9044250  41.6926044  54.7840834  43.9117224  41.9315077
  53.5265938  44.8116313  41.0505839  55.1735961  45.4743848  41.1742072
  52.8050482  44.9060360  43.6821500  52.4693737  45.4849826  44.5425253
  51.9868601  44.8090929  42.9685184  53.1185714  43.9153909  44.0114313
  56.4142643  46.3826200  43.2173913  56.4569002  47.6190806  42.9609594
  57.3827592  45.5287044  42.8983617  57.3734227  44.5975551  43.2894797
  58.4841911  45.8962723  42.0095324  58.3992209  46.9349467  41.6901034
  59.8814834  45.6601724  42.6272929  59.9299435  44.6424005  43.0144524
  61.0073372  45.8637490  41.5437705  60.9598028  46.8815050  41.1564541
  61.9837883  45.6933442  41.9972086  60.8583164  45.1574200  40.7270751
  60.1034169  46.5672102  43.8646538  60.2625122  47.5774475  43.4875464
  59.1806330  46.5373463  44.4440307  61.3090010  46.1552729  44.7803391
  62.2322642  46.1853523  44.2017373  61.3831027  46.8486211  45.6181198
  61.1503859  45.1452495  45.1582199  58.2999316  45.0275784  40.7486679
  58.1319393  43.8194413  40.8403317  58.2656134  45.6584372  39.5778540
  58.2972058  46.6614084  39.4631804  57.9911302  44.8325073  38.3985365
  57.5304722  43.8871047  38.6850802  57.0937324  45.5199497  37.3485117
  56.9834317  44.8773417  36.4750199  55.6742919  45.7795849  37.9937926
  55.7837349  46.4225430  38.8671357  55.0263960  46.2656194  37.2643395
  55.2325500  44.8298817  38.2955034  57.7222295  46.7663040  36.8577793
  58.6837081  46.5332531  36.4002333  57.0726016  47.2347186  36.1184072
  57.8740449  47.4504166  37.6926703  59.2737699  44.2854226  37.7596056
  60.3709186  44.7496857  38.0503104  59.1002716  43.3200444  36.8789454
  58.1782856  42.9455432  36.7063478  60.2186150  42.7582237  36.1466787
  61.0493336  42.5361678  36.8165272  59.8244663  41.4602953  35.3534928
  60.6906316  41.0938285  34.8025298  59.3459871  40.3704548  36.3485357
  58.4795007  40.7360428  36.8995779  59.0725913  39.4701420  35.7982699
  60.1492116  40.1383722  37.0478691  58.7451843  41.7397824  34.2739456
  57.8519180  42.1203401  34.7692757  59.1298006  42.4952248  33.5887619
  58.3692033  40.3865440  33.4372197  57.9840552  39.6307506  34.1217173
  57.6105843  40.6197194  32.6900747  59.2619390  40.0056339  32.9412052
  60.7539230  43.7734564  35.1578142  60.0571021  44.7492763  34.8323606
  61.9633209  43.5334686  34.6778363  62.5040705  42.7415607  34.9949655
  62.5720500  44.4462288  33.6835207  62.5541176  45.4701023  34.0569651
  64.0269451  44.0455128  33.4238460  64.4625206  44.7553959  32.7206823
  64.5723711  44.0876157  34.3666280  64.1129325  42.7267419  32.8830665
  65.0339329  42.5027892  32.7307403  61.8467555  44.4792659  32.3450464
  61.1448379  43.5224954  31.9743243  62.0719059  45.5634395  31.5941702
  62.5616542  46.3683206  31.9580552  61.6052660  45.6037963  30.2095845
  62.3569249  46.1350888  29.6257727  61.5333920  44.5746174  29.8578400
  60.2663032  46.2826083  30.0225150  59.8090233  46.4608690  28.8716127
  59.6271170  46.6745409  31.1316006  60.0479471  46.5403732  32.0398959
  58.3002936  47.2866613  31.0656669  57.8215399  47.0576355  30.1135948
  57.4233412  46.7208702  32.2091126  58.0118067  46.8361355  33.1193442
  56.5719866  47.4008746  32.2389338  56.9200240  45.2768928  32.1059955
  57.7527032  44.6121797  31.8759900  56.2849045  44.8619463  33.4707166
  55.4518024  45.5259653  33.7011912  55.9237985  43.8354838  33.4068573
  57.0351154  44.9343110  34.2581474  55.8798514  45.1390069  31.0751950
  56.2860478  45.4316483  30.1069672  55.5470076  44.1020276  31.0305850
  55.0345858  45.7810201  31.3230740  58.3872866  48.8136058  31.1935753
  59.4206771  49.3310482  31.6665104  57.3053943  49.5277371  30.8249230
  56.1418005  49.0336995  30.0625069  55.6621383  48.2220956  30.6096115
  56.4686116  48.6708988  29.0879972  55.2243244  50.3165134  29.9514617
  54.5214955  50.3593810  30.7835032  54.6734183  50.3141383  29.0109309
  56.2014386  51.4590806  29.9984424  55.6625953  52.3276721  30.3769865
  56.6808520  51.7131887  29.0530898  57.2481888  51.0197202  31.0090316
  58.2326652  51.4447159  30.8133712  56.8229024  51.3542704  32.4499472
  55.9477997  52.2067829  32.6922504  57.5183564  50.7080798  33.3941041
  58.2731868  50.0924626  33.1269974  57.1929876  50.8310828  34.8170122
  57.1281211  51.8788743  35.1103115  55.8781184  50.1594550  35.1325735
  55.9306266  49.1072781  34.8528115  55.6747853  50.2412670  36.2003107
  55.0783334  50.6442525  34.5727392  58.3151580  50.2154192  35.6112615
  59.0302112  49.3451913  35.1191676  58.4727526  50.7062822  36.8414047
  57.9745689  51.5425998  37.1106354  59.3906759  50.1116459  37.8002444
  59.8740864  49.2485244  37.3426039  60.4926319  51.1179130  38.2533764
  60.0416153  51.9684721  38.7644854  61.1366991  50.5775881  38.9471533
  61.3500062  51.6408145  37.0949912  61.6566803  52.8412875  37.0302093
  61.7709657  50.7603162  36.2288060  62.3391208  51.0562275  35.4479501
  61.5266652  49.7870165  36.3432866  58.6974894  49.5739243  39.0359518
  59.0815504  48.5287870  39.5294304  57.7132062  50.3113676  39.5398974
  57.3351551  51.0833602  39.0096106  57.1069990  49.9979095  40.8479337
  57.2977664  48.9522107  41.0892239  57.6920577  50.8784298  41.9729116
  57.1755726  50.6312514  42.9004062  59.2065736  50.6596913  42.1547383
  59.7238139  50.9071267  41.2277336  59.5730222  51.3003710  42.9568257
  59.3956790  49.6166332  42.4084494  57.4734505  52.2606563  41.6506665
  57.8356232  52.8128242  42.3474749  55.6337049  50.3029750  40.7811999
  55.1868260  51.1286715  39.9581632  54.8731113  49.7298973  41.6949489
  55.2580716  49.0049810  42.2835075  53.4888787  50.0747734  41.8570649
  53.3330509  51.1081051  41.5471577  52.5789501  49.1568075  40.9980482
  52.8137423  49.3125570  39.9450933  52.7743500  48.1178443  41.2635183
  51.1706037  49.4621076  41.2326228  50.6241137  48.8854361  40.6937364
  53.1063466  49.9645789  43.3402079  53.5358463  49.0201436  44.0193244
  52.3396941  50.9402829  43.8358082  52.0668120  51.7213574  43.2565351
  51.8091229  50.8702841  45.2116074  52.2995453  50.0520075  45.7388725
  52.0564556  52.1852656  45.9972938  51.4826861  52.9918207  45.5408317
  51.6093779  52.0052530  47.4854665  52.1830771  51.1991200  47.9427612
  51.7851370  52.9313684  48.0327491  50.5479473  51.7596553  47.5193386
  53.4516980  52.4799518  45.9422707  53.6264649  53.2919543  46.4236320
  50.3366941  50.7082317  45.1062200  49.6651359  51.5096007  44.4379520
  49.8140971  49.6802475  45.7696420  50.3901929  49.1537720  46.4107633
  48.4346762  49.2731944  45.5926363  47.8815230  50.0224861  45.0263478
  48.4086843  47.9608626  44.8187942  48.9341376  47.1855126  45.3763160
  47.3792482  47.6478831  44.6444231  49.1207828  48.1898540  43.4506215
  48.4987348  48.9039972  42.9110323  50.0804830  48.6499084  43.6860462
  49.3488499  46.9514500  42.5791390  49.1200767  45.7843942  43.0137867
  49.7773267  47.2124429  41.4248438  47.7169028  49.0824706  46.9382394
  48.3106032  48.5767875  47.9078876  46.4666718  49.5005238  46.9594523
  46.0819504  49.8906011  46.1109663  45.5976966  49.4434747  48.1677670
  46.1934007  49.2228989  49.0535335  44.9115426  50.8005785  48.3642231
  45.7070962  51.5087091  48.5960522  44.4682671  51.0552731  47.4015511
  43.8233866  50.8664370  49.4677597  43.1200374  50.0503516  49.3022142
  44.3097506  50.7357560  50.4344420  43.0536458  52.2298146  49.4512490
  43.7598688  53.0591245  49.4113334  42.3905496  52.2760513  48.5873826
  42.2403456  52.3585057  50.6805604  42.6764605  52.8654044  51.4374995
  41.0068690  51.8870942  50.8585875  40.3772548  51.1980758  49.9104479
  40.8371904  51.0219641  49.0286634  39.4422493  50.8542966  50.0768211
  40.3824347  52.0967958  52.0378890  40.8534071  52.6067656  52.7715210
  39.4473940  51.7426719  52.1806962  44.5388645  48.3516084  48.0174586
  43.8337108  48.2626303  47.0106463  44.4499846  47.4772892  49.0115518
  45.1553206  47.4460264  49.7337866  43.3772107  46.4945521  49.0517754
  43.2689410  45.9918286  48.0907104  43.7437133  45.4335395  50.1294531
  44.6645614  44.9534595  49.7983019  43.9262120  45.9618690  51.0652214
  42.6583570  44.3649961  50.3474292  41.7384155  44.8688133  50.6440381
  42.4038890  43.5422522  49.0844742  43.3233264  43.0377355  48.7874949
  41.6307551  42.8000819  49.2833410  42.0758782  44.2014429  48.2807474
  43.1851753  43.4524938  51.5009330  43.3358679  44.0516857  52.3989087
  42.4565133  42.6682414  51.7061182  44.1312244  43.0000047  51.2037064
  41.9966693  47.1441966  49.3372791  41.8381207  47.7764729  50.3750667
  41.0535130  47.0830144  48.3936187  41.2254834  46.4999499  47.5870449
  39.7674583  47.8077441  48.4731431  39.8880117  48.6954801  49.0940221
  39.2888345  48.2466395  47.0723908  39.3811545  47.3535949  46.4542909
  38.2475572  48.5682903  47.0919483  40.1509681  49.3563457  46.4911362
  40.7236261  50.1637087  47.2894274  40.2116605  49.4944482  45.2314958
  38.6596782  46.9429095  49.0631554  37.7630788  47.4292167  49.7939118
  38.7305636  45.6526430  48.7831026  39.4428879  45.2845581  48.1689308
  37.6964314  44.6953155  49.3383147  37.4416925  44.9363414  50.3703582
  36.3911798  44.6833515  48.4667556  35.9151166  45.6596861  48.5575022
  36.6769541  44.3953508  47.0085623  37.1526336  43.4189084  46.9169654
  35.7425768  44.3978258  46.4472837  37.3417447  45.1616194  46.6098329
  35.3683455  43.6920325  48.9975150  35.7895321  42.6970507  48.8535920
  35.2614755  43.8899824  50.0640487  34.0614283  43.7630890  48.3573490
  34.1674358  43.5647750  47.2907967  33.3983680  43.0200199  48.8004049
  33.6393800  44.7577081  48.5012517  38.2949358  43.3247093  49.4132278
  39.0563376  42.9626957  48.5056247  38.0008916  42.5702808  50.5117184
  37.5020778  42.9688346  51.2943033  38.4369001  41.1871728  50.6048742
  38.5972593  40.7969131  49.5998461  39.7640339  41.0440266  51.4129906
  40.4381346  41.7862738  50.9854902  39.5293450  41.3169427  52.4418434
  40.4402811  39.6664719  51.3910442  39.7237054  38.9290112  51.7526681
  40.9123324  39.2729824  49.9637378  41.6293305  40.0097796  49.6016019
  41.3851036  38.2913323  49.9945808  40.0541408  39.2414411  49.2924608
  41.6703769  39.6580402  52.3359766  41.3491651  39.8811513  53.3533968
  42.1412971  38.6753226  52.3114537  42.3862847  40.4117140  52.0080271
  37.2938624  40.4160285  51.2663711  37.2918140  40.2012159  52.5092055
  36.3009904  40.0471778  50.4677019  36.3930642  40.1557185  49.4677816
  35.0640277  39.4937614  50.9890074  34.9351809  39.8074934  52.0248983
  33.8567869  39.9718746  50.1795624  33.9642628  41.0559190  50.1421990
  33.8950623  39.5683972  49.1677121  32.5142726  39.6146667  50.8201620
  32.4075594  38.5102398  51.4089103  31.5344492  40.4146670  50.6732583
  35.1824280  37.9810997  50.9089065  34.8845704  37.3943106  49.8762462
  35.5741906  37.3557260  52.0167801  35.9187543  37.8649128  52.8180940
  35.6738852  35.8902099  52.0273897  36.1954160  35.5603339  51.1288983
  36.4499597  35.3759218  53.2679670  36.0528605  35.8989252  54.1379548
  36.2677867  34.3064171  53.3731939  37.9291729  35.6243427  53.1663774
  38.5219117  35.4070109  52.0849900  38.5375886  36.0297757  54.1760230
  34.3526924  35.1398108  51.8695927  34.3621265  33.9287164  51.5040911
  33.2201346  35.7943742  52.1017487  33.2014564  36.7634409  52.3857558
  31.9630751  35.0889077  51.9884150  32.1057763  34.0457042  52.2703053
  30.9016856  35.7004603  52.9012752  31.2806377  35.6021401  53.9185400
  30.8428940  36.7561659  52.6364560  29.5096305  35.0753285  52.8138745
  28.8489422  35.6154225  53.4920266  29.1731189  35.2204170  51.7873228
  29.4797745  33.5614066  53.1589964  30.3829823  33.0656256  53.9033202
  28.5375012  32.9134705  52.6944905  31.4643172  35.0982742  50.5688860
  31.0003312  34.0672140  50.0444122  31.5788563  36.2331835  49.9175791
  31.9578729  37.0572081  50.3619093  31.0735851  36.3529398  48.5409533
  30.3098318  35.5992297  48.3493778  30.4616769  37.7171422  48.3530565
  31.2594181  38.4521299  48.4603000  30.0619969  37.7607163  47.3399142
  29.3259336  38.0310864  49.3731487  28.6692990  37.1634381  49.4373226
  29.7779438  38.2168603  50.3474571  28.5221752  39.2411871  48.9516021
  27.9004589  39.5537225  49.7905833  29.2133201  40.0435601  48.6935017
  27.6516721  38.9761637  47.7915526  27.2034270  38.0726475  47.7383152
  27.4134700  39.8659145  46.8194655  28.0193297  41.0453811  46.8486289
  28.6551352  41.2645828  47.6021552  27.8421052  41.7189322  46.1171782
  26.5820035  39.5911286  45.7980047  26.1206344  38.6937515  45.7538134
  26.4229849  40.2834761  45.0800445  32.1667177  36.0850638  47.4655977
  31.8275396  35.9188737  46.2882651  33.4197082  36.0002541  47.9015829
  33.5660083  36.1747414  48.8855798  34.6018907  35.7322479  47.0534213
  35.4923816  35.7260793  47.6819808  34.5048911  34.3741412  46.3207082
  33.5653004  34.3484772  45.7687935  35.3382414  34.3010825  45.6219308
  34.5538197  33.2109144  47.2867617  35.5061431  33.2222387  47.8169057
  33.7382083  33.3032139  48.0039512  34.4142761  31.9107230  46.5306857
  33.4650231  31.9035871  45.9949928  35.2337186  31.8166173  45.8181146
  34.4487750  30.7617198  47.4406101  35.1273517  30.7616975  48.1886963
  33.6544235  29.7001240  47.3023308  32.7221685  29.6570909  46.3393371
  32.6168025  30.4379487  45.7074676  32.1296418  28.8440196  46.2503049
  33.7614989  28.6941987  48.1533878  34.4416137  28.7376015  48.8988139
  33.1626969  27.8869170  48.0542359  34.7276586  36.8743792  46.0780345
  34.6632873  36.6854872  44.8352050  34.8939913  38.0608832  46.6634573
  34.9373584  38.1178664  47.6709153  35.0844928  39.3045253  45.8806404
  35.2357284  39.1282571  44.8156726  33.9081568  40.2650660  46.0545522
  33.7910002  40.5051546  47.1113071  34.1743870  41.5785612  45.2482683
  34.2911994  41.3393146  44.1912834  33.3333351  42.2601952  45.3751828
  35.0844320  42.0528653  45.6156308  32.5885073  39.5913922  45.6705809
  32.4257288  38.7211641  46.3064333  31.7679144  40.2964239  45.8034616
  32.6307701  39.2761537  44.6280170  36.3191432  39.9834295  46.4506811
  36.4633566  40.1643823  47.6875774  37.2408528  40.3849729  45.5552525
  37.2133674  40.0434706  44.6051367  38.3699820  41.1753221  45.9628425
  38.0896067  41.7111691  46.8696814  39.6827354  40.3389229  46.2546658
  39.4210107  39.4914869  46.8882687  40.3233439  39.8241767  44.9446081
  40.5857796  40.6711222  44.3106442  41.2222953  39.2539389  45.1787328
  39.6141157  39.1841464  44.4197679  40.6525004  41.1403427  46.9284108
  41.4394799  40.6167894  47.0962070  38.6056127  42.3019935  44.9416830
  37.9412145  42.3589411  43.9089928  39.4744611  43.2325700  45.2805618
  40.0168558  43.1791511  46.1308874  39.6729952  44.4050015  44.3915115
  39.9915621  44.0822652  43.4003225  38.7507703  44.9798450  44.3069200
  40.7413264  45.2789047  44.9884460  40.9825273  45.2481881  46.2169473
  41.4432056  46.0309700  44.1458380  41.2811154  45.9629468  43.1512532
  42.4750875  46.9397757  44.6149669  42.2386811  47.2706557  45.6262678
  43.8667773  46.2391187  44.6328629  44.6050107  46.8447381  45.1585395
  43.7645676  45.2762490  45.1333979  44.4366687  45.9557116  43.2629950
  45.3680562  46.8381210  42.6953823  45.6629429  47.7215609  43.2616647
  45.9216673  46.6009601  41.4173689  46.6476317  47.2839845  40.9762862
  45.5132561  45.4443794  40.7061063  45.9112731  45.2559205  39.7090277
  44.5870859  44.5302625  41.2884301  44.2782133  43.6298409  40.7574511
  44.0677724  44.8059046  42.5746824  43.3677501  44.1119675  43.0399996
  42.5498865  48.1692453  43.7393810  42.0143492  48.1777034  42.5999170
  43.2200687  49.1897499  44.2869358  43.6044121  49.1117037  45.2176819
  43.4315328  50.4353759  43.5521463  43.0001025  50.3737023  42.5530650
  42.7387660  51.5745383  44.3168196  42.9277729  51.4473461  45.3827453
  43.1569171  52.5249017  43.9850681  41.3295555  51.5654601  44.0787849
  40.9182603  52.2837352  44.5651149  44.9225389  50.6999592  43.4767235
  45.6403890  50.5247384  44.4709386  45.3964139  51.2077431  42.3275447
  44.8030979  51.3271959  41.5189617  46.7758358  51.5599751  42.2131903
  47.3096508  50.8799760  42.8770742  47.2672216  51.3468368  40.7450718
  46.6485524  51.9371100  40.0691085  48.6976722  51.7781753  40.6179406
  49.3170672  51.1879883  41.2933145  49.0335455  51.6268185  39.5920844
  48.7837145  52.8337150  40.8758780  47.2431968  49.8392029  40.4341576
  47.9594211  49.3357879  41.0835395  46.2421351  49.4561993  40.6323577
  47.6398118  49.5547453  38.8486506  48.6409984  49.9370857  38.6498013
  47.6156901  48.4824850  38.6542917  46.9237131  50.0574994  38.1986191
  46.8932008  53.0113897  42.6439086  46.3170019  53.8993498  41.9674208
  47.5570101  53.2449999  43.7629226  47.9970672  52.4859126  44.2631582
  47.5784345  54.5974070  44.3751537  46.8291233  55.2319889  43.9019331
  47.3103879  54.5283541  45.8839376  47.2729081  55.5348527  46.3006584
  45.9413123  53.8191467  46.1152942  45.9781788  52.8123570  45.6992221
  45.7369158  53.7626124  47.1844652  45.1503449  54.3859493  45.6241683
  48.4002872  53.7901361  46.6415124  48.3712026  52.7437018  46.3378184
  49.3594177  54.2236175  46.3582066  48.2151393  53.8915578  48.2536752
  47.2563674  53.4578246  48.5378087  49.0201708  53.3471983  48.7473311
  48.2445802  54.9377413  48.5581965  48.8500181  55.3886875  44.1160602
  48.9176133  56.5644334  44.4670365  49.8662499  54.7145054  43.5818771
  49.7765406  53.7203429  43.4279532  51.0986181  55.3522878  43.2118174
  50.8761269  56.1551298  42.5089365  51.5551094  55.7712995  44.1085583
  52.0752530  54.3864753  42.5655237  51.7221162  53.2572397  42.1799097
  53.2995066  54.8669002  42.4141367  53.5061934  55.8157047  42.6918954
  54.3872260  54.0531970  41.8459777  55.1923102  53.9746017  42.5765674
  54.0058061  53.0579043  41.6179191  54.9314860  54.6739904  40.5787277
  54.3622442  55.6381069  40.0557580  56.0252192  54.0946241  40.0754074
  56.4622347  53.3201718  40.5543024  56.6560255  54.5994287  38.8411774
  56.4327554  55.6589175  38.7157457  58.1628614  54.4264305  38.9144047
  58.3678107  53.3680809  39.0756222  58.5791439  54.7346124  37.9553256
  58.8138383  55.2583629  40.0519915  58.6762269  56.3139764  39.8178035
  58.2542489  55.0109044  40.9540576  60.2993952  54.9767955  40.2807853
  60.9965323  54.3968074  39.4219792  60.7955144  55.3793403  41.3566590
  56.0843626  53.8708335  37.6394056  56.5735310  52.8134487  37.2885113
  55.0247481  54.4273650  37.0541614  54.6892470  55.3045132  37.4258459
  54.3347332  53.8546341  35.8989205  55.0731250  53.6134245  35.1342672
  53.5512535  52.5703193  36.2513184  53.0108154  52.1394264  35.4084914
  54.2765771  51.8475469  36.6249570  52.5602910  52.7721444  37.3308650
  51.3099058  53.3255394  37.1161444  50.6848352  53.4247821  38.2868773
  49.6638337  53.8030331  38.3376811  51.5040643  53.0060645  39.2383648
  51.3130527  53.0099869  40.2301304  52.6657293  52.5608969  38.6633090
  53.4530028  52.1344163  39.2849327  53.3481763  54.9135924  35.4156756
  53.1694905  55.9645575  36.0648204  52.6762621  54.6445042  34.3051835
  52.8523554  53.7945228  33.7888289  51.8053580  55.6557068  33.7017854
  52.0414318  56.6396479  34.1070362  52.0127925  55.6908405  32.1479831
  51.6277641  54.7614752  31.7283016  51.4491951  56.5320642  31.7444975
  53.4392699  55.8379631  31.7918397  53.8565147  56.6844964  32.3371736
  53.9712404  54.9285656  32.0713135  53.5931998  56.0786874  30.2683479
  54.6568987  56.1977475  30.0622693  53.2220311  55.1899096  29.7580467
  52.8815176  57.2481517  29.7507614  53.0958455  58.1274504  30.1990880
  51.9915617  57.2393946  28.7687432  51.6107144  56.1031998  28.1864017
  52.0038646  55.2251769  28.4939872  50.9306042  56.1251193  27.4400309
  51.4611661  58.4037844  28.3348552  51.7453712  59.2743711  28.7607734
  50.7828581  58.3983794  27.5865452  50.3081457  55.6412333  34.0342054
  49.5565788  56.5284775  33.5803530  49.8408655  54.6771338  34.8333763
  50.4851481  54.0028309  35.2210811  48.4112563  54.5102432  35.1089379
  47.8485940  54.8390475  34.2352114  48.0265512  53.0525872  35.4219314
  48.5878465  52.8727500  36.3388313  46.9591679  52.9754042  35.6288997
  48.4231094  51.9994968  34.3598980  49.4821939  52.1118389  34.1279064
  48.1568260  50.5508958  34.8957352  47.0977953  50.4376393  35.1275232
  48.4416191  49.8236347  34.1354162  48.7456114  50.3825404  35.7974494
  47.7405155  52.2554489  33.0257263  48.0261441  53.2393873  32.6537303
  48.0461960  51.4936500  32.3085632  46.6591308  52.2170738  33.1570029
  47.9158564  55.3842160  36.2327139  48.4936145  55.4194120  37.3117402
  46.8325535  56.0800425  35.9855315  46.4400078  56.1433906  35.0570950
  46.2471240  56.8961149  37.0396208  46.7598140  56.6595719  37.9719810
  46.3662924  58.4886916  36.7732816  45.9212524  59.0132240  37.6188025
  47.8088127  58.9219626  36.6133391  48.2544180  58.3981601  35.7676639
  47.8483944  59.9967324  36.4361324  48.3631946  58.6832345  37.5209569
  45.6720915  58.7996758  35.5943992  45.7352515  59.7425188  35.4251119
  44.8148020  56.4848231  37.2913779  44.0296072  56.1962601  36.3585406
  44.4825069  56.4246659  38.5727327  45.2042399  56.5633243  39.2655347
  43.1535289  56.0148279  39.0278684  43.1643234  55.8183107  40.0999522
  42.1333738  57.1556470  38.7414051  42.1980084  57.3768783  37.6760515
  41.1098697  56.8775097  38.9927594  42.5023176  58.4093228  39.5217682
  42.8966756  59.4595312  38.9361590  42.4560935  58.3064968  40.8326652
  42.6897614  59.1036031  41.4072265  42.1871557  57.4309355  41.2583009
  42.6877391  54.6761783  38.4909233  41.4831552  54.4691974  38.2456448
  43.6475185  53.7580694  38.3724262  44.6156098  54.0095755  38.5125808
  43.3287689  52.3544881  38.0636105  42.6502670  52.2962777  37.2125253
  44.6370887  51.6017622  37.7068236  45.1402010  52.1527531  36.9122253
  45.2704212  51.5848370  38.5937867  44.3737344  50.1839129  37.2483657
  44.2510282  49.8758741  35.8729500  44.3606189  50.6750830  35.1399054
  43.9875667  48.5411480  35.4398597  43.9150728  48.3052237  34.3781694
  43.8716018  47.5208452  36.3940879  43.6081823  46.1951464  35.9872369
  43.5268201  46.1041560  35.0350286  43.9679121  47.8196922  37.7727843
  43.8257458  47.0272624  38.5075933  44.2448338  49.1279532  38.1967411
  44.3631346  49.3431712  39.2587139  42.6951333  51.6552043  39.2855586
  43.2192864  51.7171095  40.4013288  41.5736028  50.9801774  39.0451842
  41.1576428  50.9977843  38.1249849  40.8968492  50.2079889  40.1036735
  41.6148494  49.9296689  40.8751091  39.7701115  51.0554198  40.7565970
  40.2300187  51.9759790  41.1159789  39.0517690  51.2912287  39.9714357
  39.0631409  50.3721910  41.8931448  38.7008286  49.4078422  41.5369677
  39.7836631  50.2151117  42.6958128  37.8532852  51.2192778  42.4335503
  38.1705416  52.2535840  42.5664337  37.0372002  51.1799428  41.7120537
  37.3580474  50.6349159  43.8248147  38.2605030  50.4780298  44.4156288
  36.7597581  51.4247343  44.2790568  36.5481368  49.3449921  43.7830249
  37.1024999  48.6128897  43.3625401  36.2934329  49.0768120  44.7228682
  35.7116446  49.4902731  43.2359662  40.3308626  48.9709223  39.4621602
  39.6818688  49.0644407  38.4150726  40.5403282  47.8025692  40.0820756
  41.1533094  47.7185248  40.8803800  39.9605591  46.5827202  39.5217817
  39.2182008  46.8650983  38.7752793  41.0183607  45.6525248  38.8467933
  40.5032614  44.8242133  38.3603040  41.5697090  46.2251330  38.1009817
  41.9165470  45.1469089  39.8090713  42.5592926  44.5780341  39.3791186
  39.1657268  45.8240658  40.5807582  39.4115452  45.9761667  41.8050852
  38.2370309  45.0000458  40.1046279  38.0372150  44.9607232  39.1153723
  37.4784942  44.1371653  40.9959692  37.9251247  44.0623011  41.9874407
  36.0322249  44.6827237  41.1431837  35.6774930  44.9304407  40.1427334
  35.0424630  43.6802456  41.8118405  35.3963096  43.4323975  42.8125727
  34.0540204  44.1347860  41.8787349  34.9842395  42.7718292  41.2122646
  36.0486933  45.9707052  41.9355558  36.6609952  46.7088092  41.4174913
  35.0314552  46.3491997  42.0358956  36.4655201  45.7837554  42.9252052
  37.4874980  42.7424024  40.3471168  37.2621299  42.6033329  39.1543645
  37.7189029  41.7197049  41.1748954  37.7863834  41.9032588  42.1657807
  37.8064414  40.3446240  40.7229234  37.6426100  40.2733734  39.6476645
  39.1954226  39.7938919  41.0427585  39.3900948  39.9178095  42.1080507
  39.2819940  38.2422973  40.6621095  39.0878776  38.1176267  39.5968041
  40.2775951  37.8652668  40.8960444  38.5395695  37.6854367  41.2337849
  40.1433786  40.5421157  40.2995562  41.0262717  40.2135976  40.4844236
  36.7633456  39.5058130  41.5441665  36.7728655  39.5485866  42.7988999
  35.8987819  38.7788153  40.8597413  35.9043359  38.8351328  39.8513283
  34.8687556  37.9743835  41.5002298  35.0436762  37.9806860  42.5760840
  33.4647258  38.4938149  41.2331470  32.7492804  37.8453729  41.7388752
  33.3040634  39.9291160  41.7458843  34.0189151  40.5782771  41.2402397
  32.2912322  40.2768807  41.5425816  33.4876163  39.9544559  42.8200197
  33.1804618  38.4933809  39.8214485  32.2913381  38.8240044  39.6739782
  34.9952401  36.5300996  41.0878577  35.3127573  36.2475562  39.9320493
  34.7658542  35.6174211  42.0437327  34.5250133  35.9074050  42.9807515
  34.9384345  34.1540491  41.7756236  35.2677159  33.9729568  40.7524528
  35.9851024  33.5584068  42.7439405  35.6358818  33.7206716  43.7636534
  36.1970827  32.0746690  42.5126537  36.5467747  31.9116435  41.4932229
  36.9407457  31.6994290  43.2156904  35.2563008  31.5449949  42.6625749
  37.3216001  34.2951718  42.5788429  37.1839387  35.3530703  42.8024545
  38.0571053  33.8723923  43.2632326  37.6741338  34.1839662  41.5534386
  33.5883949  33.4324342  41.8851866  32.8650113  33.6208662  42.8921581
  33.2241528  32.6604881  40.8634352  33.8747448  32.5134667  40.1050065
  31.9049870  32.0446346  40.7721542  31.3267420  32.2298694  41.6773723
  31.1617492  32.6669132  39.5783296  31.7226391  32.4018348  38.6820957
  30.1248462  32.3508548  39.4641402  31.1485051  34.1544290  39.6482391
  30.1866142  34.8426724  40.3737291  29.4125999  34.4184419  40.8646773
  30.4546789  36.1422312  40.3131069  29.8118812  36.8619740  40.8199407
  31.5529654  36.3161419  39.5794001  32.0174708  35.0911812  39.1665298
  32.9264883  35.0262994  38.5685509  31.9402368  30.5471213  40.6092672
  32.6792462  30.0146158  39.7619556  31.1316816  29.8595518  41.4332871
  30.6626817  30.3634440  42.1723616  30.8932244  28.3874970  41.3165014
  31.8196004  27.8680167  41.0714161  30.3748999  27.8580495  42.6600225
  31.0705955  28.1884885  43.4313311  29.3985348  28.3102249  42.8342313
  30.2491341  26.3626853  42.7073292  29.4749179  26.0323872  42.0148024
  31.1987168  25.9007681  42.4370940  29.8755892  25.9580717  44.1060351
  30.5466711  26.4430856  44.8149141  28.8495591  26.2643023  44.3099579
  29.9755524  24.5153668  44.2808658  30.8462220  24.1599525  44.6492604
  29.0102478  23.6533920  43.9976194  27.8495971  24.0763314  43.5023243
  27.7023370  25.0623683  43.3406279  27.1213888  23.4093145  43.2904263
  29.2126160  22.3549224  44.2068508  30.0967856  22.0381833  44.5783620
  28.4811161  21.6920851  43.9931842  29.8804527  27.9964604  40.2541112
  28.7965981  28.6287607  40.1067592  30.2364479  26.9625092  39.4801911
  31.1901718  26.6313040  39.5087080  29.3057432  26.3160825  38.5570199
  28.2945794  26.6734978  38.7517022  29.6613950  26.6264618  37.1081767
  30.7270350  26.5224061  36.9040124  29.1009193  25.9470081  36.4660634
  29.2786199  28.0215307  36.6965227  28.0453303  28.2592215  36.1274201
  27.3647563  27.4245012  35.9596081  27.6644705  29.5550893  35.7665840
  26.7006822  29.7480735  35.2954471  28.5531527  30.6246814  36.0223527
  28.2493198  31.6433775  35.7814301  29.8079680  30.3850342  36.5774976
  30.5179375  31.1987737  36.7253878  30.1477305  29.0983011  36.9417356
  31.1036503  28.9039798  37.4281063  29.3166172  24.8027382  38.7882702
  30.3546640  24.2377701  39.0891736  28.1551962  24.1826154  38.6581514
  27.3164981  24.7129465  38.4699127  28.0408062  22.7262150  38.7976395
  28.9887983  22.2629571  38.5241397  27.6962303  22.3241778  40.2348571
  28.5344461  22.6407507  40.8555623  26.8063521  22.8898621  40.5109334
  27.4302959  20.7856107  40.4562106  26.4639691  20.5373834  40.0172385
  28.2165157  20.2390085  39.9354577  27.4330735  20.3927291  41.9491752
  27.2211046  21.2848446  42.8114867  27.6374486  19.1845414  42.2653419
  26.9633726  22.2516779  37.8643868  25.8892187  22.8639884  37.7908949
  27.2601695  21.1803682  37.1428966  28.1644596  20.7503831  37.2750767
  26.3570435  20.6049138  36.1436245  25.3330151  20.6104872  36.5170330
  26.4125744  21.4334088  34.8485363  26.1822330  22.4570891  35.1436985
  27.4463989  21.3780174  34.5075982  25.4843746  21.0103499  33.7215305
  25.7340796  19.9978318  33.4044257  24.4519963  21.0371223  34.0702142
  25.6484101  21.9686693  32.5414787  25.3155935  22.9549330  32.8649228
  26.7081463  22.0079545  32.2894562  24.8522643  21.5413017  31.3181808
  25.2683141  20.6138680  30.9246457  23.8128845  21.3800851  31.6041841
  24.9209624  22.6050941  30.2658328  25.8839554  22.7543308  30.0003658
  24.3901522  22.3137407  29.4574679  24.5350984  23.4644444  30.6301473
  26.8480053  19.1712307  35.9458915  28.0061429  18.9572527  35.5793062
  25.9670550  18.1957794  36.2215310  24.9988824  18.4677713  36.3151350
  26.3151280  16.7701504  36.4012565  25.3927436  16.1901081  36.3719812
  27.2721614  16.2244517  35.3313388  28.1787161  16.8269289  35.3886010
  27.5010064  15.1968575  35.6137925  26.7329496  16.2512986  33.9029261
  25.7148781  15.8624102  33.9228534  26.7189855  17.2874495  33.5648499
  27.5840276  15.4092818  32.9383226  28.8429280  15.3665503  33.1081396
  26.9822538  14.7962669  32.0101426  26.9716058  16.6400445  37.7498740
  26.5386281  17.2550091  38.7282395  28.0223161  15.8399285  37.8163289
  28.2502586  15.1771903  37.0890603  28.8269682  15.8446329  39.0144787
  28.2857117  16.3613180  39.8070549  29.1323610  14.4078528  39.4822234
  28.1977620  13.8845977  39.6842825  29.6821839  13.8805442  38.7026462
  29.9718909  14.4117168  40.7517355  30.3164858  15.4722364  41.2684498
  30.3010178  13.2195464  41.2543576  30.8572316  13.1657273  42.0956837
  29.9922985  12.3768806  40.7909922  30.1072223  16.6568274  38.7569416
  31.1305922  16.4326868  39.4216062  30.0418426  17.6173190  37.8202269
  29.2405180  17.6808377  37.2087176  31.2470862  18.4015395  37.4794439
  32.0756507  18.0716157  38.1061259  31.6465074  18.2292410  36.0076359
  32.7301267  18.3467792  36.0003359  31.3920537  17.1958974  35.7719362
  31.0296198  19.1527686  34.9680924  30.0408233  18.7924410  34.6842856
  30.9468752  20.1643844  35.3654447  31.9595311  19.1609984  33.7145841
  32.0072781  18.1689249  33.2655747  31.6007312  19.8770032  32.9751930
  33.3139189  19.5545561  34.1333587  33.7966544  18.9200067  34.7533690
  33.9354650  20.6774619  33.7596141  33.3314935  21.5051719  32.9005788
  32.4151042  21.2761825  32.5429555  33.7944232  22.3556022  32.6132393
  35.1601904  20.9623176  34.2436998  35.6056334  20.3253502  34.8886442
  35.6272493  21.8115215  33.9594336  31.2057503  19.8665883  37.9846143
  30.2478251  20.5798227  37.7720208  32.2446712  20.2598877  38.7083719
  33.0457899  19.6528244  38.8072764  32.2801911  21.5662463  39.3629096
  31.3470840  22.1242195  39.2849591  32.6426109  21.3813178  40.8408075
  33.5444601  20.7730455  40.9098958  32.8888403  22.7364541  41.5100492
  31.9872189  23.3451549  41.4417648  33.1446924  22.5833468  42.5584760
  33.7101263  23.2468332  41.0069570  31.5415445  20.5466034  41.5521569
  30.6529629  21.1726102  41.6336371  31.3215463  19.6845661  40.9224015
  31.9708404  20.0518442  42.9908432  32.1905662  20.9133993  43.6213536
  31.1592392  19.4751417  43.4344838  32.8591515  19.4253566  42.9101179
  33.3575408  22.4017268  38.6622342  34.4652585  21.9311228  38.5084868
  33.0477952  23.6226863  38.2211078  32.1021167  23.9725008  38.1626152
  34.1411837  24.4650049  37.6893614  35.0944100  24.1155035  38.0859816
  34.1950691  24.4018383  36.1530452  35.1082804  24.8588752  35.7719131
  34.1775234  23.3460708  35.8825879  33.0441335  25.0562354  35.4187649
  33.0378687  26.3147428  34.8410237  33.9426894  26.9095089  34.9661337
  31.8370262  26.5517240  34.2060676  31.5850006  27.4000850  33.7193785
  31.0344719  25.4586901  34.3611693  29.7231008  25.2385456  33.9123540
  29.2251497  26.0245099  33.3445483  29.1424974  24.0245937  34.2238707
  28.1256914  23.8129763  33.8930784  29.8361232  23.0492649  34.9620888
  29.3626177  22.0977446  35.2039588  31.1422457  23.2631539  35.4066239
  31.6432253  22.4581233  35.9442539  31.7579445  24.4921938  35.1234739
  33.9641142  25.8968351  38.2219170  33.0073389  26.1919629  38.9771538
  34.9137631  26.7553883  37.8660693  35.6547783  26.4534155  37.2497835
  34.9085263  28.1427269  38.3122824  34.0246755  28.3473714  38.9164575
  36.1599831  28.4140710  39.1643964  37.0394002  28.1867697  38.5618519
  36.2244574  29.8271410  39.6211581  35.3455386  30.0550639  40.2241942
  37.1233970  29.9754653  40.2194947  36.2517799  30.4885545  38.7551985
  36.1729874  27.5659412  40.3389549  36.9599186  27.7492945  40.8573380
  34.9481523  29.0906081  37.0853337  35.5843371  28.7931203  36.0673534
  34.2660787  30.2279589  37.2262471  33.5726549  30.3107129  37.9559146
  34.4578532  31.3679604  36.3120453  35.2238860  31.1081739  35.5814264
  33.1702989  31.7440453  35.5611917  32.3693841  31.8854192  36.2868969
  33.3690282  33.0695525  34.7343813  34.1695293  32.9287923  34.0080993
  32.4442475  33.3147069  34.2120975  33.6310543  33.8839022  35.4098653
  32.7842227  30.6006902  34.5856958  32.6197763  29.6819945  35.1487745
  31.8711962  30.8687536  34.0540717  33.5901189  30.4470434  33.8680434
  34.9569500  32.5136679  37.1756492  34.3991673  32.8235357  38.2574248
  36.0574635  33.1061335  36.7400629  36.5872077  32.7303230  35.9666051
  36.5176229  34.3215627  37.3546613  36.0395833  34.4642371  38.3237956
  38.0302800  34.2866110  37.5572960  38.5046750  34.0694459  36.6002757
  38.5661736  35.6691734  38.1095100  38.0925417  35.8868123  39.0668015
  39.6464538  35.6133089  38.2435786  38.3292157  36.4611774  37.3991000
  38.4115493  33.1613629  38.5549129  38.0823226  32.1995477  38.1616913
  39.4929248  33.1467551  38.6909766  37.9276578  33.3460610  39.5139939
  36.1647462  35.4991299  36.4114096  36.3862051  35.4030885  35.1723079
  35.6640334  36.5863085  36.9955228  35.4553913  36.5737097  37.9836569
  35.4398053  37.8521782  36.2423085  35.6529514  37.6872933  35.1861452
  34.0076345  38.3285784  36.3786887  33.9008708  38.4617986  37.4552356
  33.8919582  39.2912645  35.8807384  32.9388612  37.3672496  35.8782972
  33.0863579  36.3962626  36.3510867  31.5185743  37.9018897  36.2240859
  31.3701573  38.8727044  35.7512329  30.7673189  37.2017254  35.8587285
  31.4222066  38.0061806  37.3047973  33.1229819  37.1188532  34.3520670
  34.1075889  36.6882912  34.1696804  32.3549486  36.4300348  34.0002781
  33.0354690  38.0641192  33.8164247  36.3404996  38.8977426  36.8523305
  36.3970074  39.0081198  38.0728311  37.0627537  39.6553509  36.0093455
  37.0871546  39.4429150  35.0222412  37.8741190  40.7610201  36.4976105
  37.5628064  41.0089075  37.5123694  39.3792995  40.4134405  36.5140172
  39.5321533  39.5718951  37.1896919  39.6789605  40.1281426  35.5055984
  40.2119796  41.5841998  36.9733000  40.2350146  42.3399242  36.1881561
  39.7172024  41.9918460  37.8548436  41.6448124  41.1790360  37.3338401
  41.8025523  40.1189264  37.9194952  42.5998296  41.8922839  37.0097188
  37.5930876  41.9545751  35.6139127  37.6319387  41.8320633  34.3792555
  37.2363437  43.0898452  36.2243154  37.0119282  43.1308479  37.2082137
  37.0974289  44.3206825  35.4235263  37.4411167  44.1485834  34.4035460
  35.6191155  44.7411802  35.3795132  35.5269617  45.6143743  34.7336501
  35.0378101  43.9186819  34.9627632  35.1341319  45.0547357  36.6647481
  34.2114254  45.3127530  36.6044179  37.9788569  45.4202680  36.0067241
  38.3877777  45.3380799  37.1608566  38.2525301  46.4647541  35.2284171
  37.9559889  46.4862560  34.2631708  38.9671568  47.6195794  35.7576250
  38.8637528  47.6191339  36.8427087  40.4944692  47.6248646  35.3996207
  40.9040575  48.5416680  35.8236586  40.9748282  46.7638999  35.8644808
  40.7542980  47.6004800  33.8872479  40.7643709  48.7938258  33.1309793
  40.6213096  49.7434131  33.6466505  40.9494379  48.7724989  31.7742706
  40.9153206  49.7035732  31.2085512  41.1315241  47.5792494  31.1214403
  41.3377325  47.6095166  29.7587239  41.3314990  48.4991764  29.3980769
  41.1540858  46.3755227  31.8283306  41.3282631  45.4294918  31.3157019
  40.9510618  46.3937948  33.2014775  40.9429023  45.4600003  33.7636707
  38.3616091  48.8816266  35.1542431  37.6668743  48.8145378  34.1145779
  38.6684117  49.9938818  35.8205505  38.9966525  49.9209471  36.7729359
  38.4820132  51.3303557  35.2506882  38.3088686  51.2913546  34.1752353
  37.2850488  52.0874867  35.9238144  36.3649722  51.5301749  35.7478549
  37.5245788  52.2173267  37.4411822  38.4443043  52.7749641  37.6179486
  36.6870817  52.7446552  37.8979357  37.6119508  51.2242916  37.8820325
  37.0798784  53.4930145  35.2592253  36.8658710  53.3659591  34.1980185
  36.2451550  54.0040071  35.7390409  37.9858033  54.0873941  35.3780268
  39.7942293  52.0515288  35.4220224  40.5199196  51.8224571  36.4009855
  40.1555960  52.9104696  34.4587754  39.5800040  53.0747394  33.6452592
  41.4251773  53.6363602  34.5703598  41.6416313  54.0215708  35.5667833
  42.6259307  52.7218453  34.1116281  42.6618099  51.8451025  34.7582608
  42.4581885  52.2710333  32.6407735  42.4226902  53.1472777  31.9934431
  43.3013505  51.6423700  32.3544857  41.5322032  51.7054674  32.5369080
  43.9594767  53.3765628  34.3445876  44.0809711  53.5866879  35.4072205
  44.7552133  52.7093230  34.0133869  44.0102458  54.3089306  33.7822589
  41.3246502  54.8727754  33.6715897  40.5517906  54.8729250  32.7245448
  42.0944527  55.8949970  33.9970481  42.6344300  55.8647050  34.8500465
  42.2279326  57.0669108  33.1336235  41.2430972  57.4347399  32.8456992
  42.9658752  58.1786637  33.8784935  43.9596704  57.7996594  34.1168756
  43.0542768  59.0271459  33.1999928  42.2720592  58.6232049  35.1587484
  41.0566910  58.3846396  35.3118618  42.9959824  59.2293199  36.0061018
  43.0591414  56.7598477  31.8729645  43.9842953  55.9476367  31.8884066
  42.7855181  57.4408739  30.7559312  41.9853837  58.0520277  30.6760857
  43.6824097  57.3218268  29.6104796  43.9918989  56.2827928  29.4976785
  42.9795483  57.7775791  28.2962857  42.4925395  58.7280539  28.5142750
  43.7658992  57.9337880  27.5578068  41.9456680  56.7890575  27.7407486
  41.8671102  57.0109655  26.6764712  42.3823510  55.7992447  27.8737164
  40.2921116  56.8139007  28.4775084  39.6282687  58.3636442  27.7466214
  39.6245215  58.2808852  26.6597747  38.6106490  58.5265728  28.1015934
  40.2552981  59.2040630  28.0443320  44.8603669  58.2354202  29.8960544
  44.6313220  59.4396038  30.1797556  46.1090377  57.7094623  29.8300291
  46.5398388  56.3051252  29.6797671  46.1031574  55.8848527  28.7737977
  46.2092084  55.7280509  30.5433456  48.0427393  56.4141491  29.6019347
  48.3330105  56.2793666  28.5599773  48.4671979  55.6105093  30.2036815
  48.4628956  57.7301258  30.1111578  49.2299518  58.1002492  29.4309134
  48.8581355  57.7090913  31.1267574  47.2348843  58.6336398  30.0490873
  47.0479615  59.2000150  30.9614345  47.3962995  59.6059175  28.8663337
  46.8335365  59.3757994  27.7928327  48.1690834  60.6580038  29.0970598
  48.6635029  60.7050095  29.9765136  48.3243712  61.7886797  28.1374955
  47.3565993  62.2369290  27.9125749  49.2280607  62.8621090  28.7753127
  48.8016132  63.0646769  29.7577627  50.2061541  62.3957747  28.8934888
  49.3830303  64.2079249  27.9855651  49.2781346  64.0094622  26.9189301
  48.5797437  64.8681994  28.3124708  50.7491841  64.8865047  28.2520704
  51.1488879  65.0618201  29.4341319  51.4394263  65.2275796  27.2683617
  48.9233388  61.2474709  26.8669445  49.8965099  60.5004905  26.9192826
  48.3237560  61.5782088  25.7127846  47.5039705  62.1679923  25.6984121
  48.8440758  61.0917375  24.4474614  48.6266872  61.8490202  23.6942254
  49.9236124  60.9893968  24.5580341  48.2680684  59.7685498  23.9955048
  48.5322780  59.3418884  22.8848660  47.4634854  59.1114562  24.8350631
  47.2546716  59.4858117  25.7495870  46.9170493  57.8103598  24.4811397
  47.2570734  57.5191001  23.4873335  47.3866193  56.7574223  25.4865131
  47.1758265  57.1396857  26.4852825  46.8537637  55.8182893  25.3375362
  48.8350215  56.5002394  25.3761773  49.5875421  56.9129845  26.2416484
  49.2626931  55.8416460  24.2786046  50.2465286  55.6446848  24.1629597
  48.5969861  55.5487024  23.5778057  45.4033021  57.7972269  24.4038552
  44.6980244  58.4526250  25.1993441  44.9033024  57.0181206  23.4597479
  45.5356530  56.5298090  22.8418612  43.4958733  56.8548303  23.2575385
  42.9724037  57.7978395  23.4150581  43.2583266  56.4006832  21.8271588
  42.1849660  56.3768584  21.6389342  43.7299029  57.1118827  21.1489913
  43.8127617  55.0898623  21.6089310  43.6524738  54.8217015  20.7011880
  42.8712228  55.8356590  24.2194323  43.6172788  55.0969177  24.9328430
  41.5301638  55.7833330  24.2329865  40.9757787  56.5018859  23.7897730
  40.8232578  54.6743189  24.9245041  41.0871831  54.7236144  25.9809191
  39.2991758  54.7060312  24.7994901  39.0419054  54.7555183  23.7414437
  38.8998591  53.7864750  25.2273483  38.7093628  55.8863241  25.5128430
  39.0904889  55.8717766  26.5339366  39.0838015  56.7713304  24.9983932
  37.1939035  55.9212195  25.5398866  36.5418461  54.8376414  25.5564304
  36.6663603  57.0679919  25.5581396  41.2827982  53.3354411  24.3853949
  41.5751308  52.4281743  25.1660086  41.3640335  53.2142432  23.0601625
  41.0443945  53.9412981  22.4362063  41.8335774  51.9590834  22.4782489
  41.2073318  51.1329766  22.8150920  41.7639629  52.0346663  20.9387185
  42.1343768  53.0231545  20.6670868  42.4152420  51.2728191  20.5103210
  40.3190837  51.8522698  20.3865413  39.4023451  51.3248791  21.0955650
  40.1119348  52.2183241  19.1833986  43.2446227  51.5695737  22.9444927
  43.4988215  50.3677070  23.2823766  44.1626976  52.5366294  22.9629234
  43.9171204  53.4948304  22.7588598  45.5471662  52.2439084  23.3920239
  45.9936429  51.5347180  22.6950254  46.4023423  53.4886592  23.4282071
  45.8110885  54.2333392  23.9610955  47.3118510  53.2773166  23.9905489
  46.7765725  54.0329776  22.0277414  46.6790006  53.2934633  21.0063344
  47.2093751  55.2198836  22.0362911  45.5121037  51.7519967  24.8401535
  46.2380037  50.7924135  25.2146253  44.6835305  52.4290301  25.6430690
  44.0752137  53.1441934  25.2707902  44.6849718  52.1973151  27.1257120
  45.7203615  52.2159167  27.4658902  43.9180791  53.3412212  27.8187483
  42.8660102  53.3000520  27.5366906  44.0474041  53.1845419  29.3584911
  45.0992359  53.2260790  29.6413763  43.5065564  53.9913996  29.8530248
  43.6273142  52.2260269  29.6632434  44.5643125  54.5907201  27.4362451
  44.1095667  55.3266459  27.8524420  44.0942070  50.8644496  27.4526973
  44.7105589  50.0604632  28.2394491  42.9364389  50.5893464  26.8500553
  42.3749418  51.3030516  26.4079633  42.3725268  49.2413547  26.9788435
  42.3240226  48.9794358  28.0357943  40.9613442  49.1381191  26.3824954
  41.0061320  49.4835736  25.3496573  40.6634560  48.0897926  26.4018371
  39.9244302  49.9842807  27.1656690  39.8502883  49.5595963  28.1667918
  40.3174128  50.9989266  27.2301705  38.5243002  50.0153355  26.5150996
  37.9105695  50.7733079  27.0018351  38.6177903  50.2501610  25.4548090
  37.8692352  48.7314708  26.6497924  38.3071296  48.0616665  27.2659987
  36.7494473  48.3806917  26.0242670  36.1514931  49.2212066  25.1800244
  36.5512572  50.1334950  25.0126373  35.3013900  48.9419377  24.7115873
  36.2227357  47.1816371  26.2472244  36.6751314  46.5460650  26.8886964
  35.3723239  46.9111239  25.7742328  43.2969411  48.1539385  26.4385711
  43.3954473  47.0825864  27.0343246  43.9841291  48.3845049  25.3255043
  43.9023434  49.2410470  24.7965941  44.8762492  47.3368780  24.8185470
  44.3033307  46.4210917  24.6729479  45.5250607  47.7314549  23.4752177
  45.8968951  48.7510630  23.5763993  46.3624824  47.0552721  23.3031659
  44.5612494  47.6569009  22.2955984  43.9844637  46.7321299  22.3103521
  43.8810866  48.5085523  22.2825430  45.5916027  47.6934869  20.8024813
  47.2633514  48.0024635  21.4662008  47.5395074  47.1966267  22.1462479
  47.9787179  48.0452853  20.6449105  47.2717017  48.9502798  22.0044161
  45.9944769  46.9993081  25.7908393  46.3504207  45.8323043  25.9544058
  46.6149450  48.0420766  26.3476590  46.3613862  48.9734405  26.0503904
  47.6819512  47.8961054  27.3501555  48.5100442  47.3295157  26.9243185
  48.2146986  49.2969918  27.8028138  48.6440379  49.7789759  26.9244868
  47.4419609  49.9380409  28.2271163  49.3242265  49.2106753  28.8372355
  50.6403041  49.0780947  28.4393071  50.8645419  49.0764048  27.3726232
  51.6886015  48.9460901  29.3840549  52.7214350  48.8535928  29.0481978
  51.3990168  48.9349451  30.7287785  52.2049609  48.8546724  31.4582375
  50.0669285  49.0268390  31.1618815  49.8372358  48.9775895  32.2262667
  49.0271578  49.1825608  30.2229472  47.9961958  49.2811767  30.5627884
  47.1528197  47.1065227  28.5820034  47.6852061  46.0301137  28.9077599
  46.0945273  47.6104125  29.2358170  45.6770493  48.4876859  28.9597683
  45.5744315  46.9351381  30.4509621  46.4138397  46.8147671  31.1358007
  44.4812564  47.8042804  31.1494505  43.6302203  47.9260861  30.4793752
  44.1545083  47.3112228  32.0649996  44.8948740  48.7830918  31.3922427
  45.0390532  45.5197842  30.1341191  45.2740912  44.5521060  30.9380090
  44.3509762  45.3708195  28.9984851  44.1470668  46.1660549  28.4101647
  43.8273536  44.0310028  28.5867320  43.1659819  43.6432391  29.3615390
  43.0317299  44.1315083  27.2615925  43.6448308  44.6787577  26.5455446
  42.8848233  43.1109349  26.9081120  41.6778987  44.8203428  27.4023941
  41.2151341  45.1796827  28.5191711  41.0852032  45.0049561  26.3075654
  44.9372583  42.9851308  28.4061545  44.8036533  41.8011616  28.8495176
  46.0703294  43.3945634  27.8135874  46.1571131  44.3292917  27.4409603
  47.1890275  42.4834014  27.6538401  46.9022304  41.6280359  27.0421241
  48.3686808  43.2091162  26.9664114  48.6202525  44.0901176  27.5568760
  49.6090309  42.2991310  26.8468810  49.3583439  41.4180804  26.2561143
  50.4157223  42.8458714  26.3585951  49.9304790  41.9896941  27.8413762
  47.9180959  43.6006359  25.6682718  48.6262920  44.0567693  25.2078362
  47.6196636  41.9344083  29.0068357  47.8200033  40.6921048  29.1736142
  47.7450246  42.8300295  29.9924042  47.6062441  43.8175314  29.8321560
  48.1930054  42.3897991  31.3434350  49.0528175  41.7265499  31.2489743
  48.5927605  43.6048284  32.2658583  47.7694553  44.3191180  32.2734948
  48.8936783  43.1336508  33.7417601  49.7172361  42.4196427  33.7349822
  49.1659641  43.9958082  34.3505667  48.0059556  42.6596205  34.1605029
  49.8203192  44.2819202  31.6886425  49.5987972  44.6416617  30.6838460
  50.1029775  45.1234059  32.3211817  50.6429984  43.5681818  31.6453144
  47.1209273  41.5268053  32.0252894  47.4306940  40.4227903  32.5583124
  45.8909142  42.0428097  32.0806465  45.6915471  42.9511257  31.6865475
  44.8094562  41.3424033  32.8158053  45.1646390  41.1490343  33.8280072
  43.4951302  42.1969897  32.9000149  43.1816968  42.4773307  31.8943969
  42.3730068  41.3687342  33.5789161  42.6855452  41.0883999  34.5848154
  41.4630210  41.9661302  33.6349907  42.1808127  40.4688234  32.9946870
  43.7406004  43.4602504  33.7556334  44.5295161  44.0597257  33.3013832
  42.8238156  44.0474194  33.8089044  44.0418577  43.1658932  34.7609685
  44.5326548  39.9712597  32.1952988  44.3862947  38.9528485  32.9060079
  44.5356504  39.8925995  30.8718304  44.6859747  40.6795735  30.2568720
  44.2144199  38.5927360  30.2721857  43.3155060  38.1945607  30.7428336
  43.9646725  38.7077547  28.7417090  44.8129442  39.2478621  28.3212111
  43.9484461  37.6924865  28.3453918  42.6582775  39.4279432  28.3607753
  41.8359012  38.8570745  28.7919447  42.6898423  40.4182886  28.8150017
  42.4389084  39.5710570  26.7949741  42.1433498  38.5978418  26.4030604
  41.6352424  40.2884094  26.6287634  43.6925800  40.0428823  26.0831858
  43.8117127  41.1081896  26.2807414  44.5410920  39.4996344  26.4991285
  43.6291196  39.8111005  24.5879169  42.8431890  40.3147489  24.2022342
  44.4826907  40.1400085  24.1597393  43.5191587  38.8239766  24.4046301
  45.3027260  37.5445597  30.5429409  44.9837077  36.3693666  30.7499253
  46.5770952  37.9529390  30.4996459  46.8209597  38.9021929  30.2556244
  47.6419128  37.0281877  30.7931073  47.5687695  36.1482875  30.1539479
  48.9925086  37.7131578  30.5329228  48.8737234  38.1013450  29.5213399
  49.1436720  38.5422022  31.2242513  50.2203719  36.7691185  30.5826774
  50.2584492  36.3089616  31.5700509  50.1427434  35.6789993  29.5160773
  50.1050997  36.1384078  28.5283397  51.0223387  35.0389777  29.5852533
  49.2453026  35.0804075  29.6722450  51.5104614  37.5840465  30.4777699
  51.5650694  38.2874607  31.3086283  52.3686508  36.9129772  30.5135224
  51.5183407  38.1332782  29.5362916  47.5410533  36.5922238  32.2691228
  47.7680063  35.4071037  32.6115025  47.2524961  37.5444799  33.1470334
  47.0784023  38.4982302  32.8639239  47.1931010  37.2144396  34.6096744
  48.1402628  36.7824411  34.9327238  46.9315509  38.4757060  35.4215147
  46.1282766  39.0187173  34.9235305  46.6189603  38.2114664  36.4317447
  48.1755713  39.4029805  35.5130961  49.2646361  39.0044892  35.2125773
  47.9650671  40.6283018  35.9716641  48.7377687  41.2736860  36.0523567
  47.0328932  40.9111836  36.2383675  46.0680774  36.1987684  34.8431758
  46.2384178  35.2522348  35.6417622  44.9106598  36.4134653  34.1982860
  44.7274969  37.2498125  33.6624931  43.8029612  35.4411254  34.3871641
  43.6946664  35.2635003  35.4571270  42.4445256  35.9034859  33.8246967
  42.6305339  36.1379627  32.7765933  41.7162721  35.0952640  33.8919584
  41.8904565  37.1582514  34.5435458  42.6448953  37.9439706  34.5831459
  40.6940912  37.6439832  33.7362642  39.9389790  36.8589152  33.6966081
  40.2714850  38.5302999  34.2094952  41.0142507  37.8909083  32.7240260
  41.5211443  36.8363572  36.0105495  42.4083102  36.4918115  36.5418916
  41.1344897  37.7336653  36.4937033  40.7599898  36.0564161  36.0313975
  44.1799733  34.0737673  33.8205605  43.8169270  33.0062103  34.4083152
  44.9060835  34.0652052  32.6957189  45.1284036  34.9177508  32.2019182
  45.3439062  32.7793990  32.1080119  44.4821535  32.1207794  31.9998372
  45.9819578  32.9801498  30.7312660  46.5296774  33.9225200  30.7376669
  46.6748928  32.1589995  30.5478178  44.9502977  33.0114801  29.6511156
  44.7769390  31.9686036  29.3856795  44.0148243  33.4616458  29.9832938
  45.4388178  33.7597413  28.4046990  46.6376618  34.0832887  28.2817516
  44.5010244  34.1114356  27.5295095  44.7599545  34.6068384  26.6883004
  43.5342842  33.8814767  27.7101578  46.3120175  32.0870266  33.0584360
  46.2288525  30.8456332  33.2535568  47.1986330  32.8563822  33.6926962
  47.3008575  33.8372907  33.4748246  48.1556611  32.2441307  34.6491873
  48.5380874  31.3167215  34.2228523  49.3549711  33.1798315  34.9575727
  49.9205871  33.3348147  34.0387920  48.9685451  34.1356670  35.3113431
  50.2877210  32.5626338  36.0438178  49.6520710  32.2508631  36.8725813
  50.7607986  31.6866817  35.5999623  51.3795672  33.5297753  36.5662966
  52.0729127  33.7095744  35.7446864  50.8842253  34.4631247  36.8338685
  52.1727377  32.9809335  37.8116457  51.4715798  32.9204415  38.6440031
  52.5237776  31.9802843  37.5595119  53.3751612  33.8613183  38.2150492
  53.0500453  34.7884659  38.4491359  53.8368053  33.4542411  39.0158444
  54.0251973  33.9171518  37.4440532  47.4336115  31.7940581  35.9293311
  47.7259103  30.7183912  36.4762197  46.4368305  32.5461849  36.3769100
  46.2467904  33.4591432  35.9889781  45.6007066  32.0745842  37.5043494
  46.2219751  31.9527599  38.3916394  44.4850098  33.0761649  37.8214799
  45.0408495  33.9572191  38.1422370  43.9156612  33.3136550  36.9228473
  43.5180736  32.6420854  38.9428132  42.9954439  31.7402581  38.6239615
  44.2989248  32.3510824  40.2841226  44.8214671  33.2526423  40.6038696
  43.5933015  32.0471851  41.0573256  45.0217730  31.5522630  40.1183568
  42.4179486  33.6836634  39.1272533  41.8588089  33.7908182  38.1977480
  41.7435050  33.3637861  39.9215490  42.8646952  34.6413484  39.3943785
  44.9995380  30.6978369  37.1650307  44.9954704  29.7956709  38.0203563
  44.4520530  30.5619798  35.9689065  44.3803946  31.3349181  35.3227403
  43.8520901  29.2806531  35.5884117  43.0703309  29.0596642  36.3151273
  43.2229383  29.3624957  34.2086021  43.9948422  29.5742701  33.4687264
  42.7429862  28.4132148  33.9706694  42.4787862  30.1588267  34.1946757
  44.8792712  28.1219997  35.6449042  44.5702565  27.0294517  36.1858717
  46.0787627  28.3697192  35.1025683  46.2317363  29.2459305  34.6240788
  47.1642223  27.3554727  35.0791031  46.8262832  26.4424483  34.5889166
  48.3781488  27.9208651  34.2926186  48.6338219  28.8910564  34.7186004
  49.6275527  26.9743374  34.3611830  49.3727676  26.0040329  33.9349277
  50.4489846  27.4145517  33.7958866  49.9301366  26.8459100  35.4004375
  47.9540321  28.0661470  32.9265939  48.6783892  28.4150652  32.4020338
  47.5338505  26.9060633  36.4823893  47.5706707  25.6848682  36.7746779
  47.7698992  27.8884797  37.3574687  47.7024621  28.8478949  37.0491279
  48.1897415  27.6340880  38.7132089  49.0324768  26.9500971  38.8134727
  48.5338215  28.9567207  39.4501469  47.7354321  29.6715915  39.2510656
  48.6814281  28.7554787  41.0017615  49.4799979  28.0410359  41.2016580
  48.9221088  29.7093579  41.4711098  47.7446987  28.3762641  41.4102171
  49.7548474  29.6113621  38.8184306  49.5487555  29.8312341  37.7709172
  49.9845288  30.5375770  39.3451869  50.6065714  28.9345632  38.8863288
  47.1100161  26.8576309  39.4583319  47.4197967  25.7978575  40.0855498
  45.8550412  27.3253731  39.3940492  45.6570791  28.1944564  38.9190705
  44.7585170  26.6573062  40.1113987  45.0970951  26.5686550  41.1436802
  43.4700161  27.4870482  40.0881057  43.1136548  27.5769668  39.0619374
  42.7094773  26.9951502  40.6945028  43.6692934  28.4799391  40.4912874
  44.4983213  25.2187385  39.5879965  44.2599647  24.2855376  40.3806680
  44.5635644  25.0558473  38.2708834  44.6724049  25.8620062  37.6722508
  44.3423614  23.7415946  37.6401670  43.4313666  23.2954031  38.0390412
  44.1971580  23.8760094  36.1218292  44.9664354  24.5479787  35.7413442
  44.3096003  22.8960880  35.6579210  42.8128226  24.4433313  35.7877044
  42.0743477  23.6764689  36.0215374  42.6781217  25.2928834  36.4571938
  42.6380697  24.8825365  34.4003078  43.6051547  24.7319232  33.6214425
  41.5318209  25.3588747  34.0466955  45.4584463  22.7512520  38.0635839
  45.1846030  21.5951428  38.4223182  46.6941551  23.2140502  38.0890926
  46.9273302  24.1217042  37.7124058  47.7761469  22.3715032  38.5803557
  47.7360599  21.4295225  38.0333964  49.1008805  23.0183607  38.3223107
  49.1596767  23.9585452  38.8706684  49.9002057  22.3550313  38.6527247
  49.2089323  23.2132819  37.2553384  47.6004950  22.0331150  40.0748663
  47.8109993  20.8792997  40.4872207  47.2308910  23.0216893  40.8944124
  47.2089800  23.9789695  40.5731121  46.9402044  22.7563845  42.3021484
  47.8005584  22.2624958  42.7537722  46.6475832  24.0304934  43.0798177
  45.9229244  24.6166809  42.5147044  46.2177807  23.7521614  44.0420552
  47.8809201  24.8441112  43.3022501  48.5647655  24.2844905  43.9404358
  48.3572035  25.0364309  42.3408608  47.4848804  26.4155019  44.0923322
  47.0180380  25.9378056  45.7694990  47.8552258  25.4314732  46.2499603
  46.7555816  26.8277303  46.3415579  46.1610306  25.2653753  45.7310677
  45.7981679  21.7731250  42.4853105  45.8702260  20.9324742  43.3884455
  44.7857635  21.8505834  41.6173898  44.7845061  22.5996671  40.9399155
  43.6277729  20.9623414  41.6695628  43.2410290  21.0284227  42.6865002
  42.5322166  21.4142329  40.6988726  42.9014728  21.3449758  39.6756652
  41.6578657  20.7734998  40.8132048  42.2566718  22.4462189  40.9160804
  44.0043336  19.4844037  41.4155899  43.4298019  18.5922076  42.0458704
  44.9370973  19.2414727  40.4987953  45.2871363  20.0049879  39.9378884
  45.4389174  17.8641238  40.2121884  44.5727274  17.2074321  40.1311321
  46.1982586  17.8421404  38.8769672  45.5450107  18.1995547  38.0809638
  47.0735589  18.4880915  38.9454991  46.6421330  16.4162450  38.5680624
  47.2958299  16.0582859  39.3634532  45.7672827  15.7697486  38.4989150
  47.3959419  16.3944214  37.2425735  46.7426955  16.7518372  36.4465697
  48.2712427  17.0403712  37.3111073  47.8432145  15.0235563  36.9092910
  47.6218699  14.2751728  37.5504058  48.5233146  14.7321048  35.8041121
  48.8518301  15.6628475  34.9126548  48.5826112  16.6238438  35.0679201
  49.3690115  15.4043787  34.0845142  48.8757975  13.4654281  35.6036459
  48.6247443  12.7610785  36.2825892  49.3929072  13.2136857  34.7733917
  46.3378623  17.3130252  41.3451467  46.4328885  16.0895501  41.5507009
  47.0012408  18.2192898  42.0708136  46.8600452  19.1925809  41.8408841
  48.0413055  17.8782908  43.0575208  48.5684106  16.9736792  42.7543091
  49.0635253  19.0387183  43.1522875  49.9562996  18.7604401  42.5922746
  48.6126060  19.9222918  42.7005466  49.4744498  19.3795557  44.5945423
  49.8971517  18.5106433  45.3561880  49.3520716  20.6671014  44.9641444
  49.6076649  20.9470514  45.9003067  49.0051463  21.3480696  44.3038218
  47.5045733  17.4399761  44.4277991  46.4084929  17.8384862  44.8481043
  48.1184587  16.6177858  45.1042511  44.9623839  42.5821977  36.7041404
  45.4273286  43.2512457  37.5626130  46.0636919  44.0603572  38.5961053
  47.2075536  44.8050801  38.1848227  47.8691056  44.2595689  37.1033846
  49.2507094  43.8134092  37.4983474  49.7893673  42.9039710  36.9018445
  49.8724545  44.5163733  38.5021071  51.2426710  44.2248526  38.9186601
  52.1689703  45.4428209  38.9088739  52.1136389  46.2880847  37.6539649
  51.7236622  47.6296338  37.7452351  51.6584306  48.4371055  36.6144742
  51.9846925  47.9503923  35.3617781  51.9338642  48.6979889  34.1901208
  51.6165895  50.0522447  34.1984335  51.6056845  50.6620360  32.8320435
  51.3877158  51.9904491  32.6549526  51.8458510  49.7752055  31.6536086
  52.3765458  46.6373968  35.2400256  52.6651378  46.2105909  33.9569471
  53.0087044  44.8605703  33.7581068  52.4413541  45.7964157  36.3698152
  47.8767166  45.2373103  35.9433119  46.6681509  45.6294302  35.3522916
  46.6227842  46.5189593  34.2893834  47.8078258  47.0400296  33.7967819
  47.7659653  48.1757205  32.4391906  49.0052499  46.6742652  34.3482262
  49.0240643  45.7769374  35.4158417  44.5299064  41.9605083  35.9067255
  45.3153839  44.7727153  38.9751450  46.4267475  43.3474962  39.3516454
  47.3329168  43.3617684  36.7633304  49.3572895  45.2720630  38.9751294
  51.2144337  43.8192604  39.9411510  51.6506683  43.5090752  38.1902283
  51.8978087  46.0827855  39.7613800  53.1936058  45.0458483  38.9629359
  51.4642525  48.0522664  38.7271426  51.3411401  49.4845962  36.7190635
  50.6182060  50.1754771  34.6444975  52.3947948  50.5672443  34.7803939
  50.3091263  52.1969017  32.7193435  51.9165154  52.5559347  33.4364876
  51.7609840  52.2945694  31.6655999  51.8430692  50.1973378  30.6382060
  52.0247322  48.7003540  31.8017232  52.1039518  44.2382359  33.8251032
  53.4636796  44.7408090  32.7640305  53.7267644  44.5480609  34.5303021
  52.7500282  44.7471297  36.2506131  45.7259585  45.2189347  35.7438855
  45.6588851  46.8065994  33.8440177  49.9459705  47.0844802  33.9525390
  49.9934664  45.4914856  35.8512610  39.1742569  61.4841603  35.3490970
  32.7593182  58.5161951  26.8298745  44.4144068  15.1742493  46.2828689
  53.4147842  48.6923806  52.4988986  27.9992116  28.7803288  52.2779067
  16.6629527  20.0757622  19.4278808  37.8562288  56.1454531  14.2694604
  32.1243516  16.5480048  47.3852483   6.2729572  19.5854560  18.3947977
  19.0517431  69.4446820  51.7746329  40.9473899  69.7294871  13.2485849
  35.0989369  43.3856719  61.0494559  34.8764616  71.7418067  25.3590923
   6.7836407  53.2544748  31.9452714   5.4763670  55.6889674  63.8237325
  45.8445659   0.5254400  36.9192847  25.8104632  45.6106693  78.2647539
   9.4801379  22.1994699  25.2629259  37.6929574   9.7053111  40.9483790
  35.9239704  37.4134076  57.1822890  25.1743758  46.3029505  60.8925884
  26.3150673  55.8062621  82.5724483   2.3489366  31.8044605  21.8752875
  71.1453350  39.4577232  60.6278340  45.2621720   4.2844824  19.1765952
  46.9037457  31.8381531  14.2906739  47.3503095  31.5223849  67.1015831
  50.6728274  52.3736472  17.2470872  31.2033727  53.3944156  -1.1425287
   8.3325324  46.2360816  26.3145802  54.9594863  23.7695536  20.3192798
   3.7367341  33.6657723  36.7025756  28.8718036  60.9135813  71.6901853
  10.1991683  45.2113343  18.6862359  28.7667253  28.0624761   8.0851046
   4.6489475  46.8321879  37.3722057  24.5100125  71.7027033  55.5428050
  61.8889976  78.1491159  35.2118081  11.9543897  70.0918591  37.1686691
  47.3378855  22.7815926  10.6757574   5.1080175  58.2886925  62.5622539
  41.5752139  58.4881977  63.6763576  30.1716763  -4.1438924  40.2165235
  55.6146263  20.9057996  29.5505249  75.4075498  32.4977542  21.2532576
  28.0667482  47.8009213  68.1269640  35.4474610  73.3380576  27.6925447
  56.3523272  26.7197716  68.8536071  44.6173626  59.9194525  58.7337915
  44.7896843  21.3449224  65.1293859  35.3287221  31.7620267  74.9596606
  38.1611464  79.2076400  27.3354558  37.9289687  24.4264246  70.0509254
  64.7955599  12.7519204  61.5462894  42.1145492  66.6873927  61.7941496
  57.7861309  36.0170464  18.3069302  48.6460987  27.7708392  28.6851364
   9.9405921  69.4006946  20.3911465   2.5135582  56.2297883  29.2285671
  71.5451666  30.7389569  19.4262040  49.5591750  13.5351325  52.5513706
  36.8325671  41.9748737  84.5550656  36.2482886  42.4798769  84.9616520
  36.4295766  41.7491124  83.8147248  36.6864975  42.0156986  84.5055682
  41.2902885  38.2214390  83.0319577  41.5298889  38.4292373  82.2194920
  41.6118726  37.4171898  83.1408522  41.3740043  38.1328491  82.9280130
  34.5012267  35.8352277  82.0879701  33.7870444  35.5490456  82.5002133
  34.9856236  36.1748903  82.7286088  34.4671630  35.8433927  82.2435336
  41.6759585  44.3382231  82.4641509  42.0910734  44.0067255  81.7726005
  40.8451515  44.1051133  82.3361646  41.6147594  44.2553487  82.3432357
  44.3692975  40.5892790  81.6502711  44.2873138  40.6594977  82.5157698
  45.0072696  41.1522534  81.4586451  44.4512813  40.6831761  81.7492660
  41.4733085  40.6113245  84.6611317  42.2873724  40.9028137  84.5494088
  41.4092227  39.9573107  84.0869610  41.5835824  40.5578439  84.5600154
  37.9843809  39.3037052  84.1258519  38.3688961  39.0844759  84.8775064
  37.7355429  40.1299997  84.2559595  38.0045881  39.3935198  84.2559595
  42.9109108  43.8275045  80.0027122  43.6782093  43.8875170  79.5932974
  42.4640416  43.2555486  79.5183441  42.9582535  43.7511620  79.8704833
  38.9583708  40.0993811  81.4664233  39.2476233  40.8758693  81.7407807
  39.0455507  39.5882542  82.1678732  39.0137964  40.1385729  81.6106730
  43.7515327  35.4927074  85.7217919  43.2238345  35.5755818  85.0323628
  44.2111035  36.2344945  85.7182564  43.7417177  35.6147736  85.6192615
  35.7448392  33.7629594  80.7458815  35.3961196  34.4149319  81.2090364
  35.2644838  33.7486707  80.0182686  35.6218636  33.8572647  80.7069906
  36.1472523  37.2555235  83.5877436  36.7817603  37.8515660  83.5226898
  36.2298134  36.9558693  84.4023306  36.2529074  37.2996143  83.6980522
  40.7862617  35.1277334  85.0613542  40.1927456  35.4494331  84.5098109
  40.8237895  34.2818430  84.8534648  40.7037006  35.0501662  84.9496313
  38.7591849  35.7674585  83.1542872  39.1390814  35.7854214  82.3693986
  38.0184445  36.2128574  83.0333719  38.7060687  35.8356359  83.0206440
  39.5576603  42.6052091  84.5451662  38.7487926  42.2818765  84.4984971
  40.0651512  41.8985313  84.4779910  39.5126270  42.4533407  84.5281956
  48.1612574  15.0918911  74.6052900  48.1306578  15.9463548  74.7771170
  48.7593922  14.7914204  75.1639044  48.2449732  15.1735408  74.7127703
  35.7453398  23.7157280  75.1243062  34.9936298  23.3372819  74.8959107
  36.1939410  23.7475714  74.3761873  35.7003065  23.6642887  74.9800565
  41.1978358  24.1382650  70.5528610  40.8629727  24.8159571  70.1172832
  41.7105228  23.7487961  69.9645481  41.2243939  24.1807228  70.4015401
  40.7382649  26.0896918  76.4939721  41.1222029  26.6583817  75.9544496
  40.6741791  25.3646429  76.0145537  40.7856077  26.0672382  76.3433584
  45.9829148  17.6671213  72.8771210  45.8668674  18.4178899  73.3063348
  46.7785035  17.4095167  73.1267297  46.0833738  17.7406060  72.9775302
  37.1638894  28.6453262  78.7920691  37.8076349  29.0866426  79.1816849
  37.4895149  27.8406688  78.7050950  37.3070723  28.5918456  78.8366168
  37.8659474  21.6565236  74.1640553  38.1875315  22.1970444  73.5601861
  38.5131570  21.0862008  74.2962842  38.0085529  21.6524412  74.0947588
  40.1049117  20.0451676  74.2354731  40.5442753  19.4368777  74.6809504
  39.9553780  19.6659050  73.4640196  40.1470583  19.8990148  74.1873898
  43.7058454  18.3978858  71.1885500  43.6209749  19.2539824  71.3335069
  44.1942837  18.1223182  71.8567659  43.7647351  18.4836179  71.3087582
  44.6376887  15.0163652  72.6883235  44.1088358  15.2323285  73.3480541
  45.1601907  15.7099790  72.6084205  44.6365340  15.1506789  72.7738834
  50.0924940  20.5909956  78.0616280  49.2622643  20.8020600  78.2249696
  50.0434192  19.7647011  77.7858563  49.9631675  20.4999563  78.0453645
  36.5276495  18.9126869  71.4890703  35.9433710  19.4176900  71.8956567
  36.1246590  18.6869256  70.7487295  36.3815799  18.9535117  71.4395728
  40.9853709  15.1592521  69.9659624  41.2249713  15.3670504  69.1534967
  41.3069550  14.3550029  70.0748568  41.0690867  15.0706622  69.8620177
  47.3489255  21.2609311  78.1980995  46.9124487  21.2646053  78.9539967
  47.0152170  21.9414810  77.7660573  47.2351875  21.3621767  78.2461828
  50.4833601  17.9790231  77.0900633  51.1450035  17.4180899  76.9896541
  49.8425013  17.4842261  77.4153324  50.4862469  17.8226640  77.1232973
  41.3710409  21.2760362  69.3981556  41.7861557  20.9445386  68.7066052
  40.5402339  21.0429264  69.2701693  41.3098418  21.1931618  69.2772403
  46.7698432  18.9955613  76.8312621  47.0054021  19.1400812  76.0039472
  46.9187996  19.7598021  77.2244135  46.8264235  19.1294667  76.7676225
  48.5988889  17.8357279  74.6682225  48.9297106  18.3684919  74.0622320
  49.1721977  17.8896167  75.3244176  48.7322568  17.9226848  74.6760007
  44.0643799  17.5270921  68.5842757  43.9823962  17.5973109  69.4497744
  44.7023520  18.0900665  68.3926498  44.1463636  17.6209893  68.6832707
  41.1683909  17.5491376  71.5951364  41.9824548  17.8406269  71.4834135
  41.1043051  16.8951238  71.0209657  41.2786648  17.4956570  71.4940201
  37.6794633  16.2415183  71.0598565  38.0639785  16.0222890  71.8115110
  37.4306253  17.0678128  71.1899642  37.6996705  16.3313329  71.1899642
  37.9617875  24.4620059  73.1330936  38.2516174  24.0709040  72.4090162
  38.6921356  24.6436764  73.5736211  38.1124759  24.4313873  73.0913743
  35.9023791  26.4387441  76.1991085  35.6824086  26.1484796  76.9917752
  35.6818313  25.7802396  75.6708998  35.8371385  26.2987150  76.2379994
  38.0691747  27.8116831  74.9821778  38.7215805  27.2793274  75.2112804
  37.3717355  27.4585484  75.3689652  38.0622464  27.6806354  75.0733946
  46.0631665  20.1321245  74.3252757  46.6289698  20.7914455  74.2411300
  45.4159568  20.4770943  74.7969159  46.0510421  20.2803187  74.3825514
  42.5338243  23.0760029  73.7489836  42.2924919  22.3427890  73.3416901
  42.7139576  23.6246886  73.0956170  42.5245867  23.0482421  73.5920059
  47.2594363  20.1827473  71.1178394  46.8801171  19.3964611  71.1107683
  46.5960608  20.7314330  70.9750038  47.1052838  20.1472297  71.0959190
  40.0841271  23.7340992  74.9567220  40.8491162  23.4650636  74.6349884
  39.9819361  23.2491002  75.6737283  40.1822766  23.6230557  75.0147047
  42.6059931  20.7653176  66.9367169  43.3732917  20.8253301  66.5273021
  42.1591240  20.1933617  66.4523488  42.6533359  20.6889751  66.8044879
  45.5054462  22.4272964  71.4530079  45.5874299  23.2339950  71.1291530
  45.9904204  22.4468923  72.1770853  45.5891619  22.5493626  71.5116978
  41.1412554  16.9767735  74.4221493  41.6828100  16.4738116  74.8860114
  41.4559113  16.9232930  73.6110978  41.2676952  16.8947156  74.3705305
  39.3099004  22.3685086  71.7061521  39.3791824  21.5099625  71.8454521
  40.0887459  22.5856967  71.3780546  39.4351854  22.2737950  71.6778678
  43.7006492  24.7922788  75.9198014  43.3086283  24.4889503  75.2020881
  43.8559564  25.6291878  75.7302968  43.6660082  24.8706624  75.7854512
  43.8646166  21.3572777  75.8604045  43.5060821  21.5287419  76.6368077
  43.3784877  21.8185982  75.3032043  43.7404863  21.4511748  75.8929314
  38.6534532  17.0371942  68.4004279  38.9427057  17.8136824  68.6747854
  38.7406331  16.5260673  69.1018779  38.7088788  17.0763860  68.5446777
  44.4696797  24.1958280  79.3528049  44.2716486  24.6849095  78.6584260
  43.8484508  24.3999522  79.9312182  44.3484361  24.2974819  79.3351272
  43.4466151  12.4305205  72.6557966  42.9189169  12.5133949  71.9663675
  43.9061859  13.1723077  72.6522611  43.4368001  12.5525868  72.5532661
  35.4399216  10.7007725  67.6798861  35.0912020  11.3527450  68.1430411
  34.9595662  10.6864838  66.9522733  35.3169460  10.7950778  67.6409953
  43.0003233  21.0008769  71.7867623  43.7237432  21.4666882  71.6432197
  42.5603824  21.0682378  71.0365220  43.0418926  21.0792605  71.6552405
  43.2607083  25.0629474  71.9465684  42.5436393  24.8890336  71.4812922
  43.9113821  24.8282046  71.4141170  43.2508933  25.0025266  71.7994902
  38.5420245  26.2991232  78.3755832  38.1280644  25.6365363  77.9859674
  39.2267619  26.4469091  77.8551526  38.5818617  26.2231890  78.2412329
  41.9085539  25.4581318  79.1279449  41.5101822  25.5683588  78.3600269
  41.2936759  25.6663384  79.7106009  41.7584428  25.5054886  79.1010748
  49.6427382  20.0333284  72.5122539  50.0260987  20.7824640  72.7420637
  48.8471495  20.2799104  72.2534529  49.5821164  20.1802978  72.5080113
  38.4542673  12.7052716  70.0882918  38.8341638  12.7232345  69.3034033
  37.7135269  13.1506705  69.9673766  38.4011511  12.7734491  69.9546487
  39.2527427  19.5430222  71.4791708  38.4438750  19.2196896  71.4325018
  39.7602336  18.8363444  71.4119957  39.2077094  19.3911539  71.4622003
  59.1345157  30.6104219  74.6052900  59.1039162  31.4648856  74.7771170
  59.7326506  30.3099512  75.1639044  59.2182315  30.6920716  74.7127703
  52.3344842  29.6979870  79.3605831  51.4782738  29.8588369  79.4114948
  52.3812496  28.8271934  79.3810892  52.2143953  29.5930672  79.3711897
  46.7185982  39.2342588  75.1243062  45.9668881  38.8558127  74.8959107
  47.1671993  39.2661022  74.3761873  46.6735649  39.1828195  74.9800565
  52.1710942  39.6567958  70.5528610  51.8362310  40.3344879  70.1172832
  52.6837812  39.2673269  69.9645481  52.1976523  39.6992536  70.4015401
  51.7115233  41.6082226  76.4939721  52.0954612  42.1769125  75.9544496
  51.6474374  40.8831737  76.0145537  51.7588660  41.5857690  76.3433584
  55.1796663  31.7571914  82.0037482  55.7252623  32.4357001  82.0631452
  55.1213539  31.6159375  81.1439064  55.2512577  31.8363916  81.8849543
  48.2970738  39.2460980  77.3905835  48.3981101  38.4361334  77.7002963
  47.7012483  39.1517927  76.7605513  48.2243277  39.1126008  77.3432073
  56.9561732  33.1856521  72.8771210  56.8401258  33.9364207  73.3063348
  57.7517618  32.9280475  73.1267297  57.0566321  33.2591368  72.9775302
  48.1371478  44.1638570  78.7920691  48.7808933  44.6051734  79.1816849
  48.4627733  43.3591996  78.7050950  48.2803306  44.1103764  78.8366168
  41.4935782  35.2681267  77.0158169  41.2585967  34.4348919  76.9090437
  41.6321423  35.5485933  76.2019370  41.4791445  35.1864770  76.8800524
  43.7925870  27.4366998  79.9142476  43.1730901  26.8459645  79.7452491
  43.6909733  28.0278433  79.2806799  43.6863545  27.4371080  79.7947466
  48.8392057  37.1750544  74.1640553  49.1607898  37.7155752  73.5601861
  49.4864154  36.6047316  74.2962842  48.9818112  37.1709720  74.0947588
  50.8893765  29.1766539  74.2474939  51.5873930  29.3554667  74.7396403
  51.2046098  28.6536879  73.6245329  51.0389102  29.1260311  74.2276950
  43.5195003  30.9819279  82.1586045  43.3953700  31.5681725  82.7935864
  44.1713287  30.4879475  82.4598320  43.5968652  30.9958084  82.2971975
  51.0781701  35.5636984  74.2354731  51.5175336  34.9554085  74.6809504
  50.9286364  35.1844358  73.4640196  51.1203166  35.4175455  74.1873898
  48.5453344  34.1580996  81.4373556  49.1902346  33.6653439  81.1184505
  48.7855121  34.3005783  82.2639635  48.6763929  34.1058438  81.5123090
  51.0839435  37.0035902  81.0880449  51.3662678  36.2087308  80.8667205
  51.8125595  37.4816489  81.1085510  51.2328999  36.9570499  81.0583464
  49.0620629  24.5458936  78.3296214  48.7323959  24.9970080  77.6599913
  48.3865631  24.4675099  78.8769220  48.9131065  24.6010071  78.3119437
  54.6791037  33.9164166  71.1885500  54.5942332  34.7725132  71.3335069
  55.1675420  33.6408490  71.8567659  54.7379935  34.0021487  71.3087582
  56.2697037  20.5344459  76.5745825  55.9550478  21.2247937  77.0066247
  55.7523978  20.4789241  75.8731325  56.1461507  20.6279347  76.5342774
  55.6109470  30.5348960  72.6883235  55.0820942  30.7508593  73.3480541
  56.1334490  31.2285098  72.6084205  55.6097923  30.6692097  72.7738834
  61.0657523  36.1095264  78.0616280  60.2355226  36.3205908  78.2249696
  61.0166776  35.2832319  77.7858563  60.9364259  36.0184871  78.0453645
  47.5009078  34.4312177  71.4890703  46.9166293  34.9362208  71.8956567
  47.0979173  34.2054563  70.7487295  47.3548382  34.4720425  71.4395728
  43.0553107  40.1466938  78.2914375  42.5720685  40.8717427  78.2673958
  43.8676425  40.4443068  78.4024532  43.1043855  40.2969291  78.3041654
  49.1267261  38.9399118  80.8964189  48.6094203  38.5806533  80.2925497
  49.8241652  38.4161293  80.9070255  49.1532842  38.8096806  80.8094448
  51.9586293  30.6777829  69.9659624  52.1982296  30.8855812  69.1534967
  52.2802134  29.8735337  70.0748568  52.0423451  30.5891930  69.8620177
  47.2676583  22.6071224  73.8119162  48.0222551  22.9749541  73.5736212
  47.0904118  22.9810779  74.5798341  47.3531061  22.7169412  73.8904050
  45.9097304  40.6623114  78.4434655  46.6117883  40.1475103  78.5007411
  45.8294787  40.9897265  79.2481530  46.0021065  40.6337340  78.5707447
  45.6233648  25.0141543  70.5097275  45.4409221  25.2313424  69.6838268
  46.4859261  25.1280556  70.5655889  45.7238237  25.0631441  70.3951762
  45.2348080  36.8529466  77.9520263  46.0736979  37.0852398  77.9994024
  45.2659849  35.9833777  77.8827298  45.3629797  36.7586412  77.9484907
  45.8600783  37.2730341  82.2533568  46.3999008  37.1301472  82.9236941
  45.1770729  37.6727092  82.6217594  45.8392936  37.3110012  82.4067990
  51.3033367  22.0167954  73.5446299  52.0319527  21.8383909  73.0984455
  51.3928260  22.8586034  73.7553477  51.4240029  22.1151832  73.5099816
  55.2841667  32.9521341  77.4478592  56.0399182  33.3852856  77.4867501
  55.3903992  32.3026111  78.0213229  55.4111838  32.9198825  77.5376618
  58.3221839  36.7794619  78.1980995  57.8857070  36.7831361  78.9539967
  57.9884754  37.4600118  77.7660573  58.2084459  36.8807074  78.2461828
  41.2637928  33.4930632  82.4067990  40.9976343  32.6769748  82.5658980
  41.2776492  33.5383787  81.5363505  41.2262650  33.3787536  82.3021472
  45.1695675  28.2915716  69.0219748  44.4553852  28.0053896  69.4342180
  45.6539643  28.6312342  69.6626135  45.1355038  28.2997366  69.1775383
  61.4566185  33.4975539  77.0900633  62.1182619  32.9366207  76.9896541
  60.8157597  33.0027569  77.4153324  61.4595052  33.3411948  77.1232973
  52.3442993  36.7945670  69.3981556  52.7594141  36.4630694  68.7066052
  51.5134922  36.5614572  69.2701693  52.2831001  36.7116926  69.2772403
  41.6731341  34.2789411  79.6879734  41.4906915  34.2536297  78.8352026
  42.4081010  34.7488349  79.7268643  41.7545405  34.3450773  79.5677652
  57.7431016  34.5140921  76.8312621  57.9786605  34.6586120  76.0039472
  57.8920579  35.2783329  77.2244135  57.7996819  34.6479975  76.7676225
  59.5721472  33.3542587  74.6682225  59.9029689  33.8870227  74.0622320
  60.1454560  33.4081475  75.3244176  59.7055151  33.4412156  74.6760007
  54.7853361  31.2007490  75.3505805  54.8800216  31.9396784  75.8045431
  54.1612205  30.7724965  75.7840370  54.7062391  31.2468810  75.4813953
  41.6402252  31.1582912  79.8378801  42.2175754  31.0219362  80.4771046
  40.9416313  30.7018696  80.0924385  41.6223273  31.0705178  79.9701090
  55.0376383  33.0456229  68.5842757  54.9556545  33.1158417  69.4497744
  55.6756103  33.6085973  68.3926498  55.1196220  33.1395200  68.6832707
  48.3969554  32.8116967  78.0517284  48.1388798  31.9788702  78.0248583
  48.4518037  33.0374580  77.2109784  48.3669332  32.7214739  77.9237420
  53.4770604  24.9145418  78.1521376  52.7726931  24.4254604  78.3105296
  53.5255578  24.9267892  77.2809821  53.3800656  24.8435066  78.0460716
  47.3704266  30.3654730  78.5382178  46.7953857  30.5246898  79.1746139
  46.9939942  29.7290139  78.0750629  47.2307078  30.2952543  78.5636737
  51.0377555  28.8378079  83.3974557  50.6491987  28.4132297  82.7426748
  50.3732253  29.0860229  83.9051584  50.8824482  28.8116800  83.3762425
  60.6800824  28.5953084  76.1722387  60.4237389  27.7833025  75.9820270
  61.5230138  28.6030651  75.9452574  60.7666849  28.4765081  76.1107204
  37.1161085  30.0094805  76.5526619  37.2021337  29.6326673  77.3340149
  37.7436882  29.6355250  76.0746577  37.2217636  29.8980287  76.5972096
  52.1416493  33.0676684  71.5951364  52.9557132  33.3591576  71.4834135
  52.0775634  32.4136546  71.0209657  52.2519232  33.0141878  71.4940201
  48.0124401  36.5398201  76.7223676  48.6498348  36.3009949  77.2675469
  48.4379473  36.7435360  75.9876837  48.1700567  36.5349211  76.6940833
  42.7037044  38.7786538  80.6057980  42.7441189  39.0501389  79.7777759
  43.2631568  39.3028446  81.0215768  42.7920389  38.8962293  80.5449868
  48.6527216  31.7600491  71.0598565  49.0372369  31.5408198  71.8115110
  48.4038836  32.5863436  71.1899642  48.6729289  31.8498637  71.1899642
  50.3945873  37.0170624  78.4017462  50.4684881  36.8545796  79.2559312
  51.2115379  37.2060813  78.1577944  50.5262232  37.0207366  78.4915488
  44.1551630  37.3628487  75.4311906  43.3289747  37.6090224  75.3046185
  44.2163621  37.2840567  76.2973964  44.0425797  37.3873436  75.5400850
  46.3727654  23.4297428  76.3907346  45.5050079  23.5020027  76.4564955
  46.6602858  24.2319507  76.5795321  46.2867402  23.5591575  76.4282112
  48.9350459  39.9805367  73.1330936  49.2248757  39.5894348  72.4090162
  49.6653940  40.1622072  73.5736211  49.0857343  39.9499181  73.0913743
  49.5245204  34.7823113  84.2184066  49.0256898  35.4938880  84.2968955
  50.3345428  35.1023779  84.1802229  49.5701311  34.9349961  84.2240635
  46.8756374  41.9572749  76.1991085  46.6556670  41.6670104  76.9917752
  46.6550896  41.2987704  75.6708998  46.8103969  41.8172458  76.2379994
  45.7873322  34.0446066  78.4646787  45.4986570  33.4183537  78.9992514
  46.6556670  33.9866353  78.5311467  45.8733573  33.9433610  78.5537742
  56.5751219  29.1880849  78.7828769  56.2315985  28.4671184  79.1336019
  56.6744262  28.9794700  77.9407127  56.5393262  29.0505052  78.7100449
  49.0424330  43.3302139  74.9821778  49.6948388  42.7978581  75.2112804
  48.3449939  42.9770791  75.3689652  49.0355048  43.1991662  75.0733946
  45.9905595  35.6841317  74.3889152  46.7451563  36.0654356  74.6024615
  45.3976208  36.1352460  74.8435849  46.0142309  35.8070144  74.4872030
  57.0364248  35.6506553  74.3252757  57.6022281  36.3099763  74.2411300
  56.3892152  35.9956251  74.7969159  57.0243005  35.7988495  74.3825514
  47.3103822  36.8549878  79.7629267  46.7884575  36.9950170  80.4481132
  47.6977842  36.0960542  79.9531385  47.2907522  36.7635402  79.8930344
  44.2995006  26.9055687  73.8324222  44.0119801  26.5356957  73.0956169
  44.9865474  27.3750542  73.5707927  44.3583903  26.9202656  73.6839298
  53.5070827  38.5945337  73.7489836  53.2657502  37.8613198  73.3416901
  53.6872159  39.1432194  73.0956170  53.4978451  38.5667729  73.5920059
  48.7370147  33.8853897  75.1610759  48.5412930  34.4928632  74.5671061
  48.9604493  33.1921841  74.6802432  48.7404788  33.8731423  75.0026839
  47.1348677  30.7708635  75.2791627  47.8571329  30.9349793  74.8195433
  46.6556670  31.4918300  75.1730967  47.1712408  30.9006865  75.1957241
  55.0942185  27.1072434  80.6588312  54.2553285  27.1333713  80.4226575
  55.1646552  27.7543169  81.2393658  54.9810578  27.2068560  80.7097429
  44.7856294  33.1766707  84.3845767  45.2977391  33.4550961  83.7354526
  44.4992637  33.9156002  84.7508580  44.8191157  33.3269061  84.3435645
  53.5411463  24.0057811  75.3915928  54.2437816  23.8065559  74.9135886
  53.2755652  23.2333753  75.6984771  53.6058095  23.8620777  75.3661369
  58.9699709  32.3140421  77.9449554  58.8833683  32.4695847  78.7984332
  58.5150189  32.9578496  77.5708959  58.8902965  32.4316176  78.0156660
  41.8723200  27.6836899  74.6809503  41.9739337  28.4863061  75.0090479
  42.6679087  27.4824235  74.3832584  42.0051106  27.7722798  74.6844859
  52.8425525  29.6351168  76.5675113  52.5960239  29.5546919  77.4011902
  53.1710648  28.8504636  76.3737641  52.8546768  29.5077433  76.6622636
  56.7373573  36.3434527  80.3561894  56.5987933  37.0415573  80.8610637
  55.9573571  36.1883184  79.9998076  56.6016800  36.4234694  80.3788168
  48.8022552  32.3707886  85.9798096  48.9465928  32.9509094  85.3441206
  49.1498201  32.7484183  86.6847951  48.8750013  32.5128590  85.9897091
  50.9742469  31.5698055  83.7623228  50.2265783  31.7629069  83.3571506
  51.1283995  30.7443274  83.5247349  50.8864897  31.4763166  83.6668634
  47.8750307  40.5610658  82.8459123  48.0239871  40.0013574  82.1932527
  48.6550309  40.6402660  83.2291642  48.0124401  40.4896224  82.8056072
  58.2326946  35.7012781  71.1178394  57.8533755  34.9149919  71.1107683
  57.5693192  36.2499638  70.9750038  58.0785421  35.6657605  71.0959190
  51.0573855  39.2526300  74.9567220  51.8223746  38.9835944  74.6349884
  50.9551944  38.7676310  75.6737283  51.1555350  39.1415865  75.0147047
  49.0926624  27.4550709  81.4960455  48.3022699  27.2742169  81.8177791
  49.4887247  26.6777662  81.4790750  49.0343500  27.3138170  81.5413004
  53.5792515  36.2838484  66.9367169  54.3465500  36.3438609  66.5273021
  53.1323824  35.7118925  66.4523488  53.6265942  36.2075059  66.8044879
  54.4770311  35.0893140  79.2219901  53.8015312  34.8578372  79.7233288
  54.4862687  34.4814322  78.5962006  54.3788815  34.9652065  79.2036054
  51.6064455  29.9310968  85.9783954  51.5423596  30.7920925  85.8504091
  51.7461642  29.6142962  85.1779506  51.6179925  30.0111135  85.8412167
  56.4787045  37.9458272  71.4530079  56.5606883  38.7525258  71.1291530
  56.9636787  37.9654231  72.1770853  56.5624203  38.0678934  71.5116978
  50.2883548  32.6243108  80.1200157  49.8645798  32.8247607  79.3839176
  50.1128404  31.7771956  80.2324457  50.1994429  32.5291889  80.0273847
  45.5765993  33.1195159  75.5528130  45.7330613  33.0541962  76.4084122
  45.9166587  33.8943712  75.3406809  45.6499228  33.2244357  75.6482724
  52.1145138  32.4953043  74.4221493  52.6560683  31.9923424  74.8860114
  52.4291697  32.4418238  73.6110978  52.2409535  32.4132464  74.3705305
  50.2831588  37.8870394  71.7061521  50.3524408  37.0284933  71.8454521
  51.0620043  38.1042275  71.3780546  50.4084438  37.7923258  71.6778678
  53.2634407  27.3889347  84.4743794  53.4776377  26.7500262  83.9207147
  52.6468307  27.8335171  84.0451655  53.2039737  27.3599491  84.3294225
  54.6739075  40.3108096  75.9198014  54.2818867  40.0074811  75.2020881
  54.8292148  41.1477186  75.7302968  54.6392665  40.3891932  75.7854512
  42.1500255  30.3030110  75.8688897  42.5299220  30.7214655  75.2049164
  41.5755620  30.8843565  76.1757740  42.1211580  30.4507969  75.8165638
  54.8378750  36.8758085  75.8604045  54.4793405  37.0472727  76.6368077
  54.3517461  37.3371290  75.3032043  54.7137447  36.9697056  75.8929314
  52.6549136  20.4989283  79.4631136  51.7842694  20.4728004  79.4164446
  52.9089477  20.3266475  78.6456982  52.5642696  20.4699427  79.3351273
  49.6267115  32.5557250  68.4004279  49.9159640  33.3322132  68.6747854
  49.7138914  32.0445981  69.1018779  49.6821372  32.5949168  68.5446777
  49.6798277  22.5095511  80.9204607  49.1636765  21.8175703  81.0456186
  49.1192205  23.1766288  80.8667205  49.5204790  22.5058769  80.9310673
  57.7240489  29.6151126  81.3737161  57.2968098  29.5277475  80.6185261
  57.0866542  29.7228902  81.9592006  57.5670097  29.6183786  81.3482603
  45.7931056  31.8690514  80.5004391  44.9519063  31.7694389  80.7083285
  46.0021064  32.6385995  80.8518712  45.6995749  31.9682558  80.5831706
  43.2706623  29.4910051  78.3289142  42.8763321  29.5653063  77.5539252
  42.7146740  29.8767998  78.8797504  43.1309436  29.5591826  78.2956802
  54.9071570  22.4691345  78.0093021  55.1121164  22.4013653  78.8550018
  54.5797994  23.2750167  77.9414198  54.8886818  22.5777286  78.1252676
  49.6047721  29.7971914  79.7501989  49.3010859  29.2427902  80.3512397
  48.9027142  29.9764124  79.2630023  49.4563931  29.7416696  79.7671695
  48.6613818  27.1072433  74.3146691  48.9373553  26.3891346  73.9024258
  49.2612488  27.7057353  74.1067797  48.7907083  27.0892804  74.2227452
  47.6666072  37.0121634  84.4574087  47.5586427  37.0223697  85.3236145
  47.8761854  37.8376415  84.2679041  47.6816183  37.1362709  84.5578178
  58.1605258  23.0223110  77.4895786  57.5479571  23.5093512  77.8749518
  58.2569433  22.3466601  78.0333438  58.0843156  22.9941418  77.6274645
  52.1624339  24.7785951  72.5893286  52.6168085  24.9496511  73.3141130
  52.6364385  24.1654062  72.1891062  52.2992659  24.7136836  72.6367047
  45.6839864  34.2634277  81.9196024  45.0927798  34.9043775  81.8899039
  46.4460888  34.6871894  81.8927324  45.7088125  34.4210115  81.9111172
  55.4429381  39.7143588  79.3528049  55.2449069  40.2034403  78.6584260
  54.8217092  39.9184830  79.9312182  55.3216945  39.8160127  79.3351272
  49.5037359  31.4828485  73.6938293  50.2479404  31.8702761  73.9321243
  49.6498055  30.6385911  73.8578781  49.6347944  31.4158958  73.7532263
  51.4216934  23.2778744  78.7270154  50.5752979  23.4501552  78.6011504
  51.4188067  22.4728088  79.0635983  51.2964084  23.1839773  78.7581281
  52.4915235  27.0553958  79.5932212  52.0175189  26.5295721  80.1037523
  52.8633371  26.5083431  79.0247074  52.4765124  26.8969955  79.5847360
  58.7551965  32.1156334  81.0038993  58.5150188  31.2762749  81.0081419
  59.2343972  32.1956501  81.7279766  58.7904149  32.0037734  81.1113795
  54.4198734  27.9490513  72.6557966  53.8921753  28.0319257  71.9663675
  54.8794443  28.6908385  72.6522611  54.4100585  28.0711175  72.5532661
  60.7557152  28.8957791  78.9568252  60.5166922  28.8553626  78.1189037
  60.9191054  29.7428943  79.0833973  60.7447456  29.0149876  78.8521734
  46.2290051  27.8767914  81.6226176  45.6043121  27.8886306  81.0152129
  45.8935646  28.3528089  82.2717417  46.0875543  27.9486431  81.6282745
  46.4131800  26.2193033  67.6798861  46.0644604  26.8712758  68.1430411
  45.9328245  26.2050146  66.9522733  46.2902043  26.3136086  67.6409953
  42.9415726  35.9368374  83.0629941  42.4115651  35.2460813  83.1124915
  43.2140820  35.9278560  82.2342649  42.9040449  35.8335506  82.9477357
  53.9735817  36.5194077  71.7867623  54.6970016  36.9852190  71.6432197
  53.5336408  36.5867686  71.0365220  54.0151509  36.5977913  71.6552405
  53.1421972  33.3791619  83.0368312  52.5278965  32.8349669  83.3316948
  53.6589257  32.8655855  82.5574128  53.1277634  33.2228028  83.0092541
  52.3818269  34.4495889  80.7712611  51.9545877  33.8245608  80.3378046
  52.3743214  34.1670811  81.5971618  52.3177410  34.3148670  80.8292438
  50.7103979  25.3264643  80.9855145  50.7346466  24.7924756  80.2967925
  50.9615452  24.8181952  81.6480735  50.7513898  25.1725547  80.9819790
  38.2211569  32.6096138  80.4198289  38.1155018  32.5642983  79.5550373
  37.4711789  32.9549919  80.7012574  38.0947172  32.6537047  80.3335619
  46.9905301  24.0535462  80.3660889  47.0303673  24.5544668  81.0795597
  46.1654966  24.1445855  80.0966812  46.8744827  24.1417278  80.4311427
  48.4119664  30.5695972  82.6634788  47.5811594  30.7369790  82.4570036
  48.3571182  30.1931922  83.4483673  48.2809079  30.5385703  82.7483316
  46.7855708  28.8451563  73.1924906  46.9258669  29.3424027  73.8953547
  47.2838241  28.1437857  73.3339120  46.8796789  28.8153542  73.3176485
  46.8155931  29.7118674  70.5217483  47.4501010  30.3079099  70.4566944
  46.8981541  29.4122132  71.3363353  46.9212482  29.7559582  70.6320569
  48.3934914  25.6432650  70.4962925  48.7150755  25.1635732  69.8422187
  48.6561857  26.4532296  70.3053736  48.4800939  25.6922547  70.3718417
  53.7894068  25.0304843  82.8586404  54.2149140  24.5777370  82.2469930
  53.1751062  24.4764914  83.1351191  53.7622714  24.8818820  82.8091429
  43.3208919  31.9086515  73.7907029  43.8301148  32.5051022  74.1718334
  43.7943191  31.6412489  73.1083448  43.4652294  31.9572330  73.7461551
  54.2339667  40.5814782  71.9465684  53.5168976  40.4075644  71.4812922
  54.8846404  40.3467354  71.4141170  54.2241517  40.5210574  71.7994902
  52.2288291  21.5019943  76.2676981  51.5856609  21.3517590  76.8362119
  51.8887698  21.2562289  75.5026085  52.0833369  21.4432066  76.2379996
  56.8187638  29.4579370  75.6906989  56.1478828  30.0009072  75.5620055
  57.5127388  29.9274225  75.4488684  56.8216505  29.6077641  75.6362517
  50.8674372  41.5976082  80.9218748  50.6440026  40.8394911  81.2902774
  50.3784215  41.6274103  80.1999187  50.7617821  41.4898307  80.8695489
  56.9815765  25.9135254  78.5997363  57.3343375  25.4864977  79.2743161
  56.1230567  25.8286097  78.7298439  56.9065210  25.8379994  78.7192373
  45.6799450  28.5442773  76.6580209  44.9611439  28.9606906  76.9253073
  46.0511813  29.1097012  76.1071847  45.6291382  28.6892055  76.6163016
  54.9799031  29.1770622  82.5482205  54.9596958  28.9953918  83.4016984
  55.0278232  30.0482641  82.5241788  54.9833672  29.2787161  82.6705500
  49.5152828  41.8176540  78.3755832  49.1013227  41.1550670  77.9859674
  50.2000203  41.9654399  77.8551526  49.5551200  41.7417198  78.2412329
  52.8818123  40.9766626  79.1279449  52.4834406  41.0868896  78.3600269
  52.2669342  41.1848692  79.7106009  52.7317012  41.0240194  79.1010748
  51.4546025  27.5840773  71.9953589  50.8610864  27.9057770  71.4438156
  51.4921302  26.7381869  71.7874695  51.3720414  27.5065102  71.8836360
  54.3303841  27.5420278  75.4255339  54.1017534  27.5652979  74.5833697
  54.5901917  26.7177745  75.5450349  54.3350029  27.4236358  75.3180537
  47.3848604  26.0796824  76.7209534  47.8605970  26.4413904  76.0859716
  46.8837203  26.7353292  77.0009677  47.3813963  26.2291013  76.6686275
  60.6159965  35.5518592  72.5122539  60.9993571  36.3009948  72.7420637
  59.8204079  35.7984412  72.2534529  60.5553748  35.6988286  72.5080113
  49.4275257  28.2238024  70.0882918  49.8074222  28.2417653  69.3034033
  48.6867853  28.6692013  69.9673766  49.3744095  28.2919799  69.9546487
  57.0560547  26.5320215  75.6758497  57.0554774  26.3768872  76.5342773
  56.8516727  27.3783202  75.6199883  57.0260325  26.6340836  75.7946437
  39.1177818  29.9560000  80.0917314  38.9399579  29.5036609  80.8172229
  38.8296840  30.7586161  80.2755791  39.0490772  30.0082557  80.2260817
  54.7801399  31.2117717  79.3294704  55.2755065  30.4940712  79.2898724
  53.9701175  30.9088515  79.2149191  54.7345293  31.0615363  79.3068430
  50.2260011  35.0615530  71.4791708  49.4171334  34.7382204  71.4325018
  50.7334920  34.3548752  71.4119957  50.1809678  34.9096847  71.4622003
  40.8550288  32.4887723  77.2039073  39.9895808  32.4773414  77.0921844
  40.9549104  32.3017946  78.0510212  40.7424455  32.4593785  77.3128017
  56.8453218  33.9621404  82.0171833  57.2708290  33.4395826  81.4642258
  56.4810138  34.5602242  81.4960456  56.8539821  33.9731631  81.8580843
  46.4807298  42.2585622  80.7769178  46.7953857  43.0722010  80.7846960
  46.8900711  41.8735841  81.4451337  46.5875396  42.3214324  80.8773270
  53.4331818  37.6755669  78.3472990  53.9042996  38.3895931  78.5162975
  53.7691996  37.0754419  78.8832860  53.5526933  37.6927133  78.4505366
  49.4194428  24.4499552  72.7710550  50.2410122  24.6197865  72.5292245
  48.9564078  24.6046813  72.0476848  49.4725590  24.4981285  72.6282194
  43.8220318  36.2058730  80.4247787  44.4265176  36.1654565  79.7961607
  43.6147631  37.0529882  80.4551843  43.8809216  36.3246733  80.3363903
  53.6364090  38.4724676  81.6410024  54.4562464  38.3287642  81.9026319
  53.3558168  39.0970874  82.1826462  53.7160834  38.5435028  81.7597963
  39.0571601  35.1893348  80.2946710  38.9595879  34.3789619  80.6036766
  39.8400470  35.1685141  79.9092978  39.1587737  35.0660438  80.2833573
  61.8626349  44.6951847  74.2474939  62.5606514  44.8739975  74.7396403
  62.1778681  44.1722187  73.6245329  62.0121686  44.6445619  74.2276950
  60.0353212  40.0644244  78.3296214  59.7056542  40.5155387  77.6599913
  59.3598214  39.9860407  78.8769220  59.8863649  40.1195379  78.3119437
  67.2429620  36.0529767  76.5745825  66.9283061  36.7433245  77.0066247
  66.7256562  35.9974549  75.8731325  67.1194091  36.1464655  76.5342774
  58.4741662  49.9497485  71.4890703  57.8898877  50.4547516  71.8956567
  58.0711757  49.7239871  70.7487295  58.3280966  49.9905733  71.4395728
  62.9318876  46.1963137  69.9659624  63.1714880  46.4041120  69.1534967
  63.2534717  45.3920645  70.0748568  63.0156034  46.1077238  69.8620177
  58.2409167  38.1256532  73.8119162  58.9955135  38.4934849  73.5736212
  58.0636701  38.4996087  74.5798341  58.3263645  38.2354720  73.8904050
  56.5966231  40.5326851  70.5097275  56.4141804  40.7498732  69.6838268
  57.4591844  40.6465864  70.5655889  56.6970821  40.5816749  70.3951762
  62.2765950  37.5353262  73.5446299  63.0052111  37.3569217  73.0984455
  62.3660843  38.3771342  73.7553477  62.3972612  37.6337140  73.5099816
  56.1428258  43.8101024  69.0219748  55.4286435  43.5239203  69.4342180
  56.6272227  44.1497650  69.6626135  56.1087622  43.8182674  69.1775383
  63.3175576  52.3130978  69.3981556  63.7326725  51.9816002  68.7066052
  62.4867506  52.0799880  69.2701693  63.2563585  52.2302234  69.2772403
  66.0108966  48.5641537  68.5842757  65.9289129  48.6343724  69.4497744
  66.6488687  49.1271281  68.3926498  66.0928804  48.6580508  68.6832707
  48.0893668  45.5280113  76.5526619  48.1753920  45.1511981  77.3340149
  48.7169466  45.1540558  76.0746577  48.1950219  45.4165595  76.5972096
  63.1149076  48.5861992  71.5951364  63.9289715  48.8776884  71.4834135
  63.0508218  47.9321854  71.0209657  63.2251815  48.5327186  71.4940201
  59.6259800  47.2785799  71.0598565  60.0104952  47.0593506  71.8115110
  59.3771420  48.1048744  71.1899642  59.6461872  47.3683945  71.1899642
  57.3460237  38.9482736  76.3907346  56.4782663  39.0205335  76.4564955
  57.6335441  39.7504814  76.5795321  57.2599985  39.0776883  76.4282112
  55.2727589  42.4240995  73.8324222  54.9852385  42.0542265  73.0956169
  55.9598057  42.8935850  73.5707927  55.3316486  42.4387964  73.6839298
  58.1081261  46.2893943  75.2791627  58.8303913  46.4535101  74.8195433
  57.6289254  47.0103608  75.1730967  58.1444991  46.4192173  75.1957241
  64.5144047  39.5243119  75.3915928  65.2170399  39.3250867  74.9135886
  64.2488235  38.7519061  75.6984771  64.5790679  39.3806085  75.3661369
  52.8455784  43.2022207  74.6809503  52.9471920  44.0048369  75.0090479
  53.6411671  43.0009543  74.3832584  52.9783689  43.2908106  74.6844859
  64.5525099  51.8023792  66.9367169  65.3198084  51.8623917  66.5273021
  64.1056408  51.2304233  66.4523488  64.5998526  51.7260367  66.8044879
  53.1232838  45.8215418  75.8688897  53.5031803  46.2399963  75.2049164
  52.5488203  46.4028873  76.1757740  53.0944163  45.9693276  75.8165638
  63.6281720  36.0174591  79.4631136  62.7575278  35.9913312  79.4164446
  63.8822061  35.8451783  78.6456982  63.5375280  35.9884735  79.3351273
  60.5999699  48.0742558  68.4004279  60.8892224  48.8507440  68.6747854
  60.6871498  47.5631289  69.1018779  60.6553955  48.1134476  68.5446777
  59.6346402  42.6257741  74.3146691  59.9106136  41.9076654  73.9024258
  60.2345071  43.2242661  74.1067797  59.7639667  42.6078112  74.2227452
  63.1356922  40.2971259  72.5893286  63.5900669  40.4681819  73.3141130
  63.6096968  39.6839369  72.1891062  63.2725243  40.2322144  72.6367047
  60.4769942  47.0013793  73.6938293  61.2211987  47.3888069  73.9321243
  60.6230639  46.1571218  73.8578781  60.6080528  46.9344266  73.7532263
  62.3949518  38.7964052  78.7270154  61.5485563  38.9686860  78.6011504
  62.3920650  37.9913396  79.0635983  62.2696668  38.7025081  78.7581281
  65.3931318  43.4675821  72.6557966  64.8654337  43.5504565  71.9663675
  65.8527026  44.2093692  72.6522611  65.3833168  43.5896483  72.5532661
  57.3864383  41.7378341  67.6798861  57.0377187  42.3898066  68.1430411
  56.9060829  41.7235454  66.9522733  57.2634627  41.8321394  67.6409953
  57.7588292  44.3636871  73.1924906  57.8991253  44.8609335  73.8953547
  58.2570825  43.6623165  73.3339120  57.8529373  44.3338850  73.3176485
  57.7888514  45.2303982  70.5217483  58.4233594  45.8264407  70.4566944
  57.8714125  44.9307440  71.3363353  57.8945065  45.2744890  70.6320569
  59.3667497  41.1617957  70.4962925  59.6883338  40.6821040  69.8422187
  59.6294441  41.9717604  70.3053736  59.4533523  41.2107855  70.3718417
  54.2941502  47.4271823  73.7907029  54.8033731  48.0236330  74.1718334
  54.7675774  47.1597796  73.1083448  54.4384878  47.4757638  73.7461551
  63.2020875  37.0205251  76.2676981  62.5589193  36.8702898  76.8362119
  62.8620282  36.7747596  75.5026085  63.0565952  36.9617374  76.2379996
  56.6532034  44.0628081  76.6580209  55.9344023  44.4792214  76.9253073
  57.0244396  44.6282320  76.1071847  56.6023966  44.2077363  76.6163016
  62.4278608  43.1026081  71.9953589  61.8343448  43.4243078  71.4438156
  62.4653886  42.2567177  71.7874695  62.3452997  43.0250410  71.8836360
  58.3581187  41.5982132  76.7209534  58.8338554  41.9599212  76.0859716
  57.8569787  42.2538600  77.0009677  58.3546546  41.7476321  76.6686275
  60.4007840  43.7423332  70.0882918  60.7806805  43.7602961  69.3034033
  59.6600437  44.1877321  69.9673766  60.3476678  43.8105106  69.9546487
  61.1992595  50.5800838  71.4791708  60.3903917  50.2567512  71.4325018
  61.7067503  49.8734060  71.4119957  61.1542261  50.4282154  71.4622003
  60.3927011  39.9684860  72.7710550  61.2142706  40.1383173  72.5292245
  59.9296662  40.1232121  72.0476848  60.4458173  40.0166593  72.6282194
  35.4404222   0.6535411  62.0583109  34.6887122   0.2750950  61.8299154
  35.8890234   0.6853845  61.3101920  35.3953889   0.6021019  61.9140611
  40.8929182   1.0760781  57.4868656  40.5580550   1.7537703  57.0512878
  41.4056052   0.6866092  56.8985528  40.9194763   1.1185359  57.3355448
  40.4333473   3.0275050  63.4279768  40.8172853   3.5961948  62.8884543
  40.3692615   2.3024560  62.9485584  40.4806901   3.0050513  63.2773630
  36.8589718   5.5831393  65.7260738  37.5027173   6.0244557  66.1156896
  37.1845973   4.7784819  65.6390997  37.0021547   5.5296588  65.7706215
  37.5610298  -1.4056632  61.0980599  37.8826139  -0.8651425  60.4941908
  38.2082394  -1.9759861  61.2302889  37.7036353  -1.4097457  61.0287635
  37.6568699   1.3998190  60.0670982  37.9466998   1.0087171  59.3430209
  38.3872180   1.5814895  60.5076258  37.8075583   1.3692004  60.0253789
  35.5974615   3.3765572  63.1331132  35.3774910   3.0862927  63.9257799
  35.3769137   2.7180528  62.6049045  35.5322209   3.2365281  63.1720041
  37.7642570   4.7494962  61.9161825  38.4166628   4.2171405  62.1452851
  37.0668179   4.3963615  62.3029699  37.7573288   4.6184485  62.0073992
  42.2289067   0.0138161  60.6829883  41.9875743  -0.7193979  60.2756948
  42.4090400   0.5625018  60.0296216  42.2196691  -0.0139448  60.5260106
  39.7792095   0.6719123  61.8907267  40.5441986   0.4028767  61.5689931
  39.6770185   0.1869134  62.6077329  39.8773590   0.5608688  61.9487094
  39.0049828  -0.6936782  58.6401568  39.0742648  -1.5522244  58.7794568
  39.7838283  -0.4764901  58.3120592  39.1302678  -0.7883918  58.6118725
  43.3957316   1.7300919  62.8538061  43.0037107   1.4267634  62.1360927
  43.5510388   2.5670009  62.6643015  43.3610905   1.8084756  62.7194558
  44.1647621   1.1336412  66.2868096  43.9667310   1.6227226  65.5924307
  43.5435332   1.3377653  66.8652229  44.0435185   1.2352950  66.2691319
  42.9557907   2.0007605  58.8805731  42.2387217   1.8268467  58.4152968
  43.6064645   1.7660177  58.3481217  42.9459757   1.9403397  58.7334949
  38.2371069   3.2369363  65.3095879  37.8231467   2.5743494  64.9199721
  38.9218443   3.3847222  64.7891573  38.2769441   3.1610022  65.1752376
  41.6036363   2.3959449  66.0619496  41.2052646   2.5061719  65.2940316
  40.9887583   2.6041515  66.6446055  41.4535252   2.4433017  66.0350795
  58.8295981   7.5482350  61.5392947  58.7989985   8.4026987  61.7111217
  59.4277330   7.2477643  62.0979091  58.9133139   7.6298847  61.6467750
  52.0295666   6.6358001  66.2945878  51.1733561   6.7966500  66.3454994
  52.0763320   5.7650065  66.3150939  51.9094777   6.5308803  66.3051944
  46.4136806  16.1720719  62.0583109  45.6619705  15.7936258  61.8299154
  46.8622817  16.2039153  61.3101920  46.3686473  16.1206327  61.9140611
  51.8661766  16.5946089  57.4868656  51.5313134  17.2723010  57.0512878
  52.3788636  16.2051400  56.8985528  51.8927347  16.6370667  57.3355448
  51.4066057  18.5460358  63.4279768  51.7905436  19.1147256  62.8884543
  51.3425198  17.8209868  62.9485584  51.4539484  18.5235821  63.2773630
  54.8747487   8.6950045  68.9377529  55.4203447   9.3735132  68.9971499
  54.8164363   8.5537506  68.0779111  54.9463401   8.7742047  68.8189590
  47.9921562  16.1839112  64.3245882  48.0931925  15.3739465  64.6343009
  47.3963307  16.0896058  63.6945560  47.9194101  16.0504140  64.2772120
  56.6512556  10.1234653  59.8111257  56.5352082  10.8742339  60.2403395
  57.4468442   9.8658606  60.0607344  56.7517145  10.1969499  59.9115349
  47.8322301  21.1016701  65.7260738  48.4759757  21.5429865  66.1156896
  48.1578557  20.2970127  65.6390997  47.9754130  21.0481895  65.7706215
  41.1886606  12.2059398  63.9498215  40.9536791  11.3727050  63.8430484
  41.3272247  12.4864064  63.1359416  41.1742269  12.1242901  63.8140570
  43.4876694   4.3745129  66.8482523  42.8681725   3.7837776  66.6792538
  43.3860557   4.9656564  66.2146846  43.3814369   4.3749211  66.7287513
  48.5342881  14.1128676  61.0980599  48.8558722  14.6533883  60.4941908
  49.1814978  13.5425447  61.2302889  48.6768936  14.1087851  61.0287635
  50.5844589   6.1144670  61.1814986  51.2824754   6.2932798  61.6736449
  50.8996922   5.5915010  60.5585376  50.7339926   6.0638443  61.1616996
  43.2145827   7.9197410  69.0926092  43.0904523   8.5059856  69.7275911
  43.8664111   7.4257606  69.3938367  43.2919476   7.9336215  69.2312021
  50.7732525  12.5015116  61.1694778  51.2126160  11.8932216  61.6149550
  50.6237187  12.1222489  60.3980243  50.8153990  12.3553587  61.1213945
  48.2404168  11.0959127  68.3713603  48.8853170  10.6031570  68.0524552
  48.4805945  11.2383914  69.1979681  48.3714753  11.0436570  68.4463136
  50.7790259  13.9414033  68.0220496  51.0613502  13.1465439  67.8007252
  51.5076419  14.4194621  68.0425557  50.9279823  13.8948630  67.9923511
  48.7571453   1.4837067  65.2636261  48.4274783   1.9348211  64.5939960
  48.0816455   1.4053230  65.8109267  48.6081889   1.5388202  65.2459484
  54.3741861  10.8542297  58.1225547  54.2893156  11.7103263  58.2675116
  54.8626244  10.5786621  58.7907706  54.4330758  10.9399618  58.2427628
  55.3060294   7.4727091  59.6223282  54.7771766   7.6886724  60.2820588
  55.8285314   8.1663229  59.5424251  55.3048747   7.6070228  59.7078881
  60.7608347  13.0473395  64.9956327  59.9306050  13.2584039  65.1589743
  60.7117600  12.2210450  64.7198610  60.6315083  12.9563002  64.9793692
  47.1959902  11.3690308  58.4230750  46.6117117  11.8740339  58.8296614
  46.7929997  11.1432695  57.6827342  47.0499206  11.4098556  58.3735775
  42.7503931  17.0845069  65.2254422  42.2671509  17.8095559  65.2014005
  43.5627249  17.3821199  65.3364579  42.7994679  17.2347423  65.2381701
  48.8218085  15.8777250  67.8304236  48.3045027  15.5184665  67.2265544
  49.5192476  15.3539424  67.8410302  48.8483666  15.7474938  67.7434495
  52.4781677  16.3272064  73.7920409  52.5665023  16.1398204  74.6398619
  52.9071389  15.6809493  73.3925256  52.5543779  16.2035071  73.8592161
  50.0452137  15.6103224  72.7738071  49.4822971  15.1975833  73.2977732
  50.8073160  15.5356129  73.1931215  50.0746585  15.5380624  72.9131072
  51.6537117   7.6155960  56.8999671  51.8933120   7.8233944  56.0875014
  51.9752958   6.8113469  57.0088615  51.7374275   7.5270061  56.7960224
  45.6048128  17.6001245  65.3774701  46.3068707  17.0853234  65.4347458
  45.5245611  17.9275396  66.1821577  45.6971889  17.5715471  65.5047494
  45.3184472   1.9519675  57.4437322  45.1360045   2.1691555  56.6178314
  46.1810085   2.0658687  57.4995936  45.4189061   2.0009572  57.3291809
  44.9298904  13.7907597  64.8860309  45.7687803  14.0230530  64.9334071
  44.9610673  12.9211908  64.8167345  45.0580621  13.6964543  64.8824954
  45.5551607  14.2108472  69.1873615  46.0949831  14.0679603  69.8576987
  44.8721553  14.6105223  69.5557641  45.5343760  14.2488143  69.3408037
  54.9792491   9.8899473  64.3818639  55.7350006  10.3230987  64.4207548
  55.0854816   9.2404242  64.9553275  55.1062662   9.8576956  64.4716665
  58.0172663  13.7172750  65.1321042  57.5807894  13.7209492  65.8880014
  57.6835578  14.3978249  64.7000620  57.9035282  13.8185206  65.1801875
  52.5901736  15.7581083  76.4564193  53.3742153  15.8711930  76.8219935
  52.3898331  14.9322220  76.6522878  52.6767762  15.6527802  76.5398579
  40.9588752  10.4308763  69.3408037  40.6927167   9.6147879  69.4999027
  40.9727316  10.4761918  68.4703552  40.9213474  10.3165668  69.2361518
  44.8646499   5.2293847  55.9559795  44.1504676   4.9432027  56.3682227
  45.3490467   5.5690473  56.5966182  44.8305862   5.2375497  56.1115430
  52.7472129  17.6691185  70.1030648  51.9487375  17.4290685  70.3604517
  53.1958141  17.7205578  70.8497696  52.6946741  17.6413576  70.2515572
  61.1517009  10.4353670  64.0240680  61.8133443   9.8744338  63.9236588
  60.5108421   9.9405700  64.3493371  61.1545876  10.2790079  64.0573020
  52.0393816  13.7323801  56.3321603  52.4544965  13.4008825  55.6406099
  51.2085746  13.4992703  56.2041739  51.9781825  13.6495057  56.2112450
  41.3682165  11.2167542  66.6219781  41.1857738  11.1914428  65.7692073
  42.1031834  11.6866480  66.6608690  41.4496229  11.2828904  66.5017699
  57.4381839  11.4519052  63.7652668  57.6737429  11.5964251  62.9379519
  57.5871403  12.2161460  64.1584182  57.4947643  11.5858107  63.7016272
  59.2672296  10.2920718  61.6022272  59.5980513  10.8248358  60.9962367
  59.8405384  10.3459606  62.2584223  59.4005975  10.3790287  61.6100054
  54.4804185   8.1385621  62.2845852  54.5751040   8.8774915  62.7385478
  53.8563029   7.7103096  62.7180417  54.4013215   8.1846941  62.4154000
  52.7356659  11.3171833  72.9336133  53.3095521  10.6799078  73.0884697
  52.6571463  11.3175916  72.0645791  52.8089894  11.2236945  72.8282544
  41.3353076   8.0961043  66.7718847  41.9126578   7.9597494  67.4111093
  40.6367137   7.6396827  67.0264432  41.3174097   8.0083309  66.9041137
  54.7327207   9.9834361  55.5182804  54.6507369  10.0536548  56.3837791
  55.3706927  10.5464104  55.3266545  54.8147044  10.0773332  55.6172754
  48.0920378   9.7495099  64.9857331  47.8339622   8.9166833  64.9588630
  48.1468861   9.9752712  64.1449831  48.0620156   9.6592870  64.8577467
  47.0655090   7.3032861  65.4722225  46.4904681   7.4625029  66.1086186
  46.6890766   6.6668270  65.0090676  46.9257902   7.2330674  65.4976784
  50.7328379   5.7756210  70.3314604  50.3442811   5.3510428  69.6766795
  50.0683077   6.0238360  70.8391630  50.5775306   5.7494931  70.3102472
  36.8111909   6.9472936  63.4866666  36.8972161   6.5704804  64.2680196
  37.4387706   6.5733381  63.0086624  36.9168460   6.8358418  63.5312143
  51.8367317  10.0054815  58.5291411  52.6507956  10.2969708  58.4174182
  51.7726458   9.3514677  57.9549704  51.9470056   9.9520010  58.4280248
  47.7075225  13.4776332  63.6563723  48.3449172  13.2388080  64.2015516
  48.1330297  13.6813491  62.9216883  47.8651391  13.4727343  63.6280880
  42.3987867  15.7164669  67.5398027  42.4392013  15.9879520  66.7117806
  42.9582392  16.2406577  67.9555814  42.4871213  15.8340424  67.4789915
  48.3478040   8.6978622  57.9938612  48.7323193   8.4786329  58.7455157
  48.0989660   9.5241567  58.1239689  48.3680113   8.7876768  58.1239689
  59.0813228  12.4725260  69.0049281  58.7759045  13.2053317  69.3662596
  58.3619443  12.0663189  68.7242067  58.9300570  12.5206993  69.0162418
  50.0896697  13.9548755  65.3357509  50.1635705  13.7923927  66.1899359
  50.9066203  14.1438945  65.0917991  50.2213056  13.9585497  65.4255535
  43.8502454  14.3006618  62.3651953  43.0240571  14.5468355  62.2386231
  43.9114445  14.2218699  63.2314011  43.7376621  14.3251567  62.4740897
  46.0678477   0.3675559  63.3247393  45.2000903   0.4398158  63.3905002
  46.3553682   1.1697638  63.5135368  45.9818226   0.4969706  63.3622159
  48.6301283  16.9183498  60.0670982  48.9199581  16.5272479  59.3430209
  49.3604764  17.1000203  60.5076258  48.7808167  16.8877312  60.0253789
  49.2196028  11.7201244  71.1524113  48.7207722  12.4317012  71.2309001
  50.0296252  12.0401911  71.1142275  49.2652135  11.8728093  71.1580681
  46.5707198  18.8950880  63.1331132  46.3507494  18.6048235  63.9257799
  46.3501720  18.2365835  62.6049045  46.5054793  18.7550589  63.1720041
  45.4824146  10.9824197  65.3986834  45.1937394  10.3561668  65.9332561
  46.3507494  10.9244484  65.4651514  45.5684397  10.8811741  65.4877788
  56.2702043   6.1258980  65.7168816  55.9266809   5.4049316  66.0676065
  56.3695086   5.9172831  64.8747174  56.2344086   5.9883184  65.6440496
  48.7375154  20.2680270  61.9161825  49.3899212  19.7356713  62.1452851
  48.0400763  19.9148923  62.3029699  48.7305872  20.1369793  62.0073992
  45.6856419  12.6219448  61.3229199  46.4402387  13.0032487  61.5364661
  45.0927032  13.0730592  61.7775895  45.7093132  12.7448275  61.4212077
  56.7315072  12.5884684  61.2592804  57.2973105  13.2477894  61.1751347
  56.0842976  12.9334382  61.7309206  56.7193829  12.7366626  61.3165560
  47.0054646  13.7928009  66.6969314  46.4835399  13.9328301  67.3821179
  47.3928666  13.0338674  66.8871432  46.9858346  13.7013533  66.8270391
  43.9945830   3.8433818  60.7664269  43.7070625   3.4735088  60.0296216
  44.6816298   4.3128673  60.5047974  44.0534727   3.8580787  60.6179345
  53.2021650  15.5323469  60.6829883  52.9608326  14.7991329  60.2756948
  53.3822983  16.0810326  60.0296216  53.1929274  15.5045860  60.5260106
  48.4320971  10.8232028  62.0950805  48.2363754  11.4306763  61.5011108
  48.6555317  10.1299972  61.6142479  48.4355612  10.8109554  61.9366886
  46.8299501   7.7086766  62.2131674  47.5522153   7.8727924  61.7535480
  46.3507494   8.4296431  62.1071013  46.8663232   7.8384996  62.1297288
  54.7893009   4.0450565  67.5928359  53.9504109   4.0711844  67.3566622
  54.8597376   4.6921301  68.1733705  54.6761402   4.1446691  67.6437475
  44.4807118  10.1144839  71.3185814  44.9928215  10.3929092  70.6694573
  44.1943460  10.8534133  71.6848627  44.5141981  10.2647192  71.2775692
  58.6650533   9.2518552  64.8789600  58.5784507   9.4073978  65.7324379
  58.2101012   9.8956627  64.5049005  58.5853789   9.3694307  64.9496707
  41.5674024   4.6215031  61.6149550  41.6690161   5.4241192  61.9430525
  42.3629911   4.4202366  61.3172631  41.7001930   4.7100929  61.6184905
  52.5376349   6.5729299  63.5015160  52.2911063   6.4925050  64.3351949
  52.8661472   5.7882767  63.3077687  52.5497592   6.4455564  63.5962683
  56.4324397  13.2812658  67.2901941  56.2938757  13.9793704  67.7950683
  55.6524395  13.1261315  66.9338123  56.2967624  13.3612825  67.3128215
  48.4973376   9.3086018  72.9138143  48.6416752   9.8887226  72.2781253
  48.8449024   9.6862314  73.6187998  48.5700837   9.4506722  72.9237138
  50.6693293   8.5076186  70.6963275  49.9216607   8.7007200  70.2911553
  50.8234818   7.6821405  70.4587396  50.5815721   8.4141297  70.6008680
  47.5701131  17.4988789  69.7799170  47.7190695  16.9391705  69.1272574
  48.3501133  17.5780791  70.1631689  47.7075225  17.4274355  69.7396119
  57.9277770  12.6390912  58.0518440  57.5484579  11.8528050  58.0447730
  57.2644016  13.1877769  57.9090085  57.7736245  12.6035736  58.0299237
  50.0954432  17.6703432  71.0583661  50.0198103  17.0012243  71.6134449
  50.0244291  18.3721220  71.5724327  50.0735038  17.6748340  71.2160509
  50.7524678  16.1904431  61.8907267  51.5174570  15.9214075  61.5689931
  50.6502768  15.7054441  62.6077329  50.8506174  16.0793996  61.9487094
  48.7877448   4.3928841  68.4300502  47.9973523   4.2120301  68.7517838
  49.1838071   3.6155793  68.4130797  48.7294324   4.2516301  68.4753051
  53.2743339  13.2216615  53.8707216  54.0416324  13.2816740  53.4613068
  52.8274648  12.6497056  53.3863534  53.3216766  13.1453191  53.7384926
  54.1721134  12.0271271  66.1559948  53.4966136  11.7956503  66.6573335
  54.1813511  11.4192454  65.5302053  54.0739639  11.9030196  66.1376100
  51.3015278   6.8689100  72.9124001  51.2374420   7.7299056  72.7844138
  51.4412466   6.5521093  72.1119553  51.3130749   6.9489266  72.7752214
  56.1737869  14.8836403  58.3870126  56.2557706  15.6903389  58.0631577
  56.6587611  14.9032362  59.1110900  56.2575027  15.0057065  58.4457025
  49.9834372   9.5621239  67.0540204  49.5596621   9.7625738  66.3179222
  49.8079228   8.7150087  67.1664504  49.8945253   9.4670020  66.9613894
  49.4846066  21.0771752  69.5161661  49.9741996  20.3782541  69.3337326
  48.9130298  20.7795622  70.1037719  49.4730596  20.9297976  69.5762702
  45.2716817  10.0573290  62.4868177  45.4281436   9.9920093  63.3424169
  45.6117410  10.8321843  62.2746856  45.3450052  10.1622489  62.5822771
  51.8095962   9.4331174  61.3561540  52.3511507   8.9301555  61.8200160
  52.1242521   9.3796369  60.5451025  51.9360359   9.3510595  61.3045352
  49.9782412  14.8248526  58.6401568  50.0475232  13.9663064  58.7794568
  50.7570867  15.0420406  58.3120592  50.1035262  14.7301390  58.6118725
  52.9585231   4.3267479  71.4083840  53.1727201   3.6878393  70.8547194
  52.3419130   4.7713302  70.9791702  52.8990561   4.2977622  71.2634271
  54.3689899  17.2486227  62.8538061  53.9769691  16.9452942  62.1360927
  54.5242971  18.0855317  62.6643015  54.3343489  17.3270064  62.7194558
  41.8451079   7.2408241  62.8028944  42.2250044   7.6592786  62.1389211
  41.2706444   7.8221697  63.1097787  41.8162404   7.3886100  62.7505685
  54.5329574  13.8136216  62.7944092  54.1744229  13.9850859  63.5708124
  54.0468285  14.2749421  62.2372090  54.4088271  13.9075187  62.8269361
  49.3217939   9.4935381  55.3344326  49.6110464  10.2700264  55.6087900
  49.4089738   8.9824113  56.0358825  49.3772196   9.5327299  55.4786824
  55.6934313  14.7040112  73.7411293  56.3314034  14.2100307  73.4073749
  55.0508405  14.6317512  73.1563519  55.6928540  14.6199120  73.6053648
  57.4191313   6.5529258  68.3077208  56.9918922   6.4655606  67.5525308
  56.7817366   6.6607033  68.8932052  57.2620921   6.5561917  68.2822650
  55.7488570  15.3959920  70.3816649  56.5380948  15.0448985  70.5018731
  55.9232168  16.2096308  70.1193283  55.8908852  15.4645777  70.3604517
  45.4881880   8.8068646  67.4344438  44.6469887   8.7072520  67.6423332
  45.6971888   9.5764126  67.7858759  45.3946573   8.9060689  67.5171753
  42.9657447   6.4288183  65.2629189  42.5714145   6.5031194  64.4879299
  42.4097564   6.8146129  65.8137551  42.8260260   6.4969957  65.2296849
  49.2998545   6.7350045  66.6842036  48.9961683   6.1806033  67.2852443
  48.5977966   6.9142255  66.1970070  49.1514755   6.6794827  66.7011741
  48.3564642   4.0450565  61.2486738  48.6324377   3.3269477  60.8364305
  48.9563312   4.6435485  61.0407844  48.4857907   4.0270935  61.1567499
  47.3616896  13.9499766  71.3914134  47.2537251  13.9601828  72.2576192
  47.5712678  14.7754546  71.2019087  47.3767007  14.0740840  71.4918225
  45.3790688  11.2012408  68.8536071  44.7878621  11.8421906  68.8239086
  46.1411712  11.6250025  68.8267371  45.4038949  11.3588246  68.8451218
  55.1380204  16.6521720  66.2868096  54.9399893  17.1412534  65.5924307
  54.5167916  16.8562961  66.8652229  55.0167769  16.7538258  66.2691319
  49.1988183   8.4206616  60.6278340  49.9430228   8.8080893  60.8661290
  49.3448879   7.5764042  60.7918828  49.3298768   8.3537089  60.6872310
  52.1866059   3.9932090  66.5272259  51.7126013   3.4673852  67.0377570
  52.5584194   3.4461563  65.9587121  52.1715948   3.8348086  66.5187406
  58.4502789   9.0534465  67.9379040  58.2101012   8.2140881  67.9421466
  58.9294796   9.1334632  68.6619813  58.4854973   8.9415865  68.0453842
  54.1149558   4.8868644  59.5898013  53.5872577   4.9697388  58.9003722
  54.5745266   5.6286516  59.5862658  54.1051409   5.0089307  59.4872708
  60.4507976   5.8335923  65.8908299  60.2117746   5.7931757  65.0529083
  60.6141878   6.6807075  66.0174020  60.4398280   5.9528008  65.7861781
  45.9240875   4.8146045  68.5566223  45.2993945   4.8264437  67.9492176
  45.5886470   5.2906221  69.2057463  45.7826367   4.8864562  68.5622792
  46.1082623   3.1571164  54.6138908  45.7595428   3.8090889  55.0770458
  45.6279069   3.1428277  53.8862779  45.9852867   3.2514217  54.5749999
  42.6366550  12.8746505  69.9969987  42.1066475  12.1838944  70.0464962
  42.9091644  12.8656691  69.1682696  42.5991273  12.7713637  69.8817403
  53.6686641  13.4572208  58.7207670  54.3920840  13.9230321  58.5772243
  53.2287232  13.5245817  57.9705267  53.7102333  13.5356045  58.5892451
  52.8372796  10.3169750  69.9708359  52.2229789   9.7727800  70.2656994
  53.3540081   9.8033987  69.4914175  52.8228458  10.1606159  69.9432587
  52.0769093  11.3874020  67.7052658  51.6496701  10.7623739  67.2718093
  52.0694037  11.1048942  68.5311665  52.0128234  11.2526801  67.7632485
  37.9162393   9.5474270  67.3538336  37.8105842   9.5021114  66.4890420
  37.1662613   9.8928050  67.6352621  37.7897995   9.5915178  67.2675665
  46.6856125   0.9913593  67.3000936  46.7254497   1.4922799  68.0135643
  45.8605790   1.0823987  67.0306859  46.5695651   1.0795409  67.3651474
  48.1070488   7.5074103  69.5974835  47.2762418   7.6747921  69.3910083
  48.0522006   7.1310054  70.3823720  47.9759903   7.4763834  69.6823363
  46.4806532   5.7829694  60.1264953  46.6209493   6.2802159  60.8293594
  46.9789065   5.0815989  60.2679166  46.5747613   5.7531673  60.2516532
  46.5106755   6.6496805  57.4557530  47.1451834   7.2457230  57.3906991
  46.5932365   6.3500263  58.2703400  46.6163306   6.6937713  57.5660616
  48.0885737   2.5810781  57.4302971  48.4101579   2.1013863  56.7762234
  48.3512681   3.3910427  57.2393783  48.1751763   2.6300679  57.3058464
  51.3182710  13.6029655  70.9501788  50.8107801  14.1565502  71.3942418
  51.0209356  13.6637945  70.1320562  51.1987595  13.6935966  70.8950244
  43.0159742   8.8464646  60.7247076  43.5251972   9.4429154  61.1058381
  43.4894015   8.5790620  60.0423495  43.1603118   8.8950462  60.6801598
  53.9290491  17.5192913  58.8805731  53.2119800  17.3453775  58.4152968
  54.5797228  17.2845485  58.3481217  53.9192341  17.4588705  58.7334949
  56.5138462   6.3957501  62.6247036  55.8429652   6.9387204  62.4960102
  57.2078212   6.8652357  62.3828731  56.5167329   6.5455773  62.5702564
  50.5625195  18.5354213  67.8558794  50.3390850  17.7773043  68.2242821
  50.0735039  18.5652235  67.1339234  50.4568645  18.4276438  67.8035535
  45.3750274   5.4820905  63.5920256  44.6562263   5.8985037  63.8593119
  45.7462636   6.0475143  63.0411894  45.3242206   5.6270186  63.5503063
  54.6749855   6.1148754  69.4822252  54.6547782   5.9332049  70.3357031
  54.7229056   6.9860772  69.4581835  54.6784496   6.2165292  69.6045546
  52.6196185  12.7035946  75.4070728  52.5792040  12.0585622  74.8215884
  53.4319503  12.6472563  75.7196140  52.7339338  12.5994912  75.3667677
  49.2103652  18.7554671  65.3095879  48.7964051  18.0928802  64.9199721
  49.8951027  18.9032530  64.7891573  49.2502024  18.6795330  65.1752376
  52.5768947  17.9144757  66.0619496  52.1785230  18.0247027  65.2940316
  51.9620166  18.1226823  66.6446055  52.4267836  17.9618325  66.0350795
  51.1496849   4.5218905  58.9293635  50.5561688   4.8435901  58.3778202
  51.1872126   3.6760000  58.7214742  51.0671238   4.4443233  58.8176407
  54.0254665   4.4798409  62.3595386  53.7968358   4.5031110  61.5173744
  54.2852741   3.6555876  62.4790396  54.0300853   4.3614489  62.2520583
  47.0799428   3.0174955  63.6549581  47.5556794   3.3792035  63.0199762
  46.5788027   3.6731423  63.9349724  47.0764787   3.1669144  63.6026322
  60.3110789  12.4896723  59.4462586  60.6944395  13.2388080  59.6760683
  59.5154903  12.7362543  59.1874575  60.2504571  12.6366417  59.4420160
  49.1226081   5.1616155  57.0222965  49.5025046   5.1795784  56.2374080
  48.3818677   5.6070144  56.9013813  49.0694919   5.2297930  56.8886533
  38.8128642   6.8938131  67.0257361  38.6350403   6.4414740  67.7512276
  38.5247664   7.6964292  67.2095838  38.7441595   6.9460689  67.1600863
  54.4752223   8.1495848  66.2634751  54.9705889   7.4318843  66.2238771
  53.6651999   7.8466646  66.1489238  54.4296117   7.9993494  66.2408477
  49.9210835  11.9993661  58.4131755  49.1122158  11.6760335  58.3665065
  50.4285744  11.2926883  58.3460004  49.8760502  11.8474978  58.3962050
  40.5501112   9.4265854  64.1379120  39.6846632   9.4151545  64.0261891
  40.6499928   9.2396077  64.9850259  40.4375279   9.3971916  64.2468064
  56.5404042  10.8999536  68.9511880  56.9659114  10.3773957  68.3982305
  56.1760962  11.4980373  68.4300503  56.5490645  10.9109763  68.7920889
  46.1758122  19.1963753  67.7109225  46.4904681  20.0100142  67.7187007
  46.5851535  18.8113972  68.3791384  46.2826220  19.2592455  67.8113317
  53.1282642  14.6133800  65.2813037  53.5993820  15.3274062  65.4503022
  53.4642820  14.0132550  65.8172907  53.2477757  14.6305264  65.3845413
  53.7656588  14.4051734  72.0440730  53.2177534  13.7809618  71.7760795
  54.2269617  14.5946006  71.3284809  53.7523797  14.3410784  71.8991161
  43.5171142  13.1436862  67.3587833  44.1216000  13.1032696  66.7301654
  43.3098455  13.9908014  67.3891889  43.5760039  13.2624864  67.2703950
  53.3314914  15.4102807  68.5750071  54.1513288  15.2665773  68.8366366
  53.0508992  16.0349006  69.1166509  53.4111658  15.4813159  68.6938010
  38.7522424  12.1271479  67.2286757  38.6546703  11.3167751  67.5376813
  39.5351294  12.1063272  66.8433025  38.8538561  12.0038569  67.2173620
  69.8028565  23.0667658  61.5392947  69.7722569  23.9212295  61.7111217
  70.4009913  22.7662951  62.0979091  69.8865723  23.1484155  61.6467750
  63.0028250  22.1543309  66.2945878  62.1466145  22.3151808  66.3454994
  63.0495903  21.2835373  66.3150939  62.8827361  22.0494111  66.3051944
  57.3869389  31.6906027  62.0583109  56.6352289  31.3121566  61.8299154
  57.8355401  31.7224461  61.3101920  57.3419056  31.6391634  61.9140611
  62.8394349  32.1131397  57.4868656  62.5045718  32.7908318  57.0512878
  63.3521220  31.7236708  56.8985528  62.8659930  32.1555975  57.3355448
  62.3798640  34.0645665  63.4279768  62.7638020  34.6332564  62.8884543
  62.3157782  33.3395176  62.9485584  62.4272068  34.0421129  63.2773630
  65.8480071  24.2135353  68.9377529  66.3936031  24.8920440  68.9971499
  65.7896947  24.0722814  68.0779111  65.9195985  24.2927355  68.8189590
  58.9654145  31.7024419  64.3245882  59.0664508  30.8924773  64.6343009
  58.3695891  31.6081366  63.6945560  58.8926684  31.5689448  64.2772120
  67.6245139  25.6419960  59.8111257  67.5084665  26.3927647  60.2403395
  68.4201026  25.3843914  60.0607344  67.7249729  25.7154807  59.9115349
  58.8054885  36.6202009  65.7260738  59.4492341  37.0615173  66.1156896
  59.1311141  35.8155435  65.6390997  58.9486714  36.5667203  65.7706215
  52.1619190  27.7244706  63.9498215  51.9269374  26.8912358  63.8430484
  52.3004830  28.0049372  63.1359416  52.1474852  27.6428209  63.8140570
  54.4609277  19.8930437  66.8482523  53.8414309  19.3023084  66.6792538
  54.3593141  20.4841872  66.2146846  54.3546953  19.8934519  66.7287513
  59.5075465  29.6313983  61.0980599  59.8291306  30.1719191  60.4941908
  60.1547561  29.0610755  61.2302889  59.6501520  29.6273159  61.0287635
  61.5577173  21.6329978  61.1814986  62.2557338  21.8118106  61.6736449
  61.8729505  21.1100318  60.5585376  61.7072510  21.5823751  61.1616996
  54.1878410  23.4382718  69.0926092  54.0637107  24.0245164  69.7275911
  54.8396695  22.9442914  69.3938367  54.2652060  23.4521523  69.2312021
  61.7465108  28.0200423  61.1694778  62.1858744  27.4117524  61.6149550
  61.5969771  27.6407797  60.3980243  61.7886574  27.8738895  61.1213945
  59.2136751  26.6144435  68.3713603  59.8585754  26.1216878  68.0524552
  59.4538528  26.7569222  69.1979681  59.3447336  26.5621877  68.4463136
  61.7522843  29.4599341  68.0220496  62.0346085  28.6650747  67.8007252
  62.4809003  29.9379929  68.0425557  61.9012406  29.4133938  67.9923511
  59.7304036  17.0022375  65.2636261  59.4007366  17.4533519  64.5939960
  59.0549038  16.9238538  65.8109267  59.5814473  17.0573510  65.2459484
  65.3474445  26.3727605  58.1225547  65.2625740  27.2288571  58.2675116
  65.8358828  26.0971929  58.7907706  65.4063342  26.4584926  58.2427628
  66.9380444  12.9907898  63.5085871  66.6233885  13.6811377  63.9406294
  66.4207386  12.9352680  62.8071372  66.8144915  13.0842787  63.4682821
  66.2792878  22.9912399  59.6223282  65.7504349  23.2072032  60.2820588
  66.8017898  23.6848537  59.5424251  66.2781331  23.1255536  59.7078881
  71.7340931  28.5658703  64.9956327  70.9038634  28.7769347  65.1589743
  71.6850183  27.7395758  64.7198610  71.6047666  28.4748310  64.9793692
  58.1692486  26.8875616  58.4230750  57.5849701  27.3925647  58.8296614
  57.7662581  26.6618003  57.6827342  58.0231790  26.9283864  58.3735775
  53.7236514  32.6030377  65.2254422  53.2404093  33.3280866  65.2014005
  54.5359833  32.9006507  65.3364579  53.7727262  32.7532731  65.2381701
  59.7950668  31.3962558  67.8304236  59.2777610  31.0369973  67.2265544
  60.4925060  30.8724732  67.8410302  59.8216250  31.2660245  67.7434495
  63.4514260  31.8457372  73.7920409  63.5397606  31.6583512  74.6398619
  63.8803973  31.1994801  73.3925256  63.5276363  31.7220379  73.8592161
  61.0184720  31.1288532  72.7738071  60.4555555  30.7161141  73.2977732
  61.7805744  31.0541437  73.1931215  61.0479169  31.0565932  72.9131072
  62.6269700  23.1341268  56.8999671  62.8665704  23.3419252  56.0875014
  62.9485541  22.3298776  57.0088615  62.7106858  23.0455369  56.7960224
  57.9359990  15.0634663  60.7459209  58.6905959  15.4312981  60.5076259
  57.7587525  15.4374218  61.5138388  58.0214469  15.1732851  60.8244097
  56.5780712  33.1186553  65.3774701  57.2801291  32.6038542  65.4347458
  56.4978195  33.4460704  66.1821577  56.6704472  33.0900779  65.5047494
  57.6259618  23.3562140  74.5055117  57.7980122  23.2468034  75.3540398
  58.1628976  24.0016545  74.2686309  57.7304622  23.4354141  74.5960213
  56.2917055  17.4704982  57.4437322  56.1092628  17.6876863  56.6178314
  57.1542668  17.5843995  57.4995936  56.3921645  17.5194880  57.3291809
  55.9031487  29.3092905  64.8860309  56.7420386  29.5415837  64.9334071
  55.9343256  28.4397216  64.8167345  56.0313205  29.2149851  64.8824954
  56.5284190  29.7293780  69.1873615  57.0682415  29.5864911  69.8576987
  55.8454136  30.1290531  69.5557641  56.5076344  29.7673451  69.3408037
  61.9716774  14.4731393  60.4786345  62.7002935  14.2947348  60.0324502
  62.0611667  15.3149473  60.6893524  62.0923436  14.5715272  60.4439863
  65.9525075  25.4084781  64.3818639  66.7082590  25.8416295  64.4207548
  66.0587399  24.7589550  64.9553275  66.0795246  25.3762264  64.4716665
  68.9905246  29.2358058  65.1321042  68.5540478  29.2394800  65.8880014
  68.6568162  29.9163557  64.7000620  68.8767866  29.3370514  65.1801875
  63.5634320  31.2766391  76.4564193  64.3474736  31.3897238  76.8219935
  63.3630914  30.4507528  76.6522878  63.6500345  31.1713110  76.5398579
  51.9321335  25.9494071  69.3408037  51.6659750  25.1333187  69.4999027
  51.9459899  25.9947226  68.4703552  51.8946057  25.8350975  69.2361518
  55.8379082  20.7479155  55.9559795  55.1237259  20.4617335  56.3682227
  56.3223051  21.0875781  56.5966182  55.8038445  20.7560805  56.1115430
  56.6819942  19.4872449  71.9875044  55.9891738  19.0169429  72.2335776
  57.2980269  19.2610753  72.5616751  56.6704471  19.3839581  72.1084197
  63.7204713  33.1876493  70.1030648  62.9219959  32.9475993  70.3604517
  64.1690725  33.2390886  70.8497696  63.6679324  33.1598884  70.2515572
  72.1249592  25.9538978  64.0240680  72.7866026  25.3929646  63.9236588
  71.4841004  25.4591008  64.3493371  72.1278460  25.7975387  64.0573020
  63.0126400  29.2509109  56.3321603  63.4277549  28.9194133  55.6406099
  62.1818330  29.0178011  56.2041739  62.9514409  29.1680365  56.2112450
  52.3414749  26.7352850  66.6219781  52.1590322  26.7099736  65.7692073
  53.0764418  27.2051788  66.6608690  52.4228813  26.8014212  66.5017699
  68.4114423  26.9704360  63.7652668  68.6470012  27.1149559  62.9379519
  68.5603987  27.7346768  64.1584182  68.4680226  27.1043414  63.7016272
  55.4060500  23.4537853  73.1301889  56.1300473  23.4390884  73.6166784
  55.5076637  24.1633208  72.6323858  55.5278710  23.5562556  73.1280676
  70.2404880  25.8106026  61.6022272  70.5713097  26.3433666  60.9962367
  70.8137968  25.8644914  62.2584223  70.3738559  25.8975595  61.6100054
  65.4536769  23.6570929  62.2845852  65.5483623  24.3960223  62.7385478
  64.8295612  23.2288404  62.7180417  65.3745799  23.7032249  62.4154000
  63.7089243  26.8357141  72.9336133  64.2828104  26.1984386  73.0884697
  63.6304046  26.8361224  72.0645791  63.7822478  26.7422253  72.8282544
  52.3085659  23.6146351  66.7718847  52.8859162  23.4782802  67.4111093
  51.6099721  23.1582135  67.0264432  52.2906681  23.5268617  66.9041137
  65.7059790  25.5019669  55.5182804  65.6239953  25.5721856  56.3837791
  66.3439511  26.0649412  55.3266545  65.7879628  25.5958640  55.6172754
  59.0652961  25.2680406  64.9857331  58.8072206  24.4352141  64.9588630
  59.1201444  25.4938019  64.1449831  59.0352739  25.1778178  64.8577467
  64.1454012  17.3708857  65.0861423  63.4410338  16.8818043  65.2445342
  64.1938986  17.3831332  64.2149868  64.0484063  17.2998505  64.9800763
  58.0387673  22.8218169  65.4722225  57.4637265  22.9810337  66.1086186
  57.6623350  22.1853578  65.0090676  57.8990486  22.7515982  65.4976784
  61.7060962  21.2941518  70.3314604  61.3175395  20.8695736  69.6766795
  61.0415660  21.5423668  70.8391630  61.5507890  21.2680239  70.3102472
  71.3484231  21.0516523  63.1062434  71.0920796  20.2396464  62.9160317
  72.1913545  21.0594090  62.8792621  71.4350257  20.9328520  63.0447251
  47.7844492  22.4658244  63.4866666  47.8704744  22.0890112  64.2680196
  48.4120290  22.0918689  63.0086624  47.8901043  22.3543726  63.5312143
  62.8099900  25.5240123  58.5291411  63.6240539  25.8155016  58.4174182
  62.7459042  24.8699985  57.9549704  62.9202639  25.4705318  58.4280248
  58.6807809  28.9961640  63.6563723  59.3181756  28.7573388  64.2015516
  59.1062880  29.1998799  62.9216883  58.8383975  28.9912650  63.6280880
  53.3720451  31.2349977  67.5398027  53.4124596  31.5064828  66.7117806
  53.9314975  31.7591885  67.9555814  53.4603797  31.3525732  67.4789915
  59.3210624  24.2163930  57.9938612  59.7055776  23.9971637  58.7455157
  59.0722244  25.0426875  58.1239689  59.3412696  24.3062076  58.1239689
  70.0545811  27.9910568  69.0049281  69.7491628  28.7238625  69.3662596
  69.3352027  27.5848497  68.7242067  69.9033153  28.0392301  69.0162418
  61.0629281  29.4734063  65.3357509  61.1368289  29.3109235  66.1899359
  61.8798787  29.6624252  65.0917991  61.1945639  29.4770805  65.4255535
  54.8235037  29.8191926  62.3651953  53.9973155  30.0653663  62.2386231
  54.8847029  29.7404007  63.2314011  54.7109204  29.8436875  62.4740897
  57.0411061  15.8860867  63.3247393  56.1733486  15.9583466  63.3905002
  57.3286265  16.6882946  63.5135368  56.9550809  16.0155014  63.3622159
  59.6033866  32.4368806  60.0670982  59.8932165  32.0457787  59.3430209
  60.3337347  32.6185511  60.5076258  59.7540751  32.4062620  60.0253789
  60.1928611  27.2386552  71.1524113  59.6940305  27.9502320  71.2309001
  61.0028836  27.5587218  71.1142275  60.2384718  27.3913400  71.1580681
  57.5439782  34.4136188  63.1331132  57.3240077  34.1233543  63.9257799
  57.3234304  33.7551143  62.6049045  57.4787376  34.2735897  63.1720041
  56.4556729  26.5009505  65.3986834  56.1669978  25.8746976  65.9332561
  57.3240077  26.4429792  65.4651514  56.5416981  26.3997049  65.4877788
  67.2434627  21.6444288  65.7168816  66.8999393  20.9234623  66.0676065
  67.3427669  21.4358139  64.8747174  67.2076670  21.5068491  65.6440496
  59.7107738  35.7865578  61.9161825  60.3631796  35.2542021  62.1452851
  59.0133346  35.4334231  62.3029699  59.7038456  35.6555101  62.0073992
  56.6589002  28.1404756  61.3229199  57.4134970  28.5217795  61.5364661
  56.0659615  28.5915900  61.7775895  56.6825716  28.2633583  61.4212077
  67.7047656  28.1069992  61.2592804  68.2705689  28.7663202  61.1751347
  67.0575559  28.4519690  61.7309206  67.6926412  28.2551934  61.3165560
  57.9787229  29.3113317  66.6969314  57.4567983  29.4513609  67.3821179
  58.3661249  28.5523982  66.8871432  57.9590930  29.2198841  66.8270391
  54.9678413  19.3619126  60.7664269  54.6803209  18.9920396  60.0296216
  55.6548881  19.8313981  60.5047974  55.0267310  19.3766095  60.6179345
  64.1754234  31.0508776  60.6829883  63.9340910  30.3176637  60.2756948
  64.3555567  31.5995633  60.0296216  64.1661858  31.0231168  60.5260106
  59.4053555  26.3417336  62.0950805  59.2096337  26.9492071  61.5011108
  59.6287900  25.6485280  61.6142479  59.4088196  26.3294862  61.9366886
  57.8032085  23.2272074  62.2131674  58.5254737  23.3913232  61.7535480
  57.3240077  23.9481739  62.1071013  57.8395815  23.3570304  62.1297288
  65.7625592  19.5635873  67.5928359  64.9236693  19.5897152  67.3566622
  65.8329960  20.2106608  68.1733705  65.6493986  19.6631999  67.6437475
  55.4539701  25.6330147  71.3185814  55.9660798  25.9114400  70.6694573
  55.1676044  26.3719441  71.6848627  55.4874565  25.7832500  71.2775692
  64.2094871  16.4621250  62.3255975  64.9121223  16.2628998  61.8475933
  63.9439059  15.6897192  62.6324818  64.2741503  16.3184216  62.3001416
  69.6383116  24.7703860  64.8789600  69.5517091  24.9259286  65.7324379
  69.1833596  25.4141935  64.5049005  69.5586373  24.8879615  64.9496707
  52.5406608  20.1400338  61.6149550  52.6422744  20.9426500  61.9430525
  53.3362494  19.9387674  61.3172631  52.6734513  20.2286237  61.6184905
  58.9723427  17.7256535  71.3786855  58.7806624  17.7411670  72.2286279
  59.8222023  17.9220209  71.3553510  59.0699149  17.7570886  71.5010150
  53.3570340  20.2547517  69.3570672  53.2155832  19.4031457  69.4815180
  53.6410903  20.2976177  68.5332878  53.3778186  20.1347267  69.2538296
  63.5108932  22.0914607  63.5015160  63.2643646  22.0110358  64.3351949
  63.8394055  21.3068075  63.3077687  63.5230176  21.9640872  63.5962683
  67.4056981  28.7997966  67.2901941  67.2671340  29.4979012  67.7950683
  66.6256979  28.6446623  66.9338123  67.2700208  28.8798133  67.3128215
  59.4705959  24.8271325  72.9138143  59.6149335  25.4072534  72.2781253
  59.8181608  25.2047622  73.6187998  59.5433421  24.9692029  72.9237138
  61.6425877  24.0261494  70.6963275  60.8949191  24.2192508  70.2911553
  61.7967402  23.2006713  70.4587396  61.5548304  23.9326605  70.6008680
  58.5433714  33.0174097  69.7799170  58.6923278  32.4577013  69.1272574
  59.3233717  33.0966099  70.1631689  58.6807808  32.9459663  69.7396119
  68.9010354  28.1576220  58.0518440  68.5217163  27.3713358  58.0447730
  68.2376599  28.7063077  57.9090085  68.7468829  28.1221044  58.0299237
  61.0687015  33.1888740  71.0583661  60.9930686  32.5197551  71.6134449
  60.9976874  33.8906528  71.5724327  61.0467622  33.1933647  71.2160509
  61.8827654  17.9212045  71.5858678  62.3400268  18.6536019  71.7131470
  61.9583983  17.4978510  72.3445934  61.9618624  17.9669283  71.7159755
  54.1260645  18.1677864  72.6748122  53.5902835  17.5558222  72.9908889
  54.1878410  18.7426000  73.3281789  54.0556278  18.1624792  72.8183549
  61.7257262  31.7089739  61.8907267  62.4907153  31.4399383  61.5689931
  61.6235352  31.2239749  62.6077329  61.8238757  31.5979304  61.9487094
  59.7610032  19.9114148  68.4300502  58.9706107  19.7305609  68.7517838
  60.1570655  19.1341101  68.4130797  59.7026908  19.7701609  68.4753051
  64.2475923  28.7401923  53.8707216  65.0148908  28.8002048  53.4613068
  63.8007232  28.1682364  53.3863534  64.2949350  28.6638498  53.7384926
  65.1453718  27.5456579  66.1559948  64.4698720  27.3141811  66.6573335
  65.1546094  26.9377762  65.5302053  65.0472223  27.4215504  66.1376100
  62.2747862  22.3874408  72.9124001  62.2107003  23.2484364  72.7844138
  62.4145050  22.0706401  72.1119553  62.2863332  22.4674574  72.7752214
  67.1470453  30.4021711  58.3870126  67.2290290  31.2088697  58.0631577
  67.6320195  30.4217670  59.1110900  67.2307611  30.5242373  58.4457025
  60.9566956  25.0806547  67.0540204  60.5329205  25.2811046  66.3179222
  60.7811811  24.2335395  67.1664504  60.8677837  24.9855328  66.9613894
  60.4578649  36.5957060  69.5161661  60.9474580  35.8967849  69.3337326
  59.8862882  36.2980930  70.1037719  60.4463179  36.4483284  69.5762702
  56.2449401  25.5758598  62.4868177  56.4014020  25.5105401  63.3424169
  56.5849994  26.3507151  62.2746856  56.3182636  25.6807796  62.5822771
  62.7828546  24.9516482  61.3561540  63.3244091  24.4486863  61.8200160
  63.0975105  24.8981677  60.5451025  62.9092943  24.8695903  61.3045352
  60.9514995  30.3433833  58.6401568  61.0207816  29.4848372  58.7794568
  61.7303450  30.5605714  58.3120592  61.0767845  30.2486697  58.6118725
  63.9317815  19.8452786  71.4083840  64.1459784  19.2063701  70.8547194
  63.3151714  20.2898610  70.9791702  63.8723144  19.8162930  71.2634271
  65.3422483  32.7671535  62.8538061  64.9502275  32.4638250  62.1360927
  65.4975555  33.6040625  62.6643015  65.3076073  32.8455371  62.7194558
  52.8183662  22.7593549  62.8028944  53.1982627  23.1778094  62.1389211
  52.2439027  23.3407005  63.1097787  52.7894987  22.9071408  62.7505685
  65.5062158  29.3321524  62.7944092  65.1476812  29.5036166  63.5708124
  65.0200868  29.7934729  62.2372090  65.3820854  29.4260495  62.8269361
  63.3232544  12.9552722  66.3971183  62.4526101  12.9291443  66.3504493
  63.5772885  12.7829914  65.5797029  63.2326104  12.9262866  66.2691320
  60.2950523  25.0120689  55.3344326  60.5843048  25.7885572  55.6087900
  60.3822322  24.5009420  56.0358825  60.3504779  25.0512607  55.4786824
  60.3481684  14.9658951  67.8544654  59.8320173  14.2739142  67.9796233
  59.7875613  15.6329728  67.8007252  60.1888197  14.9622208  67.8650720
  62.4173918  15.5051911  69.6837506  62.0305671  15.5300942  70.4651036
  61.9306855  14.9393589  69.2312023  62.2886426  15.4247661  69.7325410
  66.6666897  30.2225420  73.7411293  67.3046617  29.7285615  73.4073749
  66.0240988  30.1502820  73.1563519  66.6661123  30.1384428  73.6053648
  68.3923897  22.0714566  68.3077208  67.9651505  21.9840914  67.5525308
  67.7549950  22.1792341  68.8932052  68.2353504  22.0747225  68.2822650
  66.7221154  30.9145228  70.3816649  67.5113532  30.5634293  70.5018731
  66.8964751  31.7281616  70.1193283  66.8641435  30.9831085  70.3604517
  56.4614464  24.3253954  67.4344438  55.6202471  24.2257828  67.6423332
  56.6704472  25.0949434  67.7858759  56.3679157  24.4245997  67.5171753
  53.9390031  21.9473491  65.2629189  53.5446729  22.0216502  64.4879299
  53.3830148  22.3331437  65.8137551  53.7992843  22.0155265  65.2296849
  65.5754978  14.9254785  64.9433068  65.7804571  14.8577092  65.7890065
  65.2481402  15.7313606  64.8754245  65.5570226  15.0340725  65.0592723
  60.2731129  22.2535353  66.6842036  59.9694266  21.6991341  67.2852443
  59.5710550  22.4327563  66.1970070  60.1247339  22.1980135  66.7011741
  59.3297226  19.5635873  61.2486738  59.6056960  18.8454785  60.8364305
  59.9295895  20.1620792  61.0407844  59.4590491  19.5456243  61.1567499
  58.3349480  29.4685073  71.3914134  58.2269835  29.4787136  72.2576192
  58.5445261  30.2939854  71.2019087  58.3499591  29.5926148  71.4918225
  68.8288665  15.4786549  64.4235833  68.2162979  15.9656951  64.8089565
  68.9252840  14.8030040  64.9673484  68.7526563  15.4504858  64.5614691
  62.8307746  17.2349390  59.5233333  63.2851493  17.4059950  60.2481177
  63.3047792  16.6217501  59.1231108  62.9676067  17.1700275  59.5707094
  56.7483895  17.8799714  69.5204089  57.2085376  17.9538643  70.2579212
  56.7940001  18.6780968  69.1703910  56.8234450  18.0093861  69.5776845
  58.3967244  18.5466409  74.0876116  58.0052809  17.8999756  74.5231894
  58.5653107  19.1377844  74.7070371  58.3638155  18.5380676  74.2438822
  66.1112788  32.1707027  66.2868096  65.9132477  32.6597842  65.5924307
  65.4900499  32.3748269  66.8652229  65.9900352  32.2723566  66.2691319
  60.1720766  23.9391924  60.6278340  60.9162811  24.3266201  60.8661290
  60.3181463  23.0949350  60.7918828  60.3031352  23.8722397  60.6872310
  62.0900342  15.7342183  65.6610201  61.2436387  15.9064991  65.5351551
  62.0871474  14.9291527  65.9976030  61.9647492  15.6403212  65.6921328
  63.1598642  19.5117398  66.5272259  62.6858597  18.9859160  67.0377570
  63.5316778  18.9646870  65.9587121  63.1448531  19.3533394  66.5187406
  53.5371672  21.5088904  71.8955805  54.3997285  21.4084614  71.8093135
  53.2063455  20.9283614  71.3341377  53.6156869  21.4080531  71.8001211
  69.4235373  24.5719773  67.9379040  69.1833596  23.7326188  67.9421466
  69.9027380  24.6519940  68.6619813  69.4587556  24.4601173  68.0453842
  65.0882142  20.4053952  59.5898013  64.5605161  20.4882696  58.9003722
  65.5477850  21.1471824  59.5862658  65.0783992  20.5274615  59.4872708
  71.4240560  21.3521230  65.8908299  71.1850330  21.3117065  65.0529083
  71.5874461  22.1992383  66.0174020  71.4130863  21.4713315  65.7861781
  56.8973458  20.3331353  68.5566223  56.2726529  20.3449745  67.9492176
  56.5619053  20.8091528  69.2057463  56.7558950  20.4049870  68.5622792
  57.0815207  18.6756472  54.6138908  56.7328011  19.3276197  55.0770458
  56.6011653  18.6613585  53.8862779  56.9585451  18.7699525  54.5749999
  53.6099134  28.3931813  69.9969987  53.0799058  27.7024252  70.0464962
  53.8824227  28.3841999  69.1682696  53.5723856  28.2898945  69.8817403
  64.6419224  28.9757516  58.7207670  65.3653423  29.4415629  58.5772243
  64.2019815  29.0431125  57.9705267  64.6834917  29.0541352  58.5892451
  63.8105379  25.8355058  69.9708359  63.1962373  25.2913108  70.2656994
  64.3272664  25.3219294  69.4914175  63.7961042  25.6791467  69.9432587
  63.0501677  26.9059328  67.7052658  62.6229285  26.2809047  67.2718093
  63.0426621  26.6234250  68.5311665  62.9860818  26.7712109  67.7632485
  56.1664204  21.9424501  70.7741092  56.3257690  21.1867825  71.1792814
  55.9857097  22.4915441  71.4281829  56.1629563  21.9118315  70.9303798
  61.3787386  17.7828083  67.9195192  61.4029874  17.2488195  67.2307972
  61.6298860  17.2745391  68.5820782  61.4197305  17.6288987  67.9159836
  48.8894976  25.0659578  67.3538336  48.7838425  25.0206422  66.4890420
  48.1395196  25.4113358  67.6352621  48.7630579  25.1100486  67.2675665
  57.6588709  16.5098901  67.3000936  57.6987080  17.0108107  68.0135643
  56.8338373  16.6009295  67.0306859  57.5428235  16.5980717  67.3651474
  59.8418321  26.0759641  75.4021231  58.9913952  26.2131355  75.5378875
  60.0046449  25.3423419  75.8468932  59.7402185  25.9873742  75.4876830
  59.0803072  23.0259411  69.5974835  58.2495002  23.1933229  69.3910083
  59.0254589  22.6495361  70.3823720  58.9492487  22.9949142  69.6823363
  57.4539116  21.3015002  60.1264953  57.5942077  21.7987466  60.8293594
  57.9521649  20.6001297  60.2679166  57.5480197  21.2716981  60.2516532
  57.4839338  22.1682113  57.4557530  58.1184418  22.7642538  57.3906991
  57.5664949  21.8685571  58.2703400  57.5895889  22.2123021  57.5660616
  59.0618321  18.0996089  57.4302971  59.3834162  17.6199171  56.7762234
  59.3245265  18.9095735  57.2393783  59.1484346  18.1485987  57.3058464
  62.2915294  29.1214963  70.9501788  61.7840385  29.6750810  71.3942418
  61.9941940  29.1823253  70.1320562  62.1720179  29.2121274  70.8950244
  64.4577476  17.4868283  69.7926451  64.8832548  17.0340809  69.1809977
  63.8434469  16.9328353  70.0691238  64.4306121  17.3382259  69.7431476
  53.9892326  24.3649954  60.7247076  54.4984555  24.9614462  61.1058381
  54.4626598  24.0975928  60.0423495  54.1335702  24.4135769  60.6801598
  64.9023074  33.0378221  58.8805731  64.1852384  32.8639083  58.4152968
  65.5529812  32.8030793  58.3481217  64.8924925  32.9774013  58.7334949
  62.8971699  13.9583382  63.2017028  62.2540017  13.8081029  63.7702166
  62.5571106  13.7125728  62.4366132  62.7516776  13.8995505  63.1720043
  67.4871045  21.9142809  62.6247036  66.8162235  22.4572511  62.4960102
  68.1810796  22.3837665  62.3828731  67.4899913  22.0641080  62.5702564
  61.5357779  34.0539521  67.8558794  61.3123433  33.2958350  68.2242821
  61.0467622  34.0837542  67.1339234  61.4301228  33.9461746  67.8035535
  67.6499173  18.3698693  65.5337409  68.0026783  17.9428416  66.2083208
  66.7913974  18.2849536  65.6638486  67.5748617  18.2943434  65.6532420
  56.3482858  21.0006213  63.5920256  55.6294847  21.4170345  63.8593119
  56.7195220  21.5660451  63.0411894  56.2974790  21.1455494  63.5503063
  65.6482439  21.6334061  69.4822252  65.6280366  21.4517357  70.3357031
  65.6961639  22.5046080  69.4581835  65.6517080  21.7350600  69.6045546
  63.5928768  28.2221253  75.4070728  63.5524623  27.5770930  74.8215884
  64.4052087  28.1657871  75.7196140  63.7071922  28.1180220  75.3667677
  60.1836236  34.2739979  65.3095879  59.7696635  33.6114110  64.9199721
  60.8683610  34.4217838  64.7891573  60.2234608  34.1980638  65.1752376
  63.5501530  33.4330065  66.0619496  63.1517813  33.5432335  65.2940316
  62.9352750  33.6412131  66.6446055  63.4000419  33.4803633  66.0350795
  62.1229432  20.0404212  58.9293635  61.5294271  20.3621209  58.3778202
  62.1604710  19.1945308  58.7214742  62.0403821  19.9628541  58.8176407
  64.9987249  19.9983717  62.3595386  64.7700942  20.0216418  61.5173744
  65.2585325  19.1741184  62.4790396  65.0033437  19.8799797  62.2520583
  59.2806477  21.8518190  71.9620486  58.7685380  21.2439373  72.3205517
  59.1085973  22.5674783  72.4294462  59.1796114  21.8681489  72.0836710
  54.1272192  20.2955765  74.6122848  53.9574782  20.9557140  74.0671054
  53.6838142  20.5062327  75.3335337  54.0371525  20.4241747  74.6384477
  58.0532011  18.5360263  63.6549581  58.5289378  18.8977343  63.0199762
  57.5520611  19.1916731  63.9349724  58.0497370  18.6854452  63.6026322
  71.2843373  28.0082031  59.4462586  71.6676979  28.7573387  59.6760683
  70.4887486  28.2547851  59.1874575  71.2237155  28.1551725  59.4420160
  51.0274256  23.2002631  69.8711337  50.4800976  22.5303276  69.9892206
  51.8166635  22.8332479  69.9354805  51.0626440  23.0467617  69.8980038
  60.8758665  22.8610088  75.3674749  61.6269992  23.1761765  75.6814303
  61.0681241  22.6589259  74.5408670  61.0150079  22.8777470  75.2918144
  60.0958664  20.6801463  57.0222965  60.4757629  20.6981092  56.2374080
  59.3551260  21.1255452  56.9013813  60.0427502  20.7483238  56.8886533
  67.7243955  18.9883654  62.6098544  67.7238181  18.8332311  63.4682820
  67.5200135  19.8346641  62.5539930  67.6943733  19.0904275  62.7286483
  49.7861226  22.4123439  67.0257361  49.6082987  21.9600048  67.7512276
  49.4980248  23.2149600  67.2095838  49.7174179  22.4645996  67.1600863
  65.4484807  23.6681156  66.2634751  65.9438472  22.9504151  66.2238771
  64.6384583  23.3651954  66.1489238  65.4028700  23.5178802  66.2408477
  60.8943418  27.5178969  58.4131755  60.0854741  27.1945643  58.3665065
  61.4018327  26.8112191  58.3460004  60.8493085  27.3660286  58.3962050
  51.5233696  24.9451162  64.1379120  50.6579215  24.9336853  64.0261891
  51.6232512  24.7581385  64.9850259  51.4107863  24.9157224  64.2468064
  67.5136626  26.4184844  68.9511880  67.9391697  25.8959265  68.3982305
  67.1493546  27.0165681  68.4300503  67.5223228  26.4295071  68.7920889
  57.1490706  34.7149061  67.7109225  57.4637265  35.5285449  67.7187007
  57.5584119  34.3299280  68.3791384  57.2558804  34.7777763  67.8113317
  64.1015225  30.1319108  65.2813037  64.5726403  30.8459370  65.4503022
  64.4375404  29.5317858  65.8172907  64.2210340  30.1490572  65.3845413
  64.7389172  29.9237042  72.0440730  64.1910118  29.2994926  71.7760795
  65.2002200  30.1131314  71.3284809  64.7256381  29.8596092  71.8991161
  60.0877835  16.9062991  59.7050597  60.9093529  17.0761304  59.4632292
  59.6247486  17.0610252  58.9816894  60.1408997  16.9544724  59.5622241
  58.6773167  14.9005753  70.4849026  59.2217580  14.5596880  71.0753367
  58.7310103  15.7591215  70.6270310  58.7662286  14.9761013  70.5930899
  54.4903726  28.6622169  67.3587833  55.0948583  28.6218004  66.7301654
  54.2831038  29.5093321  67.3891889  54.5492623  28.7810172  67.2703950
  64.3047498  30.9288115  68.5750071  65.1245872  30.7851081  68.8366366
  64.0241576  31.5534314  69.1166509  64.3844241  30.9998467  68.6938010
  49.7255008  27.6456787  67.2286757  49.6279286  26.8353058  67.5376813
  50.5083878  27.6248580  66.8433025  49.8271145  27.5223877  67.2173620
  73.9760833  37.6728617  66.2945878  73.1198729  37.8337116  66.3454994
  74.0228487  36.8020681  66.3150939  73.8559945  37.5679419  66.3051944
  68.3601973  47.2091335  62.0583109  67.6084872  46.8306874  61.8299154
  68.8087985  47.2409769  61.3101920  68.3151640  47.1576942  61.9140611
  73.8126933  47.6316705  57.4868656  73.4778301  48.3093626  57.0512878
  74.3253803  47.2422016  56.8985528  73.8392514  47.6741283  57.3355448
  73.3531224  49.5830973  63.4279768  73.7370603  50.1517872  62.8884543
  73.2890365  48.8580484  62.9485584  73.4004651  49.5606437  63.2773630
  76.8212654  39.7320661  68.9377529  77.3668614  40.4105748  68.9971499
  76.7629530  39.5908122  68.0779111  76.8928568  39.8112663  68.8189590
  69.9386729  47.2209727  64.3245882  70.0397092  46.4110081  64.6343009
  69.3428474  47.1266674  63.6945560  69.8659268  47.0874755  64.2772120
  69.7787469  52.1387317  65.7260738  70.4224924  52.5800481  66.1156896
  70.1043724  51.3340743  65.6390997  69.9219297  52.0852511  65.7706215
  63.1351773  43.2430014  63.9498215  62.9001958  42.4097666  63.8430484
  63.2737414  43.5234680  63.1359416  63.1207436  43.1613517  63.8140570
  65.4341861  35.4115745  66.8482523  64.8146892  34.8208392  66.6792538
  65.3325724  36.0027180  66.2146846  65.3279536  35.4119827  66.7287513
  70.4808048  45.1499291  61.0980599  70.8023889  45.6904499  60.4941908
  71.1280145  44.5796063  61.2302889  70.6234104  45.1458467  61.0287635
  72.5309756  37.1515286  61.1814986  73.2289921  37.3303414  61.6736449
  72.8462089  36.6285626  60.5585376  72.6805094  37.1009058  61.1616996
  65.1610994  38.9568026  69.0926092  65.0369691  39.5430472  69.7275911
  65.8129278  38.4628222  69.3938367  65.2384643  38.9706831  69.2312021
  72.7197692  43.5385731  61.1694778  73.1591327  42.9302832  61.6149550
  72.5702355  43.1593105  60.3980243  72.7619157  43.3924202  61.1213945
  70.1869335  42.1329743  68.3713603  70.8318337  41.6402186  68.0524552
  70.4271112  42.2754530  69.1979681  70.3179920  42.0807185  68.4463136
  72.7255426  44.9784649  68.0220496  73.0078669  44.1836055  67.8007252
  73.4541587  45.4565237  68.0425557  72.8744990  44.9319246  67.9923511
  70.7036620  32.5207683  65.2636261  70.3739950  32.9718827  64.5939960
  70.0281622  32.4423846  65.8109267  70.5547056  32.5758818  65.2459484
  76.3207028  41.8912913  58.1225547  76.2358323  42.7473879  58.2675116
  76.8091412  41.6157237  58.7907706  76.3795926  41.9770234  58.2427628
  77.9113028  28.5093206  63.5085871  77.5966469  29.1996685  63.9406294
  77.3939969  28.4537988  62.8071372  77.7877498  28.6028094  63.4682821
  77.2525462  38.5097707  59.6223282  76.7236933  38.7257340  60.2820588
  77.7750481  39.2033845  59.5424251  77.2513915  38.6440844  59.7078881
  69.1425069  42.4060924  58.4230750  68.5582285  42.9110955  58.8296614
  68.7395165  42.1803311  57.6827342  68.9964373  42.4469172  58.3735775
  64.6969098  48.1215685  65.2254422  64.2136676  48.8466174  65.2014005
  65.5092416  48.4191815  65.3364579  64.7459846  48.2718038  65.2381701
  70.7683252  46.9147865  67.8304236  70.2510194  46.5555280  67.2265544
  71.4657643  46.3910040  67.8410302  70.7948833  46.7845553  67.7434495
  73.6002284  38.6526576  56.8999671  73.8398287  38.8604559  56.0875014
  73.9218125  37.8484084  57.0088615  73.6839442  38.5640677  56.7960224
  68.9092574  30.5819971  60.7459209  69.6638542  30.9498288  60.5076259
  68.7320109  30.9559526  61.5138388  68.9947052  30.6918159  60.8244097
  67.5513295  48.6371861  65.3774701  68.2533875  48.1223850  65.4347458
  67.4710778  48.9646012  66.1821577  67.6437056  48.6086087  65.5047494
  68.5992202  38.8747448  74.5055117  68.7712706  38.7653342  75.3540398
  69.1361559  39.5201853  74.2686309  68.7037206  38.9539449  74.5960213
  67.2649639  32.9890290  57.4437322  67.0825212  33.2062171  56.6178314
  68.1275252  33.1029303  57.4995936  67.3654228  33.0380188  57.3291809
  66.8764071  44.8278213  64.8860309  67.7152970  45.0601145  64.9334071
  66.9075840  43.9582524  64.8167345  67.0045788  44.7335159  64.8824954
  67.5016774  45.2479088  69.1873615  68.0414999  45.1050219  69.8576987
  66.8186720  45.6475839  69.5557641  67.4808928  45.2858759  69.3408037
  72.9449358  29.9916701  60.4786345  73.6735518  29.8132656  60.0324502
  73.0344251  30.8334781  60.6893524  73.0656020  30.0900579  60.4439863
  76.9257659  40.9270088  64.3818639  77.6815174  41.3601603  64.4207548
  77.0319983  40.2774858  64.9553275  77.0527829  40.8947572  64.4716665
  62.9053919  41.4679379  69.3408037  62.6392334  40.6518495  69.4999027
  62.9192483  41.5132534  68.4703552  62.8678641  41.3536283  69.2361518
  66.8111666  36.2664463  55.9559795  66.0969843  35.9802643  56.3682227
  67.2955634  36.6061089  56.5966182  66.7771029  36.2746113  56.1115430
  67.6552525  35.0057757  71.9875044  66.9624322  34.5354737  72.2335776
  68.2712852  34.7796061  72.5616751  67.6437055  34.9024889  72.1084197
  73.9858984  44.7694417  56.3321603  74.4010132  44.4379441  55.6406099
  73.1550913  44.5363319  56.2041739  73.9246992  44.6865673  56.2112450
  63.3147332  42.2538158  66.6219781  63.1322906  42.2285044  65.7692073
  64.0497001  42.7237096  66.6608690  63.3961396  42.3199520  66.5017699
  66.3793084  38.9723161  73.1301889  67.1033056  38.9576192  73.6166784
  66.4809221  39.6818516  72.6323858  66.5011293  39.0747864  73.1280676
  76.4269352  39.1756237  62.2845852  76.5216207  39.9145531  62.7385478
  75.8028196  38.7473712  62.7180417  76.3478383  39.2217557  62.4154000
  63.2818243  39.1331659  66.7718847  63.8591745  38.9968109  67.4111093
  62.5832304  38.6767443  67.0264432  63.2639264  39.0453925  66.9041137
  76.6792374  41.0204976  55.5182804  76.5972536  41.0907164  56.3837791
  77.3172094  41.5834720  55.3266545  76.7612211  41.1143948  55.6172754
  70.0385545  40.7865714  64.9857331  69.7804789  39.9537449  64.9588630
  70.0934028  41.0123327  64.1449831  70.0085323  40.6963486  64.8577467
  75.1186595  32.8894165  65.0861423  74.4142922  32.4003351  65.2445342
  75.1671569  32.9016639  64.2149868  75.0216647  32.8183813  64.9800763
  69.0120257  38.3403477  65.4722225  68.4369848  38.4995645  66.1086186
  68.6355933  37.7038886  65.0090676  68.8723069  38.2701290  65.4976784
  72.6793546  36.8126826  70.3314604  72.2907978  36.3881044  69.6766795
  72.0148244  37.0608976  70.8391630  72.5240473  36.7865547  70.3102472
  58.7577076  37.9843552  63.4866666  58.8437328  37.6075420  64.2680196
  59.3852873  37.6103997  63.0086624  58.8633627  37.8729034  63.5312143
  73.7832484  41.0425431  58.5291411  74.5973123  41.3340324  58.4174182
  73.7191625  40.3885293  57.9549704  73.8935223  40.9890625  58.4280248
  69.6540392  44.5146948  63.6563723  70.2914339  44.2758696  64.2015516
  70.0795464  44.7184107  62.9216883  69.8116558  44.5097958  63.6280880
  64.3453035  46.7535285  67.5398027  64.3857180  47.0250136  66.7117806
  64.9047559  47.2777193  67.9555814  64.4336381  46.8711040  67.4789915
  70.2943207  39.7349238  57.9938612  70.6788360  39.5156945  58.7455157
  70.0454828  40.5612183  58.1239689  70.3145280  39.8247384  58.1239689
  72.0361864  44.9919371  65.3357509  72.1100872  44.8294543  66.1899359
  72.8531371  45.1809560  65.0917991  72.1678223  44.9956113  65.4255535
  65.7967621  45.3377234  62.3651953  64.9705739  45.5838971  62.2386231
  65.8579612  45.2589314  63.2314011  65.6841788  45.3622183  62.4740897
  68.0143645  31.4046175  63.3247393  67.1466070  31.4768774  63.3905002
  68.3018849  32.2068254  63.5135368  67.9283393  31.5340322  63.3622159
  70.5766450  47.9554114  60.0670982  70.8664748  47.5643095  59.3430209
  71.3069931  48.1370819  60.5076258  70.7273334  47.9247928  60.0253789
  71.1661195  42.7571860  71.1524113  70.6672889  43.4687627  71.2309001
  71.9761419  43.0772526  71.1142275  71.2117302  42.9098708  71.1580681
  68.5172365  49.9321496  63.1331132  68.2972661  49.6418851  63.9257799
  68.2966888  49.2736451  62.6049045  68.4519960  49.7921205  63.1720041
  67.4289313  42.0194813  65.3986834  67.1402561  41.3932284  65.9332561
  68.2972661  41.9615100  65.4651514  67.5149565  41.9182357  65.4877788
  78.2167210  37.1629596  65.7168816  77.8731976  36.4419931  66.0676065
  78.3160253  36.9543447  64.8747174  78.1809253  37.0253799  65.6440496
  70.6840321  51.3050886  61.9161825  71.3364379  50.7727329  62.1452851
  69.9865930  50.9519539  62.3029699  70.6771039  51.1740409  62.0073992
  67.6321586  43.6590064  61.3229199  68.3867554  44.0403103  61.5364661
  67.0392199  44.1101207  61.7775895  67.6558300  43.7818891  61.4212077
  68.9519813  44.8298625  66.6969314  68.4300566  44.9698917  67.3821179
  69.3393833  44.0709289  66.8871432  68.9323514  44.7384149  66.8270391
  65.9410997  34.8804434  60.7664269  65.6535792  34.5105704  60.0296216
  66.6281465  35.3499289  60.5047974  65.9999894  34.8951403  60.6179345
  75.1486818  46.5694084  60.6829883  74.9073494  45.8361945  60.2756948
  75.3288151  47.1180941  60.0296216  75.1394442  46.5416476  60.5260106
  70.3786138  41.8602644  62.0950805  70.1828921  42.4677379  61.5011108
  70.6020484  41.1670588  61.6142479  70.3820779  41.8480170  61.9366886
  68.7764668  38.7457382  62.2131674  69.4987320  38.9098540  61.7535480
  68.2972661  39.4667047  62.1071013  68.8128399  38.8755612  62.1297288
  76.7358176  35.0821181  67.5928359  75.8969276  35.1082460  67.3566622
  76.8062543  35.7291916  68.1733705  76.6226569  35.1817307  67.6437475
  66.4272285  41.1515455  71.3185814  66.9393382  41.4299708  70.6694573
  66.1408628  41.8904749  71.6848627  66.4607148  41.3017808  71.2775692
  75.1827454  31.9806558  62.3255975  75.8853807  31.7814306  61.8475933
  74.9171643  31.2082500  62.6324818  75.2474086  31.8369524  62.3001416
  63.5139191  35.6585646  61.6149550  63.6155328  36.4611808  61.9430525
  64.3095078  35.4572982  61.3172631  63.6467097  35.7471545  61.6184905
  69.9456010  33.2441843  71.3786855  69.7539207  33.2596978  72.2286279
  70.7954606  33.4405517  71.3553510  70.0431732  33.2756194  71.5010150
  64.3302923  35.7732825  69.3570672  64.1888415  34.9216765  69.4815180
  64.6143487  35.8161485  68.5332878  64.3510769  35.6532575  69.2538296
  74.4841516  37.6099915  63.5015160  74.2376230  37.5295666  64.3351949
  74.8126639  36.8253383  63.3077687  74.4962759  37.4826180  63.5962683
  78.3789565  44.3183274  67.2901941  78.2403924  45.0164320  67.7950683
  77.5989562  44.1631931  66.9338123  78.2432791  44.3983441  67.3128215
  70.4438543  40.3456633  72.9138143  70.5881919  40.9257842  72.2781253
  70.7914192  40.7232930  73.6187998  70.5166004  40.4877337  72.9237138
  72.6158460  39.5446802  70.6963275  71.8681774  39.7377816  70.2911553
  72.7699986  38.7192021  70.4587396  72.5280888  39.4511913  70.6008680
  72.8560237  33.4397352  71.5858678  73.3132852  34.1721327  71.7131470
  72.9316566  33.0163818  72.3445934  72.9351207  33.4854591  71.7159755
  65.0993229  33.6863172  72.6748122  64.5635418  33.0743530  72.9908889
  65.1610993  34.2611308  73.3281789  65.0288861  33.6810100  72.8183549
  72.6989846  47.2275047  61.8907267  73.4639737  46.9584691  61.5689931
  72.5967936  46.7425057  62.6077329  72.7971341  47.1164612  61.9487094
  70.7342615  35.4299456  68.4300502  69.9438690  35.2490917  68.7517838
  71.1303238  34.6526409  68.4130797  70.6759492  35.2886917  68.4753051
  75.2208506  44.2587231  53.8707216  75.9881491  44.3187356  53.4613068
  74.7739815  43.6867672  53.3863534  75.2681933  44.1823806  53.7384926
  76.1186302  43.0641887  66.1559948  75.4431303  42.8327119  66.6573335
  76.1278678  42.4563069  65.5302053  76.0204806  42.9400812  66.1376100
  73.2480446  37.9059716  72.9124001  73.1839587  38.7669672  72.7844138
  73.3877633  37.5891709  72.1119553  73.2595916  37.9859882  72.7752214
  78.1203036  45.9207019  58.3870126  78.2022874  46.7274005  58.0631577
  78.6052778  45.9402978  59.1110900  78.2040194  46.0427681  58.4457025
  71.9299540  40.5991855  67.0540204  71.5061789  40.7996354  66.3179222
  71.7544395  39.7520703  67.1664504  71.8410420  40.5040636  66.9613894
  67.2181984  41.0943906  62.4868177  67.3746604  41.0290709  63.3424169
  67.5582578  41.8692459  62.2746856  67.2915219  41.1993104  62.5822771
  73.7561129  40.4701790  61.3561540  74.2976675  39.9672171  61.8200160
  74.0707688  40.4166985  60.5451025  73.8825526  40.3881211  61.3045352
  71.9247579  45.8619141  58.6401568  71.9940399  45.0033680  58.7794568
  72.7036034  46.0791022  58.3120592  72.0500429  45.7672005  58.6118725
  74.9050398  35.3638094  71.4083840  75.1192368  34.7249009  70.8547194
  74.2884298  35.8083918  70.9791702  74.8455728  35.3348238  71.2634271
  76.3155066  48.2856843  62.8538061  75.9234858  47.9823558  62.1360927
  76.4708139  49.1225933  62.6643015  76.2808656  48.3640679  62.7194558
  63.7916246  38.2778857  62.8028944  64.1715211  38.6963402  62.1389211
  63.2171611  38.8592312  63.1097787  63.7627571  38.4256716  62.7505685
  76.4794741  44.8506832  62.7944092  76.1209396  45.0221474  63.5708124
  75.9933452  45.3120037  62.2372090  76.3553438  44.9445803  62.8269361
  74.2965127  28.4738030  66.3971183  73.4258685  28.4476751  66.3504493
  74.5505468  28.3015222  65.5797029  74.2058687  28.4448174  66.2691320
  71.2683107  40.5305997  55.3344326  71.5575631  41.3070879  55.6087900
  71.3554905  40.0194728  56.0358825  71.3237363  40.5697915  55.4786824
  71.3214268  30.4844258  67.8544654  70.8052756  29.7924450  67.9796233
  70.7608197  31.1515036  67.8007252  71.1620781  30.4807516  67.8650720
  73.3906501  31.0237219  69.6837506  73.0038254  31.0486250  70.4651036
  72.9039438  30.4578897  69.2312023  73.2619010  30.9432969  69.7325410
  67.4347048  39.8439262  67.4344438  66.5935054  39.7443136  67.6423332
  67.6437055  40.6134742  67.7858759  67.3411740  39.9431305  67.5171753
  64.9122614  37.4658798  65.2629189  64.5179312  37.5401810  64.4879299
  64.3562731  37.8516745  65.8137551  64.7725427  37.5340573  65.2296849
  76.5487561  30.4440092  64.9433068  76.7537155  30.3762400  65.7890065
  76.2213985  31.2498914  64.8754245  76.5302809  30.5526033  65.0592723
  71.2463712  37.7720661  66.6842036  70.9426850  37.2176649  67.2852443
  70.5443133  37.9512871  66.1970070  71.0979922  37.7165443  66.7011741
  70.3029809  35.0821180  61.2486738  70.5789544  34.3640093  60.8364305
  70.9028479  35.6806100  61.0407844  70.4323074  35.0641551  61.1567499
  69.3082063  44.9870381  71.3914134  69.2002418  44.9972444  72.2576192
  69.5177845  45.8125162  71.2019087  69.3232174  45.1111456  71.4918225
  73.8040330  32.7534698  59.5233333  74.2584077  32.9245258  60.2481177
  74.2780376  32.1402809  59.1231108  73.9408650  32.6885583  59.5707094
  67.3255855  42.2383024  68.8536071  66.7343789  42.8792522  68.8239086
  68.0876879  42.6620641  68.8267371  67.3504116  42.3958862  68.8451218
  67.7216478  33.3985022  69.5204089  68.1817960  33.4723951  70.2579212
  67.7672585  34.1966276  69.1703910  67.7967034  33.5279169  69.5776845
  69.3699828  34.0651716  74.0876116  68.9785393  33.4185064  74.5231894
  69.5385691  34.6563152  74.7070371  69.3370738  34.0565984  74.2438822
  77.0845372  47.6892335  66.2868096  76.8865060  48.1783150  65.5924307
  76.4633083  47.8933577  66.8652229  76.9632936  47.7908874  66.2691319
  73.0632925  31.2527491  65.6610201  72.2168971  31.4250299  65.5351551
  73.0604058  30.4476835  65.9976030  72.9380075  31.1588520  65.6921328
  74.1331226  35.0302706  66.5272259  73.6591180  34.5044468  67.0377570
  74.5049362  34.4832178  65.9587121  74.1181115  34.8718702  66.5187406
  64.5104256  37.0274212  71.8955805  65.3729869  36.9269921  71.8093135
  64.1796039  36.4468922  71.3341377  64.5889452  36.9265839  71.8001211
  76.0614725  35.9239260  59.5898013  75.5337744  36.0068004  58.9003722
  76.5210434  36.6657132  59.5862658  76.0516576  36.0459923  59.4872708
  67.8706042  35.8516661  68.5566223  67.2459112  35.8635053  67.9492176
  67.5351637  36.3276836  69.2057463  67.7291534  35.9235178  68.5622792
  68.0547791  34.1941780  54.6138908  67.7060595  34.8461505  55.0770458
  67.5744236  34.1798893  53.8862779  67.9318035  34.2884833  54.5749999
  64.5831717  43.9117121  69.9969987  64.0531642  43.2209560  70.0464962
  64.8556811  43.9027307  69.1682696  64.5456440  43.8084253  69.8817403
  75.6151808  44.4942824  58.7207670  76.3386007  44.9600937  58.5772243
  75.1752399  44.5616433  57.9705267  75.6567500  44.5726660  58.5892451
  74.7837963  41.3540366  69.9708359  74.1694956  40.8098416  70.2656994
  75.3005248  40.8404602  69.4914175  74.7693625  41.1976775  69.9432587
  74.0234260  42.4244636  67.7052658  73.5961868  41.7994355  67.2718093
  74.0159205  42.1419558  68.5311665  73.9593401  42.2897417  67.7632485
  67.1396787  37.4609809  70.7741092  67.2990274  36.7053133  71.1792814
  66.9589681  38.0100749  71.4281829  67.1362146  37.4303623  70.9303798
  72.3519970  33.3013391  67.9195192  72.3762457  32.7673503  67.2307972
  72.6031444  32.7930699  68.5820782  72.3929889  33.1474294  67.9159836
  59.8627560  40.5844885  67.3538336  59.7571009  40.5391730  66.4890420
  59.1127780  40.9298666  67.6352621  59.7363163  40.6285794  67.2675665
  68.6321292  32.0284209  67.3000936  68.6719664  32.5293415  68.0135643
  67.8070957  32.1194602  67.0306859  68.5160818  32.1166025  67.3651474
  70.0535656  38.5444719  69.5974835  69.2227585  38.7118537  69.3910083
  69.9987173  38.1680669  70.3823720  69.9225070  38.5134450  69.6823363
  68.4271699  36.8200310  60.1264953  68.5674660  37.3172774  60.8293594
  68.9254232  36.1186605  60.2679166  68.5212780  36.7902289  60.2516532
  68.4571922  37.6867421  57.4557530  69.0917001  38.2827846  57.3906991
  68.5397533  37.3870879  58.2703400  68.5628473  37.7308329  57.5660616
  70.0350905  33.6181397  57.4302971  70.3566746  33.1384479  56.7762234
  70.2977848  34.4281043  57.2393783  70.1216930  33.6671294  57.3058464
  75.4310060  33.0053591  69.7926451  75.8565131  32.5526117  69.1809977
  74.8167053  32.4513661  70.0691238  75.4038705  32.8567567  69.7431476
  64.9624910  39.8835262  60.7247076  65.4717139  40.4799769  61.1058381
  65.4359182  39.6161236  60.0423495  65.1068285  39.9321077  60.6801598
  75.8755658  48.5563529  58.8805731  75.1584967  48.3824391  58.4152968
  76.5262395  48.3216101  58.3481217  75.8657508  48.4959321  58.7334949
  73.8704282  29.4768690  63.2017028  73.2272600  29.3266337  63.7702166
  73.5303689  29.2311036  62.4366132  73.7249360  29.4180813  63.1720043
  72.5090363  49.5724829  67.8558794  72.2856017  48.8143658  68.2242821
  72.0200206  49.6022850  67.1339234  72.4033812  49.4647054  67.8035535
  67.3215441  36.5191520  63.5920256  66.6027430  36.9355653  63.8593119
  67.6927804  37.0845759  63.0411894  67.2707373  36.6640802  63.5503063
  76.6215022  37.1519369  69.4822252  76.6012949  36.9702665  70.3357031
  76.6694223  38.0231388  69.4581835  76.6249663  37.2535908  69.6045546
  71.1568820  49.7925287  65.3095879  70.7429218  49.1299417  64.9199721
  71.8416194  49.9403146  64.7891573  71.1967191  49.7165945  65.1752376
  74.5234114  48.9515373  66.0619496  74.1250397  49.0617643  65.2940316
  73.9085333  49.1597439  66.6446055  74.3733003  48.9988941  66.0350795
  73.0962016  35.5589520  58.9293635  72.5026855  35.8806517  58.3778202
  73.1337293  34.7130616  58.7214742  73.0136405  35.4813849  58.8176407
  75.9719832  35.5169025  62.3595386  75.7433525  35.5401726  61.5173744
  76.2317909  34.6926492  62.4790396  75.9766020  35.3985105  62.2520583
  70.2539061  37.3703498  71.9620486  69.7417964  36.7624681  72.3205517
  70.0818557  38.0860090  72.4294462  70.1528698  37.3866797  72.0836710
  65.1004775  35.8141073  74.6122848  64.9307366  36.4742448  74.0671054
  64.6570725  36.0247634  75.3335337  65.0104109  35.9427055  74.6384477
  69.0264595  34.0545571  63.6549581  69.5021961  34.4162651  63.0199762
  68.5253194  34.7102039  63.9349724  69.0229954  34.2039760  63.6026322
  62.0006840  38.7187939  69.8711337  61.4533559  38.0488584  69.9892206
  62.7899218  38.3517787  69.9354805  62.0359024  38.5652925  69.8980038
  71.0691248  36.1986771  57.0222965  71.4490213  36.2166400  56.2374080
  70.3283844  36.6440760  56.9013813  71.0160086  36.2668546  56.8886533
  78.6976539  34.5068962  62.6098544  78.6970765  34.3517619  63.4682820
  78.4932719  35.3531949  62.5539930  78.6676316  34.6089583  62.7286483
  60.7593809  37.9308747  67.0257361  60.5815571  37.4785356  67.7512276
  60.4712832  38.7334908  67.2095838  60.6906763  37.9831304  67.1600863
  76.4217391  39.1866464  66.2634751  76.9171056  38.4689459  66.2238771
  75.6117166  38.8837262  66.1489238  76.3761284  39.0364110  66.2408477
  71.8676002  43.0364277  58.4131755  71.0587325  42.7130951  58.3665065
  72.3750911  42.3297499  58.3460004  71.8225669  42.8845594  58.3962050
  62.4966279  40.4636470  64.1379120  61.6311799  40.4522161  64.0261891
  62.5965095  40.2766693  64.9850259  62.3840446  40.4342532  64.2468064
  78.4869209  41.9370151  68.9511880  78.9124281  41.4144573  68.3982305
  78.1226129  42.5350989  68.4300503  78.4955812  41.9480378  68.7920889
  68.1223289  50.2334369  67.7109225  68.4369848  51.0470757  67.7187007
  68.5316703  49.8484588  68.3791384  68.2291387  50.2963071  67.8113317
  75.0747809  45.6504416  65.2813037  75.5458987  46.3644678  65.4503022
  75.4107987  45.0503166  65.8172907  75.1942924  45.6675880  65.3845413
  71.0610419  32.4248299  59.7050597  71.8826113  32.5946612  59.4632292
  70.5980070  32.5795560  58.9816894  71.1141581  32.4730032  59.5622241
  69.6505751  30.4191061  70.4849026  70.1950164  30.0782188  71.0753367
  69.7042686  31.2776523  70.6270310  69.7394870  30.4946321  70.5930899
  65.4636309  44.1807477  67.3587833  66.0681167  44.1403312  66.7301654
  65.2563622  45.0278629  67.3891889  65.5225207  44.2995480  67.2703950
  60.6987592  43.1642095  67.2286757  60.6011870  42.3538366  67.5376813
  61.4816461  43.1433888  66.8433025  60.8003728  43.0409185  67.2173620
  77.7844249  51.7849771  55.9559795  77.0702426  51.4987950  56.3682227
  78.2688218  52.1246397  56.5966182  77.7503613  51.7931421  56.1115430
  69.7309660  53.5028860  63.4866666  69.8169911  53.1260728  64.2680196
  70.3585457  53.1289305  63.0086624  69.8366211  53.3914342  63.5312143
  76.9143580  50.3989742  60.7664269  76.6268376  50.0291012  60.0296216
  77.6014049  50.8684597  60.5047974  76.9732478  50.4136711  60.6179345
  74.4871775  51.1770954  61.6149550  74.5887911  51.9797116  61.9430525
  75.2827662  50.9758290  61.3172631  74.6199680  51.2656853  61.6184905
  74.7648830  53.7964165  62.8028944  75.1447794  54.2148710  62.1389211
  74.1904194  54.3777620  63.1097787  74.7360154  53.9442024  62.7505685
  75.9357493  55.4020570  60.7247076  76.4449723  55.9985077  61.1058381
  76.4091765  55.1346543  60.0423495  76.0800869  55.4506385  60.6801598
  78.2948025  52.0376828  63.5920256  77.5760014  52.4540961  63.8593119
  78.6660387  52.6031067  63.0411894  78.2439957  52.1826110  63.5503063
  57.0820213   8.6284158  48.9923156  56.3303113   8.2499697  48.7639201
  57.5306225   8.6602592  48.2441966  57.0369880   8.5769766  48.8480658
  62.5345173   9.0509528  44.4208703  62.1996542   9.7286450  43.9852925
  63.0472044   8.6614839  43.8325575  62.5610754   9.0934106  44.2695495
  62.0749464  11.0023797  50.3619815  62.4588844  11.5710695  49.8224590
  62.0108606  10.2773307  49.8825631  62.1222892  10.9799260  50.2113677
  58.6604969   8.6402551  51.2585929  58.7615332   7.8302905  51.5683056
  58.0646715   8.5459497  50.6285607  58.5877508   8.5067579  51.2112167
  58.5005709  13.5580140  52.6600785  59.1443164  13.9993304  53.0496943
  58.8261965  12.7533566  52.5731043  58.6437538  13.5045335  52.7046262
  51.8570014   4.6622837  50.8838262  51.6220198   3.8290490  50.7770531
  51.9955654   4.9427503  50.0699463  51.8425676   4.5806341  50.7480617
  59.2026289   6.5692115  48.0320646  59.5242130   7.1097322  47.4281954
  59.8498385   5.9988886  48.1642936  59.3452344   6.5651290  47.9627682
  53.4187338   9.5408508  52.1594468  52.9354917  10.2658998  52.1354052
  54.2310657   9.8384638  52.2704626  53.4678086   9.6910862  52.1721748
  59.4901492   8.3340689  54.7644283  58.9728434   7.9748104  54.1605591
  60.1875884   7.8102863  54.7750349  59.5167074   8.2038377  54.6774542
  63.1465084   8.7835503  60.7260456  63.2348430   8.5961643  61.5738666
  63.5754797   8.1372932  60.3265303  63.2227187   8.6598510  60.7932207
  60.7135544   8.0666663  59.7078118  60.1506379   7.6539273  60.2317779
  61.4756568   7.9919568  60.1271261  60.7429993   7.9944063  59.8471118
  56.2731536  10.0564684  52.3114748  56.9752115   9.5416673  52.3687505
  56.1929019  10.3838835  53.1161623  56.3655296  10.0278910  52.4387540
  55.5982311   6.2471036  51.8200356  56.4371210   6.4793969  51.8674118
  55.6294080   5.3775347  51.7507392  55.7264029   6.1527982  51.8165001
  56.2235014   6.6671911  56.1213662  56.7633239   6.5243042  56.7917034
  55.5404960   7.0668662  56.4897688  56.2027168   6.7051582  56.2748083
  63.2585144   8.2144522  63.3904239  64.0425560   8.3275370  63.7559982
  63.0581738   7.3885659  63.5862925  63.3451169   8.1091241  63.4738625
  63.4155537  10.1254624  57.0370695  62.6170783   9.8854124  57.2944564
  63.8641549  10.1769017  57.7837743  63.3630148  10.0977015  57.1855619
  52.0365573   3.6730981  53.5559828  51.8541146   3.6477867  52.7032120
  52.7715242   4.1429919  53.5948736  52.1179637   3.7392344  53.4357746
  58.3758633   5.9339771  50.5903770  59.0132580   5.6951519  51.1355563
  58.8013704   6.1376930  49.8556930  58.5334799   5.9290782  50.5620927
  53.0671275   8.1728108  54.4738073  53.1075420   8.4442959  53.6457853
  53.6265799   8.6970016  54.8895861  53.1554621   8.2903863  54.4129962
  60.7580105   6.4112194  52.2697556  60.8319113   6.2487366  53.1239406
  61.5749611   6.6002384  52.0258038  60.8896463   6.4148936  52.3595581
  54.5185861   6.7570057  49.2991999  53.6923979   7.0031794  49.1726278
  54.5797852   6.6782138  50.1654057  54.4060028   6.7815006  49.4080944
  59.2984690   9.3746937  47.0011029  59.5882989   8.9835918  46.2770256
  60.0288171   9.5563642  47.4416305  59.4491574   9.3440751  46.9593836
  57.2390606  11.3514320  50.0671179  57.0190901  11.0611674  50.8597846
  57.0185128  10.6929275  49.5389091  57.1738200  11.2114028  50.1060088
  59.4058562  12.7243709  48.8501871  60.0582620  12.1920152  49.0792897
  58.7084170  12.3712362  49.2369745  59.3989280  12.5933232  48.9414039
  56.3539826   5.0782887  48.2569246  57.1085794   5.4595926  48.4704708
  55.7610439   5.5294031  48.7115942  56.3776540   5.2011714  48.3552124
  57.6738053   6.2491448  53.6309361  57.1518807   6.3891740  54.3161226
  58.0612073   5.4902113  53.8211478  57.6541754   6.1576972  53.7610438
  63.8705058   7.9886908  47.6169930  63.6291734   7.2554768  47.2096995
  64.0506391   8.5373765  46.9636263  63.8612682   7.9609299  47.4600153
  58.2384538   9.9552228  56.7139217  58.3874102   9.3955144  56.0612621
  59.0184540  10.0344230  57.0971735  58.3758632   9.8837794  56.6736166
  60.7637839  10.1266871  57.9923707  60.6881510   9.4575682  58.5474496
  60.6927698  10.8284659  58.5064374  60.7418446  10.1311779  58.1500556
  61.4208086   8.6467870  48.8247313  62.1857977   8.3777514  48.5029978
  61.3186176   8.1617881  49.5417376  61.5189581   8.5357435  48.8827141
  60.1529473  13.5335191  56.4501708  60.6425404  12.8345980  56.2677373
  59.5813706  13.2359061  57.0377766  60.1414003  13.3861415  56.5102749
  60.6465819   7.2811965  45.5741615  60.7158639   6.4226503  45.7134615
  61.4254274   7.4983846  45.2460639  60.7718669   7.1864829  45.5458772
  65.0373307   9.7049666  49.7878108  64.6453098   9.4016381  49.0700974
  65.1926379  10.5418756  49.5983062  65.0026897   9.7833503  49.6534605
  58.0300304   6.4063205  58.3254180  57.9220659   6.4165267  59.1916238
  58.2396085   7.2317985  58.1359134  58.0450415   6.5304279  58.4258272
  65.8063612   9.1085159  53.2208142  65.6083301   9.5975973  52.5264354
  65.1851323   9.3126400  53.7992276  65.6851176   9.2101697  53.2031366
  53.3049958   5.3309945  56.9310034  52.7749882   4.6402384  56.9805009
  53.5775051   5.3220130  56.1022743  53.2674680   5.2277076  56.8157450
  48.5845800   2.0037709  54.2878383  48.4789249   1.9584553  53.4230467
  47.8346020   2.3491489  54.5692667  48.4581403   2.0478617  54.2015712
  61.9866118   6.0593094  57.8841834  61.4791209   6.6128941  58.3282465
  61.6892764   6.1201384  57.0660609  61.8671003   6.1499405  57.8290291
  64.5973898   9.9756352  45.8145778  63.8803208   9.8017214  45.3493015
  65.2480636   9.7408924  45.2821264  64.5875749   9.9152144  45.6674996
  61.2308603  10.9917652  54.7898841  61.0074257  10.2336482  55.1582868
  60.7418446  11.0215674  54.0679281  61.1252052  10.8839877  54.7375582
  59.8787060  11.2118111  52.2435926  59.4647459  10.5492241  51.8539768
  60.5634434  11.3595969  51.7231620  59.9185432  11.1358769  52.1092423
  63.2452354  10.3708196  52.9959542  62.8468637  10.4810466  52.2280363
  62.6303574  10.5790262  53.5786102  63.0951243  10.4181764  52.9690842
  56.8441530  11.6527192  54.6449272  57.1588089  12.4663581  54.6527054
  57.2534943  11.2677411  55.3131431  56.9509628  11.7155895  54.7453364
  54.1854550   5.6000301  54.2927880  54.7899407   5.5596135  53.6641701
  53.9781862   6.4471453  54.3231936  54.2443447   5.7188303  54.2043997
  63.9998322   7.8666246  55.5090118  64.8196696   7.7229212  55.7706413
  63.7192399   8.4912445  56.0506556  64.0795065   7.9376598  55.6278057
  49.4205832   4.5834918  54.1626803  49.3230110   3.7731190  54.4716860
  50.2034702   4.5626712  53.7773072  49.5221968   4.4602008  54.1513666
  73.6711657  14.6106749  53.2285924  72.8149553  14.7715247  53.2795041
  73.7179311  13.7398812  53.2490986  73.5510769  14.5057550  53.2391991
  68.0552797  24.1469466  48.9923156  67.3035696  23.7685005  48.7639201
  68.5038808  24.1787900  48.2441966  68.0102464  24.0955074  48.8480658
  73.5077757  24.5694836  44.4208703  73.1729125  25.2471757  43.9852925
  74.0204627  24.1800147  43.8325575  73.5343338  24.6119414  44.2695495
  73.0482048  26.5209105  50.3619815  73.4321427  27.0896003  49.8224590
  72.9841189  25.7958615  49.8825631  73.0955475  26.4984568  50.2113677
  76.5163478  16.6698792  55.8717576  77.0619438  17.3483879  55.9311546
  76.4580354  16.5286253  55.0119158  76.5879392  16.7490794  55.7529637
  69.6337553  24.1587859  51.2585929  69.7347916  23.3488213  51.5683056
  69.0379298  24.0644805  50.6285607  69.5610092  24.0252887  51.2112167
  69.4738293  29.0765448  52.6600785  70.1175748  29.5178612  53.0496943
  69.7994548  28.2718874  52.5731043  69.6170121  29.0230642  52.7046262
  62.8302597  20.1808145  50.8838262  62.5952782  19.3475797  50.7770531
  62.9688238  20.4612811  50.0699463  62.8158260  20.0991649  50.7480617
  65.1292685  12.3493876  53.7822570  64.5097716  11.7586523  53.6132585
  65.0276548  12.9405311  53.1486893  65.0230360  12.3497958  53.6627559
  70.1758872  22.0877423  48.0320646  70.4974713  22.6282630  47.4281954
  70.8230969  21.5174194  48.1642936  70.3184927  22.0836598  47.9627682
  72.2260580  14.0893418  48.1155033  72.9240745  14.2681545  48.6076496
  72.5412913  13.5663757  47.4925422  72.3755918  14.0387190  48.0957043
  64.8561818  15.8946157  56.0266139  64.7320515  16.4808603  56.6615958
  65.5080102  15.4006353  56.3278414  64.9335467  15.9084962  56.1652068
  72.4148516  20.4763863  48.1034824  72.8542151  19.8680963  48.5489597
  72.2653179  20.0971236  47.3320290  72.4569981  20.3302334  48.0553992
  69.8820159  19.0707874  55.3053650  70.5269161  18.5780318  54.9864599
  70.1221936  19.2132661  56.1319728  70.0130744  19.0185317  55.3803183
  72.4206250  21.9162780  54.9560543  72.7029493  21.1214186  54.7347298
  73.1492410  22.3943368  54.9765604  72.5695814  21.8697377  54.9263558
  70.3987444   9.4585814  52.1976308  70.0690774   9.9096958  51.5280006
  69.7232446   9.3801978  52.7449314  70.2497880   9.5136949  52.1799531
  76.0157852  18.8291044  45.0565594  75.9309147  19.6852010  45.2015163
  76.5042235  18.5535368  45.7247753  76.0746750  18.9148365  45.1767675
  76.9476285  15.4475838  46.5563329  76.4187757  15.6635472  47.2160635
  77.4701305  16.1411976  46.4764298  76.9464738  15.5818975  46.6418928
  68.8375893  19.3439055  45.3570797  68.2533109  19.8489086  45.7636661
  68.4345988  19.1181442  44.6167389  68.6915197  19.3847303  45.3075822
  64.3919922  25.0593816  52.1594468  63.9087500  25.7844306  52.1354052
  65.2043240  25.3569946  52.2704626  64.4410670  25.2096170  52.1721748
  70.4634076  23.8525997  54.7644283  69.9461018  23.4933412  54.1605591
  71.1608467  23.3288171  54.7750349  70.4899657  23.7223685  54.6774542
  74.1197668  24.3020811  60.7260456  74.2081014  24.1146951  61.5738666
  74.5487380  23.6558240  60.3265303  74.1959770  24.1783818  60.7932207
  71.6868128  23.5851971  59.7078118  71.1238963  23.1724580  60.2317779
  72.4489151  23.5104876  60.1271261  71.7162576  23.5129371  59.8471118
  73.2953108  15.5904707  43.8339717  73.5349111  15.7982691  43.0215061
  73.6168949  14.7862216  43.9428662  73.3790266  15.5018808  43.7300270
  67.2464119  25.5749992  52.3114748  67.9484698  25.0601981  52.3687505
  67.1661602  25.9024143  53.1161623  67.3387880  25.5464218  52.4387540
  68.2943026  15.8125579  61.4395163  68.4663529  15.7031473  62.2880445
  68.8312383  16.4579984  61.2026356  68.3988030  15.8917580  61.5300260
  66.9600463   9.9268422  44.3777368  66.7776036  10.1440302  43.5518361
  67.8226076  10.0407434  44.4335983  67.0605052   9.9758320  44.2631855
  66.5714895  21.7656344  51.8200356  67.4103794  21.9979277  51.8674118
  66.6026664  20.8960655  51.7507392  66.6996612  21.6713290  51.8165001
  67.1967598  22.1857219  56.1213662  67.7365823  22.0428350  56.7917034
  66.5137544  22.5853970  56.4897688  67.1759752  22.2236890  56.2748083
  76.6208483  17.8648220  51.3158686  77.3765998  18.2979734  51.3547595
  76.7270807  17.2152989  51.8893322  76.7478653  17.8325703  51.4056712
  74.2317727  23.7329830  63.3904239  75.0158144  23.8460677  63.7559982
  74.0314322  22.9070967  63.5862925  74.3183753  23.6276549  63.4738625
  62.6004743  18.4057510  56.2748083  62.3343158  17.5896626  56.4339074
  62.6143307  18.4510665  55.4043599  62.5629465  18.2914415  56.1701565
  66.5062490  13.2042594  42.8899841  65.7920667  12.9180774  43.3022274
  66.9906458  13.5439220  43.5306229  66.4721853  13.2124244  43.0455476
  67.3503349  11.9435888  58.9215091  66.6575146  11.4732868  59.1675823
  67.9663676  11.7174193  59.4956798  67.3387879  11.8403020  59.0424244
  74.3888121  25.6439932  57.0370695  73.5903366  25.4039432  57.2944564
  74.8374132  25.6954325  57.7837743  74.3362732  25.6162323  57.1855619
  73.6809808  21.7072548  43.2661650  74.0960956  21.3757572  42.5746145
  72.8501737  21.4741450  43.1381786  73.6197816  21.6243804  43.1452497
  63.0098156  19.1916289  53.5559828  62.8273730  19.1663175  52.7032120
  63.7447825  19.6615227  53.5948736  63.0912220  19.2577651  53.4357746
  66.0743908  15.9101292  60.0641936  66.7983880  15.8954323  60.5506831
  66.1760045  16.6196647  59.5663904  66.1962117  16.0125995  60.0620723
  76.1220176  16.1134368  49.2185899  76.2167031  16.8523662  49.6725525
  75.4979020  15.6851843  49.6520464  76.0429207  16.1595688  49.3494047
  74.3772650  19.2920580  59.8676180  74.9511512  18.6547825  60.0224744
  74.2987454  19.2924663  58.9985838  74.4505885  19.1985692  59.7622591
  62.9769067  16.0709790  53.7058894  63.5542569  15.9346241  54.3451140
  62.2783128  15.6145574  53.9604479  62.9590088  15.9832056  53.8381184
  76.3743198  17.9583108  42.4522851  76.2923360  18.0285295  43.3177838
  77.0122918  18.5212852  42.2606592  76.4563035  18.0522079  42.5512801
  69.7336369  17.7243846  51.9197377  69.4755613  16.8915580  51.8928677
  69.7884852  17.9501459  51.0789878  69.7036147  17.6341617  51.7917514
  68.7071081  15.2781608  52.4062272  68.1320672  15.4373776  53.0426233
  68.3306757  14.6417017  51.9430723  68.5673893  15.2079421  52.4316831
  72.3744370  13.7504957  57.2654651  71.9858802  13.3259175  56.6106842
  71.7099068  13.9987107  57.7731677  72.2191297  13.7243678  57.2442519
  58.4527900  14.9221683  50.4206713  58.5388152  14.5453551  51.2020243
  59.0803697  14.5482128  49.9426671  58.5584451  14.8107165  50.4652190
  73.4783308  17.9803562  45.4631458  74.2923947  18.2718455  45.3514229
  73.4142449  17.3263424  44.8889751  73.5886047  17.9268757  45.3620295
  69.3491216  21.4525079  50.5903770  69.9865163  21.2136827  51.1355563
  69.7746288  21.6562238  49.8556930  69.5067382  21.4476090  50.5620927
  64.0403859  23.6913416  54.4738073  64.0808004  23.9628267  53.6457853
  64.5998383  24.2155324  54.8895861  64.1287204  23.8089171  54.4129962
  69.9894031  16.6727369  44.9278659  70.3739184  16.4535076  45.6795204
  69.7405652  17.4990315  45.0579735  70.0096104  16.7625515  45.0579735
  71.7312688  21.9297502  52.2697556  71.8051696  21.7672674  53.1239406
  72.5482194  22.1187692  52.0258038  71.8629047  21.9334244  52.3595581
  65.4918445  22.2755365  49.2991999  64.6656562  22.5217102  49.1726278
  65.5530436  22.1967446  50.1654057  65.3792612  22.3000314  49.4080944
  67.7094469   8.3424306  50.2587440  66.8416894   8.4146905  50.3245049
  67.9969673   9.1446385  50.4475415  67.6234217   8.4718453  50.2962206
  70.2717274  24.8932245  47.0011029  70.5615572  24.5021226  46.2770256
  71.0020755  25.0748950  47.4416305  70.4224158  24.8626059  46.9593836
  70.8612019  19.6949991  58.0864160  70.3623713  20.4065759  58.1649048
  71.6712243  20.0150658  58.0482322  70.9068126  19.8476840  58.0920728
  68.2123189  26.8699627  50.0671179  67.9923485  26.5796982  50.8597846
  67.9917711  26.2114582  49.5389091  68.1470784  26.7299336  50.1060088
  67.1240137  18.9572944  52.3326881  66.8353385  18.3310415  52.8672608
  67.9923485  18.8993231  52.3991561  67.2100389  18.8560488  52.4217835
  77.9118034  14.1007727  52.6508863  77.5682800  13.3798063  53.0016112
  78.0111077  13.8921579  51.8087221  77.8760077  13.9631931  52.5780543
  70.3791145  28.2429017  48.8501871  71.0315203  27.7105460  49.0792897
  69.6816754  27.8897670  49.2369745  70.3721863  28.1118540  48.9414039
  67.3272410  20.5968195  48.2569246  68.0818378  20.9781234  48.4704708
  66.7343023  21.0479339  48.7115942  67.3509124  20.7197022  48.3552124
  78.3731063  20.5633431  48.1932851  78.9389096  21.2226641  48.1091394
  77.7258967  20.9083130  48.6649253  78.3609820  20.7115373  48.2505607
  68.6470637  21.7676756  53.6309361  68.1251390  21.9077048  54.3161226
  69.0344657  21.0087421  53.8211478  68.6274338  21.6762280  53.7610438
  65.6361821  11.8182565  47.7004316  65.3486616  11.4483836  46.9636263
  66.3232289  12.2877420  47.4388021  65.6950718  11.8329534  47.5519392
  74.8437642  23.5072216  47.6169930  74.6024317  22.7740076  47.2096995
  75.0238974  24.0559073  46.9636263  74.8345266  23.4794607  47.4600153
  70.0736962  18.7980775  49.0290852  69.8779745  19.4055510  48.4351155
  70.2971308  18.1048719  48.5482526  70.0771603  18.7858301  48.8706933
  68.4715492  15.6835513  49.1471721  69.1938144  15.8476671  48.6875526
  67.9923485  16.4045178  49.0411060  68.5079223  15.8133743  49.0637335
  76.4309000  12.0199312  54.5268405  75.5920100  12.0460591  54.2906669
  76.5013367  12.6670048  55.1073752  76.3177393  12.1195438  54.5777522
  66.1223109  18.0893586  58.2525860  66.6344206  18.3677839  57.6034620
  65.8359452  18.8282880  58.6188673  66.1557972  18.2395939  58.2115738
  63.2090015  12.5963778  48.5489597  63.3106152  13.3989939  48.8770572
  64.0045902  12.3951113  48.2512677  63.3417921  12.6849676  48.5524952
  69.6406834  10.1819974  58.3126902  69.4490031  10.1975109  59.1626325
  70.4905430  10.3783649  58.2893557  69.7382556  10.2134326  58.4350197
  64.0253747  12.7110956  56.2910718  63.8839239  11.8594896  56.4155226
  64.3094311  12.7539616  55.4672924  64.0461593  12.5910706  56.1878343
  74.1792340  14.5478046  50.4355207  73.9327054  14.4673797  51.2691996
  74.5077463  13.7631514  50.2417734  74.1913583  14.4204311  50.5302730
  78.0740389  21.2561405  54.2241988  77.9354748  21.9542451  54.7290730
  77.2940386  21.1010062  53.8678170  77.9383615  21.3361572  54.2468262
  70.1389367  17.2834765  59.8478190  70.2832743  17.8635973  59.2121300
  70.4865016  17.6611061  60.5528044  70.2116828  17.4255469  59.8577185
  72.3109284  16.4824933  57.6303321  71.5632598  16.6755947  57.2251599
  72.4650810  15.6570152  57.3927443  72.2231712  16.3890044  57.5348727
  69.2117122  25.4737536  56.7139217  69.3606686  24.9140452  56.0612621
  69.9917124  25.5529538  57.0971735  69.3491216  25.4023102  56.6736166
  71.7370423  25.6452179  57.9923707  71.6614094  24.9760990  58.5474496
  71.6660282  26.3469967  58.5064374  71.7151029  25.6497087  58.1500556
  72.5511061  10.3775484  58.5198725  73.0083675  11.1099458  58.6471517
  72.6267390   9.9541949  59.2785981  72.6302031  10.4232722  58.6499802
  64.7944053  10.6241303  59.6088169  64.2586242  10.0121662  59.9248936
  64.8561817  11.1989439  60.2621835  64.7239685  10.6188231  59.7523596
  72.3940670  24.1653178  48.8247313  73.1590561  23.8962822  48.5029978
  72.2918759  23.6803188  49.5417376  72.4922165  24.0542743  48.8827141
  70.4293439  12.3677588  55.3640549  69.6389514  12.1869048  55.6857885
  70.8254062  11.5904540  55.3470844  70.3710315  12.2265049  55.4093097
  74.9159330  21.1965362  40.8047263  75.6832315  21.2565487  40.3953115
  74.4690639  20.6245803  40.3203581  74.9632757  21.1201938  40.6724973
  75.8137126  20.0020018  53.0899995  75.1382127  19.7705250  53.5913382
  75.8229502  19.3941201  52.4642100  75.7155630  19.8778943  53.0716147
  72.9431270  14.8437847  59.8464048  72.8790411  15.7047803  59.7184185
  73.0828457  14.5269840  59.0459599  72.9546740  14.9238013  59.7092261
  77.8153860  22.8585150  45.3210173  77.8973698  23.6652136  44.9971624
  78.3003602  22.8781109  46.0450946  77.8991018  22.9805813  45.3797072
  71.6250363  17.5369986  53.9880251  71.2012613  17.7374485  53.2519269
  71.4495219  16.6898834  54.1004551  71.5361244  17.4418768  53.8953941
  71.1262057  29.0520499  56.4501708  71.6157987  28.3531288  56.2677373
  70.5546289  28.7544369  57.0377766  71.1146587  28.9046723  56.5102749
  66.9132808  18.0322037  49.4208223  67.0697428  17.9668840  50.2764216
  67.2533402  18.8070590  49.2086903  66.9866043  18.1371236  49.5162818
  73.4511953  17.4079921  48.2901587  73.9927499  16.9050302  48.7540207
  73.7658512  17.3545116  47.4791072  73.5776350  17.3259342  48.2385399
  71.6198403  22.7997273  45.5741615  71.6891223  21.9411811  45.7134615
  72.3986858  23.0169153  45.2460639  71.7451253  22.7050137  45.5458772
  74.6001222  12.3016226  58.3423887  74.8143192  11.6627140  57.7887241
  73.9835122  12.7462049  57.9131749  74.5406552  12.2726369  58.1974318
  76.0105890  25.2234974  49.7878108  75.6185682  24.9201689  49.0700974
  76.1658963  26.0604064  49.5983062  75.9759480  25.3018811  49.6534605
  63.4867070  15.2156988  49.7368991  63.8666035  15.6341533  49.0729258
  62.9122435  15.7970444  50.0437834  63.4578395  15.3634847  49.6845732
  76.1745565  21.7884963  49.7284139  75.8160220  21.9599606  50.5048171
  75.6884276  22.2498168  49.1712137  76.0504262  21.8823934  49.7609408
  70.9633930  17.4684128  42.2684373  71.2526455  18.2449011  42.5427947
  71.0505729  16.9572860  42.9698872  71.0188187  17.5076046  42.4126871
  77.3350304  22.6788859  60.6751339  77.9730025  22.1849054  60.3413796
  76.6924396  22.6066259  60.0903566  77.3344531  22.5947867  60.5393694
  77.3904561  23.3708667  57.3156696  78.1796939  23.0197732  57.4358778
  77.5648159  24.1845055  57.0533330  77.5324843  23.4394524  57.2944564
  67.1297871  16.7817393  54.3684485  66.2885878  16.6821267  54.5763379
  67.3387879  17.5512873  54.7198806  67.0362564  16.8809436  54.4511800
  64.6073438  14.4036930  52.1969236  64.2130136  14.4779941  51.4219345
  64.0513555  14.7894876  52.7477597  64.4676251  14.4718704  52.1636896
  70.9414536  14.7098792  53.6182083  70.6377674  14.1554780  54.2192490
  70.2393957  14.8891002  53.1310117  70.7930746  14.6543574  53.6351788
  69.9980633  12.0199312  48.1826784  70.2740368  11.3018224  47.7704352
  70.5979303  12.6184232  47.9747890  70.1273898  12.0019682  48.0907546
  69.0032887  21.9248513  58.3254180  68.8953242  21.9350575  59.1916238
  69.2128669  22.7503293  58.1359134  69.0182998  22.0489587  58.4258272
  67.0206679  19.1761155  55.7876118  66.4294613  19.8170653  55.7579133
  67.7827703  19.5998772  55.7607417  67.0454940  19.3336993  55.7791265
  67.4167302  10.3363153  56.4544136  67.8768784  10.4102082  57.1919259
  67.4623409  11.1344407  56.1043957  67.4917857  10.4657300  56.5116892
  69.0650652  11.0029848  61.0216163  68.6736217  10.3563195  61.4571940
  69.2336515  11.5941283  61.6410418  69.0321562  10.9944115  61.1778869
  76.7796196  24.6270467  53.2208142  76.5815884  25.1161281  52.5264354
  76.1583907  24.8311708  53.7992276  76.6583760  24.7287005  53.2031366
  70.8404174  16.3955363  47.5618387  71.5846219  16.7829640  47.8001337
  70.9864870  15.5512789  47.7258874  70.9714759  16.3285836  47.6212356
  73.8282050  11.9680837  53.4612306  73.3542004  11.4422599  53.9717617
  74.2000186  11.4210310  52.8927168  73.8131939  11.8096833  53.4527453
  64.2055080  13.9652343  58.8295852  65.0680693  13.8648053  58.7433182
  63.8746863  13.3847053  58.2681424  64.2840276  13.8643970  58.7341258
  75.7565549  12.8617391  46.5238060  75.2288568  12.9446135  45.8343769
  76.2161258  13.6035263  46.5202704  75.7467400  12.9838054  46.4212755
  67.5656866  12.7894792  55.4906270  66.9409936  12.8013184  54.8832223
  67.2302461  13.2654968  56.1397510  67.4242358  12.8613309  55.4962838
  67.7498615  11.1319911  41.5478955  67.4011419  11.7839636  42.0110504
  67.2695060  11.1177024  40.8202826  67.6268859  11.2262964  41.5090046
  64.2782541  20.8495253  56.9310034  63.7482466  20.1587691  56.9805009
  64.5507635  20.8405438  56.1022743  64.2407264  20.7462384  56.8157450
  75.3102632  21.4320955  45.6547717  76.0336831  21.8979068  45.5112290
  74.8703223  21.4994564  44.9045314  75.3518324  21.5104792  45.5232498
  74.4788787  18.2918497  56.9048406  73.8645780  17.7476547  57.1997041
  74.9956072  17.7782734  56.4254222  74.4644449  18.1354906  56.8772634
  73.7185084  19.3622767  54.6392704  73.2912692  18.7372486  54.2058140
  73.7110029  19.0797689  55.4651712  73.6544225  19.2275548  54.6972532
  66.8347611  14.3987940  57.7081138  66.9941098  13.6431264  58.1132860
  66.6540505  14.9478880  58.3621876  66.8312970  14.3681754  57.8643844
  72.0470794  10.2391522  54.8535238  72.0713281   9.7051634  54.1648018
  72.2982267   9.7308831  55.5160829  72.0880713  10.0852426  54.8499883
  59.5578384  17.5223017  54.2878383  59.4521833  17.4769861  53.4230467
  58.8078604  17.8676797  54.5692667  59.4313987  17.5663925  54.2015712
  68.3272116   8.9662340  54.2340983  68.3670488   9.4671547  54.9475690
  67.5021781   9.0572734  53.9646906  68.2111642   9.0544156  54.2991521
  70.5101729  18.5323080  62.3361277  69.6597359  18.6694794  62.4718922
  70.6729857  17.7986858  62.7808979  70.4085592  18.4437181  62.4216877
  69.7486479  15.4822850  56.5314882  68.9178409  15.6496668  56.3250130
  69.6937997  15.1058801  57.3163767  69.6175894  15.4512581  56.6163410
  68.1222523  13.7578441  47.0604999  68.2625484  14.2550906  47.7633641
  68.6205056  13.0564736  47.2019213  68.2163604  13.7280420  47.1856579
  68.1522746  14.6245552  44.3897576  68.7867825  15.2205977  44.3247038
  68.2348356  14.3249010  45.2043446  68.2579297  14.6686461  44.5000663
  69.7301729  10.5559528  44.3643018  70.0517570  10.0762610  43.7102281
  69.9928672  11.3659174  44.1733830  69.8167754  10.6049426  44.2398510
  72.9598701  21.5778402  57.8841834  72.4523792  22.1314249  58.3282465
  72.6625348  21.6386692  57.0660609  72.8403586  21.6684713  57.8290291
  64.6575734  16.8213393  47.6587122  65.1667963  17.4177901  48.0398428
  65.1310006  16.5539367  46.9763542  64.8019109  16.8699209  47.6141645
  75.5706482  25.4941660  45.8145778  74.8535791  25.3202522  45.3493015
  76.2213219  25.2594232  45.2821264  75.5608332  25.4337452  45.6674996
  78.1554453  14.3706248  49.5587083  77.4845643  14.9135951  49.4300149
  78.8494203  14.8401104  49.3168778  78.1583320  14.5204520  49.5042611
  72.2041187  26.5102960  54.7898841  71.9806841  25.7521790  55.1582868
  71.7151030  26.5400982  54.0679281  72.0984636  26.4025185  54.7375582
  67.0166265  13.4569652  50.5260303  66.2978254  13.8733784  50.7933166
  67.3878628  14.0223890  49.9751941  66.9658197  13.6018933  50.4843110
  76.3165846  14.0897501  56.4162298  76.2963773  13.9080796  57.2697077
  76.3645047  14.9609519  56.3921882  76.3200487  14.1914039  56.5385593
  74.2612176  20.6784693  62.3410775  74.2208031  20.0334370  61.7555931
  75.0735494  20.6221310  62.6536187  74.3755330  20.5743659  62.3007724
  70.8519644  26.7303418  52.2435926  70.4380042  26.0677549  51.8539768
  71.5367018  26.8781277  51.7231620  70.8918015  26.6544077  52.1092423
  74.2184938  25.8893504  52.9959542  73.8201221  25.9995774  52.2280363
  73.6036157  26.0975570  53.5786102  74.0683827  25.9367072  52.9690842
  72.7912840  12.4967652  45.8633682  72.1977679  12.8184648  45.3118249
  72.8288117  11.6508747  45.6554788  72.7087229  12.4191980  45.7516454
  75.6670656  12.4547156  49.2935432  75.4384349  12.4779858  48.4513791
  75.9268732  11.6304623  49.4130443  75.6716844  12.3363236  49.1860630
  69.9489885  14.3081629  58.8960533  69.4368788  13.7002812  59.2545564
  69.7769381  15.0238222  59.3634508  69.8479522  14.3244928  59.0176756
  68.7215419  10.9923702  50.5889628  69.1972785  11.3540782  49.9539809
  68.2204018  11.6480170  50.8689771  68.7180778  11.1417891  50.5366369
  61.6957664  15.6566070  56.8051384  61.1484383  14.9866716  56.9232253
  62.4850042  15.2895918  56.8694852  61.7309848  15.5031056  56.8320085
  71.5442072  15.3173527  62.3014795  72.2953399  15.6325204  62.6154349
  71.7364649  15.1152698  61.4748717  71.6833486  15.3340909  62.2258191
  70.7642072  13.1364902  43.9563012  71.1441037  13.1544531  43.1714127
  70.0234668  13.5818891  43.8353859  70.7110910  13.2046677  43.8226580
  60.4544633  14.8686878  53.9597407  60.2766394  14.4163487  54.6852323
  60.1663656  15.6713039  54.1435885  60.3857587  14.9209436  54.0940910
  76.1168214  16.1244595  53.1974798  76.6121880  15.4067590  53.1578818
  75.3067990  15.8215393  53.0829285  76.0712108  15.9742241  53.1748523
  71.5626826  19.9742408  45.3471802  70.7538149  19.6509082  45.3005112
  72.0701735  19.2675630  45.2800051  71.5176493  19.8223725  45.3302096
  62.1917103  17.4014602  51.0719166  61.3262623  17.3900292  50.9601938
  62.2915919  17.2144824  51.9190306  62.0791270  17.3720663  51.1808111
  78.1820033  18.8748283  55.8851926  78.6075105  18.3522704  55.3322351
  77.8176953  19.4729120  55.3640549  78.1906636  18.8858510  55.7260936
  67.8174113  27.1712500  54.6449272  68.1320672  27.9848889  54.6527054
  68.2267526  26.7862719  55.3131431  67.9242211  27.2341203  54.7453364
  74.7698633  22.5882547  52.2153084  75.2409811  23.3022810  52.3843069
  75.1058811  21.9881297  52.7512953  74.8893748  22.6054011  52.3185460
  75.4072579  22.3800481  58.9780777  74.8593525  21.7558365  58.7100842
  75.8685608  22.5694753  58.2624856  75.3939789  22.3159531  58.8331208
  70.7561243   9.3626430  46.6390644  71.5776937   9.5324743  46.3972339
  70.2930894   9.5173691  45.9156941  70.8092405   9.4108163  46.4962288
  65.1587133  21.1185609  54.2927880  65.7631991  21.0781443  53.6641701
  64.9514446  21.9656761  54.3231936  65.2176031  21.2373611  54.2043997
  74.9730905  23.3851554  55.5090118  75.7929279  23.2414520  55.7706413
  74.6924983  24.0097753  56.0506556  75.0527649  23.4561906  55.6278057
  60.3938416  20.1020226  54.1626803  60.2962694  19.2916498  54.4716860
  61.1767285  20.0812019  53.7773072  60.4954552  19.9787316  54.1513666
  73.8035181  35.6993453  50.8838262  73.5685365  34.8661105  50.7770531
  73.9420822  35.9798119  50.0699463  73.7890843  35.6176956  50.7480617
  76.1025268  27.8679184  53.7822570  75.4830300  27.2771831  53.6132585
  76.0009132  28.4590619  53.1486893  75.9962944  27.8683266  53.6627559
  75.8294401  31.4131465  56.0266139  75.7053098  31.9993911  56.6615958
  76.4812686  30.9191661  56.3278414  75.9068051  31.4270270  56.1652068
  75.3652505  40.5779124  52.1594468  74.8820084  41.3029613  52.1354052
  76.1775824  40.8755254  52.2704626  75.4143253  40.7281478  52.1721748
  78.2196703  41.0935300  52.3114748  78.9217282  40.5787289  52.3687505
  78.1394186  41.4209451  53.1161623  78.3120463  41.0649526  52.4387540
  77.9333046  25.4453729  44.3777368  77.7508619  25.6625610  43.5518361
  78.7958659  25.5592742  44.4335983  78.0337636  25.4943627  44.2631855
  77.5447478  37.2841652  51.8200356  78.3836378  37.5164585  51.8674118
  77.5759247  36.4145963  51.7507392  77.6729196  37.1898598  51.8165001
  78.1700181  37.7042527  56.1213662  78.7098406  37.5613658  56.7917034
  77.4870127  38.1039278  56.4897688  78.1492335  37.7422198  56.2748083
  73.5737326  33.9242818  56.2748083  73.3075741  33.1081934  56.4339074
  73.5875890  33.9695973  55.4043599  73.5362049  33.8099723  56.1701565
  77.4795073  28.7227902  42.8899841  76.7653250  28.4366082  43.3022274
  77.9639042  29.0624528  43.5306229  77.4454437  28.7309552  43.0455476
  78.3235933  27.4621196  58.9215091  77.6307729  26.9918176  59.1675823
  78.9396260  27.2359501  59.4956798  78.3120463  27.3588328  59.0424244
  73.9830740  34.7101597  53.5559828  73.8006313  34.6848483  52.7032120
  74.7180409  35.1800535  53.5948736  74.0644804  34.7762959  53.4357746
  77.0476492  31.4286600  60.0641936  77.7716464  31.4139631  60.5506831
  77.1492628  32.1381955  59.5663904  77.1694701  31.5311303  60.0620723
  73.9501650  31.5895098  53.7058894  74.5275153  31.4531549  54.3451140
  73.2515712  31.1330882  53.9604479  73.9322672  31.5017364  53.8381184
  69.4260483  30.4406991  50.4206713  69.5120735  30.0638859  51.2020243
  70.0536281  30.0667436  49.9426671  69.5317034  30.3292473  50.4652190
  75.0136442  39.2098724  54.4738073  75.0540587  39.4813575  53.6457853
  75.5730966  39.7340632  54.8895861  75.1019788  39.3274479  54.4129962
  76.4651028  37.7940673  49.2991999  75.6389146  38.0402410  49.1726278
  76.5263020  37.7152754  50.1654057  76.3525195  37.8185622  49.4080944
  76.6094404  27.3367873  47.7004316  76.3219200  26.9669143  46.9636263
  77.2964872  27.8062728  47.4388021  76.6683302  27.3514842  47.5519392
  77.0955692  33.6078894  58.2525860  77.6076789  33.8863147  57.6034620
  76.8092035  34.3468188  58.6188673  77.1290556  33.7581247  58.2115738
  74.1822599  28.1149085  48.5489597  74.2838735  28.9175247  48.8770572
  74.9778486  27.9136421  48.2512677  74.3150504  28.2034984  48.5524952
  74.9986331  28.2296264  56.2910718  74.8571823  27.3780204  56.4155226
  75.2826894  28.2724924  55.4672924  75.0194177  28.1096014  56.1878343
  75.7676636  26.1426611  59.6088169  75.2318826  25.5306969  59.9248936
  75.8294401  26.7174747  60.2621835  75.6972269  26.1373539  59.7523596
  77.8865392  33.5507345  49.4208223  78.0430011  33.4854148  50.2764216
  78.2265985  34.3255898  49.2086903  77.9598627  33.6556544  49.5162818
  74.4599654  30.7342296  49.7368991  74.8398618  31.1526841  49.0729258
  73.8855018  31.3155752  50.0437834  74.4310978  30.8820155  49.6845732
  78.1030455  32.3002701  54.3684485  77.2618462  32.2006575  54.5763379
  78.3120463  33.0698181  54.7198806  78.0095148  32.3994744  54.4511800
  75.5806022  29.9222238  52.1969236  75.1862720  29.9965249  51.4219345
  75.0246139  30.3080184  52.7477597  75.4408834  29.9904012  52.1636896
  77.9939263  34.6946463  55.7876118  77.4027196  35.3355961  55.7579133
  78.7560286  35.1184080  55.7607417  78.0187524  34.8522301  55.7791265
  78.3899886  25.8548461  56.4544136  78.8501367  25.9287390  57.1919259
  78.4355992  26.6529715  56.1043957  78.4650441  25.9842608  56.5116892
  75.1787663  29.4837651  58.8295852  76.0413277  29.3833361  58.7433182
  74.8479447  28.9032361  58.2681424  75.2572860  29.3829278  58.7341258
  78.5389449  28.3080100  55.4906270  77.9142520  28.3198492  54.8832223
  78.2035044  28.7840275  56.1397510  78.3974941  28.3798617  55.4962838
  78.7231198  26.6505219  41.5478955  78.3744002  27.3024944  42.0110504
  78.2427644  26.6362332  40.8202826  78.6001442  26.7448272  41.5090046
  75.2515125  36.3680560  56.9310034  74.7215050  35.6772999  56.9805009
  75.5240218  36.3590746  56.1022743  75.2139847  36.2647692  56.8157450
  77.8080195  29.9173248  57.7081138  77.9673682  29.1616572  58.1132860
  77.6273088  30.4664188  58.3621876  77.8045554  29.8867062  57.8643844
  70.5310967  33.0408325  54.2878383  70.4254416  32.9955169  53.4230467
  69.7811187  33.3862105  54.5692667  70.4046570  33.0849233  54.2015712
  75.6308317  32.3398701  47.6587122  76.1400546  32.9363209  48.0398428
  76.1042589  32.0724675  46.9763542  75.7751693  32.3884516  47.6141645
  77.9898849  28.9754960  50.5260303  77.2710838  29.3919092  50.7933166
  78.3611211  29.5409198  49.9751941  77.9390781  29.1204241  50.4843110
  75.7688183  28.2704512  61.5462894  75.5990773  28.9305887  61.0011101
  75.3254133  28.4811074  62.2675384  75.6787517  28.3990494  61.5724524
  72.6690247  31.1751378  56.8051384  72.1216967  30.5052023  56.9232253
  73.4582626  30.8081226  56.8694852  72.7042431  31.0216364  56.8320085
  71.4277217  30.3872186  53.9597407  71.2498978  29.9348795  54.6852323
  71.1396239  31.1898347  54.1435885  71.3590170  30.4394744  54.0940910
  73.1649687  32.9199909  51.0719166  72.2995206  32.9085600  50.9601938
  73.2648503  32.7330132  51.9190306  73.0523854  32.8905971  51.1808111
  76.1319717  36.6370917  54.2927880  76.7364574  36.5966751  53.6641701
  75.9247029  37.4842069  54.3231936  76.1908614  36.7558919  54.2043997
  71.3670999  35.6205534  54.1626803  71.2695277  34.8101806  54.4716860
  72.1499869  35.5997327  53.7773072  71.4687136  35.4972624  54.1513666
  73.4986005  12.6371584  37.8178309  73.2636189  11.8039237  37.7110578
  73.6371645  12.9176250  37.0039510  73.4841667  12.5555088  37.6820664
  75.0603329  17.5157255  39.0934515  74.5770908  18.2407745  39.0694099
  75.8726648  17.8133385  39.2044673  75.1094077  17.6659609  39.1061794
  77.9147527  18.0313431  39.2454795  78.6168106  17.5165420  39.3027552
  77.8345010  18.3587582  40.0501670  78.0071287  18.0027657  39.3727587
  77.2398302  14.2219783  38.7540403  78.0787202  14.4542716  38.8014165
  77.2710071  13.3524094  38.6847438  77.3680020  14.1276729  38.7505048
  77.8651005  14.6420658  43.0553709  78.4049230  14.4991789  43.7257081
  77.1820951  15.0417409  43.4237735  77.8443159  14.6800329  43.2088130
  73.2688150  10.8620949  43.2088130  73.0026565  10.0460066  43.3679120
  73.2826714  10.9074104  42.3383646  73.2312873  10.7477854  43.1041612
  73.6781564  11.6479728  40.4899874  73.4957137  11.6226614  39.6372167
  74.4131233  12.1178666  40.5288783  73.7595628  11.7141091  40.3697793
  74.7087266  16.1476855  41.4078120  74.7491411  16.4191706  40.5797900
  75.2681790  16.6718763  41.8235908  74.7970612  16.2652610  41.3470008
  76.1601852  14.7318804  36.2332046  75.3339970  14.9780541  36.1066325
  76.2213844  14.6530885  37.0994104  76.0476019  14.7563753  36.3420991
  78.8806597  19.3263067  37.0011226  78.6606892  19.0360421  37.7937893
  78.6601119  18.6678022  36.4729138  78.8154191  19.1862775  37.0400135
  77.9955817  13.0531634  35.1909293  78.7501785  13.4344673  35.4044755
  77.4026430  13.5042778  35.6455989  78.0192531  13.1760461  35.2892171
  77.6890087  11.6324594  42.7216165  77.0978020  12.2734092  42.6919180
  78.4511110  12.0562211  42.6947464  77.7138347  11.7900433  42.7131312
  74.9465949  13.3058692  43.8650081  74.4165873  12.6151131  43.9145056
  75.2191042  13.2968877  43.0362790  74.9090671  13.2025823  43.7497497
  70.2261791   9.9786456  41.2218429  70.1205240   9.9333300  40.3570513
  69.4762011  10.3240236  41.5032714  70.0997394  10.0227364  41.1355759
  78.4857521  19.6275939  41.5789319  78.8004080  20.4412328  41.5867100
  78.8950934  19.2426158  42.2471478  78.5925619  19.6904642  41.6793410
  75.8270541  13.5749048  41.2267927  76.4315398  13.5344882  40.5981748
  75.6197853  14.4220200  41.2571983  75.8859438  13.6937050  41.1384044
  71.0621823  12.5583665  41.0966850  70.9646101  11.7479937  41.4056907
  71.8450693  12.5375459  40.7113118  71.1637960  12.4350755  41.0853713
  26.6012940  30.3370874  74.3318261  26.5706944  31.1915511  74.5036530
  27.1994288  30.0366167  74.8904405  26.6850098  30.4187371  74.4393063
  14.1853764  38.9609243  74.8508423  13.4336664  38.5824782  74.6224468
  14.6339776  38.9927677  74.1027233  14.1403431  38.9094851  74.7065925
  19.6378724  39.3834613  70.2793970  19.3030093  40.0611534  69.8438192
  20.1505595  38.9939924  69.6910842  19.6644305  39.4259191  70.1280761
  19.1783015  41.3348882  76.2205082  19.5622395  41.9035780  75.6809857
  19.1142157  40.6098392  75.7410898  19.2256443  41.3124345  76.0698944
  24.4229514  32.9123177  72.6036571  24.3069040  33.6630863  73.0328709
  25.2185401  32.6547130  72.8532658  24.5234104  32.9858023  72.7040662
  15.6039260  43.8905225  78.5186051  16.2476716  44.3318389  78.9082210
  15.9295516  43.0858651  78.4316310  15.7471089  43.8370419  78.5631529
  16.3059840  36.9017200  73.8905913  16.6275681  37.4422407  73.2867221
  16.9531936  36.3313971  74.0228203  16.4485895  36.8976375  73.8212949
  18.5449483  35.2903640  73.9620091  18.9843119  34.6820740  74.4074864
  18.3954146  34.9111013  73.1905556  18.5870949  35.1442111  73.9139259
  22.1458820  33.6430821  70.9150861  22.0610115  34.4991787  71.0600429
  22.6343203  33.3675145  71.5833020  22.2047717  33.7288142  71.0352942
  23.0777253  30.2615615  72.4148596  22.5488724  30.4775249  73.0745902
  23.6002273  30.9551753  72.3349565  23.0765706  30.3958752  72.5004195
  28.5325306  35.8361919  77.7881640  27.7023009  36.0472563  77.9515057
  28.4834558  35.0098974  77.5123924  28.4032041  35.7451526  77.7719006
  14.9676861  34.1578832  71.2156064  14.3834076  34.6628863  71.6221928
  14.5646956  33.9321219  70.4752656  14.8216165  34.1987080  71.1661089
  19.4254075  30.4044484  69.6924984  19.6650079  30.6122468  68.8800327
  19.7469916  29.6001993  69.8013929  19.5091233  30.3158585  69.5885537
  25.7889621  36.5061274  77.9246356  25.3524853  36.5098016  78.6805327
  25.4552537  37.1866773  77.4925933  25.6752241  36.6073730  77.9727189
  12.6363457  28.0182371  68.7485108  11.9221634  27.7320551  69.1607541
  13.1207426  28.3578997  69.3891496  12.6022820  28.0264021  68.9040743
  28.9233967  33.2242194  76.8165993  29.5850401  32.6632862  76.7161902
  28.2825379  32.7294224  77.1418684  28.9262835  33.0678603  76.8498333
  19.8110775  36.5212325  69.1246916  20.2261924  36.1897349  68.4331412
  18.9802705  36.2881227  68.9967053  19.7498784  36.4383581  69.0037764
  25.2098798  34.2407576  76.5577982  25.4454387  34.3852775  75.7304833
  25.3588362  35.0049984  76.9509496  25.2664601  34.3746631  76.4941586
  27.0389255  33.0809242  74.3947586  27.3697472  33.6136882  73.7887681
  27.6122343  33.1348130  75.0509537  27.1722934  33.1678811  74.4025368
  22.5044165  32.7722885  68.3108118  22.4224328  32.8425072  69.1763105
  23.1423886  33.3352629  68.1191859  22.5864003  32.8661856  68.4098067
  19.6084275  32.7943339  71.3216724  20.4224914  33.0858232  71.2099496
  19.5443417  32.1403201  70.7475017  19.7187014  32.7408534  71.2205562
  16.1194999  31.4867146  70.7863926  16.5040151  31.2674853  71.5380471
  15.8706619  32.3130092  70.9165002  16.1397071  31.5765292  70.9165002
  16.4018241  39.7072022  72.8596296  16.6916540  39.3161003  72.1355523
  17.1321722  39.8888727  73.3001571  16.5525126  39.6765836  72.8179103
  14.3424157  41.6839404  75.9256446  14.1224452  41.3936759  76.7183113
  14.1218679  41.0254359  75.3974358  14.2771751  41.5439113  75.9645355
  16.5092113  43.0568794  74.7087138  17.1616171  42.5245237  74.9378164
  15.8117721  42.7037447  75.0955012  16.5022831  42.9258317  74.7999306
  24.5032031  35.3773208  74.0518117  25.0690064  36.0366418  73.9676660
  23.8559934  35.7222906  74.5234520  24.4910787  35.5255150  74.1090874
  20.9738609  38.3211993  73.4755197  20.7325285  37.5879853  73.0682262
  21.1539942  38.8698850  72.8221530  20.9646233  38.2934384  73.3185420
  25.6994729  35.4279436  70.8443754  25.3201538  34.6416574  70.8373043
  25.0360974  35.9766293  70.7015398  25.5453204  35.3924260  70.8224551
  18.5241637  38.9792955  74.6832580  19.2891528  38.7102599  74.3615244
  18.4219727  38.4942965  75.4002643  18.6223133  38.8682520  74.7412408
  21.0460298  36.0105139  66.6632530  21.8133283  36.0705264  66.2538381
  20.5991607  35.4385580  66.1788848  21.0933725  35.9341715  66.5310240
  23.9454828  37.6724927  71.1795440  24.0274665  38.4791913  70.8556891
  24.4304570  37.6920886  71.9036213  24.0291986  37.7945589  71.2382338
  19.5812921  32.2219698  74.1486854  20.1228466  31.7190079  74.6125474
  19.8959480  32.1684893  73.3376339  19.7077318  32.1399119  74.0970666
  17.7499370  37.6137050  71.4326882  17.8192191  36.7551588  71.5719882
  18.5287825  37.8308930  71.1045906  17.8752220  37.5189914  71.4044039
  22.1406858  40.0374751  75.6463375  21.7486650  39.7341466  74.9286241
  22.2959930  40.8743841  75.4568329  22.1060448  40.1158588  75.5119872
  22.3046533  36.6024740  75.5869405  21.9461187  36.7739383  76.3633438
  21.8185243  37.0637945  75.0297404  22.1805230  36.6963711  75.6194675
  17.0934898  32.2823905  68.1269640  17.3827423  33.0588788  68.4013214
  17.1806697  31.7712637  68.8284139  17.1489154  32.3215823  68.2712138
  22.9097163  39.4410244  79.0793409  22.7116852  39.9301058  78.3849621
  22.2884874  39.6451485  79.6577543  22.7884728  39.5426782  79.0616632
  21.8866517  27.6757168  72.3823327  21.3589536  27.7585912  71.6929035
  22.3462225  28.4175040  72.3787971  21.8768367  27.7977831  72.2798022
  13.8799582  25.9459688  67.4064222  13.5312386  26.5979413  67.8695771
  13.3996028  25.9316801  66.6788093  13.7569826  26.0402741  67.3675313
  21.4403599  36.2460732  71.5132984  22.1637798  36.7118845  71.3697557
  21.0004190  36.3134341  70.7630581  21.4819292  36.3244569  71.3817765
  14.2823713  29.4385329  70.2482843  14.9168793  30.0345754  70.1832305
  14.3649324  29.1388787  71.0628713  14.3880264  29.4826238  70.3585930
  21.7007449  40.3081437  71.6731045  20.9836759  40.1342299  71.2078282
  22.3514187  40.0734009  71.1406531  21.6909300  40.2477229  71.5260263
  16.9820611  41.5443195  78.1021193  16.5681010  40.8817326  77.7125034
  17.6667985  41.6921054  77.5816887  17.0218983  41.4683854  77.9677690
  20.3485905  40.7033281  78.8544809  19.9502188  40.8135551  78.0865630
  19.7337125  40.9115347  79.4371369  20.1984794  40.7506849  78.8276109
  28.0827748  35.2785247  72.2387900  28.4661354  36.0276604  72.4685997
  27.2871861  35.5251067  71.9799889  28.0221530  35.4254941  72.2345474
  16.8943039  27.9504679  69.8148279  17.2742004  27.9684308  69.0299394
  16.1535635  28.3958668  69.6939126  16.8411877  28.0186454  69.6811847
  17.6927794  34.7882185  71.2057069  16.8839116  34.4648859  71.1590378
  18.2002702  34.0815407  71.1385318  17.6477460  34.6363502  71.1887363
  37.5745523  45.8556182  74.3318261  37.5439528  46.7100819  74.5036530
  38.1726872  45.5551475  74.8904405  37.6582681  45.9372679  74.4393063
  30.7745208  44.9431833  79.0871191  29.9183104  45.1040332  79.1380308
  30.8212862  44.0723897  79.1076252  30.6544320  44.8382635  79.0977257
  25.1586348  54.4794551  74.8508423  24.4069247  54.1010090  74.6224468
  25.6072360  54.5112985  74.1027233  25.1136015  54.4280158  74.7065925
  30.6111308  54.9019921  70.2793970  30.2762676  55.5796842  69.8438192
  31.1238178  54.5125232  69.6910842  30.6376889  54.9444499  70.1280761
  30.1515599  56.8534190  76.2205082  30.5354978  57.4221088  75.6809857
  30.0874740  56.1283700  75.7410898  30.1989026  56.8309653  76.0698944
  33.6197029  47.0023877  81.7302843  34.1652989  47.6808964  81.7896813
  33.5613905  46.8611338  80.8704424  33.6912944  47.0815879  81.6114904
  26.7371104  54.4912943  77.1171195  26.8381467  53.6813297  77.4268323
  26.1412849  54.3969890  76.4870874  26.6643643  54.3577972  77.0697434
  35.3962098  48.4308484  72.6036571  35.2801624  49.1816171  73.0328709
  36.1917985  48.1732438  72.8532658  35.4966687  48.5043331  72.7040662
  26.5771844  59.4090533  78.5186051  27.2209299  59.8503697  78.9082210
  26.9028099  58.6043959  78.4316310  26.7203672  59.3555727  78.5631529
  19.9336148  50.5133230  76.7423529  19.6986333  49.6800882  76.6355798
  20.0721789  50.7937896  75.9284730  19.9191811  50.4316733  76.6065884
  22.2326236  42.6818961  79.6407837  21.6131267  42.0911608  79.4717852
  22.1310099  43.2730396  79.0072160  22.1263911  42.6823043  79.5212826
  27.2792423  52.4202507  73.8905913  27.6008264  52.9607715  73.2867221
  27.9264520  51.8499279  74.0228203  27.4218479  52.4161683  73.8212949
  29.3294131  44.4218502  73.9740300  30.0274296  44.6006630  74.4661763
  29.6446464  43.8988842  73.3510689  29.4789469  44.3712275  73.9542310
  21.9595369  46.2271242  81.8851406  21.8354066  46.8133688  82.5201225
  22.6113653  45.7331438  82.1863681  22.0369018  46.2410047  82.0237335
  29.5182067  50.8088947  73.9620091  29.9575702  50.2006048  74.4074864
  29.3686730  50.4296321  73.1905556  29.5603533  50.6627419  73.9139259
  26.9853710  49.4032959  81.1638917  27.6302712  48.9105402  80.8449865
  27.2255487  49.5457746  81.9904995  27.1164295  49.3510402  81.2388450
  29.5239801  52.2487865  80.8145809  29.8063044  51.4539271  80.5932565
  30.2525962  52.7268453  80.8350870  29.6729365  52.2022462  80.7848825
  27.5020995  39.7910899  78.0561574  27.1724325  40.2422043  77.3865273
  26.8265997  39.7127062  78.6034581  27.3531431  39.8462034  78.0384798
  33.1191403  49.1616129  70.9150861  33.0342698  50.0177095  71.0600429
  33.6075787  48.8860453  71.5833020  33.1780301  49.2473450  71.0352942
  34.7097403  35.7796422  76.3011185  34.3950844  36.4699901  76.7331607
  34.1924344  35.7241204  75.5996686  34.5861873  35.8731311  76.2608134
  34.0509837  45.7800923  72.4148596  33.5221308  45.9960556  73.0745902
  34.5734857  46.4737061  72.3349565  34.0498290  45.9144060  72.5004195
  39.5057890  51.3547227  77.7881640  38.6755593  51.5657871  77.9515057
  39.4567142  50.5284282  77.5123924  39.3764625  51.2636834  77.7719006
  25.9409444  49.6764140  71.2156064  25.3566660  50.1814171  71.6221928
  25.5379540  49.4506527  70.4752656  25.7948748  49.7172388  71.1661089
  21.4953473  55.3918901  78.0179735  21.0121051  56.1169390  77.9939319
  22.3076791  55.6895031  78.1289893  21.5444221  55.5421255  78.0307014
  27.5667627  54.1851082  80.6229550  27.0494569  53.8258497  80.0190858
  28.2642018  53.6613256  80.6335616  27.5933208  54.0548769  80.5359808
  30.3986659  45.9229792  69.6924984  30.6382663  46.1307776  68.8800327
  30.7202500  45.1187300  69.8013929  30.4823817  45.8343893  69.5885537
  25.7076949  37.8523188  73.5384522  26.4622917  38.2201505  73.3001572
  25.5304484  38.2262742  74.3063702  25.7931427  37.9621375  73.6169411
  24.3497670  55.9075077  78.1700015  25.0518250  55.3927066  78.2272772
  24.2695153  56.2349228  78.9746890  24.4421431  55.8789303  78.2972807
  39.0011848  44.0017628  81.5832062  38.1640269  44.0719815  81.8179656
  38.9700079  44.0042123  80.7106364  38.8730130  44.0127855  81.4891610
  24.0634014  40.2593506  70.2362635  23.8809587  40.4765387  69.4103628
  24.9259627  40.3732519  70.2921250  24.1638603  40.3083404  70.1217122
  23.6748446  52.0981429  77.6785623  24.5137345  52.3304362  77.7259385
  23.7060215  51.2285740  77.6092659  23.8030163  52.0038375  77.6750268
  24.3001149  52.5182304  81.9798929  24.8399374  52.3753435  82.6502301
  23.6171095  52.9179055  82.3482955  24.2793303  52.5561975  82.1333350
  29.7433733  37.2619917  73.2711659  30.4719893  37.0835872  72.8249815
  29.8328626  38.1037997  73.4818837  29.8640395  37.3603796  73.2365177
  33.7242034  48.1973305  77.1743953  34.4799549  48.6304819  77.2132862
  33.8304358  47.5478074  77.7478589  33.8512204  48.1650788  77.2641979
  36.7622205  52.0246582  77.9246356  36.3257437  52.0283324  78.6805327
  36.4285120  52.7052081  77.4925933  36.6484825  52.1259038  77.9727189
  36.6819688  39.0660410  80.1675784  37.3245596  39.1358514  80.7537699
  36.9342708  38.3989633  79.6655326  36.8141820  38.9786758  80.1803063
  23.6096041  43.5367679  68.7485108  22.8954218  43.2505859  69.1607541
  24.0940009  43.8764305  69.3891496  23.5755404  43.5449329  68.9040743
  39.8966551  48.7427502  76.8165993  40.5582985  48.1818170  76.7161902
  39.2557963  48.2479532  77.1418684  39.8995418  48.5863911  76.8498333
  30.7843359  52.0397633  69.1246916  31.1994507  51.7082657  68.4331412
  29.9535288  51.8066535  68.9967053  30.7231367  51.9568889  69.0037764
  20.1131707  49.5241374  79.4145094  19.9307281  49.4988260  78.5617387
  20.8481376  49.9940312  79.4534003  20.1945771  49.5902736  79.2943013
  36.1831382  49.7592884  76.5577982  36.4186971  49.9038083  75.7304833
  36.3320945  50.5235292  76.9509496  36.2397185  49.8931938  76.4941586
  38.0121838  48.5994550  74.3947586  38.3430055  49.1322190  73.7887681
  38.5854926  48.6533438  75.0509537  38.1455517  48.6864119  74.4025368
  33.2253727  46.4459453  75.0771166  33.3200582  47.1848747  75.5310791
  32.6012571  46.0176928  75.5105730  33.1462758  46.4920773  75.2079313
  20.0802618  46.4034875  79.5644161  20.6576120  46.2671326  80.2036406
  19.3816679  45.9470659  79.8189745  20.0623639  46.3157141  79.6966451
  33.4776749  48.2908193  68.3108118  33.3956911  48.3610380  69.1763105
  34.1156469  48.8537936  68.1191859  33.5596586  48.3847164  68.4098067
  26.8369920  48.0568930  77.7782644  26.5789164  47.2240665  77.7513944
  26.8918403  48.2826543  76.9375145  26.8069698  47.9666702  77.6502781
  31.9170970  40.1597381  77.8786737  31.2127297  39.6706567  78.0370656
  31.9655944  40.1719856  77.0075181  31.8201022  40.0887029  77.7726077
  29.4777921  44.0830042  83.1239917  29.0892353  43.6584260  82.4692109
  28.8132619  44.3312192  83.6316944  29.3224849  44.0568763  83.1027785
  39.1201190  43.8405047  75.8987747  38.8637755  43.0284988  75.7085630
  39.9630504  43.8482614  75.6717935  39.2067215  43.7217044  75.8372565
  15.5561451  45.2546768  76.2791980  15.6421703  44.8778636  77.0605510
  16.1837248  44.8807213  75.8011938  15.6618002  45.1432250  76.3237457
  33.3004282  37.7804671  80.6363902  33.6814794  37.0982842  81.0231776
  32.4967567  37.4914273  80.4539566  33.2380744  37.6371719  80.6667958
  30.5816859  48.3128647  71.3216724  31.3957498  48.6043540  71.2099496
  30.5176000  47.6588509  70.7475017  30.6919598  48.2593842  71.2205562
  26.4524767  51.7850164  76.4489036  27.0898714  51.5461912  76.9940830
  26.8779839  51.9887323  75.7142197  26.6100934  51.7801174  76.4206194
  27.0927582  47.0052454  70.7863926  27.4772735  46.7860161  71.5380471
  26.8439203  47.8315399  70.9165002  27.1129655  47.0950600  70.9165002
  28.8346239  52.2622587  78.1282823  28.9085247  52.0997759  78.9824673
  29.6515746  52.4512776  77.8843304  28.9662598  52.2659329  78.2180848
  22.5951996  52.6080450  75.1577266  21.7690114  52.8542187  75.0311545
  22.6563987  52.5292531  76.0239324  22.4826163  52.6325399  75.2666211
  24.8128020  38.6749391  76.1172706  23.9450445  38.7471990  76.1830316
  25.1003224  39.4771470  76.3060681  24.7267768  38.8043538  76.1547473
  33.9360908  38.8227250  84.4484028  34.6814500  38.6337060  84.0347454
  33.5198213  39.3485488  83.8897885  33.9845883  38.8729395  84.3048601
  27.3750825  55.2257330  72.8596296  27.6649123  54.8346311  72.1355523
  28.1054306  55.4074035  73.3001571  27.5257709  55.1951144  72.8179103
  41.3123179  46.1936479  79.3989533  41.8631101  45.5604548  79.6386625
  41.2967295  46.7251871  80.0905037  41.3908376  46.1785427  79.5368391
  27.9645570  50.0275076  83.9449427  27.4657264  50.7390844  84.0234315
  28.7745794  50.3475742  83.9067589  28.0101677  50.1801924  83.9505995
  25.3156741  57.2024712  75.9256446  25.0957036  56.9122067  76.7183113
  25.0951263  56.5439667  75.3974358  25.2504335  57.0624421  75.9645355
  24.2273688  49.2898029  78.1912147  23.9386936  48.6635500  78.7257875
  25.0957036  49.2318316  78.2576828  24.3133940  49.1885573  78.2803102
  35.0151586  44.4332812  78.5094129  34.6716351  43.7123147  78.8601379
  35.1144628  44.2246663  77.6672488  34.9793628  44.2957016  78.4365809
  27.4824696  58.5754102  74.7087138  28.1348754  58.0430545  74.9378164
  26.7850305  58.2222755  75.0955012  27.4755414  58.4443625  74.7999306
  24.4305961  50.9293280  74.1154513  25.1851929  51.3106319  74.3289975
  23.8376574  51.3804424  74.5701209  24.4542675  51.0522107  74.2137391
  35.4764615  50.8958516  74.0518117  36.0422647  51.5551726  73.9676660
  34.8292518  51.2408214  74.5234520  35.4643371  51.0440458  74.1090874
  25.7504188  52.1001841  79.4894628  25.2284941  52.2402133  80.1746493
  26.1378208  51.3412506  79.6796745  25.7307889  52.0087365  79.6195704
  22.7395372  42.1507650  73.5589583  22.4520167  41.7808920  72.8221530
  23.4265840  42.6202505  73.2973288  22.7984269  42.1654619  73.4104658
  31.9471193  53.8397301  73.4755197  31.7057869  53.1065161  73.0682262
  32.1272526  54.3884158  72.8221530  31.9378817  53.8119692  73.3185420
  27.1770513  49.1305860  74.8876119  26.9813296  49.7380595  74.2936422
  27.4004859  48.4373804  74.4067793  27.1805154  49.1183386  74.7292200
  25.5749043  46.0160598  75.0056987  26.2971695  46.1801756  74.5460793
  25.0957036  46.7370263  74.8996327  25.6112774  46.1458828  74.9222601
  33.5342551  42.3524397  80.3853672  32.6953652  42.3785676  80.1491936
  33.6046918  42.9995132  80.9659019  33.4210944  42.4520523  80.4362789
  31.9811829  39.2509774  75.1181288  32.6838182  39.0517522  74.6401246
  31.7156018  38.4785716  75.4250132  32.0458461  39.1072740  75.0926730
  37.4100075  47.5592384  77.6714914  37.3234049  47.7147810  78.5249693
  36.9550555  48.2030459  77.2974319  37.3303331  47.6768139  77.7422021
  20.3123566  42.9288862  74.4074864  20.4139703  43.7315024  74.7355839
  21.1079453  42.7276198  74.1097944  20.4451472  43.0174761  74.4110219
  31.2825891  44.8803131  76.2940474  31.0360605  44.7998882  77.1277262
  31.6111014  44.0956599  76.1003001  31.2947134  44.7529396  76.3887997
  35.1773940  51.5886490  80.0827255  35.0388299  52.2867536  80.5875997
  34.3973938  51.4335147  79.7263437  35.0417166  51.6686657  80.1053529
  27.2422918  47.6159849  85.7063457  27.3866294  48.1961058  85.0706567
  27.5898567  47.9936146  86.4113311  27.3150379  47.7580554  85.7162452
  29.4142835  46.8150018  83.4888588  28.6666149  47.0081032  83.0836866
  29.5684361  45.9895237  83.2512709  29.3265263  46.7215129  83.3933994
  36.6727312  50.9464744  70.8443754  36.2934121  50.1601882  70.8373043
  36.0093558  51.4951601  70.7015398  36.5185787  50.9109568  70.8224551
  34.1271938  33.8890444  78.2477835  34.2455507  34.3466907  77.5145138
  33.9534114  33.0835705  77.9614052  34.1191109  33.8384216  78.0978769
  29.4974221  54.4978263  74.6832580  30.2624112  54.2287907  74.3615244
  29.3952311  54.0128273  75.4002643  29.5955716  54.3867828  74.7412408
  27.5326990  42.7002673  81.2225816  26.7423065  42.5194133  81.5443152
  27.9287613  41.9229625  81.2056110  27.4743867  42.5590133  81.2678364
  32.0192881  51.5290447  66.6632530  32.7865866  51.5890572  66.2538381
  31.5724190  50.9570888  66.1788848  32.0666308  51.4527023  66.5310240
  32.9170677  50.3345103  78.9485262  32.2415678  50.1030335  79.4498649
  32.9263053  49.7266286  78.3227367  32.8189181  50.2104028  78.9301414
  30.0464821  45.1762932  85.7049315  29.9823962  46.0372888  85.5769452
  30.1862008  44.8594925  84.9044866  30.0580291  45.2563098  85.5677528
  34.9187411  53.1910235  71.1795440  35.0007249  53.9977221  70.8556891
  35.4037153  53.2106194  71.9036213  35.0024569  53.3130897  71.2382338
  28.7283915  47.8695071  79.8465518  28.3046164  48.0699570  79.1104536
  28.5528770  47.0223919  79.9589818  28.6394795  47.7743852  79.7539208
  24.0166360  48.3647122  75.2793490  24.1730979  48.2993925  76.1349482
  24.3566953  49.1395675  75.0672170  24.0899594  48.4696321  75.3748084
  30.5545504  47.7405006  74.1486854  31.0961050  47.2375387  74.6125474
  30.8692063  47.6870201  73.3376339  30.6809901  47.6584427  74.0970666
  28.7231954  53.1322358  71.4326882  28.7924774  52.2736896  71.5719882
  29.5020409  53.3494238  71.1045906  28.8484804  53.0375221  71.4044039
  31.7034774  42.6341310  84.2009154  31.9176743  41.9952225  83.6472508
  31.0868673  43.0787134  83.7717016  31.6440103  42.6051454  84.0559585
  33.1139441  55.5560059  75.6463375  32.7219233  55.2526774  74.9286241
  33.2692514  56.3929149  75.4568329  33.0793031  55.6343896  75.5119872
  20.5900621  45.5482073  75.5954257  20.9699586  45.9666618  74.9314525
  20.0155986  46.1295529  75.9023101  20.5611946  45.6959932  75.5430998
  33.8673862  44.2430376  85.1392461  33.0550543  43.9356266  85.2205634
  34.3263796  43.7629376  85.7035173  33.8154246  44.1266868  85.2347055
  33.2779116  52.1210048  75.5869405  32.9193771  52.2924691  76.3633438
  32.7917827  52.5823253  75.0297404  33.1537813  52.2149019  75.6194675
  31.0949502  35.7441246  79.1896497  30.2243060  35.7179967  79.1429806
  31.3489843  35.5718438  78.3722342  31.0043062  35.7151390  79.0616634
  28.1198643  37.7547475  80.6469967  27.6037131  37.0627666  80.7721546
  27.5592572  38.4218252  80.5932566  27.9605156  37.7510732  80.6576033
  36.1640856  44.8603090  81.1002522  35.7368464  44.7729438  80.3450621
  35.5266909  44.9680865  81.6857366  36.0070463  44.8635749  81.0747963
  24.2331423  47.1142478  80.2269752  23.3919429  47.0146352  80.4348646
  24.4421431  47.8837958  80.5784073  24.1396115  47.2134521  80.3097067
  21.7106990  44.7362015  78.0554503  21.3163687  44.8105026  77.2804612
  21.1547106  45.1219961  78.6062864  21.5709802  44.8043789  78.0222162
  33.3471936  37.7143309  77.7358381  33.5521530  37.6465616  78.5815379
  33.0198360  38.5202130  77.6679559  33.3287184  37.8229249  77.8518037
  28.0448087  45.0423877  79.4767349  27.7411225  44.4879865  80.0777757
  27.3427508  45.2216087  78.9895384  27.8964297  44.9868659  79.4937055
  27.1014185  42.3524397  74.0412051  27.3773919  41.6343309  73.6289619
  27.7012854  42.9509317  73.8333157  27.2307449  42.3344767  73.9492812
  36.6005624  38.2675073  77.2161147  35.9879938  38.7545475  77.6014879
  36.6969799  37.5918564  77.7598798  36.5243522  38.2393382  77.3540005
  30.6024705  40.0237914  72.3158646  31.0568452  40.1948474  73.0406491
  31.0764751  39.4106025  71.9156422  30.7393025  39.9588799  72.3632408
  24.1240230  49.5086240  81.6461385  23.5328164  50.1495738  81.6164400
  24.8861254  49.9323857  81.6192684  24.1488491  49.6662078  81.6376532
  33.8829747  54.9595552  79.0793409  33.6849435  55.4486366  78.3849621
  33.2617458  55.1636793  79.6577543  33.7617311  55.0612090  79.0616632
  27.9437725  46.7280448  73.4203653  28.6879770  47.1154725  73.6586603
  28.0898421  45.8837874  73.5844141  28.0748310  46.6610921  73.4797623
  29.8617300  38.5230707  78.4535515  29.0153346  38.6953515  78.3276865
  29.8588433  37.7180051  78.7901343  29.7364450  38.4291736  78.4846642
  30.9315601  42.3005922  79.3197573  30.4575555  41.7747684  79.8302884
  31.3033737  41.7535394  78.7512434  30.9165490  42.1421918  79.3112720
  37.1952331  47.3608297  80.7304353  36.9550554  46.5214712  80.7346780
  37.6744339  47.4408464  81.4545127  37.2304515  47.2489697  80.8379156
  32.8599101  43.1942476  72.3823327  32.3322119  43.2771220  71.6929035
  33.3194809  43.9360348  72.3787971  32.8500951  43.3163139  72.2798022
  39.1957518  44.1409755  78.6833612  38.9567288  44.1005589  77.8454397
  39.3591420  44.9880907  78.8099334  39.1847822  44.2601840  78.5787094
  24.6690417  43.1219877  81.3491537  24.0443487  43.1338269  80.7417489
  24.3336012  43.5980052  81.9982777  24.5275909  43.1938394  81.3548105
  24.8532166  41.4644996  67.4064222  24.5044970  42.1164721  67.8695771
  24.3728612  41.4502109  66.6788093  24.7302410  41.5588049  67.3675313
  32.4136183  51.7646040  71.5132984  33.1370382  52.2304153  71.3697557
  31.9736774  51.8319649  70.7630581  32.4551875  51.8429876  71.3817765
  31.5822338  48.6243582  82.7633673  30.9679331  48.0801632  83.0582308
  32.0989623  48.1107819  82.2839489  31.5678001  48.4679991  82.7357901
  30.8218635  49.6947852  80.4977971  30.3946243  49.0697571  80.0643407
  30.8143580  49.4122774  81.3236979  30.7577776  49.5600633  80.5557799
  29.1504345  40.5716607  80.7120505  29.1746832  40.0376719  80.0233285
  29.4015819  40.0633915  81.3746096  29.1914264  40.4177511  80.7085150
  25.4305667  39.2987425  80.0926250  25.4704039  39.7996631  80.8060957
  24.6055332  39.3897819  79.8232173  25.3145193  39.3869241  80.1576788
  26.8520031  45.8147935  82.3900149  26.0211960  45.9821753  82.1835397
  26.7971548  45.4383885  83.1749034  26.7209445  45.7837666  82.4748677
  25.2256074  44.0903526  72.9190266  25.3659035  44.5875990  73.6218908
  25.7238607  43.3889821  73.0604480  25.3197155  44.0605505  73.0441845
  25.2556297  44.9570637  70.2482843  25.8901376  45.5531062  70.1832305
  25.3381908  44.6574095  71.0628713  25.3612848  45.0011545  70.3585930
  26.8335280  40.8884613  70.2228285  27.1551121  40.4087695  69.5687547
  27.0962223  41.6984259  70.0319097  26.9201305  40.9374511  70.0983777
  30.0632252  51.9103487  83.7427101  29.5557344  52.4639334  84.1867732
  29.7658899  51.9711777  82.9245876  29.9437137  52.0009798  83.6875558
  32.2294435  40.2756807  82.5851764  32.6549506  39.8229333  81.9735291
  31.6151428  39.7216877  82.8616552  32.2023080  40.1270783  82.5356789
  21.7609285  47.1538478  73.5172389  22.2701514  47.7502986  73.8983695
  22.2343557  46.8864452  72.8348809  21.9052660  47.2024293  73.4726912
  32.6740033  55.8266745  71.6731045  31.9569342  55.6527607  71.2078282
  33.3246770  55.5919317  71.1406531  32.6641883  55.7662537  71.5260263
  30.6688657  36.7471906  75.9942341  30.0256975  36.5969553  76.5627480
  30.3288064  36.5014252  75.2291446  30.5233735  36.6884029  75.9645356
  35.2588004  44.7031333  75.4172350  34.5879194  45.2461036  75.2885415
  35.9527754  45.1726189  75.1754045  35.2616871  44.8529604  75.3627878
  29.3074738  56.8428045  80.6484108  29.0840392  56.0846875  81.0168134
  28.8184581  56.8726066  79.9264548  29.2018187  56.7350270  80.5960849
  35.4216131  41.1587217  78.3262723  35.7743741  40.7316940  79.0008522
  34.5630933  41.0738060  78.4563799  35.3465576  41.0831958  78.4457734
  24.1199816  43.7894737  76.3845570  23.4011806  44.2058869  76.6518433
  24.4912179  44.3548975  75.8337208  24.0691748  43.9344018  76.3428377
  33.4199397  44.4222585  82.2747565  33.3997325  44.2405881  83.1282344
  33.4678598  45.2934604  82.2507149  33.4234038  44.5239124  82.3970860
  27.9553195  57.0628503  78.1021193  27.5413593  56.4002634  77.7125034
  28.6400569  57.2106362  77.5816887  27.9951566  56.9869162  77.9677690
  31.3218489  56.2218589  78.8544809  30.9234772  56.3320859  78.0865630
  30.7069708  56.4300655  79.4371369  31.1717378  56.2692157  78.8276109
  29.8946391  42.8292736  71.7218949  29.3011230  43.1509733  71.1703516
  29.9321668  41.9833832  71.5140055  29.8120780  42.7517065  71.6101720
  36.8540192  36.2805629  79.2547036  36.3471056  35.5734768  79.1868213
  37.6507625  35.9498818  79.3848112  36.8967431  36.1278780  79.2646031
  32.7704207  42.7872241  75.1520699  32.5417900  42.8104942  74.3099057
  33.0302284  41.9629708  75.2715710  32.7750395  42.6688321  75.0445897
  25.8248970  41.3248787  76.4474895  26.3006336  41.6865867  75.8125076
  25.3237569  41.9805255  76.7275038  25.8214329  41.4742976  76.3951636
  39.0560331  50.7970555  72.2387900  39.4393937  51.5461911  72.4685997
  38.2604445  51.0436375  71.9799889  38.9954114  50.9440249  72.2345474
  27.8675623  43.4689987  69.8148279  28.2474588  43.4869616  69.0299394
  27.1268219  43.9143976  69.6939126  27.8144461  43.5371762  69.6811847
  35.4960914  41.7772178  75.4023858  35.4955140  41.6220835  76.2608134
  35.2917094  42.6235165  75.3465243  35.4660691  41.8792799  75.5211797
  17.5578184  45.2011963  79.8182674  17.3799946  44.7488572  80.5437590
  17.2697207  46.0038124  80.0021152  17.4891138  45.2534521  79.9526177
  33.2201766  46.4569680  79.0560064  33.7155431  45.7392675  79.0164085
  32.4101541  46.1540478  78.9414551  33.1745659  46.3067326  79.0333790
  28.6660377  50.3067493  71.2057069  27.8571700  49.9834167  71.1590378
  29.1735286  49.6000715  71.1385318  28.6210044  50.1548810  71.1887363
  19.2950654  47.7339686  76.9304433  18.4296174  47.7225377  76.8187204
  19.3949470  47.5469909  77.7775572  19.1824821  47.7045748  77.0393378
  35.2853584  49.2073368  81.7437193  35.7108656  48.6847789  81.1907618
  34.9210504  49.8054205  81.2225816  35.2940187  49.2183595  81.5846203
  24.9207664  57.5037585  80.5034539  25.2354223  58.3173973  80.5112320
  25.3301078  57.1187804  81.1716698  25.0275762  57.5666287  80.6038630
  31.8732184  52.9207632  78.0738351  32.3443362  53.6347894  78.2428336
  32.2092362  52.3206382  78.6098220  31.9927299  52.9379096  78.1770727
  35.3199995  40.7810920  82.2217236  34.7362983  41.2820127  81.8094803
  35.6404289  40.2740477  81.5881559  35.2813170  40.7802755  82.0675743
  27.8594794  39.6951515  72.4975910  28.6810488  39.8649828  72.2557605
  27.3964445  39.8498776  71.7742208  27.9125956  39.7433248  72.3547555
  22.2620684  51.4510693  80.1513147  22.8665542  51.4106528  79.5226968
  22.0547997  52.2981846  80.1817203  22.3209582  51.5698696  80.0629264
  32.0764457  53.7176639  81.3675385  32.8962830  53.5739605  81.6291680
  31.7958534  54.3422838  81.9091822  32.1561200  53.7886991  81.4863324
  40.3026715  59.9403810  73.9740300  41.0006880  60.1191938  74.4661763
  40.6179048  59.4174150  73.3510689  40.4522052  59.8897582  73.9542310
  38.4753579  55.3096207  78.0561574  38.1456909  55.7607351  77.3865273
  37.7998580  55.2312370  78.6034581  38.3264015  55.3647342  78.0384798
  45.6829986  51.2981730  76.3011185  45.3683427  51.9885209  76.7331607
  45.1656928  51.2426512  75.5996686  45.5594457  51.3916618  76.2608134
  36.9142028  65.1949448  71.2156064  36.3299243  65.6999479  71.6221928
  36.5112123  64.9691835  70.4752656  36.7681332  65.2357696  71.1661089
  41.3719242  61.4415100  69.6924984  41.6115246  61.6493083  68.8800327
  41.6935083  60.6372608  69.8013929  41.4556400  61.3529201  69.5885537
  36.6809533  53.3708495  73.5384522  37.4355501  53.7386813  73.3001572
  36.5037067  53.7448050  74.3063702  36.7664011  53.4806683  73.6169411
  35.0366597  55.7778814  70.2362635  34.8542171  55.9950695  69.4103628
  35.8992210  55.8917827  70.2921250  35.1371187  55.8268712  70.1217122
  40.7166316  52.7805225  73.2711659  41.4452477  52.6021180  72.8249815
  40.8061209  53.6223305  73.4818837  40.8372979  52.8789104  73.2365177
  34.5828624  59.0552987  68.7485108  33.8686801  58.7691167  69.1607541
  35.0672593  59.3949613  69.3891496  34.5487988  59.0634637  68.9040743
  41.7575942  67.5582941  69.1246916  42.1727091  67.2267965  68.4331412
  40.9267872  67.3251843  68.9967053  41.6963951  67.4754197  69.0037764
  44.4509332  63.8093500  68.3108118  44.3689495  63.8795688  69.1763105
  45.0889053  64.3723244  68.1191859  44.5329170  63.9032472  68.4098067
  26.5294035  60.7732076  76.2791980  26.6154286  60.3963944  77.0605510
  27.1569832  60.3992521  75.8011938  26.6350586  60.6617558  76.3237457
  41.5549443  63.8313955  71.3216724  42.3690081  64.1228848  71.2099496
  41.4908584  63.1773817  70.7475017  41.6652182  63.7779149  71.2205562
  38.0660166  62.5237762  70.7863926  38.4505319  62.3045469  71.5380471
  37.8171786  63.3500707  70.9165002  38.0862238  62.6135908  70.9165002
  35.7860603  54.1934699  76.1172706  34.9183029  54.2657298  76.1830316
  36.0735808  54.9956778  76.3060681  35.7000351  54.3228846  76.1547473
  33.7127955  57.6692958  73.5589583  33.4252751  57.2994228  72.8221530
  34.3998424  58.1387813  73.2973288  33.7716853  57.6839927  73.4104658
  36.5481627  61.5345906  75.0056987  37.2704279  61.6987064  74.5460793
  36.0689620  62.2555571  74.8996327  36.5845358  61.6644136  74.9222601
  42.9544413  54.7695082  75.1181288  43.6570766  54.5702830  74.6401246
  42.6888601  53.9971024  75.4250132  43.0191045  54.6258048  75.0926730
  31.2856150  58.4474170  74.4074864  31.3872286  59.2500332  74.7355839
  32.0812037  58.2461506  74.1097944  31.4184056  58.5360069  74.4110219
  45.1004522  49.4075752  78.2477835  45.2188090  49.8652215  77.5145138
  44.9266698  48.6021013  77.9614052  45.0923693  49.3569524  78.0978769
  42.9925465  67.0475755  66.6632530  43.7598450  67.1075880  66.2538381
  42.5456774  66.4756196  66.1788848  43.0398892  66.9712330  66.5310240
  31.5633205  61.0667381  75.5954257  31.9432169  61.4851926  74.9314525
  30.9888569  61.6480836  75.9023101  31.5344529  61.2145240  75.5430998
  42.0682086  51.2626554  79.1896497  41.1975644  51.2365275  79.1429806
  42.3222427  51.0903746  78.3722342  41.9775646  51.2336698  79.0616634
  39.0400065  63.3194521  68.1269640  39.3292590  64.0959403  68.4013214
  39.1271864  62.8083252  68.8284139  39.0954321  63.3586439  68.2712138
  38.0746768  57.8709705  74.0412051  38.3506502  57.1528617  73.6289619
  38.6745437  58.4694624  73.8333157  38.2040033  57.8530075  73.9492812
  41.5757289  55.5423222  72.3158646  42.0301035  55.7133782  73.0406491
  42.0497334  54.9291333  71.9156422  41.7125609  55.4774107  72.3632408
  38.9170309  62.2465756  73.4203653  39.6612354  62.6340033  73.6586603
  39.0631005  61.4023182  73.5844141  39.0480894  62.1796229  73.4797623
  40.8349884  54.0416015  78.4535515  39.9885929  54.2138823  78.3276865
  40.8321017  53.2365359  78.7901343  40.7097034  53.9477044  78.4846642
  43.8331684  58.7127784  72.3823327  43.3054703  58.7956528  71.6929035
  44.2927392  59.4545656  72.3787971  43.8233535  58.8348447  72.2798022
  35.8264749  56.9830304  67.4064222  35.4777554  57.6350029  67.8695771
  35.3461195  56.9687417  66.6788093  35.7034993  57.0773357  67.3675313
  36.1988658  59.6088834  72.9190266  36.3391619  60.1061298  73.6218908
  36.6971191  58.9075129  73.0604480  36.2929739  59.5790813  73.0441845
  36.2288880  60.4755945  70.2482843  36.8633960  61.0716370  70.1832305
  36.3114491  60.1759403  71.0628713  36.3345431  60.5196853  70.3585930
  37.8067863  56.4069921  70.2228285  38.1283704  55.9273003  69.5687547
  38.0694807  57.2169567  70.0319097  37.8933889  56.4559819  70.0983777
  32.7341868  62.6723786  73.5172389  33.2434098  63.2688293  73.8983695
  33.2076141  62.4049760  72.8348809  32.8785244  62.7209601  73.4726912
  41.6421241  52.2657214  75.9942341  40.9989559  52.1154861  76.5627480
  41.3020648  52.0199560  75.2291446  41.4966318  52.2069337  75.9645356
  35.0932400  59.3080045  76.3845570  34.3744389  59.7244177  76.6518433
  35.4644762  59.8734283  75.8337208  35.0424332  59.4529326  76.3428377
  40.8678974  58.3478044  71.7218949  40.2743814  58.6695041  71.1703516
  40.9054252  57.5019140  71.5140055  40.7853363  58.2702373  71.6101720
  36.7981553  56.8434095  76.4474895  37.2738920  57.2051175  75.8125076
  36.2970153  57.4990563  76.7275038  36.7946912  56.9928284  76.3951636
  38.8408207  58.9875295  69.8148279  39.2207171  59.0054924  69.0299394
  38.1000803  59.4329284  69.6939126  38.7877044  59.0557070  69.6811847
  39.6392961  65.8252801  71.2057069  38.8304283  65.5019475  71.1590378
  40.1467870  65.1186023  71.1385318  39.5942627  65.6734118  71.1887363
  30.2683238  63.2524994  76.9304433  29.4028757  63.2410685  76.8187204
  30.3682054  63.0655217  77.7775572  30.1557405  63.2231056  77.0393378
  38.8327377  55.2136823  72.4975910  39.6543072  55.3835136  72.2557605
  38.3697028  55.3684084  71.7742208  38.8858540  55.2618556  72.3547555
  26.2963764   7.2749006  61.2658308  26.2657768   8.1293642  61.4376577
  26.8945112   6.9744298  61.8244451  26.3800922   7.3565502  61.3733110
  13.8804588  15.8987375  61.7848470  13.1287488  15.5202913  61.5564515
  14.3290600  15.9305808  61.0367280  13.8354255  15.8472982  61.6405972
  19.3329548  16.3212744  57.2134017  18.9980917  16.9989666  56.7778239
  19.8456419  15.9318055  56.6250888  19.3595129  16.3637322  57.0620808
  18.8733839  18.2727013  63.1545128  19.2573219  18.8413911  62.6149904
  18.8092981  17.5476523  62.6750944  18.9207267  18.2502476  63.0038991
  24.1180338   9.8501308  59.5376618  24.0019864  10.6008994  59.9668756
  24.9136225   9.5925261  59.7872705  24.2184928   9.9236155  59.6380709
  15.2990084  20.8283356  65.4526098  15.9427539  21.2696520  65.8422257
  15.6246340  20.0236782  65.3656357  15.4421913  20.7748551  65.4971576
  16.0010664  13.8395331  60.8245960  16.3226505  14.3800538  60.2207268
  16.6482760  13.2692102  60.9568250  16.1436719  13.8354506  60.7552995
  18.2400307  12.2281771  60.8960138  18.6793943  11.6198871  61.3414911
  18.0904970  11.8489144  60.1245603  18.2821773  12.0820242  60.8479306
  21.8409644  10.5808952  57.8490907  21.7560939  11.4369919  57.9940476
  22.3294027  10.3053276  58.5173067  21.8998541  10.6666273  57.9692989
  22.7728077   7.1993746  59.3488643  22.2439548   7.4153380  60.0085949
  23.2953097   7.8929885  59.2689612  22.7716530   7.3336883  59.4344242
  28.2276130  12.7740051  64.7221687  27.3973833  12.9850694  64.8855104
  28.1785382  11.9477105  64.4463971  28.0982865  12.6829657  64.7059052
  14.6627685  11.0956963  58.1496110  14.0784900  11.6006994  58.5561974
  14.2597780  10.8699350  57.4092702  14.5166989  11.1365211  58.1001136
  19.1204899   7.3422615  56.6265031  19.3600903   7.5500599  55.8140374
  19.4420740   6.5380124  56.7353976  19.2042057   7.2536716  56.5225584
  25.4840445  13.4439405  64.8586403  25.0475677  13.4476147  65.6145374
  25.1503361  14.1244904  64.4265980  25.3703065  13.5451861  64.9067235
  28.6184791  10.1620325  63.7506040  29.2801225   9.6010993  63.6501948
  27.9776203   9.6672356  64.0758731  28.6213659  10.0056734  63.7838380
  19.5061599  13.4590456  56.0586963  19.9212748  13.1275480  55.3671459
  18.6753529  13.2259359  55.9307100  19.4449608  13.3761712  55.9377811
  24.9049622  11.1785707  63.4918029  25.1405211  11.3230906  62.6644879
  25.0539186  11.9428115  63.8849542  24.9615425  11.3124762  63.4281633
  26.7340079  10.0187373  61.3287633  27.0648296  10.5515013  60.7227727
  27.3073167  10.0726261  61.9849584  26.8673758  10.1056942  61.3365414
  22.1994989   9.7101016  55.2448165  22.1175152   9.7803203  56.1103152
  22.8374710  10.2730760  55.0531905  22.2814827   9.8039987  55.3438114
  19.3035099   9.7321470  58.2556771  20.1175738  10.0236363  58.1439543
  19.2394241   9.0781332  57.6815064  19.4137838   9.6786665  58.1545608
  15.8145823   8.4245277  57.7203973  16.1990975   8.2052984  58.4720518
  15.5657443   9.2508223  57.8505049  15.8347895   8.5143424  57.8505049
  16.0969065  16.6450153  59.7936343  16.3867364  16.2539135  59.0695570
  16.8272546  16.8266858  60.2341618  16.2475949  16.6143967  59.7519150
  14.0374981  18.6217536  62.8596493  13.8175276  18.3314890  63.6523160
  13.8169503  17.9632491  62.3314405  13.9722575  18.4817244  62.8985401
  16.2042937  19.9946926  61.6427185  16.8566995  19.4623368  61.8718211
  15.5068545  19.6415578  62.0295059  16.1973655  19.8636449  61.7339353
  24.1982855  12.3151340  60.9858164  24.7640888  12.9744549  60.9016707
  23.5510758  12.6601038  61.4574566  24.1861611  12.4633281  61.0430921
  20.6689433  15.2590124  60.4095243  20.4276109  14.5257984  60.0022308
  20.8490766  15.8076981  59.7561577  20.6597057  15.2312515  60.2525466
  25.3945553  12.3657567  57.7783801  25.0152362  11.5794705  57.7713090
  24.7311798  12.9144424  57.6355445  25.2404028  12.3302391  57.7564598
  18.2192461  15.9171086  61.6172627  18.9842352  15.6480730  61.2955291
  18.1170551  15.4321097  62.3342690  18.3173956  15.8060651  61.6752455
  20.7411122  12.9483270  53.5972576  21.5084107  13.0083395  53.1878428
  20.2942430  12.3763711  53.1128895  20.7884549  12.8719846  53.4650287
  23.6405652  14.6103058  58.1135487  23.7225489  15.4170044  57.7896938
  24.1255394  14.6299018  58.8376260  23.7242809  14.7323721  58.1722385
  17.4450194  14.5515181  58.3666928  17.5143015  13.6929719  58.5059929
  18.2238649  14.7687062  58.0385953  17.5703044  14.4568045  58.3384086
  21.8357682  16.9752882  62.5803422  21.4437474  16.6719597  61.8626288
  21.9910754  17.8121972  62.3908375  21.8011272  17.0536719  62.4459919
  21.9997357  13.5402871  62.5209452  21.6412011  13.7117514  63.2973485
  21.5136067  14.0016077  61.9637451  21.8756053  13.6341842  62.5534721
  16.7885722   9.2202036  55.0609687  17.0778247   9.9966919  55.3353261
  16.8757521   8.7090768  55.7624186  16.8439978   9.2593955  55.2052184
  22.6047987  16.3788375  66.0133456  22.4067676  16.8679189  65.3189667
  21.9835698  16.5829616  66.5917589  22.4835551  16.4804913  65.9956679
  21.5817341   4.6135299  59.3163373  21.0540360   4.6964043  58.6269082
  22.0413049   5.3553171  59.3128018  21.5719191   4.7355962  59.2138069
  21.1354423  13.1838863  58.4473030  21.8588622  13.6496976  58.3037604
  20.6955014  13.2512473  57.6970628  21.1770116  13.2622700  58.3157812
  21.3958273  17.2459568  58.6071092  20.6787583  17.0720430  58.1418329
  22.0465011  17.0112140  58.0746578  21.3860124  17.1855360  58.4600309
  16.6771435  18.4821327  65.0361240  16.2631834  17.8195457  64.6465081
  17.3618809  18.6299185  64.5156934  16.7169807  18.4061985  64.9017737
  20.0436729  17.6411412  65.7884856  19.6453012  17.7513682  65.0205676
  19.4287949  17.8493478  66.3711416  19.8935618  17.6884980  65.7616156
  27.7778572  12.2163379  59.1727947  28.1612178  12.9654735  59.4026044
  26.9822685  12.4629198  58.9139936  27.7172354  12.3633072  59.1685520
  16.5893863   4.8882810  56.7488326  16.9692828   4.9062439  55.9639441
  15.8486459   5.3336799  56.6279173  16.5362701   4.9564585  56.6151894
  17.3878617  11.7260317  58.1397116  16.5789940  11.4026990  58.0930425
  17.8953526  11.0193539  58.0725364  17.3428284  11.5741633  58.1227410
  37.2696347  22.7934314  61.2658308  37.2390352  23.6478950  61.4376577
  37.8677696  22.4929606  61.8244451  37.3533505  22.8750810  61.3733110
  30.4696032  21.8809965  66.0211238  29.6133928  22.0418463  66.0720355
  30.5163686  21.0102029  66.0416299  30.3495144  21.7760767  66.0317304
  24.8537172  31.4172683  61.7848470  24.1020071  31.0388221  61.5564515
  25.3023183  31.4491116  61.0367280  24.8086839  31.3658290  61.6405972
  33.7789749  28.1496490  75.6271694  34.4856516  27.6548521  75.7558629
  33.9677684  28.5905572  74.8974352  33.9117654  28.1414841  75.5380740
  30.3062132  31.8398052  57.2134017  29.9713500  32.5174974  56.7778239
  30.8189002  31.4503363  56.6250888  30.3327713  31.8822630  57.0620808
  29.8466423  33.7912321  63.1545128  30.2305802  34.3599219  62.6149904
  29.7825564  33.0661831  62.6750944  29.8939850  33.7687784  63.0038991
  33.3147853  23.9402009  68.6642890  33.8603813  24.6187095  68.7236859
  33.2564729  23.7989469  67.8044471  33.3863767  24.0194010  68.5454950
  26.4321928  31.4291075  64.0511242  26.5332291  30.6191429  64.3608370
  25.8363673  31.3348021  63.4210921  26.3594467  31.2956103  64.0037481
  35.0912922  25.3686616  59.5376618  34.9752448  26.1194302  59.9668756
  35.8868808  25.1110569  59.7872705  35.1917511  25.4421463  59.6380709
  26.2722668  36.3468664  65.4526098  26.9160123  36.7881828  65.8422257
  26.5978923  35.5422090  65.3656357  26.4154496  36.2933859  65.4971576
  19.6286972  27.4511361  63.6763576  19.3937157  26.6179014  63.5695845
  19.7672613  27.7316027  62.8624777  19.6142635  27.3694865  63.5405931
  21.9277060  19.6197092  66.5747884  21.3082091  19.0289739  66.4057898
  21.8260923  20.2108527  65.9412207  21.8214735  19.6201174  66.4552873
  26.9743247  29.3580639  60.8245960  27.2959088  29.8985846  60.2207268
  27.6215344  28.7877410  60.9568250  27.1169302  29.3539814  60.7552995
  29.0244955  21.3596634  60.9080347  29.7225120  21.5384761  61.4001810
  29.3397288  20.8366973  60.2850736  29.1740293  21.3090406  60.8882357
  21.6546193  23.1649374  68.8191453  21.5304890  23.7511819  69.4541271
  22.3064477  22.6709569  69.1203728  21.7319842  23.1788178  68.9577382
  29.2132891  27.7467079  60.8960138  29.6526526  27.1384179  61.3414911
  29.0637554  27.3674452  60.1245603  29.2554356  27.6005550  60.8479306
  26.6804534  26.3411090  68.0978964  27.3253536  25.8483534  67.7789912
  26.9206311  26.4835877  68.9245042  26.8115119  26.2888533  68.1728497
  29.2190625  29.1865996  67.7485856  29.5013868  28.3917402  67.5272612
  29.9476786  29.6646584  67.7690917  29.3680189  29.1400593  67.7188871
  27.1971819  16.7289030  64.9901621  26.8675149  17.1800174  64.3205320
  26.5216821  16.6505194  65.5374628  27.0482255  16.7840165  64.9724845
  32.8142227  26.0994260  57.8490907  32.7293522  26.9555227  57.9940476
  33.3026611  25.8238584  58.5173067  32.8731125  26.1851581  57.9692989
  34.4048227  12.7174553  63.2351232  34.0901668  13.4078032  63.6671654
  33.8875168  12.6619335  62.5336733  34.2812697  12.8109442  63.1948181
  33.7460661  22.7179054  59.3488643  33.2172132  22.9338688  60.0085949
  34.2685680  23.4115193  59.2689612  33.7449114  22.8522191  59.4344242
  39.2008713  28.2925359  64.7221687  38.3706417  28.5036002  64.8855104
  39.1517966  27.4662413  64.4463971  39.0715449  28.2014965  64.7059052
  25.6360268  26.6142271  58.1496110  25.0517484  27.1192302  58.5561974
  25.2330364  26.3884658  57.4092702  25.4899572  26.6550519  58.1001136
  21.1904297  32.3297032  64.9519782  20.7071875  33.0547522  64.9279366
  22.0027615  32.6273162  65.0629940  21.2395045  32.4799386  64.9647061
  27.2618451  31.1229213  67.5569596  26.7445393  30.7636628  66.9530905
  27.9592842  30.5991387  67.5675663  27.2884032  30.9926901  67.4699855
  30.9182043  31.5724027  73.5185770  31.0065389  31.3850167  74.3663980
  31.3471756  30.9261456  73.1190616  30.9944145  31.4487034  73.5857521
  28.4852503  30.8555187  72.5003432  27.9223338  30.4427797  73.0243093
  29.2473526  30.7808092  72.9196575  28.5146951  30.7832587  72.6396432
  30.0937483  22.8607923  56.6265031  30.3333486  23.0685907  55.8140374
  30.4153324  22.0565432  56.7353976  30.1774641  22.7722024  56.5225584
  25.4027773  14.7901319  60.4724569  26.1573741  15.1579636  60.2341619
  25.2255308  15.1640873  61.2403749  25.4882251  14.8999507  60.5509458
  24.0448494  32.8453208  65.1040062  24.7469074  32.3305197  65.1612818
  23.9645977  33.1727359  65.9086937  24.1372255  32.8167434  65.2312854
  38.6962672  20.9395759  68.5172108  37.8591093  21.0097946  68.7519703
  38.6650903  20.9420254  67.6446411  38.5680954  20.9505986  68.4231656
  23.7584838  17.1971638  57.1702682  23.5760411  17.4143519  56.3443675
  24.6210451  17.3110650  57.2261296  23.8589427  17.2461536  57.0557169
  23.3699270  29.0359560  64.6125670  24.2088169  29.2682493  64.6599432
  23.4011039  28.1663871  64.5432705  23.4980987  28.9416506  64.6090315
  23.9951973  29.4560435  68.9138975  24.5350198  29.3131566  69.5842348
  23.3121919  29.8557186  69.2823002  23.9744127  29.4940106  69.0673397
  29.4384557  14.1998048  60.2051706  30.1670717  14.0214003  59.7589862
  29.5279450  15.0416128  60.4158884  29.5591219  14.2981927  60.1705223
  33.4192858  25.1351436  64.1084000  34.1750373  25.5682950  64.1472909
  33.5255182  24.4856205  64.6818636  33.5463028  25.1028920  64.1982025
  36.4573029  28.9624713  64.8586403  36.0208261  28.9661455  65.6145374
  36.1235944  29.6430212  64.4265980  36.3435649  29.0637169  64.9067235
  31.0302102  31.0033046  76.1829553  31.8142519  31.1163894  76.5485295
  30.8298697  30.1774183  76.3788239  31.1168128  30.8979765  76.2663939
  19.3989118  25.6760726  69.0673397  19.1327533  24.8599843  69.2264387
  19.4127682  25.7213881  68.1968912  19.3613840  25.5617631  68.9626879
  36.3770512  16.0038541  67.1015831  37.0196420  16.0736645  67.6877746
  36.6293532  15.3367764  66.5995373  36.5092644  15.9164889  67.1143110
  23.3046865  20.4745810  55.6825155  22.5905042  20.1883990  56.0947588
  23.7890833  20.8142436  56.3231543  23.2706228  20.4827460  55.8380790
  31.1872496  32.9143148  69.8296009  30.3887741  32.6742648  70.0869877
  31.6358507  32.9657541  70.5763056  31.1347107  32.8865539  69.9780933
  39.5917375  25.6805633  63.7506040  40.2533809  25.1196301  63.6501948
  38.9508787  25.1857664  64.0758731  39.5946242  25.5242042  63.7838380
  30.4794183  28.9775764  56.0586963  30.8945331  28.6460788  55.3671459
  29.6486112  28.7444667  55.9307100  30.4182191  28.8947020  55.9377811
  19.8082531  26.4619505  66.3485141  19.6258105  26.4366391  65.4957433
  20.5432200  26.9318443  66.3874050  19.8896595  26.5280868  66.2283060
  35.8782206  26.6971015  63.4918029  36.1137795  26.8416214  62.6644879
  36.0271769  27.4613423  63.8849542  35.9348009  26.8310070  63.4281633
  37.7072662  25.5372681  61.3287633  38.0380879  26.0700321  60.7227727
  38.2805750  25.5911569  61.9849584  37.8406341  25.6242250  61.3365414
  32.9204551  23.3837584  62.0111213  33.0151406  24.1226878  62.4650838
  32.2963395  22.9555059  62.4445777  32.8413582  23.4298904  62.1419360
  31.1757025  26.5623797  72.6601494  31.7495887  25.9251041  72.8150058
  31.0971829  26.5627879  71.7911151  31.2490260  26.4688908  72.5547904
  19.7753442  23.3413006  66.4984208  20.3526944  23.2049457  67.1376453
  19.0767503  22.8848790  66.7529792  19.7574463  23.2535272  66.6306497
  33.1727573  25.2286324  55.2448165  33.0907735  25.2988511  56.1103152
  33.8107293  25.7916068  55.0531905  33.2547410  25.3225295  55.3438114
  26.5320744  24.9947062  64.7122691  26.2739988  24.1618797  64.6853990
  26.5869227  25.2204675  63.8715191  26.5020522  24.9044833  64.5842828
  31.6121794  17.0975512  64.8126784  30.9078121  16.6084698  64.9710703
  31.6606768  17.1097987  63.9415228  31.5151846  17.0265160  64.7066123
  25.5055456  22.5484824  65.1987586  24.9305047  22.7076992  65.8351547
  25.1291132  21.9120233  64.7356036  25.3658268  22.4782637  65.2242144
  29.1728745  21.0208173  70.0579964  28.7843177  20.5962391  69.4032155
  28.5083443  21.2690323  70.5656991  29.0175672  20.9946895  70.0367832
  38.8152014  20.7783178  62.8327794  38.5588579  19.9663120  62.6425677
  39.6581328  20.7860745  62.6057982  38.9018039  20.6595176  62.7712611
  15.2512275  22.1924899  63.2132026  15.3372527  21.8156767  63.9945556
  15.8788072  21.8185345  62.7351985  15.3568826  22.0810381  63.2577504
  32.9955106  14.7182802  67.5703948  33.3765618  14.0360973  67.9571823
  32.1918391  14.4292404  67.3879613  32.9331568  14.5749851  67.6008004
  30.2767683  25.2506778  58.2556771  31.0908322  25.5421671  58.1439543
  30.2126824  24.5966640  57.6815064  30.3870422  25.1971973  58.1545608
  36.4977173  27.9332774  72.6686347  36.2615811  27.1020839  72.5498407
  37.1420402  27.8818381  73.2541191  36.5571844  27.8030462  72.7372240
  26.1475591  28.7228295  63.3829083  26.7849538  28.4840043  63.9280877
  26.5730663  28.9265454  62.6482244  26.3051757  28.7179306  63.3546241
  20.8388234  30.9616632  67.2663387  20.8792379  31.2331483  66.4383167
  21.3982758  31.4858540  67.6821175  20.9271580  31.0792387  67.2055275
  26.7878406  23.9430585  57.7203973  27.1723559  23.7238292  58.4720518
  26.5390027  24.7693531  57.8505049  26.8080479  24.0328731  57.8505049
  37.5213594  27.7177223  68.7314641  37.2159411  28.4505280  69.0927957
  36.8019809  27.3115152  68.4507427  37.3700936  27.7658956  68.7427778
  28.5297063  29.2000718  65.0622870  28.6036071  29.0375890  65.9164719
  29.3466569  29.3890908  64.8183351  28.6613422  29.2037460  65.1520895
  43.2215386  24.3570224  68.0582986  43.1539886  24.3766183  67.1885572
  43.2071048  25.2000551  68.2838656  43.2094142  24.4843958  67.9635462
  22.2902820  29.5458581  62.0917313  21.4640938  29.7920318  61.9651592
  22.3514811  29.4670662  62.9579371  22.1776987  29.5703530  62.2006257
  24.5078844  15.6127522  63.0512753  23.6401269  15.6850121  63.1170362
  24.7954048  16.4149601  63.2400728  24.4218592  15.7421669  63.0887520
  27.0701649  32.1635461  59.7936343  27.3599947  31.7724442  59.0695570
  27.8005130  32.3452166  60.2341618  27.2208533  32.1329275  59.7519150
  41.0074003  23.1314610  66.3329580  41.5581925  22.4982679  66.5726672
  40.9918119  23.6630003  67.0245084  41.0859200  23.1163558  66.4708438
  27.6596394  26.9653207  70.8789473  27.1608088  27.6768975  70.9574362
  28.4696618  27.2853874  70.8407636  27.7052501  27.1180056  70.8846042
  25.0107564  34.1402844  62.8596493  24.7907860  33.8500198  63.6523160
  24.7902086  33.4817799  62.3314405  24.9455159  34.0002552  62.8985401
  23.9224512  26.2276160  65.1252194  23.6337760  25.6013631  65.6597922
  24.7907860  26.1696447  65.1916875  24.0084764  26.1263704  65.2143149
  34.7102409  21.3710943  65.4434176  34.3667175  20.6501279  65.7941426
  34.8095452  21.1624795  64.6012534  34.6744452  21.2335147  65.3705856
  27.1775520  35.5132233  61.6427185  27.8299578  34.9808676  61.8718211
  26.4801129  35.1600886  62.0295059  27.1706238  35.3821756  61.7339353
  24.1256785  27.8671411  61.0494559  24.8802753  28.2484450  61.2630022
  23.5327398  28.3182555  61.5041256  24.1493499  27.9900238  61.1477438
  35.1715439  27.8336648  60.9858164  35.7373471  28.4929857  60.9016707
  34.5243342  28.1786346  61.4574566  35.1594195  27.9818589  61.0430921
  25.4455012  29.0379972  66.4234675  24.9235765  29.1780264  67.1086539
  25.8329032  28.2790637  66.6136792  25.4258713  28.9465496  66.5535751
  22.4346196  19.0885781  60.4929629  22.1470991  18.7187052  59.7561577
  23.1216664  19.5580637  60.2313334  22.4935093  19.1032751  60.3444705
  31.6422017  30.7775432  60.4095243  31.4008693  30.0443292  60.0022308
  31.8223350  31.3262289  59.7561577  31.6329641  30.7497823  60.2525466
  26.8721337  26.0683991  61.8216166  26.6764120  26.6758726  61.2276469
  27.0955683  25.3751935  61.3407840  26.8755978  26.0561517  61.6632247
  25.2699867  22.9538729  61.9397034  25.9922519  23.1179888  61.4800840
  24.7907860  23.6748394  61.8336374  25.3063598  23.0836959  61.8562648
  33.2293375  19.2902528  67.3193719  32.3904475  19.3163807  67.0831982
  33.2997742  19.9373264  67.8999066  33.1161768  19.3898654  67.3702836
  22.9207484  25.3596802  71.0451174  23.4328581  25.6381055  70.3959934
  22.6343827  26.0986096  71.4113987  22.9542347  25.5099155  71.0041052
  31.6762653  16.1887905  62.0521335  32.3789006  15.9895654  61.5741293
  31.4106842  15.4163848  62.3590178  31.7409285  16.0450871  62.0266777
  37.1050899  24.4970515  64.6054961  37.0184873  24.6525941  65.4589740
  36.6501379  25.1408590  64.2314366  37.0254155  24.6146270  64.6762068
  20.0074390  19.8666994  61.3414910  20.1090527  20.6693155  61.6695886
  20.8030277  19.6654330  61.0437991  20.1402296  19.9552892  61.3450266
  30.9776715  21.8181262  63.2280520  30.7311429  21.7377013  64.0617309
  31.3061838  21.0334730  63.0343048  30.9897958  21.6907527  63.3228043
  34.8724764  28.5264621  67.0167302  34.7339123  29.2245667  67.5216044
  34.0924761  28.3713278  66.6603483  34.7367990  28.6064788  67.0393576
  33.2102849  24.8260997  73.2689683  33.2050887  23.9540813  73.2732110
  33.9163843  25.0249166  72.7959139  33.3147853  24.7264871  73.1996719
  26.9373742  24.5537981  72.6403503  27.0817118  25.1339189  72.0046613
  27.2849391  24.9314277  73.3453358  27.0101203  24.6958685  72.6502498
  29.1093659  23.7528149  70.4228635  28.3616973  23.9459163  70.0176913
  29.2635185  22.9273369  70.1852756  29.0216087  23.6593260  70.3274041
  26.0101497  32.7440752  69.5064530  26.1591061  32.1843668  68.8537935
  26.7901499  32.8232754  69.8897049  26.1475591  32.6726318  69.4661479
  36.3678136  27.8842875  57.7783801  35.9884945  27.0980013  57.7713090
  35.7044382  28.4329732  57.6355445  36.2136611  27.8487699  57.7564598
  28.5354798  32.9155395  70.7849021  28.4598469  32.2464206  71.3399809
  28.4644657  33.6173184  71.2989687  28.5135405  32.9200303  70.9425869
  33.8222762  10.8268575  65.1817882  33.9406330  11.2845038  64.4485184
  33.6484938  10.0213836  64.8954099  33.8141933  10.7762347  65.0318815
  29.1925045  31.4356394  61.6172627  29.9574936  31.1666038  61.2955291
  29.0903135  30.9506405  62.3342690  29.2906540  31.3245959  61.6752455
  27.2277814  19.6380804  68.1565863  26.4373889  19.4572264  68.4783199
  27.6238437  18.8607756  68.1396157  27.1694691  19.4968265  68.2018411
  31.7143705  28.4668578  53.5972576  32.4816690  28.5268703  53.1878428
  31.2675014  27.8949019  53.1128895  31.7617132  28.3905154  53.4650287
  32.6121501  27.2723234  65.8825309  31.9366502  27.0408466  66.3838696
  32.6213877  26.6644417  65.2567414  32.5140005  27.1482159  65.8641461
  29.7415645  22.1141063  72.6389362  29.6774786  22.9751019  72.5109498
  29.8812832  21.7973056  71.8384913  29.7531115  22.1941229  72.5017575
  34.6138235  30.1288366  58.1135487  34.6958073  30.9355352  57.7896938
  35.0987977  30.1484325  58.8376260  34.6975393  30.2509029  58.1722385
  28.4234739  24.8073202  66.7805565  27.9996988  25.0077701  66.0444583
  28.2479594  23.9602050  66.8929864  28.3345619  24.7121984  66.6879255
  27.9246432  36.3223715  69.2427022  28.4142362  35.6234504  69.0602686
  27.3530664  36.0247585  69.8303079  27.9130962  36.1749939  69.3028063
  23.7117183  25.3025254  62.2133537  23.8681803  25.2372056  63.0689529
  24.0517777  26.0773806  62.0012217  23.7850418  25.4074452  62.3088131
  30.2496328  24.6783137  61.0826900  30.7911874  24.1753518  61.5465521
  30.5642887  24.6248332  60.2716386  30.3760725  24.5962558  61.0310712
  34.1213435  28.8885784  78.1953813  34.9348301  28.6170933  78.3558945
  33.9608402  28.5893324  77.3914008  34.2183384  28.8040711  78.0999218
  28.4182778  30.0700489  58.3666928  28.4875598  29.2115027  58.5059929
  29.1971233  30.2872370  58.0385953  28.5435628  29.9753353  58.3384086
  31.3985597  19.5719442  71.1349201  31.6127567  18.9330356  70.5812555
  30.7819497  20.0165266  70.7057063  31.3390927  19.5429585  70.9899632
  32.8090265  32.4938190  62.5803422  32.4170057  32.1904905  61.8626288
  32.9643338  33.3307280  62.3908375  32.7743855  32.5722027  62.4459919
  20.2851445  22.4860204  62.5294304  20.6650410  22.9044749  61.8654572
  19.7106810  23.0673660  62.8363148  20.2562770  22.6338063  62.4771045
  33.5624685  21.1808507  72.0732508  32.7501367  20.8734397  72.1545681
  34.0214620  20.7007507  72.6375220  33.5105070  21.0644999  72.1687102
  32.9729940  29.0588179  62.5209452  32.6144595  29.2302822  63.2973485
  32.4868651  29.5201384  61.9637451  32.8488637  29.1527150  62.5534721
  30.7900326  12.6819377  66.1236544  29.9193884  12.6558098  66.0769853
  31.0440667  12.5096569  65.3062389  30.6993886  12.6529521  65.9956680
  27.7618306  24.7387344  55.0609687  28.0510830  25.5152227  55.3353261
  27.8490104  24.2276076  55.7624186  27.8172562  24.7779263  55.2052184
  34.1334679  29.9492075  73.4676653  34.7714400  29.4552270  73.1339109
  33.4908771  29.8769475  72.8828880  34.1328906  29.8651083  73.3319008
  35.8591680  21.7981221  68.0342569  35.4319288  21.7107569  67.2790668
  35.2217733  21.9058996  68.6197413  35.7021287  21.8013881  68.0088010
  34.1888936  30.6411883  70.1082010  34.9781314  30.2900948  70.2284091
  34.3632534  31.4548271  69.8458644  34.3309218  30.7097740  70.0869878
  23.9282247  24.0520609  67.1609799  23.0870253  23.9524483  67.3688693
  24.1372254  24.8216089  67.5124119  23.8346939  24.1512652  67.2437114
  21.4057813  21.6740146  64.9894549  21.0114511  21.7483158  64.2144659
  20.8497930  22.0598092  65.5402911  21.2660626  21.7421920  64.9562209
  33.0422760  14.6521440  64.6698428  33.2472354  14.5843748  65.5155425
  32.7149184  15.4580261  64.6019606  33.0238008  14.7607380  64.7858083
  27.7398911  21.9802008  66.4107396  27.4362049  21.4257996  67.0117804
  27.0378332  22.1594218  65.9235430  27.5915121  21.9246790  66.4277102
  26.7965008  19.2902528  60.9752098  27.0724743  18.5721440  60.5629666
  27.3963678  19.8887448  60.7673204  26.9258273  19.2722899  60.8832859
  25.8017262  29.1951729  71.1179494  25.6937617  29.2053791  71.9841552
  26.0113044  30.0206509  70.9284448  25.8167373  29.3192803  71.2183586
  36.2956448  15.2053204  64.1501194  35.6830762  15.6923606  64.5354926
  36.3920623  14.5296695  64.6938845  36.2194346  15.1771513  64.2880052
  30.2975529  16.9616045  59.2498693  30.7519276  17.1326606  59.9746538
  30.7715575  16.3484156  58.8496469  30.4343849  16.8966930  59.2972455
  23.8191054  26.4464371  68.5801432  23.2278988  27.0873869  68.5504447
  24.5812078  26.8701988  68.5532731  23.8439315  26.6040210  68.5716579
  39.9381476  26.2770141  69.5778710  39.9964600  26.7256790  70.3238686
  39.3047944  26.6868954  69.1408790  39.8532771  26.4043875  69.6231258
  33.5780571  31.8973683  66.0133456  33.3800259  32.3864497  65.3189667
  32.9568282  32.1014924  66.5917589  33.4568135  31.9990221  65.9956679
  27.6388549  23.6658579  60.3543700  28.3830594  24.0532856  60.5926650
  27.7849245  22.8216005  60.5184188  27.7699134  23.5989052  60.4137670
  29.5568124  15.4608838  65.3875562  28.7104169  15.6331646  65.2616912
  29.5539257  14.6558182  65.7241390  29.4315274  15.3669867  65.4186689
  30.6266425  19.2384053  66.2537620  30.1526379  18.7125815  66.7642931
  30.9984561  18.6913526  65.6852481  30.6116314  19.0800049  66.2452767
  36.8903155  24.2986428  67.6644400  36.6501378  23.4592844  67.6686827
  37.3695163  24.3786595  68.3885174  36.9255339  24.1867828  67.7719202
  32.5549924  20.1320607  59.3163373  32.0272943  20.2149351  58.6269082
  33.0145633  20.8738479  59.3128018  32.5451775  20.2541270  59.2138069
  38.8908342  21.0787886  65.6173659  38.6518112  21.0383720  64.7794444
  39.0542244  21.9259038  65.7439380  38.8798646  21.1979971  65.5127141
  35.4954373  25.4637835  71.5478704  36.2188571  25.0110361  71.3689724
  35.2304335  25.7442501  70.7651032  35.5635646  25.4388803  71.4057420
  24.3641241  20.0598009  68.2831584  23.7394311  20.0716400  67.6757536
  24.0286836  20.5358184  68.9322824  24.2226733  20.1316526  68.2888152
  24.5482990  18.4023127  54.3404269  24.1995794  19.0542852  54.8035818
  24.0679435  18.3880240  53.6128140  24.4253234  18.4966181  54.3015360
  21.0766916  28.1198469  69.7235348  20.5466841  27.4290908  69.7730323
  21.3492010  28.1108654  68.8948056  21.0391639  28.0165600  69.6082764
  32.1087007  28.7024171  58.4473030  32.8321206  29.1682284  58.3037604
  31.6687598  28.7697781  57.6970628  32.1502699  28.7808008  58.3157812
  31.2773162  25.5621713  69.6973720  30.6630155  25.0179764  69.9922355
  31.7940447  25.0485950  69.2179536  31.2628824  25.4058122  69.6697948
  30.5169459  26.6325983  67.4318018  30.0897067  26.0075702  66.9983454
  30.5094404  26.3500905  68.2577025  30.4528600  26.4978764  67.4897846
  28.8455169  17.5094738  67.6460552  28.8697656  16.9754850  66.9573332
  29.0966642  17.0012047  68.3086143  28.8865088  17.3555642  67.6425197
  16.3562759  24.7926233  67.0803696  16.2506208  24.7473077  66.2155780
  15.6062979  25.1380013  67.3617981  16.2298362  24.8367141  66.9941026
  25.1256491  16.2365556  67.0266296  25.1654863  16.7374763  67.7401004
  24.3006156  16.3275950  66.7572220  25.0096017  16.3247372  67.0916835
  26.5470855  22.7526066  69.3240195  25.7162784  22.9199884  69.1175444
  26.4922372  22.3762017  70.1089081  26.4160269  22.7215797  69.4088724
  24.9206898  21.0281657  59.8530313  25.0609859  21.5254122  60.5558955
  25.4189431  20.3267952  59.9944527  25.0147979  20.9983636  59.9781892
  24.9507121  21.8948768  57.1822890  25.5852200  22.4909193  57.1172352
  25.0332732  21.5952226  57.9968760  25.0563672  21.9389677  57.2925977
  26.5286104  17.8262744  57.1568332  26.8501945  17.3465826  56.5027594
  26.7913047  18.6362390  56.9659144  26.6152129  17.8752642  57.0323824
  29.7583076  28.8481618  70.6767148  29.2508167  29.4017465  71.1207779
  29.4609723  28.9089908  69.8585923  29.6387961  28.9387929  70.6215605
  31.9245259  17.2134938  69.5191811  32.3500330  16.7607464  68.9075337
  31.3102252  16.6595009  69.7956599  31.8973904  17.0648914  69.4696836
  21.4560109  24.0916609  60.4512436  21.9652338  24.6881117  60.8323742
  21.9294381  23.8242583  59.7688856  21.6003484  24.1402425  60.4066959
  32.3690857  32.7644876  58.6071092  31.6520166  32.5905738  58.1418329
  33.0197594  32.5297448  58.0746578  32.3592707  32.7040668  58.4600309
  30.3639481  13.6850038  62.9282388  29.7207799  13.5347684  63.4967527
  30.0238888  13.4392383  62.1631493  30.2184559  13.6262160  62.8985403
  34.9538828  21.6409464  62.3512397  34.2830018  22.1839167  62.2225462
  35.6478578  22.1104320  62.1094091  34.9567695  21.7907736  62.2967924
  29.0025562  33.7806176  67.5824155  28.7791216  33.0225006  67.9508181
  28.5135405  33.8104198  66.8604595  28.8969011  33.6728401  67.5300896
  35.1166955  18.0965348  65.2602770  35.4694565  17.6695071  65.9348569
  34.2581757  18.0116192  65.3903846  35.0416400  18.0210089  65.3797780
  23.8150640  20.7272868  63.3185616  23.0962629  21.1437000  63.5858480
  24.1863003  21.2927107  62.7677255  23.7642572  20.8722149  63.2768423
  33.1150221  21.3600717  69.2087612  33.0948148  21.1784012  70.0622391
  33.1629422  22.2312735  69.1847196  33.1184862  21.4617255  69.3310907
  31.0596551  27.9487909  75.1336089  31.0192406  27.3037586  74.5481245
  31.8719869  27.8924526  75.4461501  31.1739705  27.8446875  75.0933038
  27.6504019  34.0006635  65.0361240  27.2364417  33.3380765  64.6465081
  28.3351393  34.1484493  64.5156934  27.6902390  33.9247293  64.9017737
  31.0169313  33.1596720  65.7884856  30.6185596  33.2698990  65.0205676
  30.4020532  33.3678786  66.3711416  30.8668202  33.2070288  65.7616156
  29.5897215  19.7670868  58.6558996  28.9962054  20.0887864  58.1043563
  29.6272492  18.9211963  58.4480102  29.5071604  19.6895196  58.5441767
  36.5491015  13.2183760  66.1887082  36.0421880  12.5112899  66.1208260
  37.3458449  12.8876949  66.3188159  36.5918255  13.0656911  66.1986077
  32.4655031  19.7250372  62.0860746  32.2368724  19.7483074  61.2439104
  32.7253107  18.9007839  62.2055757  32.4701219  19.6066452  61.9785944
  25.5199794  18.2626918  63.3814942  25.9957160  18.6243998  62.7465123
  25.0188393  18.9183386  63.6615085  25.5165153  18.4121107  63.3291683
  38.7511155  27.7348687  59.1727947  39.1344761  28.4840043  59.4026044
  37.9555269  27.9814506  58.9139936  38.6904938  27.8818380  59.1685520
  27.5626447  20.4068118  56.7488326  27.9425412  20.4247747  55.9639441
  26.8219043  20.8522107  56.6279173  27.5095285  20.4749893  56.6151894
  35.1911737  18.7150309  62.3363904  35.1905964  18.5598966  63.1948181
  34.9867918  19.5613297  62.2805290  35.1611515  18.8170930  62.4551844
  17.2529008  22.1390094  66.7522721  17.0750770  21.6866703  67.4777637
  16.9648031  22.9416255  66.9361199  17.1841962  22.1912652  66.8866224
  32.9152590  23.3947811  65.9900111  33.4106255  22.6770806  65.9504132
  32.1052365  23.0918609  65.8754598  32.8696483  23.2445458  65.9673837
  28.3611201  27.2445624  58.1397116  27.5522524  26.9212298  58.0930425
  28.8686110  26.5378847  58.0725364  28.3160868  27.0926941  58.1227410
  18.9901478  24.6717818  63.8644480  18.1246998  24.6603508  63.7527251
  19.0900294  24.4848040  64.7115619  18.8775645  24.6423879  63.9733424
  34.9804408  26.1451499  68.6777240  35.4059480  25.6225921  68.1247665
  34.6161328  26.7432336  68.1565863  34.9891011  26.1561726  68.5186250
  24.6158488  34.4415716  67.4374586  24.9305047  35.2552105  67.4452367
  25.0251902  34.0565935  68.1056745  24.7226586  34.5044419  67.5378677
  31.5683008  29.8585763  65.0078398  32.0394186  30.5726026  65.1768383
  31.9043186  29.2584513  65.5438267  31.6878123  29.8757227  65.1110773
  33.6559992  31.4687076  77.1870470  33.7656958  30.6795637  77.5427217
  33.9850889  31.3793013  76.3844808  33.7212398  31.3392929  77.1212860
  32.2056954  29.6503697  71.7706090  31.6577900  29.0261581  71.5026155
  32.6669983  29.8397969  71.0550170  32.1924164  29.5862747  71.6256521
  35.0150819  17.7189052  69.1557282  34.4313807  18.2198258  68.7434850
  35.3355113  17.2118608  68.5221606  34.9763994  17.7180887  69.0015790
  27.5545618  16.6329646  59.4315957  28.3761312  16.8027959  59.1897652
  27.0915269  16.7876907  58.7082255  27.6076780  16.6811379  59.2887602
  21.9571508  28.3888825  67.0853194  22.5616366  28.3484659  66.4567015
  21.7498821  29.2359977  67.1157250  22.0160406  28.5076827  66.9969310
  31.7715280  30.6554770  68.3015431  32.5913654  30.5117736  68.5631727
  31.4909358  31.2800969  68.8431869  31.8512024  30.7265122  68.4203371
  17.1922791  27.3723442  66.9552117  17.0947069  26.5619714  67.2642174
  17.9751660  27.3515236  66.5698385  17.2938927  27.2490532  66.9438980
  41.4428616  37.3995273  66.0211238  40.5866511  37.5603771  66.0720355
  41.4896269  36.5287337  66.0416299  41.3227727  37.2946074  66.0317304
  44.7522332  43.6681798  75.6271694  45.4589099  43.1733829  75.7558629
  44.9410268  44.1090880  74.8974352  44.8850238  43.6600149  75.5380740
  44.2880437  39.4587316  68.6642890  44.8336397  40.1372403  68.7236859
  44.2297313  39.3174777  67.8044471  44.3596351  39.5379318  68.5454950
  37.4054512  46.9476383  64.0511242  37.5064874  46.1376737  64.3608370
  36.8096257  46.8533329  63.4210921  37.3327050  46.8141411  64.0037481
  37.2455251  51.8653972  65.4526098  37.8892707  52.3067136  65.8422257
  37.5711507  51.0607398  65.3656357  37.3887080  51.8119166  65.4971576
  30.6019556  42.9696669  63.6763576  30.3669740  42.1364322  63.5695845
  30.7405197  43.2501335  62.8624777  30.5875218  42.8880173  63.5405931
  32.9009643  35.1382400  66.5747884  32.2814675  34.5475047  66.4057898
  32.7993507  35.7293835  65.9412207  32.7947319  35.1386482  66.4552873
  39.9977539  36.8781942  60.9080347  40.6957704  37.0570069  61.4001810
  40.3129871  36.3552281  60.2850736  40.1472876  36.8275714  60.8882357
  32.6278776  38.6834681  68.8191453  32.5037473  39.2697127  69.4541271
  33.2797061  38.1894877  69.1203728  32.7052426  38.6973486  68.9577382
  37.6537117  41.8596398  68.0978964  38.2986120  41.3668842  67.7789912
  37.8938894  42.0021185  68.9245042  37.7847702  41.8073841  68.1728497
  40.1923209  44.7051304  67.7485856  40.4746452  43.9102710  67.5272612
  40.9209369  45.1831892  67.7690917  40.3412772  44.6585901  67.7188871
  38.1704403  32.2474338  64.9901621  37.8407733  32.6985482  64.3205320
  37.4949404  32.1690502  65.5374628  38.0214839  32.3025473  64.9724845
  45.3780810  28.2359861  63.2351232  45.0634251  28.9263340  63.6671654
  44.8607752  28.1804643  62.5336733  45.2545281  28.3294750  63.1948181
  36.6092852  42.1327579  58.1496110  36.0250067  42.6377610  58.5561974
  36.2062947  41.9069966  57.4092702  36.4632156  42.1735827  58.1001136
  32.1636881  47.8482340  64.9519782  31.6804459  48.5732830  64.9279366
  32.9760199  48.1458470  65.0629940  32.2127628  47.9984694  64.9647061
  38.2351035  46.6414521  67.5569596  37.7177976  46.2821936  66.9530905
  38.9325426  46.1176695  67.5675663  38.2616616  46.5112209  67.4699855
  41.8914627  47.0909335  73.5185770  41.9797972  46.9035475  74.3663980
  42.3204339  46.4446764  73.1190616  41.9676729  46.9672342  73.5857521
  39.4585086  46.3740495  72.5003432  38.8955921  45.9613104  73.0243093
  40.2206110  46.2993400  72.9196575  39.4879535  46.3017895  72.6396432
  36.3760357  30.3086627  60.4724569  37.1306325  30.6764944  60.2341619
  36.1987891  30.6826181  61.2403749  36.4614835  30.4184815  60.5509458
  35.0181078  48.3638516  65.1040062  35.7201657  47.8490505  65.1612818
  34.9378561  48.6912667  65.9086937  35.1104838  48.3352742  65.2312854
  49.6695255  36.4581067  68.5172108  48.8323676  36.5283254  68.7519703
  49.6383486  36.4605562  67.6446411  49.5413538  36.4691294  68.4231656
  36.0659984  38.6014103  74.2320477  36.2380488  38.4919997  75.0805758
  36.6029342  39.2468508  73.9951669  36.1704988  38.6806104  74.3225574
  34.7317421  32.7156946  57.1702682  34.5492994  32.9328826  56.3443675
  35.5943034  32.8295958  57.2261296  34.8322011  32.7646844  57.0557169
  34.3431853  44.5544868  64.6125670  35.1820753  44.7867801  64.6599432
  34.3743622  43.6849179  64.5432705  34.4713571  44.4601814  64.6090315
  34.9684556  44.9745743  68.9138975  35.5082781  44.8316874  69.5842348
  34.2854503  45.3742494  69.2823002  34.9476710  45.0125414  69.0673397
  40.4117140  29.7183356  60.2051706  41.1403301  29.5399311  59.7589862
  40.5012033  30.5601436  60.4158884  40.5323803  29.8167235  60.1705223
  44.3925441  40.6536744  64.1084000  45.1482956  41.0868258  64.1472909
  44.4987766  40.0041513  64.6818636  44.5195612  40.6214228  64.1982025
  47.4305612  44.4810021  64.8586403  46.9940844  44.4846763  65.6145374
  47.0968528  45.1615520  64.4265980  47.3168232  44.5822477  64.9067235
  42.0034686  46.5218354  76.1829553  42.7875102  46.6349202  76.5485295
  41.8031280  45.6959491  76.3788239  42.0900711  46.4165073  76.2663939
  30.3721701  41.1946034  69.0673397  30.1060117  40.3785151  69.2264387
  30.3860265  41.2399189  68.1968912  30.3346424  41.0802939  68.9626879
  35.1220308  34.7324412  71.7140405  34.4292104  34.2621392  71.9601136
  35.7380635  34.5062717  72.2882112  35.1104838  34.6291544  71.8349557
  42.1605079  48.4328456  69.8296009  41.3620325  48.1927956  70.0869877
  42.6091091  48.4842849  70.5763056  42.1079690  48.4050847  69.9780933
  30.7815115  41.9804813  66.3485141  30.5990688  41.9551699  65.4957433
  31.5164784  42.4503751  66.3874050  30.8629179  42.0466175  66.2283060
  46.8514789  42.2156323  63.4918029  47.0870378  42.3601522  62.6644879
  47.0004353  42.9798731  63.8849542  46.9080592  42.3495378  63.4281633
  33.8460867  38.6989816  72.8567250  34.5700839  38.6842847  73.3432145
  33.9477003  39.4085171  72.3589218  33.9679076  38.8014519  72.8546037
  41.2205816  42.1788901  77.7216197  40.4278797  42.4932413  77.9068817
  41.3354743  42.3940369  76.8836982  41.1201227  42.2572737  77.6254532
  42.1489609  42.0809104  72.6601494  42.7228471  41.4436349  72.8150058
  42.0704413  42.0813187  71.7911151  42.2222844  41.9874216  72.5547904
  30.7486025  38.8598314  66.4984208  31.3259528  38.7234765  67.1376453
  30.0500087  38.4034098  66.7529792  30.7307047  38.7720580  66.6306497
  37.5053327  40.5132370  64.7122691  37.2472572  39.6804104  64.6853990
  37.5601810  40.7389983  63.8715191  37.4753105  40.4230141  64.5842828
  42.5854378  32.6160820  64.8126784  41.8810704  32.1270006  64.9710703
  42.6339352  32.6283295  63.9415228  42.4884429  32.5450468  64.7066123
  36.4788040  38.0670132  65.1987586  35.9037631  38.2262300  65.8351547
  36.1023716  37.4305541  64.7356036  36.3390852  37.9967945  65.2242144
  40.1461328  36.5393481  70.0579964  39.7575761  36.1147699  69.4032155
  39.4816027  36.7875631  70.5656991  39.9908256  36.5132202  70.0367832
  49.7884597  36.2968486  62.8327794  49.5321162  35.4848427  62.6425677
  50.6313911  36.3046053  62.6057982  49.8750623  36.1780483  62.7712611
  26.2244859  37.7110207  63.2132026  26.3105110  37.3342075  63.9945556
  26.8520656  37.3370652  62.7351985  26.3301409  37.5995689  63.2577504
  43.9687690  30.2368110  67.5703948  44.3498202  29.5546281  67.9571823
  43.1650974  29.9477712  67.3879613  43.9064152  30.0935159  67.6008004
  47.4709757  43.4518082  72.6686347  47.2348394  42.6206147  72.5498407
  48.1152986  43.4003689  73.2541191  47.5304427  43.3215770  72.7372240
  37.1208175  44.2413603  63.3829083  37.7582122  44.0025351  63.9280877
  37.5463246  44.4450762  62.6482244  37.2784341  44.2364614  63.3546241
  31.8120817  46.4801940  67.2663387  31.8524962  46.7516791  66.4383167
  32.3715341  47.0043848  67.6821175  31.9004163  46.5977695  67.2055275
  37.7610990  39.4615893  57.7203973  38.1456143  39.2423600  58.4720518
  37.5122610  40.2878839  57.8505049  37.7813062  39.5514039  57.8505049
  37.9279530  32.7422308  77.4366557  37.6132971  33.5121871  77.1736120
  37.6069463  32.1792564  76.8518784  37.8338449  32.7732577  77.3107907
  48.4946177  43.2362531  68.7314641  48.1891994  43.9690588  69.0927957
  47.7752393  42.8300460  68.4507427  48.3433520  43.2844264  68.7427778
  39.5029647  44.7186026  65.0622870  39.5768655  44.5561198  65.9164719
  40.3199153  44.9076216  64.8183351  39.6346005  44.7222768  65.1520895
  54.1947969  39.8755532  68.0582986  54.1272470  39.8951491  67.1885572
  54.1803632  40.7185859  68.2838656  54.1826726  40.0029266  67.9635462
  33.2635403  45.0643889  62.0917313  32.4373521  45.3105626  61.9651592
  33.3247395  44.9855970  62.9579371  33.1509570  45.0888838  62.2006257
  35.4811427  31.1312830  63.0512753  34.6133853  31.2035429  63.1170362
  35.7686631  31.9334909  63.2400728  35.3951175  31.2606977  63.0887520
  44.6044316  31.2790689  71.3824075  45.3497908  31.0900500  70.9687500
  44.1881621  31.8048927  70.8237931  44.6529290  31.3292835  71.2388648
  51.9806587  38.6499918  66.3329580  52.5314508  38.0167987  66.5726672
  51.9650702  39.1815310  67.0245084  52.0591783  38.6348866  66.4708438
  38.6328978  42.4838515  70.8789473  38.1340671  43.1954283  70.9574362
  39.4429202  42.8039182  70.8407636  38.6785084  42.6365364  70.8846042
  35.9840148  49.6588151  62.8596493  35.7640443  49.3685506  63.6523160
  35.7634670  49.0003107  62.3314405  35.9187742  49.5187860  62.8985401
  34.8957095  41.7461468  65.1252194  34.6070344  41.1198939  65.6597922
  35.7640443  41.6881755  65.1916875  34.9817347  41.6449012  65.2143149
  45.6834993  36.8896251  65.4434176  45.3399759  36.1686587  65.7941426
  45.7828036  36.6810103  64.6012534  45.6477036  36.7520455  65.3705856
  38.1508104  51.0317541  61.6427185  38.8032162  50.4993984  61.8718211
  37.4533712  50.6786194  62.0295059  38.1438822  50.9007064  61.7339353
  37.5596036  35.3419559  76.1751772  36.7495811  35.6477339  76.0641614
  38.0370722  36.0625142  76.2904356  37.5099514  35.4934161  76.1758843
  36.4187595  44.5565280  66.4234675  35.8968349  44.6965572  67.1086539
  36.8061616  43.7975945  66.6136792  36.3991296  44.4650804  66.5535751
  33.4078779  34.6071089  60.4929629  33.1203575  34.2372360  59.7561577
  34.0949247  35.0765944  60.2313334  33.4667677  34.6218058  60.3444705
  37.8453921  41.5869299  61.8216166  37.6496703  42.1944034  61.2276469
  38.0688266  40.8937243  61.3407840  37.8488562  41.5746825  61.6632247
  36.2432451  38.4724037  61.9397034  36.9655103  38.6365195  61.4800840
  35.7640444  39.1933702  61.8336374  36.2796182  38.6022267  61.8562648
  44.2025958  34.8087836  67.3193719  43.3637059  34.8349115  67.0831982
  44.2730326  35.4558572  67.8999066  44.0894352  34.9083962  67.3702836
  33.8940068  40.8782110  71.0451174  34.4061164  41.1566363  70.3959934
  33.6076410  41.6171404  71.4113987  33.9274931  41.0284463  71.0041052
  42.6495237  31.7073213  62.0521335  43.3521590  31.5080961  61.5741293
  42.3839425  30.9349156  62.3590178  42.7141869  31.5636179  62.0266777
  48.0783482  40.0155823  64.6054961  47.9917457  40.1711249  65.4589740
  47.6233962  40.6593898  64.2314366  47.9986739  40.1331578  64.6762068
  30.9806974  35.3852302  61.3414910  31.0823110  36.1878463  61.6695886
  31.7762861  35.1839637  61.0437991  31.1134879  35.4738200  61.3450266
  37.4123793  32.9708498  71.1052216  37.2206990  32.9863633  71.9551639
  38.2622389  33.1672173  71.0818870  37.5099515  33.0022850  71.2275510
  31.7970706  35.4999480  69.0836032  31.6556198  34.6483420  69.2080540
  32.0811269  35.5428140  68.2598238  31.8178552  35.3799230  68.9803656
  41.9509298  37.3366570  63.2280520  41.7044013  37.2562321  64.0617309
  42.2794421  36.5520038  63.0343048  41.9630542  37.2092835  63.3228043
  45.8457347  44.0449929  67.0167302  45.7071706  44.7430975  67.5216044
  45.0657345  43.8898586  66.6603483  45.7100574  44.1250096  67.0393576
  44.1835432  40.3446305  73.2689683  44.1783471  39.4726121  73.2732110
  44.8896426  40.5434474  72.7959139  44.2880436  40.2450179  73.1996719
  37.9106326  40.0723289  72.6403503  38.0549701  40.6524497  72.0046613
  38.2581974  40.4499585  73.3453358  37.9833787  40.2143993  72.6502498
  40.0826243  39.2713457  70.4228635  39.3349557  39.4644471  70.0176913
  40.2367768  38.4458677  70.1852756  39.9948671  39.1778568  70.3274041
  36.9834081  48.2626060  69.5064530  37.1323644  47.7028976  68.8537935
  37.7634083  48.3418062  69.8897049  37.1208174  48.1911626  69.4661479
  39.5087381  48.4340703  70.7849021  39.4331052  47.7649514  71.3399809
  39.4377240  49.1358491  71.2989687  39.4867988  48.4385611  70.9425869
  40.3228020  33.1664008  71.3124039  40.7800634  33.8987982  71.4396831
  40.3984349  32.7430473  72.0711295  40.4018990  33.2121246  71.4425115
  32.5661011  33.4129827  72.4013482  32.0303201  32.8010186  72.7174250
  32.6278776  33.9877963  73.0547149  32.4956644  33.4076755  72.5448909
  44.7955346  26.3453883  65.1817882  44.9138914  26.8030346  64.4485184
  44.6217522  25.5399144  64.8954099  44.7874517  26.2947655  65.0318815
  38.2010398  35.1566112  68.1565863  37.4106473  34.9757572  68.4783199
  38.5971021  34.3793064  68.1396157  38.1427274  35.0153573  68.2018411
  43.5854084  42.7908542  65.8825309  42.9099086  42.5593774  66.3838696
  43.5946460  42.1829725  65.2567414  43.4872589  42.6667467  65.8641461
  40.7148228  37.6326371  72.6389362  40.6507369  38.4936327  72.5109498
  40.8545416  37.3158364  71.8384913  40.7263698  37.7126537  72.5017575
  39.3967322  40.3258510  66.7805565  38.9729571  40.5263009  66.0444583
  39.2212177  39.4787358  66.8929864  39.3078203  40.2307292  66.6879255
  38.8979016  51.8409023  69.2427022  39.3874946  51.1419812  69.0602686
  38.3263248  51.5432893  69.8303079  38.8863545  51.6935247  69.3028063
  34.6849767  40.8210562  62.2133537  34.8414386  40.7557364  63.0689529
  35.0250360  41.5959114  62.0012217  34.7583002  40.9259760  62.3088131
  45.0946019  44.4071092  78.1953813  45.9080884  44.1356241  78.3558945
  44.9340985  44.1078632  77.3914008  45.1915968  44.3226018  78.0999218
  42.3718181  35.0904750  71.1349201  42.5860151  34.4515664  70.5812555
  41.7552080  35.5350573  70.7057063  42.3123510  35.0614893  70.9899632
  43.7822849  48.0123498  62.5803422  43.3902641  47.7090213  61.8626288
  43.9375921  48.8492588  62.3908375  43.7476439  48.0907335  62.4459919
  31.2584029  38.0045512  62.5294304  31.6382993  38.4230057  61.8654572
  30.6839393  38.5858968  62.8363148  31.2295353  38.1523371  62.4771045
  44.5357269  36.6993815  72.0732508  43.7233951  36.3919705  72.1545681
  44.9947204  36.2192815  72.6375220  44.4837654  36.5830307  72.1687102
  43.9462524  44.5773487  62.5209452  43.5877178  44.7488130  63.2973485
  43.4601234  45.0386692  61.9637451  43.8221221  44.6712458  62.5534721
  41.7632910  28.2004685  66.1236544  40.8926468  28.1743406  66.0769853
  42.0173251  28.0281877  65.3062389  41.6726470  28.1714829  65.9956680
  41.6310777  38.1053886  76.8561210  42.1010408  38.7296003  77.2429084
  41.6772657  37.4370862  77.4154425  41.7078652  38.0988566  76.9961282
  38.7882050  30.2110914  67.5810014  38.2720539  29.5191105  67.7061593
  38.2275979  30.8781691  67.5272613  38.6288563  30.2074171  67.5916080
  40.8574284  30.7503874  69.4102867  40.4706037  30.7752905  70.1916396
  40.3707221  30.1845552  68.9577383  40.7286793  30.6699625  69.4590770
  45.1067263  45.4677383  73.4676653  45.7446984  44.9737578  73.1339109
  44.4641355  45.3954783  72.8828880  45.1061490  45.3836391  73.3319008
  46.8324263  37.3166529  68.0342569  46.4051871  37.2292877  67.2790668
  46.1950316  37.4244304  68.6197413  46.6753870  37.3199189  68.0088010
  40.5231425  27.6370859  71.7013126  41.1524543  28.1731159  71.4234197
  40.6917288  27.5448218  72.5526692  40.6409220  27.7032221  71.7861655
  40.3245340  32.4242054  73.9739538  41.1518770  32.1527203  74.0298152
  40.3453186  33.2202896  74.3303356  40.4498190  32.5021808  74.0354721
  45.1621520  46.1597191  70.1082010  45.9513898  45.8086256  70.2284091
  45.3365117  46.9733579  69.8458644  45.3041801  46.2283048  70.0869878
  34.9014830  39.5705917  67.1609799  34.0602837  39.4709791  67.3688693
  35.1104838  40.3401397  67.5124119  34.8079523  39.6697960  67.2437114
  32.3790397  37.1925454  64.9894549  31.9847095  37.2668465  64.2144659
  31.8230514  37.5783400  65.5402911  32.2393209  37.2607228  64.9562209
  44.0155344  30.1706748  64.6698428  44.2204937  30.1029056  65.5155425
  43.6881768  30.9765569  64.6019606  43.9970592  30.2792688  64.7858083
  38.7131495  37.4987316  66.4107396  38.4094632  36.9443304  67.0117804
  38.0110916  37.6779526  65.9235430  38.5647705  37.4432098  66.4277102
  37.7697592  34.8087836  60.9752098  38.0457326  34.0906748  60.5629666
  38.3696261  35.4072756  60.7673204  37.8990857  34.7908206  60.8832859
  36.7749846  44.7137037  71.1179494  36.6670201  44.7239099  71.9841552
  36.9845627  45.5391817  70.9284448  36.7899957  44.8378111  71.2183586
  47.2689032  30.7238512  64.1501194  46.6563345  31.2108914  64.5354926
  47.3653206  30.0482003  64.6938845  47.1926929  30.6956821  64.2880052
  41.2708113  32.4801353  59.2498693  41.7251859  32.6511913  59.9746538
  41.7448158  31.8669464  58.8496469  41.4076433  32.4152238  59.2972455
  34.7923638  41.9649679  68.5801432  34.2011571  42.6059177  68.5504447
  35.5544661  42.3887296  68.5532731  34.8171899  42.1225517  68.5716579
  35.1884261  33.1251677  69.2469449  35.6485742  33.1990606  69.9844573
  35.2340367  33.9232931  68.8969271  35.2634816  33.2545824  69.3042206
  36.8367610  33.7918372  73.8141476  36.4453176  33.1451719  74.2497254
  37.0053473  34.3829807  74.4335732  36.8038521  33.7832640  73.9704182
  50.9114060  41.7955449  69.5778710  50.9697183  42.2442097  70.3238686
  50.2780527  42.2054262  69.1408790  50.8265355  41.9229183  69.6231258
  44.5513154  47.4158991  66.0133456  44.3532843  47.9049805  65.3189667
  43.9300865  47.6200232  66.5917589  44.4300719  47.5175529  65.9956679
  38.6121133  39.1843887  60.3543700  39.3563177  39.5718164  60.5926650
  38.7581829  38.3401313  60.5184188  38.7431718  39.1174360  60.4137670
  40.5300708  30.9794146  65.3875562  39.6836753  31.1516954  65.2616912
  40.5271840  30.1743490  65.7241390  40.4047858  30.8855175  65.4186689
  41.5999008  34.7569361  66.2537620  41.1258963  34.2311123  66.7642931
  41.9717144  34.2098834  65.6852481  41.5848897  34.5985357  66.2452767
  31.9772039  36.7540867  71.6221165  32.8397652  36.6536577  71.5358495
  31.6463822  36.1735577  71.0606738  32.0557235  36.6532494  71.5266571
  47.8635739  39.8171736  67.6644400  47.6233962  38.9778152  67.6686827
  48.3427746  39.8971903  68.3885174  47.8987923  39.7053136  67.7719202
  49.8640926  36.5973194  65.6173659  49.6250696  36.5569028  64.7794444
  50.0274827  37.4444346  65.7439380  49.8531229  36.7165279  65.5127141
  46.4686956  40.9823143  71.5478704  47.1921155  40.5295669  71.3689724
  46.2036918  41.2627809  70.7651032  46.5368229  40.9574111  71.4057420
  35.3373825  35.5783316  68.2831584  34.7126895  35.5901708  67.6757536
  35.0019419  36.0543492  68.9322824  35.1959316  35.6501833  68.2888152
  32.0499500  43.6383777  69.7235348  31.5199425  42.9476215  69.7730323
  32.3224593  43.6293962  68.8948056  32.0124222  43.5350908  69.6082764
  42.2505746  41.0807021  69.6973720  41.6362739  40.5365071  69.9922355
  42.7673031  40.5671258  69.2179536  42.2361408  40.9243430  69.6697948
  41.4902043  42.1511291  67.4318018  41.0629651  41.5261010  66.9983454
  41.4826987  41.8686213  68.2577025  41.4261184  42.0164072  67.4897846
  34.6064570  37.1876464  70.5006452  34.7658057  36.4319788  70.9058174
  34.4257463  37.7367404  71.1547190  34.6029929  37.1570278  70.6569158
  42.5484873  29.3537700  71.0557242  42.0525434  29.5501374  70.3648808
  43.3053935  29.7530368  70.8846043  42.5871698  29.4415434  70.9277378
  39.8187752  33.0280046  67.6460552  39.8430240  32.4940158  66.9573332
  40.0699226  32.5197355  68.3086143  39.8597671  32.8740950  67.6425197
  27.3295342  40.3111541  67.0803696  27.2238791  40.2658385  66.2155780
  26.5795562  40.6565321  67.3617981  27.2030945  40.3552449  66.9941026
  36.0989075  31.7550864  67.0266296  36.1387446  32.2560071  67.7401004
  35.2738739  31.8461258  66.7572220  35.9828601  31.8432680  67.0916835
  38.2818688  41.3211604  75.1286591  37.4314318  41.4583318  75.2644236
  38.4446815  40.5875382  75.5734293  38.1802551  41.2325705  75.2142190
  37.5203438  38.2711374  69.3240195  36.6895368  38.4385192  69.1175444
  37.4654955  37.8947325  70.1089081  37.3892853  38.2401105  69.4088724
  35.8939482  36.5466965  59.8530313  36.0342443  37.0439430  60.5558955
  36.3922015  35.8453260  59.9944527  35.9880563  36.5168944  59.9781892
  48.9022270  39.9449554  70.0509254  49.4940110  40.5846804  70.0827452
  49.3381265  39.2472590  70.3401321  49.0540701  39.9367904  70.0990087
  37.5018687  33.3448052  57.1568332  37.8234528  32.8651134  56.5027594
  37.7645631  34.1547698  56.9659144  37.5884713  33.3937950  57.0323824
  40.7315660  44.3666926  70.6767148  40.2240751  44.9202773  71.1207779
  40.4342306  44.4275216  69.8585923  40.6120545  44.4573237  70.6215605
  42.8977842  32.7320246  69.5191811  43.3232914  32.2792772  68.9075337
  42.2834835  32.1780316  69.7956599  42.8706488  32.5834222  69.4696836
  32.4292692  39.6101917  60.4512436  32.9384922  40.2066425  60.8323742
  32.9026964  39.3427891  59.7688856  32.5736068  39.6587733  60.4066959
  41.3372065  29.2035346  62.9282388  40.6940383  29.0532992  63.4967527
  40.9971472  28.9577691  62.1631493  41.1917142  29.1447468  62.8985403
  39.9758145  49.2991484  67.5824155  39.7523800  48.5410314  67.9508181
  39.4867988  49.3289506  66.8604595  39.8701594  49.1913709  67.5300896
  46.0899539  33.6150656  65.2602770  46.4427149  33.1880379  65.9348569
  45.2314340  33.5301500  65.3903846  46.0148984  33.5395397  65.3797780
  34.7883224  36.2458176  63.3185616  34.0695213  36.6622308  63.5858480
  35.1595586  36.8112414  62.7677255  34.7375156  36.3907457  63.2768423
  44.0882805  36.8786025  69.2087612  44.0680732  36.6969320  70.0622391
  44.1362005  37.7498043  69.1847196  44.0917446  36.9802563  69.3310907
  42.0329135  43.4673217  75.1336089  41.9924989  42.8222894  74.5481245
  42.8452453  43.4109834  75.4461501  42.1472288  43.3632183  75.0933038
  38.6236602  49.5191942  65.0361240  38.2097001  48.8566073  64.6465081
  39.3083976  49.6669801  64.5156934  38.6634974  49.4432601  64.9017737
  41.9901896  48.6782028  65.7884856  41.5918179  48.7884298  65.0205676
  41.3753116  48.8864094  66.3711416  41.8400786  48.7255596  65.7616156
  40.5629798  35.2856176  58.6558996  39.9694638  35.6073172  58.1043563
  40.6005076  34.4397271  58.4480102  40.4804187  35.2080504  58.5441767
  47.5223599  28.7369068  66.1887082  47.0154464  28.0298207  66.1208260
  48.3191033  28.4062257  66.3188159  47.5650838  28.5842219  66.1986077
  37.7206843  37.0970153  71.6885846  37.2085746  36.4891336  72.0470878
  37.5486339  37.8126746  72.1559822  37.6196480  37.1133452  71.8102070
  32.5672558  35.5407728  74.3388208  32.3975148  36.2009103  73.7936415
  32.1238508  35.7514290  75.0600697  32.4771892  35.6693711  74.3649838
  36.4932377  33.7812226  63.3814942  36.9689744  34.1429306  62.7465123
  35.9920977  34.4368694  63.6615085  36.4897736  33.9306415  63.3291683
  41.5975914  35.0194398  74.1288102  42.1547344  34.7908207  73.4966567
  41.2736979  35.7800063  73.8523314  41.6322324  35.0978234  73.9944599
  29.4674623  38.4454594  69.5976698  28.9201342  37.7755240  69.7157566
  30.2567001  38.0784442  69.6620165  29.5026806  38.2919580  69.6245399
  39.3159031  38.1062051  75.0940109  40.0670358  38.4213728  75.4079663
  39.5081607  37.9041222  74.2674031  39.4550445  38.1229433  75.0183505
  46.1644321  34.2335617  62.3363904  46.1638547  34.0784274  63.1948181
  45.9600501  35.0798604  62.2805290  46.1344099  34.3356238  62.4551844
  28.2261592  37.6575402  66.7522721  28.0483353  37.2052011  67.4777637
  27.9380614  38.4601563  66.9361199  28.1574545  37.7097960  66.8866224
  43.8885173  38.9133119  65.9900111  44.3838838  38.1956114  65.9504132
  43.0784949  38.6103917  65.8754598  43.8429066  38.7630765  65.9673837
  29.9634062  40.1903126  63.8644480  29.0979581  40.1788816  63.7527251
  30.0632878  40.0033348  64.7115619  29.8508229  40.1609187  63.9733424
  45.9536992  41.6636807  68.6777240  46.3792064  41.1411229  68.1247665
  45.5893912  42.2617644  68.1565863  45.9623595  41.6747034  68.5186250
  35.5891072  49.9601024  67.4374586  35.9037631  50.7737413  67.4452367
  35.9984485  49.5751243  68.1056745  35.6959170  50.0229727  67.5378677
  42.5415591  45.3771071  65.0078398  43.0126770  46.0911334  65.1768383
  42.8775770  44.7769821  65.5438267  42.6610706  45.3942535  65.1110773
  44.6292576  46.9872384  77.1870470  44.7389541  46.1980945  77.5427217
  44.9583473  46.8978321  76.3844808  44.6944982  46.8578237  77.1212860
  39.4585086  30.1498542  71.9636492  39.5912992  29.3529535  72.2917468
  39.8430239  30.6764945  72.5434768  39.5341415  30.1098458  72.0979995
  43.1789538  45.1689005  71.7706090  42.6310484  44.5446889  71.5026155
  43.6402566  45.3583277  71.0550170  43.1656747  45.1048055  71.6256521
  42.5317442  27.0728868  68.5617586  41.7263405  26.9626597  68.8785424
  42.4024177  27.1741323  67.7047451  42.3937574  27.0712538  68.4825626
  45.9883402  33.2374360  69.1557282  45.4046391  33.7383566  68.7434850
  46.3087696  32.7303916  68.5221606  45.9496577  33.2366195  69.0015790
  38.5278201  32.1514954  59.4315957  39.3493896  32.3213267  59.1897652
  38.0647852  32.3062215  58.7082255  38.5809363  32.1996687  59.2887602
  37.1173533  30.1457717  70.2114386  37.6617946  29.8048843  70.8018728
  37.1710469  31.0043178  70.3535671  37.2062653  30.2212976  70.3196259
  32.9304092  43.9074133  67.0853194  33.5348949  43.8669967  66.4567015
  32.7231404  44.7545285  67.1157250  32.9892989  44.0262135  66.9969310
  42.7447864  46.1740078  68.3015431  43.5646238  46.0303044  68.5631727
  42.4641942  46.7986277  68.8431869  42.8244607  46.2450430  68.4203371
  28.1655374  42.8908750  66.9552117  28.0679652  42.0805022  67.2642174
  28.9484244  42.8700544  66.5698385  28.2671511  42.7675840  66.9438980
  59.2161514  53.8304929  61.2658308  59.1855519  54.6849566  61.4376577
  59.8142863  53.5300222  61.8244451  59.2998672  53.9121426  61.3733110
  52.4161199  52.9180580  66.0211238  51.5599095  53.0789079  66.0720355
  52.4628853  52.0472644  66.0416299  52.2960311  52.8131382  66.0317304
  46.8002339  62.4543298  61.7848470  46.0485239  62.0758837  61.5564515
  47.2488351  62.4861732  61.0367280  46.7552006  62.4028906  61.6405972
  52.2527299  62.8768668  57.2134017  51.9178667  63.5545589  56.7778239
  52.7654169  62.4873979  56.6250888  52.2792880  62.9193246  57.0620808
  51.7931590  64.8282937  63.1545128  52.1770969  65.3969835  62.6149904
  51.7290731  64.1032447  62.6750944  51.8405017  64.8058400  63.0038991
  55.2613020  54.9772624  68.6642890  55.8068980  55.6557711  68.7236859
  55.2029897  54.8360085  67.8044471  55.3328935  55.0564626  68.5454950
  48.3787095  62.4661691  64.0511242  48.4797458  61.6562044  64.3608370
  47.7828840  62.3718637  63.4210921  48.3059634  62.3326719  64.0037481
  57.0378089  56.4057231  59.5376618  56.9217615  57.1564918  59.9668756
  57.8333976  56.1481185  59.7872705  57.1382678  56.4792078  59.6380709
  48.2187835  67.3839280  65.4526098  48.8625290  67.8252444  65.8422257
  48.5444090  66.5792706  65.3656357  48.3619663  67.3304474  65.4971576
  43.8742227  50.6567708  66.5747884  43.2547259  50.0660355  66.4057898
  43.7726090  51.2479143  65.9412207  43.7679902  50.6571790  66.4552873
  48.9208414  60.3951255  60.8245960  49.2424256  60.9356462  60.2207268
  49.5680511  59.8248026  60.9568250  49.0634470  60.3910430  60.7552995
  50.9710123  52.3967249  60.9080347  51.6690287  52.5755377  61.4001810
  51.2862455  51.8737589  60.2850736  51.1205460  52.3461022  60.8882357
  43.6011360  54.2019989  68.8191453  43.4770057  54.7882435  69.4541271
  44.2529644  53.7080185  69.1203728  43.6785009  54.2158794  68.9577382
  51.1598058  58.7837695  60.8960138  51.5991693  58.1754795  61.3414911
  51.0102721  58.4045068  60.1245603  51.2019524  58.6376166  60.8479306
  48.6269701  57.3781706  68.0978964  49.2718703  56.8854149  67.7789912
  48.8671478  57.5206493  68.9245042  48.7580286  57.3259149  68.1728497
  51.1655792  60.2236612  67.7485856  51.4479035  59.4288018  67.5272612
  51.8941953  60.7017200  67.7690917  51.3145356  60.1771209  67.7188871
  54.7607394  57.1364876  57.8490907  54.6758690  57.9925842  57.9940476
  55.2491778  56.8609200  58.5173067  54.8196292  57.2222197  57.9692989
  56.3513394  43.7545169  63.2351232  56.0366835  44.4448648  63.6671654
  55.8340336  43.6989951  62.5336733  56.2277864  43.8480058  63.1948181
  55.6925828  53.7549670  59.3488643  55.1637299  53.9709303  60.0085949
  56.2150848  54.4485808  59.2689612  55.6914281  53.8892807  59.4344242
  61.1473881  59.3295974  64.7221687  60.3171584  59.5406618  64.8855104
  61.0983133  58.5033029  64.4463971  61.0180616  59.2385581  64.7059052
  47.5825435  57.6512887  58.1496110  46.9982651  58.1562918  58.5561974
  47.1795531  57.4255274  57.4092702  47.4364739  57.6921135  58.1001136
  43.1369464  63.3667648  64.9519782  42.6537042  64.0918138  64.9279366
  43.9492782  63.6643778  65.0629940  43.1860212  63.5170002  64.9647061
  49.2083618  62.1599829  67.5569596  48.6910560  61.8007244  66.9530905
  49.9058009  61.6362003  67.5675663  49.2349199  62.0297517  67.4699855
  52.0402650  53.8978539  56.6265031  52.2798654  54.1056523  55.8140374
  52.3618491  53.0936048  56.7353976  52.1239808  53.8092640  56.5225584
  45.9913661  63.8823824  65.1040062  46.6934241  63.3675813  65.1612818
  45.9111144  64.2097975  65.9086937  46.0837422  63.8538050  65.2312854
  60.6427839  51.9766375  68.5172108  59.8056260  52.0468562  68.7519703
  60.6116070  51.9790870  67.6446411  60.5146121  51.9876602  68.4231656
  47.0392568  54.1199411  74.2320477  47.2113072  54.0105305  75.0805758
  47.5761925  54.7653816  73.9951669  47.1437572  54.1991412  74.3225574
  45.3164437  60.0730176  64.6125670  46.1553336  60.3053109  64.6599432
  45.3476206  59.2034487  64.5432705  45.4446154  59.9787122  64.6090315
  45.9417140  60.4931051  68.9138975  46.4815365  60.3502182  69.5842348
  45.2587086  60.8927802  69.2823002  45.9209294  60.5310722  69.0673397
  55.3658025  56.1722052  64.1084000  56.1215540  56.6053566  64.1472909
  55.4720349  55.5226821  64.6818636  55.4928195  56.1399535  64.1982025
  58.4038196  59.9995329  64.8586403  57.9673428  60.0032071  65.6145374
  58.0701111  60.6800828  64.4265980  58.2900816  60.1007785  64.9067235
  41.3454285  56.7131342  69.0673397  41.0792700  55.8970458  69.2264387
  41.3592849  56.7584497  68.1968912  41.3079007  56.5988247  68.9626879
  58.3235679  47.0409157  67.1015831  58.9661587  47.1107261  67.6877746
  58.5758699  46.3738380  66.5995373  58.4557811  46.9535505  67.1143110
  46.0952891  50.2509720  71.7140405  45.4024688  49.7806700  71.9601136
  46.7113219  50.0248025  72.2882112  46.0837421  50.1476852  71.8349557
  61.5382542  56.7176249  63.7506040  62.1998976  56.1566917  63.6501948
  60.8973954  56.2228279  64.0758731  61.5411410  56.5612658  63.7838380
  52.4259350  60.0146380  56.0586963  52.8410498  59.6831404  55.3671459
  51.5951279  59.7815282  55.9307100  52.3647358  59.9317636  55.9377811
  41.7547699  57.4990121  66.3485141  41.5723272  57.4737007  65.4957433
  42.4897367  57.9689059  66.3874050  41.8361762  57.5651483  66.2283060
  57.8247373  57.7341631  63.4918029  58.0602962  57.8786830  62.6644879
  57.9736936  58.4984039  63.8849542  57.8813176  57.8680686  63.4281633
  44.8193450  54.2175124  72.8567250  45.5433423  54.2028155  73.3432145
  44.9209587  54.9270479  72.3589218  44.9411659  54.3199827  72.8546037
  59.6537829  56.5743297  61.3287633  59.9846047  57.1070937  60.7227727
  60.2270918  56.6282185  61.9849584  59.7871509  56.6612866  61.3365414
  54.8669719  54.4208200  62.0111213  54.9616573  55.1597494  62.4650838
  54.2428562  53.9925675  62.4445777  54.7878749  54.4669520  62.1419360
  41.7218609  54.3783622  66.4984208  42.2992111  54.2420073  67.1376453
  41.0232671  53.9219406  66.7529792  41.7039630  54.2905888  66.6306497
  55.1192740  56.2656940  55.2448165  55.0372902  56.3359127  56.1103152
  55.7572460  56.8286683  55.0531905  55.2012577  56.3595911  55.3438114
  48.4785911  56.0317678  64.7122691  48.2205155  55.1989412  64.6853990
  48.5334394  56.2575290  63.8715191  48.4485689  55.9415449  64.5842828
  47.4520623  53.5855440  65.1987586  46.8770214  53.7447608  65.8351547
  47.0756299  52.9490849  64.7356036  47.3123436  53.5153253  65.2242144
  51.1193912  52.0578789  70.0579964  50.7308345  51.6333007  69.4032155
  50.4548610  52.3060939  70.5656991  50.9640840  52.0317510  70.0367832
  60.7617181  51.8153794  62.8327794  60.5053746  51.0033735  62.6425677
  61.6046495  51.8231361  62.6057982  60.8483206  51.6965791  62.7712611
  37.1977442  53.2295515  63.2132026  37.2837694  52.8527383  63.9945556
  37.8253240  52.8555960  62.7351985  37.3033993  53.1180997  63.2577504
  54.9420273  45.7553418  67.5703948  55.3230785  45.0731589  67.9571823
  54.1383558  45.4663020  67.3879613  54.8796735  45.6120467  67.6008004
  52.2232850  56.2877394  58.2556771  53.0373489  56.5792287  58.1439543
  52.1591991  55.6337256  57.6815064  52.3335589  56.2342589  58.1545608
  48.0940758  59.7598911  63.3829083  48.7314705  59.5210659  63.9280877
  48.5195830  59.9636070  62.6482244  48.2516925  59.7549922  63.3546241
  42.7853401  61.9987248  67.2663387  42.8257546  62.2702099  66.4383167
  43.3447925  62.5229156  67.6821175  42.8736747  62.1163003  67.2055275
  48.7343573  54.9801201  57.7203973  49.1188726  54.7608908  58.4720518
  48.4855194  55.8064146  57.8505049  48.7545646  55.0699347  57.8505049
  48.9012114  48.2607616  77.4366557  48.5865555  49.0307179  77.1736120
  48.5802046  47.6977872  76.8518784  48.8071033  48.2917885  77.3107907
  50.4762230  60.2371334  65.0622870  50.5501239  60.0746506  65.9164719
  51.2931737  60.4261523  64.8183351  50.6078589  60.2408076  65.1520895
  44.2367987  60.5829197  62.0917313  43.4106105  60.8290934  61.9651592
  44.2979978  60.5041278  62.9579371  44.1242154  60.6074146  62.2006257
  46.4544011  46.6498138  63.0512753  45.5866436  46.7220737  63.1170362
  46.7419215  47.4520217  63.2400728  46.3683759  46.7792285  63.0887520
  55.5776900  46.7975997  71.3824075  56.3230492  46.6085808  70.9687500
  55.1614204  47.3234235  70.8237931  55.6261874  46.8478143  71.2388648
  49.0166816  63.2006077  59.7936343  49.3065114  62.8095058  59.0695570
  49.7470297  63.3822782  60.2341618  49.1673700  63.1699891  59.7519150
  62.9539170  54.1685226  66.3329580  63.5047092  53.5353295  66.5726672
  62.9383286  54.7000618  67.0245084  63.0324367  54.1534174  66.4708438
  49.6061561  58.0023823  70.8789473  49.1073255  58.7139591  70.9574362
  50.4161785  58.3224489  70.8407636  49.6517668  58.1550672  70.8846042
  46.9572732  65.1773459  62.8596493  46.7373027  64.8870814  63.6523160
  46.7367254  64.5188414  62.3314405  46.8920326  65.0373168  62.8985401
  45.8689679  57.2646776  65.1252194  45.5802927  56.6384247  65.6597922
  46.7373027  57.2067063  65.1916875  45.9549931  57.1634320  65.2143149
  56.6567577  52.4081559  65.4434176  56.3132342  51.6871895  65.7941426
  56.7560619  52.1995410  64.6012534  56.6209619  52.2705763  65.3705856
  49.1240687  66.5502849  61.6427185  49.7764745  66.0179292  61.8718211
  48.4266296  66.1971502  62.0295059  49.1171405  66.4192372  61.7339353
  46.0721952  58.9042027  61.0494559  46.8267920  59.2855066  61.2630022
  45.4792565  59.3553171  61.5041256  46.0958666  59.0270854  61.1477438
  57.1180606  58.8707263  60.9858164  57.6838638  59.5300473  60.9016707
  56.4708509  59.2156961  61.4574566  57.1059362  59.0189205  61.0430921
  48.5328619  50.8604867  76.1751772  47.7228395  51.1662647  76.0641614
  49.0103306  51.5810450  76.2904356  48.4832098  51.0119468  76.1758843
  47.3920179  60.0750588  66.4234675  46.8700932  60.2150880  67.1086539
  47.7794199  59.3161253  66.6136792  47.3723880  59.9836112  66.5535751
  44.3811363  50.1256397  60.4929629  44.0936159  49.7557667  59.7561577
  45.0681831  50.5951252  60.2313334  44.4400260  50.1403366  60.3444705
  53.5887184  61.8146048  60.4095243  53.3473860  61.0813908  60.0022308
  53.7688517  62.3632905  59.7561577  53.5794808  61.7868439  60.2525466
  48.8186504  57.1054607  61.8216166  48.6229287  57.7129342  61.2276469
  49.0420850  56.4122551  61.3407840  48.8221145  57.0932133  61.6632247
  47.2165034  53.9909345  61.9397034  47.9387686  54.1550503  61.4800840
  46.7373027  54.7119010  61.8336374  47.2528765  54.1207575  61.8562648
  55.1758542  50.3273144  67.3193719  54.3369643  50.3534423  67.0831982
  55.2462909  50.9743879  67.8999066  55.0626935  50.4269270  67.3702836
  44.8672651  56.3967418  71.0451174  45.3793748  56.6751671  70.3959934
  44.5808994  57.1356712  71.4113987  44.9007514  56.5469771  71.0041052
  59.0516066  55.5341131  64.6054961  58.9650040  55.6896557  65.4589740
  58.5966546  56.1779206  64.2314366  58.9719322  55.6516886  64.6762068
  41.9539557  50.9037610  61.3414910  42.0555694  51.7063771  61.6695886
  42.7495444  50.7024945  61.0437991  42.0867463  50.9923508  61.3450266
  48.3856376  48.4893806  71.1052216  48.1939574  48.5048941  71.9551639
  49.2354972  48.6857481  71.0818870  48.4832098  48.5208157  71.2275510
  42.7703290  51.0184788  69.0836032  42.6288781  50.1668728  69.2080540
  43.0543853  51.0613448  68.2598238  42.7911136  50.8984538  68.9803656
  52.9241882  52.8551878  63.2280520  52.6776596  52.7747629  64.0617309
  53.2527005  52.0705346  63.0343048  52.9363125  52.7278143  63.3228043
  56.8189931  59.5635237  67.0167302  56.6804290  60.2616283  67.5216044
  56.0389929  59.4083894  66.6603483  56.6833158  59.6435404  67.0393576
  48.8838909  55.5908596  72.6403503  49.0282285  56.1709805  72.0046613
  49.2314558  55.9684893  73.3453358  48.9566371  55.7329301  72.6502498
  51.0558827  54.7898765  70.4228635  50.3082141  54.9829779  70.0176913
  51.2100352  53.9643984  70.1852756  50.9681254  54.6963876  70.3274041
  58.3143304  58.9213491  57.7783801  57.9350112  58.1350629  57.7713090
  57.6509549  59.4700348  57.6355445  58.1601778  58.8858315  57.7564598
  51.2960604  48.6849316  71.3124039  51.7533218  49.4173290  71.4396831
  51.3716932  48.2615781  72.0711295  51.3751573  48.7306554  71.4425115
  43.5393595  48.9315135  72.4013482  43.0035784  48.3195493  72.7174250
  43.6011360  49.5063271  73.0547149  43.4689227  48.9262063  72.5448909
  55.7687929  41.8639191  65.1817882  55.8871498  42.3215654  64.4485184
  55.5950105  41.0584452  64.8954099  55.7607100  41.8132963  65.0318815
  51.1390212  62.4727010  61.6172627  51.9040103  62.2036654  61.2955291
  51.0368302  61.9877020  62.3342690  51.2371707  62.3616575  61.6752455
  49.1742981  50.6751420  68.1565863  48.3839056  50.4942880  68.4783199
  49.5703604  49.8978372  68.1396157  49.1159858  50.5338880  68.2018411
  53.6608872  59.5039194  53.5972576  54.4281857  59.5639319  53.1878428
  53.2140181  58.9319635  53.1128895  53.7082299  59.4275770  53.4650287
  54.5586668  58.3093850  65.8825309  53.8831670  58.0779082  66.3838696
  54.5679044  57.7015033  65.2567414  54.4605172  58.1852775  65.8641461
  51.6880812  53.1511679  72.6389362  51.6239953  54.0121635  72.5109498
  51.8277999  52.8343672  71.8384913  51.6996282  53.2311845  72.5017575
  56.5603402  61.1658982  58.1135487  56.6423240  61.9725968  57.7896938
  57.0453145  61.1854941  58.8376260  56.6440560  61.2879644  58.1722385
  50.3699906  55.8443818  66.7805565  49.9462155  56.0448317  66.0444583
  50.1944761  54.9972666  66.8929864  50.2810786  55.7492599  66.6879255
  45.6582351  56.3395869  62.2133537  45.8146970  56.2742672  63.0689529
  45.9982944  57.1144422  62.0012217  45.7315585  56.4445068  62.3088131
  52.1961495  55.7153753  61.0826900  52.7377041  55.2124134  61.5465521
  52.5108054  55.6618948  60.2716386  52.3225892  55.6333174  61.0310712
  50.3647945  61.1071105  58.3666928  50.4340765  60.2485643  58.5059929
  51.1436400  61.3242985  58.0385953  50.4900795  61.0123969  58.3384086
  53.3450765  50.6090058  71.1349201  53.5592734  49.9700972  70.5812555
  52.7284664  51.0535881  70.7057063  53.2856094  50.5800201  70.9899632
  54.7555433  63.5308806  62.5803422  54.3635224  63.2275521  61.8626288
  54.9108505  64.3677896  62.3908375  54.7209022  63.6092643  62.4459919
  42.2316612  53.5230820  62.5294304  42.6115577  53.9415365  61.8654572
  41.6571977  54.1044276  62.8363148  42.2027937  53.6708679  62.4771045
  55.5089853  52.2179123  72.0732508  54.6966534  51.9105013  72.1545681
  55.9679787  51.7378123  72.6375220  55.4570237  52.1015615  72.1687102
  54.9195107  60.0958795  62.5209452  54.5609762  60.2673438  63.2973485
  54.4333818  60.5572000  61.9637451  54.7953804  60.1897766  62.5534721
  52.7365493  43.7189993  66.1236544  51.8659051  43.6928714  66.0769853
  52.9905835  43.5467185  65.3062389  52.6459053  43.6900137  65.9956680
  49.7083473  55.7757960  55.0609687  49.9975998  56.5522843  55.3353261
  49.7955272  55.2646692  55.7624186  49.7637729  55.8149878  55.2052184
  49.7614634  45.7296222  67.5810014  49.2453122  45.0376413  67.7061593
  49.2008563  46.3966999  67.5272613  49.6021147  45.7259479  67.5916080
  51.8306867  46.2689182  69.4102867  51.4438620  46.2938213  70.1916396
  51.3439804  45.7030860  68.9577383  51.7019376  46.1884933  69.4590770
  57.8056847  52.8351837  68.0342569  57.3784455  52.7478185  67.2790668
  57.1682900  52.9429612  68.6197413  57.6486454  52.8384496  68.0088010
  51.4964009  43.1556167  71.7013126  52.1257127  43.6916467  71.4234197
  51.6649872  43.0633526  72.5526692  51.6141803  43.2217529  71.7861655
  51.2977924  47.9427362  73.9739538  52.1251353  47.6712511  74.0298152
  51.3185770  48.7388204  74.3303356  51.4230774  48.0207116  74.0354721
  45.8747414  55.0891225  67.1609799  45.0335420  54.9895099  67.3688693
  46.0837422  55.8586705  67.5124119  45.7812106  55.1883268  67.2437114
  43.3522981  52.7110762  64.9894549  42.9579678  52.7853773  64.2144659
  42.7963097  53.0968708  65.5402911  43.2125793  52.7792536  64.9562209
  54.9887927  45.6892056  64.6698428  55.1937521  45.6214363  65.5155425
  54.6614351  46.4950877  64.6019606  54.9703175  45.7977996  64.7858083
  49.6864079  53.0172624  66.4107396  49.3827216  52.4628612  67.0117804
  48.9843499  53.1964834  65.9235430  49.5380288  52.9617406  66.4277102
  47.7482430  60.2322345  71.1179494  47.6402784  60.2424407  71.9841552
  47.9578211  61.0577125  70.9284448  47.7632541  60.3563419  71.2183586
  58.2421615  46.2423820  64.1501194  57.6295929  46.7294222  64.5354926
  58.3385790  45.5667311  64.6938845  58.1659513  46.2142129  64.2880052
  45.7656222  57.4834987  68.5801432  45.1744155  58.1244485  68.5504447
  46.5277245  57.9072604  68.5532731  45.7904482  57.6410825  68.5716579
  46.1616844  48.6436985  69.2469449  46.6218326  48.7175914  69.9844573
  46.2072951  49.4418239  68.8969271  46.2367400  48.7731132  69.3042206
  47.8100194  49.3103680  73.8141476  47.4185759  48.6637027  74.2497254
  47.9786057  49.9015115  74.4335732  47.7771104  49.3017947  73.9704182
  55.5245738  62.9344299  66.0133456  55.3265426  63.4235113  65.3189667
  54.9033449  63.1385540  66.5917589  55.4033302  63.0360837  65.9956679
  49.5853716  54.7029195  60.3543700  50.3295761  55.0903472  60.5926650
  49.7314412  53.8586621  60.5184188  49.7164301  54.6359668  60.4137670
  52.5731592  50.2754669  66.2537620  52.0991546  49.7496431  66.7642931
  52.9449728  49.7284142  65.6852481  52.5581481  50.1170665  66.2452767
  42.9504622  52.2726175  71.6221165  43.8130235  52.1721885  71.5358495
  42.6196405  51.6920885  71.0606738  43.0289818  52.1717802  71.5266571
  58.8368323  55.3357044  67.6644400  58.5966545  54.4963459  67.6686827
  59.3160330  55.4157211  68.3885174  58.8720506  55.2238444  67.7719202
  60.8373510  52.1158502  65.6173659  60.5983280  52.0754336  64.7794444
  61.0007411  52.9629654  65.7439380  60.8263813  52.2350587  65.5127141
  46.3106408  51.0968624  68.2831584  45.6859478  51.1087016  67.6757536
  45.9752003  51.5728799  68.9322824  46.1691900  51.1687141  68.2888152
  43.0232084  59.1569084  69.7235348  42.4932008  58.4661523  69.7730323
  43.2957177  59.1479270  68.8948056  42.9856806  59.0536216  69.6082764
  54.0552174  59.7394787  58.4473030  54.7786373  60.2052900  58.3037604
  53.6152765  59.8068396  57.6970628  54.0967866  59.8178624  58.3157812
  53.2238329  56.5992329  69.6973720  52.6095322  56.0550379  69.9922355
  53.7405614  56.0856566  69.2179536  53.2093992  56.4428738  69.6697948
  52.4634626  57.6696599  67.4318018  52.0362234  57.0446318  66.9983454
  52.4559571  57.3871521  68.2577025  52.3993768  57.5349380  67.4897846
  45.5797153  52.7061772  70.5006452  45.7390640  51.9505096  70.9058174
  45.3990047  53.2552712  71.1547190  45.5762512  52.6755586  70.6569158
  53.5217456  44.8723008  71.0557242  53.0258018  45.0686682  70.3648808
  54.2786518  45.2715676  70.8846043  53.5604281  44.9600742  70.9277378
  50.7920336  48.5465354  67.6460552  50.8162823  48.0125466  66.9573332
  51.0431810  48.0382662  68.3086143  50.8330255  48.3926258  67.6425197
  38.3027926  55.8296849  67.0803696  38.1971375  55.7843693  66.2155780
  37.5528146  56.1750629  67.3617981  38.1763529  55.8737757  66.9941026
  47.0721658  47.2736172  67.0266296  47.1120030  47.7745378  67.7401004
  46.2471323  47.3646566  66.7572220  46.9561184  47.3617988  67.0916835
  48.4936022  53.7896682  69.3240195  47.6627951  53.9570500  69.1175444
  48.4387539  53.4132633  70.1089081  48.3625437  53.7586413  69.4088724
  46.3019805  47.2805575  74.9596606  46.9272508  46.7367707  75.2326038
  45.8470285  46.8000492  74.3904397  46.3268066  47.1295056  74.9158200
  46.8672065  52.0652273  59.8530313  47.0075027  52.5624737  60.5558955
  47.3654598  51.3638568  59.9944527  46.9613146  52.0354252  59.9781892
  46.8972288  52.9319384  57.1822890  47.5317367  53.5279809  57.1172352
  46.9797899  52.6322842  57.9968760  47.0028839  52.9760292  57.2925977
  48.4751271  48.8633360  57.1568332  48.7967112  48.3836442  56.5027594
  48.7378214  49.6733006  56.9659144  48.5617296  48.9123258  57.0323824
  53.8710426  48.2505554  69.5191811  54.2965497  47.7978080  68.9075337
  53.2567419  47.6965624  69.7956599  53.8439071  48.1019530  69.4696836
  43.4025276  55.1287225  60.4512436  43.9117505  55.7251733  60.8323742
  43.8759548  54.8613199  59.7688856  43.5468651  55.1773040  60.4066959
  54.3156024  63.8015492  58.6071092  53.5985334  63.6276354  58.1418329
  54.9662761  63.5668064  58.0746578  54.3057874  63.7411284  58.4600309
  56.9003995  52.6780080  62.3512397  56.2295185  53.2209783  62.2225462
  57.5943745  53.1474936  62.1094091  56.9032863  52.8278352  62.2967924
  50.9490729  64.8176792  67.5824155  50.7256383  64.0595622  67.9508181
  50.4600572  64.8474813  66.8604595  50.8434178  64.7099017  67.5300896
  57.0632123  49.1335964  65.2602770  57.4159733  48.7065687  65.9348569
  56.2046924  49.0486807  65.3903846  56.9881567  49.0580705  65.3797780
  45.7615807  51.7643484  63.3185616  45.0427797  52.1807616  63.5858480
  46.1328170  52.3297722  62.7677255  45.7107739  51.9092765  63.2768423
  55.0615388  52.3971333  69.2087612  55.0413316  52.2154628  70.0622391
  55.1094589  53.2683351  69.1847196  55.0650029  52.4987871  69.3310907
  49.5969186  65.0377250  65.0361240  49.1829584  64.3751381  64.6465081
  50.2816560  65.1855109  64.5156934  49.6367557  64.9617909  64.9017737
  52.9634480  64.1967336  65.7884856  52.5650763  64.3069606  65.0205676
  52.3485699  64.4049402  66.3711416  52.8133369  64.2440904  65.7616156
  58.4956183  44.2554376  66.1887082  57.9887047  43.5483515  66.1208260
  59.2923616  43.9247565  66.3188159  58.5383422  44.1027527  66.1986077
  54.4120198  50.7620988  62.0860746  54.1833891  50.7853689  61.2439104
  54.6718275  49.9378455  62.2055757  54.4166386  50.6437068  61.9785944
  48.6939427  52.6155461  71.6885846  48.1818330  52.0076644  72.0470878
  48.5218923  53.3312054  72.1559822  48.5929064  52.6318760  71.8102070
  43.5405142  51.0593036  74.3388208  43.3707732  51.7194411  73.7936415
  43.0971091  51.2699598  75.0600697  43.4504475  51.1879018  74.3649838
  47.4664961  49.2997534  63.3814942  47.9422327  49.6614614  62.7465123
  46.9653561  49.9554002  63.6615085  47.4630320  49.4491723  63.3291683
  60.6976323  58.7719302  59.1727947  61.0809928  59.5210659  59.4026044
  59.9020436  59.0185122  58.9139936  60.6370105  58.9188996  59.1685520
  52.5708497  50.5379706  74.1288102  53.1279927  50.3093515  73.4966567
  52.2469562  51.2985371  73.8523314  52.6054907  50.6163542  73.9944599
  40.4407206  53.9639902  69.5976698  39.8933926  53.2940547  69.7157566
  41.2299584  53.5969750  69.6620165  40.4759390  53.8104888  69.6245399
  49.5091614  51.4438734  56.7488326  49.8890579  51.4618363  55.9639441
  48.7684210  51.8892723  56.6279173  49.4560452  51.5120509  56.6151894
  57.1376905  49.7520925  62.3363904  57.1371131  49.5969582  63.1948181
  56.9333085  50.5983912  62.2805290  57.1076682  49.8541546  62.4551844
  39.1994176  53.1760710  66.7522721  39.0215937  52.7237319  67.4777637
  38.9113198  53.9786871  66.9361199  39.1307129  53.2283268  66.8866224
  54.8617757  54.4318427  65.9900111  55.3571422  53.7141422  65.9504132
  54.0517532  54.1289225  65.8754598  54.8161650  54.2816073  65.9673837
  50.3076368  58.2816240  58.1397116  49.4987691  57.9582914  58.0930425
  50.8151277  57.5749462  58.0725364  50.2626035  58.1297557  58.1227410
  40.9366645  55.7088433  63.8644480  40.0712165  55.6974124  63.7527251
  41.0365461  55.5218656  64.7115619  40.8240812  55.6794495  63.9733424
  56.9269576  57.1822115  68.6777240  57.3524647  56.6596536  68.1247665
  56.5626495  57.7802952  68.1565863  56.9356178  57.1932342  68.5186250
  46.5623655  65.4786332  67.4374586  46.8770214  66.2922721  67.4452367
  46.9717069  65.0936551  68.1056745  46.6691753  65.5415034  67.5378677
  53.5148175  60.8956379  65.0078398  53.9859353  61.6096641  65.1768383
  53.8508354  60.2955129  65.5438267  53.6343290  60.9127843  65.1110773
  50.4317670  45.6683849  71.9636492  50.5645576  44.8714843  72.2917468
  50.8162823  46.1950252  72.5434768  50.5073999  45.6283766  72.0979995
  53.5050025  42.5914176  68.5617586  52.6995989  42.4811905  68.8785424
  53.3756761  42.6926631  67.7047451  53.3670158  42.5897846  68.4825626
  56.9615986  48.7559667  69.1557282  56.3778974  49.2568874  68.7434850
  57.2820280  48.2489224  68.5221606  56.9229161  48.7551502  69.0015790
  48.0906117  45.6643025  70.2114386  48.6350530  45.3234151  70.8018728
  48.1443052  46.5228486  70.3535671  48.1795236  45.7398284  70.3196259
  43.9036675  59.4259441  67.0853194  44.5081533  59.3855275  66.4567015
  43.6963988  60.2730593  67.1157250  43.9625573  59.5447443  66.9969310
  39.1387958  58.4094058  66.9552117  39.0412236  57.5990330  67.2642174
  39.9216827  58.3885851  66.5698385  39.2404094  58.2861148  66.9438980
  61.9442706  67.9152557  60.9080347  62.6422871  68.0940685  61.4001810
  62.2595039  67.3922897  60.2850736  62.0938043  67.8646330  60.8882357
  60.1169570  63.2844954  64.9901621  59.7872900  63.7356098  64.3205320
  59.4414571  63.2061117  65.5374628  59.9680006  63.3396089  64.9724845
  67.3245977  59.2730477  63.2351232  67.0099418  59.9633956  63.6671654
  66.8072919  59.2175259  62.5336733  67.2010448  59.3665366  63.1948181
  58.5558019  73.1698195  58.1496110  57.9715234  73.6748226  58.5561974
  58.1528114  72.9440582  57.4092702  58.4097323  73.2106443  58.1001136
  63.0135233  69.4163847  56.6265031  63.2531237  69.6241830  55.8140374
  63.3351074  68.6121355  56.7353976  63.0972391  69.3277948  56.5225584
  58.3225524  61.3457242  60.4724569  59.0771492  61.7135560  60.2341619
  58.1453058  61.7196797  61.2403749  58.4080002  61.4555430  60.5509458
  56.6782588  63.7527561  57.1702682  56.4958162  63.9699442  56.3443675
  57.5408201  63.8666574  57.2261296  56.7787178  63.8017459  57.0557169
  62.3582308  60.7553972  60.2051706  63.0868468  60.5769927  59.7589862
  62.4477200  61.5972052  60.4158884  62.4788970  60.8537851  60.1705223
  56.2244615  67.0301734  55.6825155  55.5102793  66.7439914  56.0947588
  56.7088584  67.3698360  56.3231543  56.1903979  67.0383384  55.8380790
  63.3991933  75.5331688  56.0586963  63.8143082  75.2016712  55.3671459
  62.5683863  75.3000590  55.9307100  63.3379942  75.4502944  55.9377811
  66.0925323  71.7842247  55.2448165  66.0105486  71.8544435  56.1103152
  66.7305044  72.3471991  55.0531905  66.1745161  71.8781219  55.3438114
  48.1710026  68.7480823  63.2132026  48.2570277  68.3712691  63.9945556
  48.7985823  68.3741268  62.7351985  48.2766577  68.6366305  63.2577504
  63.1965434  71.8062702  58.2556771  64.0106072  72.0977595  58.1439543
  63.1324575  71.1522564  57.6815064  63.3068173  71.7527897  58.1545608
  59.7076157  70.4986509  57.7203973  60.0921310  70.2794216  58.4720518
  59.4587777  71.3249454  57.8505049  59.7278230  70.5884655  57.8505049
  57.4276594  62.1683446  63.0512753  56.5599020  62.2406045  63.1170362
  57.7151799  62.9705525  63.2400728  57.3416342  62.2977593  63.0887520
  55.3543946  65.6441705  60.4929629  55.0668742  65.2742975  59.7561577
  56.0414415  66.1136560  60.2313334  55.4132844  65.6588674  60.3444705
  58.1897618  69.5094653  61.9397034  58.9120270  69.6735811  61.4800840
  57.7105611  70.2304318  61.8336374  58.2261349  69.6392883  61.8562648
  64.5960404  62.7443829  62.0521335  65.2986757  62.5451577  61.5741293
  64.3304593  61.9719771  62.3590178  64.6607036  62.6006795  62.0266777
  52.9272141  66.4222917  61.3414910  53.0288277  67.2249079  61.6695886
  53.7228028  66.2210253  61.0437991  53.0600047  66.5108816  61.3450266
  66.7420513  57.3824499  65.1817882  66.8604081  57.8400962  64.4485184
  66.5682689  56.5769760  64.8954099  66.7339684  57.3318271  65.0318815
  64.6341456  75.0224502  53.5972576  65.4014441  75.0824627  53.1878428
  64.1872765  74.4504943  53.1128895  64.6814883  74.9461077  53.4650287
  53.2049196  69.0416128  62.5294304  53.5848161  69.4600673  61.8654572
  52.6304560  69.6229584  62.8363148  53.1760521  69.1893987  62.4771045
  63.7098077  59.2375301  66.1236544  62.8391635  59.2114022  66.0769853
  63.9638418  59.0652493  65.3062389  63.6191637  59.2085445  65.9956680
  60.6816056  71.2943268  55.0609687  60.9708581  72.0708151  55.3353261
  60.7687855  70.7831999  55.7624186  60.7370313  71.3335186  55.2052184
  59.7162759  65.8458452  60.9752098  59.9922494  65.1277364  60.5629666
  60.3161429  66.4443371  60.7673204  59.8456024  65.8278822  60.8832859
  63.2173280  63.5171969  59.2498693  63.6717026  63.6882529  59.9746538
  63.6913325  62.9040080  58.8496469  63.3541600  63.4522854  59.2972455
  60.5586300  70.2214503  60.3543700  61.3028345  70.6088780  60.5926650
  60.7046996  69.3771929  60.5184188  60.6896885  70.1544976  60.4137670
  65.4747675  66.6876531  59.3163373  64.9470694  66.7705275  58.6269082
  65.9343383  67.4294403  59.3128018  65.4649526  66.8097194  59.2138069
  57.4680740  64.9579051  54.3404269  57.1193545  65.6098776  54.8035818
  56.9877186  64.9436164  53.6128140  57.3450984  65.0522104  54.3015360
  57.8404649  67.5837581  59.8530313  57.9807610  68.0810045  60.5558955
  58.3387182  66.8823876  59.9944527  57.9345730  67.5539560  59.9781892
  57.8704871  68.4504692  57.1822890  58.5049951  69.0465117  57.1172352
  57.9530482  68.1508150  57.9968760  57.9761422  68.4945600  57.2925977
  59.4483854  64.3818668  57.1568332  59.7699695  63.9021750  56.5027594
  59.7110798  65.1918314  56.9659144  59.5349880  64.4308566  57.0323824
  54.3757859  70.6472533  60.4512436  54.8850089  71.2437041  60.8323742
  54.8492132  70.3798507  59.7688856  54.5201235  70.6958348  60.4066959
  63.2837232  60.2405961  62.9282388  62.6405550  60.0903608  63.4967527
  62.9436639  59.9948307  62.1631493  63.1382309  60.1818084  62.8985403
  56.7348391  67.2828792  63.3185616  56.0160380  67.6992924  63.5858480
  57.1060753  67.8483030  62.7677255  56.6840323  67.4278073  63.2768423
  62.5094965  66.3226791  58.6558996  61.9159805  66.6443788  58.1043563
  62.5470243  65.4767887  58.4480102  62.4269355  66.2451120  58.5441767
  58.4397545  64.8182842  63.3814942  58.9154911  65.1799922  62.7465123
  57.9386144  65.4739310  63.6615085  58.4362904  64.9677031  63.3291683
  60.4824198  66.9624042  56.7488326  60.8623163  66.9803671  55.9639441
  59.7416794  67.4078031  56.6279173  60.4293035  67.0305817  56.6151894
  61.2808952  73.8001548  58.1397116  60.4720274  73.4768222  58.0930425
  61.7883861  73.0934770  58.0725364  61.2358619  73.6482865  58.1227410
  60.4743368  63.1885570  59.4315957  61.2959063  63.3583883  59.1897652
  60.0113019  63.3432831  58.7082255  60.5274531  63.2367303  59.2887602
  36.9647171  -0.2687555  48.1998354  36.9341176   0.5857082  48.3716624
  37.5628520  -0.5692263  48.7584498  37.0484329  -0.1871059  48.3073157
  30.1646856  -1.1811904  52.9551285  29.3084752  -1.0203406  53.0060402
  30.2114510  -2.0519840  52.9756346  30.0445967  -1.2861102  52.9657351
  24.5487996   8.3550814  48.7188517  23.7970895   7.9766352  48.4904562
  24.9974007   8.3869247  47.9707327  24.5037663   8.3036421  48.5746019
  33.4740573   5.0874621  62.5611741  34.1807340   4.5926652  62.6898676
  33.6628508   5.5283703  61.8314399  33.6068478   5.0792972  62.4720787
  30.0012956   8.7776183  44.1474064  29.6664324   9.4553105  43.7118286
  30.5139826   8.3881494  43.5590935  30.0278537   8.8200761  43.9960855
  29.5417247  10.7290452  50.0885175  29.9256626  11.2977351  49.5489950
  29.4776388  10.0039962  49.6090991  29.5890674  10.7065915  49.9379038
  33.0098677   0.8780140  55.5982937  33.5554637   1.5565226  55.6576906
  32.9515553   0.7367601  54.7384518  33.0814591   0.9572141  55.4794997
  26.1272752   8.3669206  50.9851289  26.2283115   7.5569560  51.2948417
  25.5314497   8.2726152  50.3550968  26.0545291   8.2334234  50.9377527
  34.7863746   2.3064747  46.4716664  34.6703272   3.0572433  46.9008802
  35.5819632   2.0488700  46.7212751  34.8868335   2.3799594  46.5720756
  25.9673492  13.2846795  52.3866145  26.6110947  13.7259959  52.7762303
  26.2929747  12.4800221  52.2996404  26.1105320  13.2311990  52.4311622
  19.3237796   4.3889492  50.6103623  19.0887981   3.5557145  50.5035891
  19.4623437   4.6694158  49.7964824  19.3093459   4.3072996  50.4745978
  26.6694071   6.2958770  47.7586007  26.9909912   6.8363977  47.1547315
  27.3166168   5.7255541  47.8908297  26.8120126   6.2917945  47.6893042
  28.7195779  -1.7025235  47.8420393  29.4175944  -1.5237108  48.3341857
  29.0348112  -2.2254896  47.2190783  28.8691117  -1.7531463  47.8222404
  21.3497017   0.1027505  55.7531499  21.2255714   0.6889950  56.3881318
  22.0015301  -0.3912300  56.0543774  21.4270666   0.1166309  55.8917429
  28.9083715   4.6845210  47.8300185  29.3477350   4.0762310  48.2754958
  28.7588378   4.3052583  47.0585650  28.9505180   4.5383681  47.7819352
  26.3755358   3.2789222  55.0319010  27.0204360   2.7861665  54.7129959
  26.6157135   3.4214008  55.8585089  26.5065943   3.2266664  55.1068544
  28.9141449   6.1244127  54.6825903  29.1964692   5.3295533  54.4612659
  29.6427609   6.6024715  54.7030964  29.0631013   6.0778724  54.6528918
  32.5093051   3.0372391  44.7830954  32.4244346   3.8933358  44.9280523
  32.9977434   2.7616715  45.4513113  32.5681949   3.1229713  44.9033036
  33.4411484  -0.3442815  46.2828689  32.9122956  -0.1283181  46.9425996
  33.9636504   0.3493324  46.2029659  33.4399937  -0.2099678  46.3684289
  38.8959537   5.2303490  51.6561734  38.0657241   5.4414133  51.8195150
  38.8468790   4.4040544  51.3804017  38.7666273   5.1393096  51.6399099
  25.3311092   3.5520402  45.0836157  24.7468308   4.0570433  45.4902021
  24.9281187   3.3262789  44.3432749  25.1850396   3.5928650  45.0341183
  20.8855121   9.2675163  51.8859829  20.4022699   9.9925653  51.8619412
  21.6978439   9.5651293  51.9969987  20.9345869   9.4177517  51.8987108
  26.9569275   8.0607344  54.4909643  26.4396217   7.7014759  53.8870951
  27.6543666   7.5369518  54.5015709  26.9834856   7.9305032  54.4039902
  30.6132867   8.5102158  60.4525816  30.7016213   8.3228298  61.3004027
  31.0422579   7.8639588  60.0530663  30.6894969   8.3865166  60.5197568
  28.1803327   7.7933318  59.4343479  27.6174162   7.3805928  59.9583140
  28.9424350   7.7186224  59.8536622  28.2097775   7.7210718  59.5736479
  29.7888307  -0.2013946  43.5605078  30.0284310   0.0064038  42.7480421
  30.1104148  -1.0056437  43.6694022  29.8725465  -0.2899845  43.4565631
  23.7399318   9.7831339  52.0380109  24.4419897   9.2683328  52.0952865
  23.6596801  10.1105490  52.8426984  23.8323079   9.7545565  52.1652901
  38.3913496  -2.1226110  55.4512155  37.5541917  -2.0523923  55.6859750
  38.3601727  -2.1201615  54.5786457  38.2631778  -2.1115883  55.3571703
  23.0650094   5.9737691  51.5465717  23.9038993   6.2060624  51.5939478
  23.0961863   5.1042002  51.4772752  23.1931811   5.8794638  51.5430361
  23.6902797   6.3938566  55.8479022  24.2301022   6.2509697  56.5182395
  23.0072743   6.7935317  56.2163048  23.6694950   6.4318237  56.0013444
  33.1143681   2.0729567  51.0424047  33.8701197   2.5061081  51.0812955
  33.2206006   1.4234337  51.6158683  33.2413852   2.0407051  51.1322072
  36.1523853   5.9002844  51.7926450  35.7159084   5.9039587  52.5485421
  35.8186768   6.5808343  51.3606027  36.0386473   6.0015300  51.8407282
  30.7252926   7.9411177  63.1169600  31.5093343   8.0542025  63.4825342
  30.5249521   7.1152314  63.3128286  30.8118952   7.8357896  63.2003986
  19.0939942   2.6138857  56.0013444  18.8278357   1.7977974  56.1604434
  19.1078506   2.6592013  55.1308959  19.0564664   2.4995762  55.8966926
  22.9997689  -2.5876059  42.6165202  22.2855866  -2.8737879  43.0287634
  23.4841657  -2.2479433  43.2571589  22.9657052  -2.5794409  42.7720837
  30.8823320   9.8521279  56.7636056  30.0838565   9.6120779  57.0209924
  31.3309331   9.9035672  57.5103103  30.8297931   9.8243670  56.9120980
  39.2868199   2.6183764  50.6846087  39.9484633   2.0574433  50.5841995
  38.6459611   2.1235795  51.0098778  39.2897066   2.4620173  50.7178427
  30.1745007   5.9153895  42.9927010  30.5896155   5.5838919  42.3011506
  29.3436936   5.6822798  42.8647147  30.1133015   5.8325151  42.8717857
  19.5033355   3.3997636  53.2825188  19.3208929   3.3744522  52.4297480
  20.2383024   3.8696574  53.3214097  19.5847419   3.4658999  53.1623107
  35.5733030   3.6349146  50.4258076  35.8088619   3.7794345  49.5984926
  35.7222593   4.3991554  50.8189589  35.6298833   3.7688201  50.3621679
  37.4023486   2.4750812  48.2627679  37.7331703   3.0078453  47.6567774
  37.9756574   2.5289700  48.9189630  37.5357165   2.5620381  48.2705461
  32.6155375   0.3215715  48.9451260  32.7102230   1.0605009  49.3990885
  31.9914219  -0.1066809  49.3785824  32.5364405   0.3677036  49.0759407
  30.8707849   3.5001928  59.5941540  31.4446711   2.8629172  59.7490104
  30.7922653   3.5006010  58.7251198  30.9441084   3.4067039  59.4887951
  19.4704266   0.2791137  53.4324255  20.0477768   0.1427588  54.0716500
  18.7718327  -0.1773079  53.6869839  19.4525287   0.1913403  53.5646544
  32.8678397   2.1664455  42.1788212  32.7858559   2.2366642  43.0443199
  33.5058117   2.7294199  41.9871952  32.9498234   2.2603426  42.2778161
  26.2271568   1.9325193  51.6462738  25.9690812   1.0996928  51.6194037
  26.2820051   2.1582806  50.8055238  26.1971346   1.8422964  51.5182875
  25.2006280  -0.5137045  52.1327633  24.6255871  -0.3544876  52.7691594
  24.8241956  -1.1501636  51.6696083  25.0609092  -0.5839232  52.1582191
  28.8679569  -2.0413695  56.9920011  28.4794001  -2.4659478  56.3372202
  28.2034267  -1.7931546  57.4997038  28.7126496  -2.0674974  56.9707879
  29.9718507   2.1884909  45.1896818  30.7859146   2.4799802  45.0779589
  29.9077648   1.5344772  44.6155111  30.0821246   2.1350104  45.0885655
  36.1927997   4.8710905  59.6026394  35.9566634   4.0398970  59.4838454
  36.8371226   4.8196512  60.1881238  36.2522668   4.7408593  59.6712287
  25.8426415   5.6606427  50.3169130  26.4800362   5.4218174  50.8620923
  26.2681487   5.8643586  49.5822291  26.0002581   5.6557437  50.2886287
  20.5339058   7.8994763  54.2003434  20.5743203   8.1709614  53.3723213
  21.0933582   8.4236671  54.6161222  20.6222403   8.0170518  54.1395322
  26.4829230   0.8808716  44.6544019  26.8674383   0.6616423  45.4060565
  26.2340851   1.7071662  44.7845096  26.5031303   0.9706863  44.7845096
  37.2164418   4.6555354  55.6654688  36.9110235   5.3883411  56.0268004
  36.4970633   4.2493284  55.3847474  37.0651760   4.7037087  55.6767825
  28.2247887   6.1378849  51.9962916  28.2986895   5.9754021  52.8504766
  29.0417393   6.3269039  51.7523398  28.3564246   6.1415592  52.0860942
  42.9166210   1.2948355  54.9923032  42.8490710   1.3144314  54.1225619
  42.9021872   2.1378682  55.2178703  42.9044966   1.4222089  54.8975509
  21.9853644   6.4836712  49.0257360  21.1591761   6.7298449  48.8991639
  22.0465635   6.4048793  49.8919418  21.8727811   6.5081661  49.1346304
  26.7652473   9.1013592  46.7276390  27.0550771   8.7102574  46.0035616
  27.4955954   9.2830297  47.1681665  26.9159357   9.0707406  46.6859197
  40.7024827   0.0692741  53.2669627  41.2532749  -0.5639190  53.5066719
  40.6868943   0.6008134  53.9585131  40.7810024   0.0541689  53.4048485
  27.3547218   3.9031338  57.8129520  26.8558912   4.6147106  57.8914409
  28.1647442   4.2232005  57.7747683  27.4003325   4.0558187  57.8186089
  24.7058388  11.0780975  49.7936539  24.4858684  10.7878329  50.5863206
  24.4852910  10.4195930  49.2654452  24.6405983  10.9380683  49.8325448
  23.6175336   3.1654291  52.0592241  23.3288584   2.5391762  52.5937968
  24.4858684   3.1074579  52.1256922  23.7035588   3.0641835  52.1483196
  34.4053233  -1.6910925  52.3774223  34.0617999  -2.4120590  52.7281473
  34.5046276  -1.8997074  51.5352581  34.3695276  -1.8286722  52.3045903
  26.8726344  12.4510365  48.5767232  27.5250402  11.9186807  48.8058258
  26.1751953  12.0979017  48.9635106  26.8657062  12.3199888  48.6679400
  23.8207609   4.8049542  47.9834606  24.5753577   5.1862581  48.1970069
  23.2278222   5.2560686  48.4381303  23.8444323   4.9278370  48.0817485
  34.8666262   4.7714779  47.9198211  35.4324295   5.4307989  47.8356754
  34.2194166   5.1164477  48.3914613  34.8545019   4.9196720  47.9770968
  25.1405836   5.9758104  53.3574722  24.6186589   6.1158395  54.0426586
  25.5279856   5.2168768  53.5476839  25.1209536   5.8843627  53.4875798
  31.3372841   7.7153563  47.3435290  31.0959516   6.9821424  46.9362355
  31.5174173   8.2640420  46.6901624  31.3280465   7.6875954  47.1865513
  26.5672161   3.0062123  48.7556213  26.3714944   3.6136857  48.1616516
  26.7906507   2.3130067  48.2747887  26.5706802   2.9939648  48.5972293
  24.9650691  -0.1083139  48.8737081  25.6873343   0.0558019  48.4140887
  24.4858684   0.6126525  48.7676421  25.0014422   0.0215090  48.7902695
  32.9244199  -3.7719341  54.2533766  32.0855299  -3.7458062  54.0172029
  32.9948566  -3.1248605  54.8339113  32.8112592  -3.6723215  54.3042883
  22.6158308   2.2974933  57.9791221  23.1279405   2.5759186  57.3299981
  22.3294651   3.0364227  58.3454034  22.6493171   2.4477287  57.9381099
  36.8001723   1.4348646  51.5395008  36.7135697   1.5904072  52.3929786
  36.3452203   2.0786722  51.1654413  36.7204979   1.5524401  51.6102114
  30.6727539  -1.2440607  50.1620567  30.4262253  -1.3244856  50.9957356
  31.0012662  -2.0287139  49.9683095  30.6848782  -1.3714341  50.2568090
  34.5675587   5.4642753  53.9507348  34.4289947   6.1623798  54.4556091
  33.7875585   5.3091409  53.5943530  34.4318814   5.5442919  53.9733623
  32.9053673   1.7639128  60.2029730  32.9001711   0.8918944  60.2072157
  33.6114666   1.9627297  59.7299186  33.0098677   1.6643002  60.1336765
  26.6324566   1.4916112  59.5743550  26.7767942   2.0717320  58.9386660
  26.9800215   1.8692409  60.2793405  26.7052027   1.6336816  59.5842545
  28.8044483   0.6906280  57.3568682  28.0567797   0.8837295  56.9516960
  28.9586009  -0.1348500  57.1192803  28.7166911   0.5971392  57.2614088
  25.7052321   9.6818884  56.4404577  25.8541885   9.1221800  55.7877982
  26.4852323   9.7610885  56.8237096  25.8426415   9.6104449  56.4001526
  36.0628960   4.8221006  44.7123848  35.6835769   4.0358144  44.7053137
  35.3995206   5.3707863  44.5695492  35.9087435   4.7865830  44.6904645
  28.2305622   9.8533527  57.7189068  28.1549293   9.1842337  58.2739856
  28.1595481  10.5551315  58.2329734  28.2086228   9.8578434  57.8765916
  28.8875869   8.3734525  48.5512674  29.6525760   8.1044169  48.2295338
  28.7853958   7.8884536  49.2682737  28.9857364   8.2624090  48.6092501
  26.9228638  -3.4241065  55.0905910  26.1324713  -3.6049605  55.4123245
  27.3189261  -4.2014113  55.0736204  26.8645514  -3.5653604  55.1358458
  31.4094529   5.4046709  40.5312623  32.1767514   5.4646834  40.1218475
  30.9625838   4.8327151  40.0468942  31.4567956   5.3283285  40.3990333
  32.3072325   4.2101365  52.8165355  31.6317326   3.9786597  53.3178743
  32.3164701   3.6022548  52.1907461  32.2090829   4.0860290  52.7981508
  29.4366469  -0.9480806  59.5729409  29.3725610  -0.0870850  59.4449545
  29.5763656  -1.2648813  58.7724960  29.4481939  -0.8680639  59.4357621
  34.3089059   7.0666497  45.0475533  34.3908897   7.8733484  44.7236984
  34.7938801   7.0862457  45.7716307  34.3926217   7.1887160  45.1062432
  28.1185562   1.7451333  53.7145611  27.6947812   1.9455832  52.9784630
  27.9430418   0.8980181  53.8269911  28.0296443   1.6500115  53.6219302
  27.6197256  13.2601846  56.1767069  28.1093186  12.5612636  55.9942733
  27.0481488  12.9625716  56.7643126  27.6081786  13.1128070  56.2368109
  23.4068007   2.2403385  49.1473584  23.5632627   2.1750188  50.0029576
  23.7468601   3.0151937  48.9352264  23.4801242   2.3452583  49.2428178
  29.9447152   1.6161268  48.0166947  30.4862697   1.1131649  48.4805568
  30.2593711   1.5626463  47.2056432  30.0711549   1.5340689  47.9650759
  33.8164259   5.8263916  65.1293859  34.6299125   5.5549065  65.2898992
  33.6559226   5.5271456  64.3254055  33.9134208   5.7418842  65.0339265
  28.1133602   7.0078620  45.3006975  28.1826422   6.1493158  45.4399976
  28.8922057   7.2250501  44.9726000  28.2386452   6.9131484  45.2724132
  31.0936421  -3.4902427  58.0689248  31.3078391  -4.1291513  57.5152602
  30.4770321  -3.0456603  57.6397109  31.0341751  -3.5192283  57.9239679
  32.5041089   9.4316321  49.5143468  32.1120881   9.1283036  48.7966335
  32.6594162  10.2685411  49.3248422  32.4694679   9.5100158  49.3799966
  19.9802269  -0.5761665  49.4634351  20.3601234  -0.1577120  48.7994618
  19.4057634   0.0051791  49.7703194  19.9513594  -0.4283806  49.4111092
  33.2575509  -1.8813362  59.0072555  32.4452191  -2.1887472  59.0885727
  33.7165444  -2.3614362  59.5715267  33.2055894  -1.9976870  59.1027149
  32.6680764   5.9966310  49.4549499  32.3095419   6.1680953  50.2313531
  32.1819475   6.4579516  48.8977498  32.5439461   6.0905281  49.4874768
  27.4569129   1.6765475  41.9949733  27.7461654   2.4530358  42.2693308
  27.5440928   1.1654207  42.6964233  27.5123386   1.7157394  42.1392231
  33.8285503   6.8870206  60.4016700  34.4665224   6.3930402  60.0679156
  33.1859595   6.8147606  59.8168927  33.8279730   6.8029214  60.2659055
  35.5542503  -1.2640648  54.9682616  35.1270112  -1.3514299  54.2130715
  34.9168556  -1.1562873  55.5537460  35.3972111  -1.2607988  54.9428057
  33.8839760   7.5790014  57.0422057  34.6732138   7.2279079  57.1624138
  34.0583358   8.3926403  56.7798690  34.0260042   7.6475871  57.0209925
  23.6233070   0.9898740  54.0949845  22.7821077   0.8902614  54.3028739
  23.8323078   1.7594220  54.4464166  23.5297763   1.0890783  54.1777160
  21.1008637  -1.3881723  51.9234596  20.7065335  -1.3138711  51.1484706
  20.5448754  -1.0023777  52.4742958  20.9611450  -1.3199948  51.8902256
  27.4349735  -1.0819861  53.3447443  27.1312873  -1.6363873  53.9457851
  26.7329156  -0.9027651  52.8575477  27.2865945  -1.1375079  53.3617149
  26.4915832  -3.7719341  47.9092145  26.7675567  -4.4900429  47.4969712
  27.0914502  -3.1734421  47.7013251  26.6209097  -3.7898970  47.8172906
  25.4968086   6.1329860  58.0519541  25.3888441   6.1431922  58.9181599
  25.7063868   6.9584640  57.8624495  25.5118197   6.2570935  58.1523632
  23.5141878   3.3842502  55.5141478  22.9229812   4.0252000  55.4844493
  24.2762902   3.8080120  55.4872778  23.5390139   3.5418341  55.5056626
  39.6332300   3.2148272  56.5118757  39.6915424   3.6634921  57.2578733
  38.9998767   3.6247085  56.0748837  39.5483595   3.3422007  56.5571305
  33.2731395   8.8351814  52.9473503  33.0751083   9.3242628  52.2529714
  32.6519106   9.0393055  53.5257636  33.1518959   8.9368352  52.9296726
  27.3339373   0.6036711  47.2883747  28.0781418   0.9910987  47.5266697
  27.4800069  -0.2405864  47.4524235  27.4649958   0.5367183  47.3477717
  30.3217249  -3.8237816  53.1877666  29.8477203  -4.3496054  53.6982977
  30.6935385  -4.3708343  52.6192528  30.3067138  -3.9821819  53.1792814
  36.5853979   1.2364560  54.5984447  36.3452202   0.3970975  54.6026873
  37.0645987   1.3164726  55.3225220  36.6206163   1.1245959  54.7059249
  32.2500748  -2.9301261  46.2503420  31.7223767  -2.8472517  45.5609129
  32.7096457  -2.1883390  46.2468065  32.2402599  -2.8080599  46.1478115
  38.5859166  -1.9833983  52.5513706  38.3468936  -2.0238149  51.7134491
  38.7493068  -1.1362831  52.6779427  38.5749470  -1.8641898  52.4467188
  35.1905196   2.4015966  58.4818751  35.9139395   1.9488493  58.3029771
  34.9255159   2.6820632  57.6991079  35.2586470   2.3766935  58.3397467
  24.0592065  -3.0023860  55.2171630  23.4345135  -2.9905468  54.6097583
  23.7237660  -2.5263685  55.8662871  23.9177557  -2.9305343  55.2228199
  20.7717740   5.0576600  56.6575395  20.2417665   4.3669039  56.7070369
  21.0442834   5.0486785  55.8288103  20.7342463   4.9543732  56.5422811
  31.8037831   5.6402302  45.3813077  32.5272030   6.1060415  45.2377651
  31.3638422   5.7075912  44.6310674  31.8453523   5.7186139  45.2497859
  30.9723986   2.4999844  56.6313766  30.3580979   1.9557895  56.9262402
  31.4891271   1.9864081  56.1519582  30.9579648   2.3436253  56.6037995
  30.2120283   3.5704114  54.3658065  29.7847891   2.9453833  53.9323500
  30.2045228   3.2879036  55.1917072  30.1479424   3.4356895  54.4237892
  16.0513583   1.7304364  54.0143743  15.9457032   1.6851208  53.1495827
  15.3013803   2.0758144  54.2958028  15.9249186   1.7745272  53.9281073
  26.2421678  -0.3095803  56.2580242  25.4113608  -0.1421985  56.0515490
  26.1873196  -0.6859852  57.0429128  26.1111093  -0.3406072  56.3428770
  24.6157722  -2.0340211  46.7870360  24.7560683  -1.5367747  47.4899001
  25.1140255  -2.7353917  46.9284574  24.7098803  -2.0638233  46.9121939
  24.6457945  -1.1673100  44.1162937  25.2803024  -0.5712675  44.0512399
  24.7283555  -1.4669643  44.9308807  24.7514496  -1.1232192  44.2266023
  37.6240510   1.3642377  56.9849301  38.2158351   2.0039628  57.0167499
  38.0599505   0.6665414  57.2741368  37.7758942   1.3560727  57.0330134
  26.2236928  -5.2359125  44.0908379  26.5452769  -5.7156042  43.4367641
  26.4863871  -4.4259479  43.8999190  26.3102953  -5.1869227  43.9663871
  29.4533900   5.7859749  57.6107195  28.9458991   6.3395596  58.0547825
  29.1560546   5.8468039  56.7925969  29.3338785   5.8766061  57.5555652
  21.1510933   1.0294740  47.3852483  21.6603162   1.6259248  47.7663788
  21.6245205   0.7620714  46.7028902  21.2954308   1.0780556  47.3407006
  32.0641681   9.7023007  45.5411138  31.3470990   9.5283869  45.0758376
  32.7148418   9.4675579  45.0086624  32.0543531   9.6418800  45.3940356
  34.6489652  -1.4212404  49.2852443  33.9780842  -0.8782702  49.1565509
  35.3429402  -0.9517549  49.0434138  34.6518519  -1.2714133  49.2307971
  28.6976386  10.7184308  54.5164202  28.4742040   9.9603137  54.8848228
  28.2086229  10.7482329  53.7944641  28.5919835  10.6106532  54.4640943
  23.5101464  -2.3349001  50.2525663  22.7913453  -1.9184868  50.5198527
  23.8813827  -1.7694762  49.7017301  23.4593396  -2.1899720  50.2108470
  32.8101045  -1.7021152  56.1427659  32.7898972  -1.8837857  56.9962438
  32.8580246  -0.8309134  56.1187243  32.8135686  -1.6004614  56.2650954
  30.7547375   4.8866040  62.0676135  30.7143230   4.2415717  61.4821291
  31.5670693   4.8302657  62.3801548  30.8690528   4.7825007  62.0273085
  27.3454843  10.9384766  51.9701286  26.9315241  10.2758896  51.5805128
  28.0302217  11.0862624  51.4496981  27.3853214  10.8625424  51.8357784
  30.7120137  10.0974851  52.7224903  30.3136420  10.2077121  51.9545723
  30.0971356  10.3056917  53.3051463  30.5619026  10.1448419  52.6956202
  29.2848039  -3.2951001  45.5899043  28.6912878  -2.9734005  45.0383610
  29.3223316  -4.1409906  45.3820149  29.2022428  -3.3726673  45.4781814
  32.1605855  -3.3371497  49.0200793  31.9319548  -3.3138795  48.1779151
  32.4203931  -4.1614030  49.1395803  32.1652043  -3.4555417  48.9125991
  25.2150618  -4.7994950  50.3154989  25.6907984  -4.4377871  49.6805170
  24.7139217  -4.1438483  50.5955131  25.2115977  -4.6500762  50.2631730
  38.4461979   4.6726818  46.1067994  38.8295585   5.4218174  46.3366091
  37.6506093   4.9192637  45.8479983  38.3855762   4.8196512  46.1025567
  27.2577271  -2.6553751  43.6828373  27.6376236  -2.6374121  42.8979487
  26.5169867  -2.2099762  43.5619220  27.2046109  -2.5871976  43.5491941
  32.6103413   0.3325942  52.9240158  33.1057079  -0.3851063  52.8844178
  31.8003189   0.0296740  52.8094645  32.5647307   0.1823589  52.9013884
  28.0562025   4.1823756  45.0737163  27.2473348   3.8590429  45.0270472
  28.5636934   3.4756978  45.0065411  28.0111692   4.0305072  45.0567457
  18.6852302   1.6095949  50.7984527  17.8197822   1.5981639  50.6867298
  18.7851118   1.4226172  51.6455666  18.5726469   1.5802010  50.9073471
  34.6755232   3.0829630  55.6117287  35.1010304   2.5604052  55.0587712
  34.3112152   3.6810467  55.0905910  34.6841835   3.0939857  55.4526297
  24.3109312  11.3793847  54.3714632  24.6255871  12.1930236  54.3792414
  24.7202725  10.9944066  55.0396792  24.4177410  11.4422550  54.4718724
  31.2633832   6.7963894  51.9418444  31.7345010   7.5104157  52.1108430
  31.5994010   6.1962644  52.4778314  31.3828947   6.8135358  52.0450820
  33.3510816   8.4065208  64.1210516  33.4607782   7.6173768  64.4767264
  33.6801713   8.3171144  63.3184854  33.4163222   8.2771060  64.0552907
  31.9007778   6.5881828  58.7046137  31.3528724   5.9639712  58.4366202
  32.3620807   6.7776100  57.9890216  31.8874988   6.5240879  58.5596568
  21.6522332   5.3266956  54.0193241  22.2567190   5.2862790  53.3907062
  21.4449645   6.1738108  54.0497297  21.7111230   5.4454958  53.9309357
  31.4666104   7.5932901  55.2355478  32.2864478   7.4495867  55.4971773
  31.1860182   8.2179100  55.7771916  31.5462848   7.6643253  55.3543418
  16.8873615   4.3101573  53.8892164  16.7897893   3.4997845  54.1982221
  17.6702484   4.2893367  53.5038432  16.9889751   4.1868664  53.8779027
  41.1379440  14.3373404  52.9551285  40.2817335  14.4981902  53.0060402
  41.1847093  13.4665468  52.9756346  41.0178551  14.2324206  52.9657351
  44.4473156  20.6059929  62.5611741  45.1539923  20.1111960  62.6898676
  44.6361092  21.0469011  61.8314399  44.5801062  20.5978280  62.4720787
  43.9831261  16.3965448  55.5982937  44.5287221  17.0750534  55.6576906
  43.9248137  16.2552909  54.7384518  44.0547175  16.4757449  55.4794997
  36.9406075  28.8032103  52.3866145  37.5843531  29.2445267  52.7762303
  37.2662331  27.9985529  52.2996404  37.0837904  28.7497298  52.4311622
  30.2970380  19.9074800  50.6103623  30.0620564  19.0742453  50.5035891
  30.4356021  20.1879466  49.7964824  30.2826042  19.8258304  50.4745978
  32.5960467  12.0760531  53.5087930  31.9765499  11.4853178  53.3397945
  32.4944331  12.6671966  52.8752254  32.4898143  12.0764613  53.3892920
  39.6928363  13.8160073  47.8420393  40.3908528  13.9948200  48.3341857
  40.0080695  13.2930412  47.2190783  39.8423700  13.7653845  47.8222404
  32.3229600  15.6212813  55.7531499  32.1988297  16.2075258  56.3881318
  32.9747885  15.1273008  56.0543774  32.4003250  15.6351617  55.8917429
  39.8816298  20.2030518  47.8300185  40.3209934  19.5947618  48.2754958
  39.7320961  19.8237891  47.0585650  39.9237764  20.0568989  47.7819352
  37.3487941  18.7974530  55.0319010  37.9936944  18.3046973  54.7129959
  37.5889718  18.9399316  55.8585089  37.4798526  18.7451972  55.1068544
  39.8874033  21.6429435  54.6825903  40.1697275  20.8480841  54.4612659
  40.6160193  22.1210023  54.7030964  40.0363596  21.5964032  54.6528918
  37.8655226   9.1852469  51.9241668  37.5358556   9.6363613  51.2545367
  37.1900228   9.1068633  52.4714675  37.7165663   9.2403605  51.9064891
  45.0731634   5.1737992  50.1691279  44.7585075   5.8641471  50.6011701
  44.5558576   5.1182775  49.4676779  44.9496105   5.2672881  50.1288228
  49.8692121  20.7488798  51.6561734  49.0389824  20.9599441  51.8195150
  49.8201373  19.9225852  51.3804017  49.7398856  20.6578404  51.6399099
  36.3043676  19.0705710  45.0836157  35.7200891  19.5755741  45.4902021
  35.9013771  18.8448097  44.3432749  36.1582980  19.1113958  45.0341183
  31.8587704  24.7860471  51.8859829  31.3755283  25.5110961  51.8619412
  32.6711023  25.0836601  51.9969987  31.9078452  24.9362825  51.8987108
  37.9301859  23.5792652  54.4909643  37.4128800  23.2200067  53.8870951
  38.6276250  23.0554826  54.5015709  37.9567440  23.4490340  54.4039902
  41.5865451  24.0287466  60.4525816  41.6748796  23.8413606  61.3004027
  42.0155163  23.3824895  60.0530663  41.6627553  23.9050474  60.5197568
  39.1535910  23.3118626  59.4343479  38.5906745  22.8991236  59.9583140
  39.9156934  23.2371532  59.8536622  39.1830359  23.2396026  59.5736479
  40.7620890  15.3171362  43.5605078  41.0016894  15.5249346  42.7480421
  41.0836731  14.5128871  43.6694022  40.8458048  15.2285463  43.4565631
  36.0711181   7.2464758  47.4064616  36.8257149   7.6143075  47.1681666
  35.8938715   7.6204312  48.1743795  36.1565659   7.3562946  47.4849504
  34.7131902  25.3016647  52.0380109  35.4152481  24.7868636  52.0952865
  34.6329385  25.6290798  52.8426984  34.8055662  25.2730873  52.1652901
  49.3646079  13.3959198  55.4512155  48.5274500  13.4661385  55.6859750
  49.3334310  13.3983693  54.5786457  49.2364362  13.4069425  55.3571703
  35.7610808  15.5392234  61.1660524  35.9331312  15.4298129  62.0145805
  36.2980166  16.1846639  60.9291716  35.8655812  15.6184236  61.2565620
  34.4268245   9.6535077  44.1042729  34.2443818   9.8706958  43.2783722
  35.2893858   9.7674090  44.1601343  34.5272835   9.7024975  43.9897216
  34.0382677  21.4922999  51.5465717  34.8771577  21.7245932  51.5939478
  34.0694446  20.6227310  51.4772752  34.1664395  21.3979945  51.5430361
  34.6635380  21.9123874  55.8479022  35.2033605  21.7695005  56.5182395
  33.9805326  22.3120625  56.2163048  34.6427534  21.9503545  56.0013444
  40.1067964   6.6561487  47.1391753  40.8354125   6.4777442  46.6929909
  40.1962857   7.4979567  47.3498931  40.2274626   6.7545366  47.1045270
  44.0876265  17.5914875  51.0424047  44.8433780  18.0246389  51.0812955
  44.1938590  16.9419645  51.6158683  44.2146436  17.5592359  51.1322072
  47.1256436  21.4188152  51.7926450  46.6891668  21.4224895  52.5485421
  46.7919352  22.0993651  51.3606027  47.0119056  21.5200608  51.8407282
  41.6985510  23.4596485  63.1169600  42.4825926  23.5727333  63.4825342
  41.4982104  22.6337622  63.3128286  41.7851535  23.3543204  63.2003986
  30.0672525  18.1324165  56.0013444  29.8010940  17.3163282  56.1604434
  30.0811089  18.1777321  55.1308959  30.0297248  18.0181070  55.8966926
  47.0453919   8.4601980  54.0355878  47.6879828   8.5300085  54.6217793
  47.2976940   7.7931203  53.5335419  47.1776051   8.3728329  54.0483157
  33.9730272  12.9309249  42.6165202  33.2588449  12.6447429  43.0287634
  34.4574241  13.2705875  43.2571589  33.9389636  12.9390899  42.7720837
  34.8171132  11.6702543  58.6480451  34.1242928  11.1999523  58.8941183
  35.4331459  11.4440848  59.2222159  34.8055662  11.5669675  58.7689604
  41.8555903  25.3706587  56.7636056  41.0571149  25.1306087  57.0209924
  42.3041915  25.4220980  57.5103103  41.8030514  25.3428978  56.9120980
  50.2600782  18.1369072  50.6846087  50.9217216  17.5759740  50.5841995
  49.6192194  17.6421103  51.0098778  50.2629650  17.9805481  50.7178427
  30.4765939  18.9182944  53.2825188  30.2941512  18.8929830  52.4297480
  31.2115608  19.3881882  53.3214097  30.5580003  18.9844307  53.1623107
  46.5465613  19.1534454  50.4258076  46.7821202  19.2979653  49.5984926
  46.6955177  19.9176862  50.8189589  46.6031416  19.2873509  50.3621679
  33.5411691  15.6367947  59.7907297  34.2651663  15.6220978  60.2772191
  33.6427827  16.3463303  59.2929265  33.6629900  15.7392650  59.7886083
  40.9156640  19.1167032  64.6556244  40.1229621  19.4310544  64.8408863
  41.0305567  19.3318500  63.8177028  40.8152051  19.1950869  64.5594578
  43.5887959  15.8401023  48.9451260  43.6834813  16.5790317  49.3990885
  42.9646802  15.4118498  49.3785824  43.5096989  15.8862344  49.0759407
  41.8440433  19.0187236  59.5941540  42.4179294  18.3814480  59.7490104
  41.7655237  19.0191318  58.7251198  41.9173668  18.9252347  59.4887951
  30.4436849  15.7976445  53.4324255  31.0210352  15.6612896  54.0716500
  29.7450911  15.3412229  53.6869839  30.4257871  15.7098711  53.5646544
  37.2004151  17.4510501  51.6462738  36.9423396  16.6182236  51.6194037
  37.2552634  17.6768114  50.8055238  37.1703929  17.3608272  51.5182875
  42.2805202   9.5538951  51.7466830  41.5761528   9.0648137  51.9050750
  42.3290176   9.5661426  50.8755275  42.1835253   9.4828599  51.6406170
  36.1738864  15.0048263  52.1327633  35.5988455  15.1640432  52.7691594
  35.7974540  14.3683672  51.6696083  36.0341676  14.9346076  52.1582191
  39.8412152  13.4771613  56.9920011  39.4526585  13.0525830  56.3372202
  39.1766851  13.7253762  57.4997038  39.6859080  13.4510334  56.9707879
  49.4835421  13.2346617  49.7667841  49.2271986  12.4226559  49.5765724
  50.3264735  13.2424184  49.5398028  49.5701447  13.1158615  49.7052658
  25.9195682  14.6488338  50.1472073  26.0055934  14.2720206  50.9285603
  26.5471480  14.2748784  49.6692031  26.0252233  14.5373820  50.1917550
  43.6638514   7.1746241  54.5043995  44.0449026   6.4924412  54.8911869
  42.8601798   6.8855843  54.3219660  43.6014975   7.0313290  54.5348051
  40.9451090  17.7070217  45.1896818  41.7591729  17.9985110  45.0779589
  40.8810232  17.0530079  44.6155111  41.0553829  17.6535412  45.0885655
  47.1660581  20.3896213  59.6026394  46.9299218  19.5584278  59.4838454
  47.8103810  20.3381820  60.1881238  47.2255251  20.2593901  59.6712287
  36.8158999  21.1791735  50.3169130  37.4532946  20.9403482  50.8620923
  37.2414070  21.3828893  49.5822291  36.9735165  21.1742745  50.2886287
  31.5071641  23.4180071  54.2003434  31.5475786  23.6894922  53.3723213
  32.0666165  23.9421979  54.6161222  31.5954987  23.5355826  54.1395322
  37.4561814  16.3994024  44.6544019  37.8406966  16.1801731  45.4060565
  37.2073434  17.2256970  44.7845096  37.4763886  16.4892171  44.7845096
  37.6230354   9.6800440  64.3706604  37.3083795  10.4500002  64.1076166
  37.3020287   9.1170696  63.7858831  37.5289273   9.7110708  64.2447954
  48.1897001  20.1740662  55.6654688  47.8842818  20.9068719  56.0268004
  47.4703217  19.7678591  55.3847474  48.0384344  20.2222395  55.6767825
  39.1980471  21.6564157  51.9962916  39.2719479  21.4939329  52.8504766
  40.0149977  21.8454347  51.7523398  39.3296829  21.6600900  52.0860942
  53.8898793  16.8133663  54.9923032  53.8223294  16.8329622  54.1225619
  53.8754456  17.6563990  55.2178703  53.8777550  16.9407397  54.8975509
  32.9586227  22.0022020  49.0257360  32.1324345  22.2483757  48.8991639
  33.0198219  21.9234101  49.8919418  32.8460394  22.0266969  49.1346304
  35.1762251   8.0690961  49.9852800  34.3084677   8.1413560  50.0510409
  35.4637455   8.8713040  50.1740775  35.0901999   8.1985108  50.0227567
  44.2995140   8.2168820  58.3164122  45.0448732   8.0278631  57.9027547
  43.8832444   8.7427058  57.7577978  44.3480114   8.2670966  58.1728695
  51.6757411  15.5878049  53.2669627  52.2265332  14.9546118  53.5066719
  51.6601526  16.1193442  53.9585131  51.7542607  15.5726997  53.4048485
  38.3279802  19.4216646  57.8129520  37.8291495  20.1332414  57.8914409
  39.1380026  19.7417313  57.7747683  38.3735908  19.5743495  57.8186089
  34.5907919  18.6839599  52.0592241  34.3021168  18.0577070  52.5937968
  35.4591267  18.6259887  52.1256922  34.6768171  18.5827143  52.1483196
  45.3785817  13.8274383  52.3774223  45.0350583  13.1064718  52.7281473
  45.4778860  13.6188234  51.5352581  45.3427860  13.6898586  52.3045903
  45.8398846  20.2900087  47.9198211  46.4056879  20.9493297  47.8356754
  45.1926749  20.6349785  48.3914613  45.8277602  20.4382028  47.9770968
  37.2546860  12.2797691  63.1091818  36.4446635  12.5855470  62.9981661
  37.7321546  13.0003273  63.2244403  37.2050338  12.4312292  63.1098890
  36.1138419  21.4943412  53.3574722  35.5919173  21.6343703  54.0426586
  36.5012439  20.7354076  53.5476839  36.0942120  21.4028935  53.4875798
  33.1029603  11.5449220  47.4269676  32.8154399  11.1750491  46.6901624
  33.7900071  12.0144076  47.1653381  33.1618500  11.5596190  47.2784752
  37.5404745  18.5247431  48.7556213  37.3447527  19.1322165  48.1616516
  37.7639090  17.8315375  48.2747887  37.5439386  18.5124956  48.5972293
  35.9383275  15.4102169  48.8737081  36.6605927  15.5743327  48.4140887
  35.4591268  16.1311833  48.7676421  35.9747005  15.5400398  48.7902695
  43.8976782  11.7465967  54.2533766  43.0587883  11.7727246  54.0172029
  43.9681150  12.3936703  54.8339113  43.7845176  11.8462093  54.3042883
  33.5890891  17.8160241  57.9791221  34.1011988  18.0944494  57.3299981
  33.3027234  18.5549535  58.3454034  33.6225755  17.9662595  57.9381099
  42.3446061   8.6451344  48.9861382  43.0472413   8.4459093  48.5081340
  42.0790249   7.8727287  49.2930225  42.4092693   8.5014310  48.9606823
  47.7734306  16.9533954  51.5395008  47.6868281  17.1089380  52.3929786
  47.3184786  17.5972030  51.1654413  47.6937563  17.0709709  51.6102114
  30.6757798  12.3230433  48.2754957  30.7773934  13.1256594  48.6035933
  31.4713685  12.1217769  47.9778038  30.8085703  12.4116332  48.2790313
  37.1074617   9.9086630  58.0392262  36.9157814   9.9241764  58.8891686
  37.9573213  10.1050304  58.0158917  37.2050339   9.9400981  58.1615557
  31.4921530  12.4377611  56.0176079  31.3507022  11.5861552  56.1420587
  31.7762093  12.4806272  55.1938285  31.5129376  12.3177361  55.9143703
  41.6460122  14.2744701  50.1620567  41.3994837  14.1940452  50.9957356
  41.9745245  13.4898169  49.9683095  41.6581366  14.1470967  50.2568090
  45.5408171  20.9828061  53.9507348  45.4022530  21.6809106  54.4556091
  44.7608169  20.8276717  53.5943530  45.4051398  21.0628227  53.9733623
  43.8786256  17.2824436  60.2029730  43.8734295  16.4104252  60.2072157
  44.5847250  17.4812605  59.7299186  43.9831260  17.1828310  60.1336765
  37.6057150  17.0101420  59.5743550  37.7500525  17.5902628  58.9386660
  37.9532798  17.3877716  60.2793405  37.6784611  17.1522124  59.5842545
  39.7777067  16.2091588  57.3568682  39.0300381  16.4022603  56.9516960
  39.9318592  15.3836808  57.1192803  39.6899494  16.1156700  57.2614088
  36.6784905  25.2004192  56.4404577  36.8274468  24.6407107  55.7877982
  37.4584907  25.2796193  56.8237096  36.8158998  25.1289757  56.4001526
  39.2038205  25.3718834  57.7189068  39.1281876  24.7027645  58.2739856
  39.1328064  26.0736623  58.2329734  39.1818812  25.3763742  57.8765916
  40.0178844  10.1042139  58.2464086  40.4751458  10.8366113  58.3736878
  40.0935173   9.6808604  59.0051341  40.0969814  10.1499377  58.3765162
  32.2611835  10.3507959  59.3353529  31.7254025   9.7388317  59.6514297
  32.3229600  10.9256095  59.9887196  32.1907468  10.3454886  59.4788956
  44.4906170   3.2832014  52.1157929  44.6089738   3.7408477  51.3825231
  44.3168346   2.4777275  51.8294146  44.4825341   3.2325786  51.9658862
  37.8961222  12.0944243  55.0905910  37.1057297  11.9135703  55.4123245
  38.2921845  11.3171195  55.0736204  37.8378098  11.9531704  55.1358458
  43.2804908  19.7286673  52.8165355  42.6049910  19.4971905  53.3178743
  43.2897284  19.1207856  52.1907461  43.1823413  19.6045598  52.7981508
  40.4099052  14.5704502  59.5729409  40.3458193  15.4314458  59.4449545
  40.5496240  14.2536495  58.7724960  40.4214522  14.6504669  59.4357621
  39.0918146  17.2636641  53.7145611  38.6680395  17.4641140  52.9784630
  38.9163001  16.4165489  53.8269911  39.0029027  17.1685423  53.6219302
  38.5929839  28.7787154  56.1767069  39.0825770  28.0797943  55.9942733
  38.0214072  28.4811024  56.7643126  38.5814369  28.6313378  56.2368109
  34.3800591  17.7588693  49.1473584  34.5365210  17.6935495  50.0029576
  34.7201184  18.5337245  48.9352264  34.4533826  17.8637891  49.2428178
  40.9179736  17.1346576  48.0166947  41.4595281  16.6316957  48.4805568
  41.2326295  17.0811771  47.2056432  41.0444133  17.0525997  47.9650759
  42.0669005  12.0282881  58.0689248  42.2810975  11.3893795  57.5152602
  41.4502904  12.4728705  57.6397109  42.0074334  11.9993024  57.9239679
  30.9534852  14.9423643  49.4634351  31.3333817  15.3608188  48.7994618
  30.3790217  15.5237099  49.7703194  30.9246177  15.0901502  49.4111092
  44.2308093  13.6371946  59.0072555  43.4184775  13.3297836  59.0885727
  44.6898028  13.1570946  59.5715267  44.1788478  13.5208438  59.1027149
  43.6413348  21.5151618  49.4549499  43.2828002  21.6866261  50.2313531
  43.1552058  21.9764824  48.8977498  43.5172045  21.6090589  49.4874768
  41.4583734   5.1382816  53.0576590  40.5877292   5.1121538  53.0109900
  41.7124075   4.9660009  52.2402436  41.3677294   5.1092960  52.9296727
  38.4301713  17.1950783  41.9949733  38.7194238  17.9715666  42.2693308
  38.5173512  16.6839515  42.6964233  38.4855969  17.2342702  42.1392231
  41.3261600  15.0432017  63.7901257  41.7961232  15.6674134  64.1769131
  41.3723481  14.3748993  64.3494472  41.4029476  15.0366698  63.9301328
  38.4832874   7.1489045  54.5150061  37.9671363   6.4569236  54.6401640
  37.9226803   7.8159822  54.4612660  38.3239387   7.1452302  54.5256127
  40.5525108   7.6882005  56.3442913  40.1656861   7.7131036  57.1256443
  40.0658045   7.1223684  55.8917430  40.4237616   7.6077756  56.3930817
  44.8018087  22.4055514  60.4016700  45.4397808  21.9115710  60.0679156
  44.1592179  22.3332914  59.8168927  44.8012314  22.3214522  60.2659055
  46.5275087  14.2544660  54.9682616  46.1002695  14.1671008  54.2130715
  45.8901140  14.3622435  55.5537460  46.3704694  14.2577320  54.9428057
  40.2182249   4.5748990  58.6353173  40.8475367   5.1109290  58.3574244
  40.3868112   4.4826349  59.4866739  40.3360044   4.6410353  58.7201701
  40.0196164   9.3620185  60.9079585  40.8469594   9.0905334  60.9638199
  40.0404010  10.1581027  61.2643403  40.1449014   9.4399939  60.9694768
  44.8572344  23.0975322  57.0422057  45.6464722  22.7464387  57.1624138
  45.0315941  23.9111711  56.7798690  44.9992625  23.1661179  57.0209925
  34.5965654  16.5084048  54.0949845  33.7553661  16.4087922  54.3028739
  34.8055662  17.2779528  54.4464166  34.5030347  16.6076091  54.1777160
  32.0741221  14.1303585  51.9234596  31.6797919  14.2046597  51.1484706
  31.5181338  14.5161531  52.4742958  31.9344033  14.1985359  51.8902256
  43.7106168   7.1084879  51.6038475  43.9155761   7.0407187  52.4495472
  43.3832592   7.9143700  51.5359652  43.6921416   7.2170819  51.7198130
  38.4082319  14.4365447  53.3447443  38.1045456  13.8821435  53.9457851
  37.7061740  14.6157657  52.8575477  38.2598529  14.3810229  53.3617149
  37.4648416  11.7465967  47.9092145  37.7408150  11.0284879  47.4969712
  38.0647085  12.3450887  47.7013251  37.5941681  11.7286338  47.8172906
  36.4700670  21.6515168  58.0519541  36.3621025  21.6617230  58.9181599
  36.6796451  22.4769948  57.8624495  36.4850781  21.7756243  58.1523632
  46.9639855   7.6616643  51.0841241  46.3514169   8.1487045  51.4694972
  47.0604030   6.9860134  51.6278892  46.8877753   7.6334952  51.2220099
  40.9658936   9.4179484  46.1838740  41.4202683   9.5890045  46.9086584
  41.4398982   8.8047595  45.7836516  41.1027257   9.3530369  46.2312501
  34.4874462  18.9027810  55.5141478  33.8962395  19.5437308  55.4844493
  35.2495485  19.3265427  55.4872778  34.5122722  19.0603649  55.5056626
  34.8835085  10.0629808  56.1809496  35.3436566  10.1368737  56.9184620
  34.9291191  10.8611062  55.8309317  34.9585640  10.1923955  56.2382252
  36.5318434  10.7296503  60.7481523  36.1404000  10.0829850  61.1837301
  36.7004297  11.3207938  61.3675778  36.4989345  10.7210771  60.9044229
  50.6064883  18.7333580  56.5118757  50.6648007  19.1820229  57.2578733
  49.9731351  19.1432393  56.0748837  50.5216179  18.8607315  56.5571305
  44.2463978  24.3537122  52.9473503  44.0483667  24.8427936  52.2529714
  43.6251689  24.5578363  53.5257636  44.1251543  24.4553660  52.9296726
  38.3071956  16.1222019  47.2883747  39.0514001  16.5096295  47.5266697
  38.4532653  15.2779444  47.4524235  38.4382542  16.0552491  47.3477717
  40.2251532   7.9172278  52.3215609  39.3787577   8.0895085  52.1956958
  40.2222664   7.1121621  52.6581437  40.0998682   7.8233306  52.3526736
  41.2949832  11.6947492  53.1877666  40.8209787  11.1689254  53.6982977
  41.6667968  11.1476965  52.6192528  41.2799721  11.5363489  53.1792814
  31.6722862  13.6918999  58.5561212  32.5348475  13.5914708  58.4698542
  31.3414645  13.1113708  57.9946784  31.7508059  13.5910625  58.4606618
  47.5586563  16.7549868  54.5984447  47.3184786  15.9156283  54.6026873
  48.0378570  16.8350034  55.3225220  47.5938747  16.6431267  54.7059249
  43.2233332  12.5884047  46.2503420  42.6956351  12.6712790  45.5609129
  43.6829040  13.3301918  46.2468065  43.2135182  12.7104709  46.1478115
  46.1637780  17.9201274  58.4818751  46.8871979  17.4673801  58.3029771
  45.8987742  18.2005940  57.6991079  46.2319053  17.8952243  58.3397467
  35.0324648  12.5161448  55.2171630  34.4077719  12.5279840  54.6097583
  34.6970243  12.9921623  55.8662871  34.8910140  12.5879965  55.2228199
  35.2166397  10.8586566  41.2744315  34.8679201  11.5106291  41.7375865
  34.7362843  10.8443679  40.5468187  35.0936641  10.9529620  41.2355407
  31.7450324  20.5761908  56.6575395  31.2150249  19.8854347  56.7070369
  32.0175417  20.5672093  55.8288103  31.7075046  20.4729040  56.5422811
  41.9456570  18.0185152  56.6313766  41.3313563  17.4743203  56.9262402
  42.4623855  17.5049389  56.1519582  41.9312232  17.8621561  56.6037995
  41.1852867  19.0889422  54.3658065  40.7580475  18.4639141  53.9323500
  41.1777811  18.8064344  55.1917072  41.1212008  18.9542203  54.4237892
  34.3015394  14.1254595  57.4346499  34.4608881  13.3697920  57.8398221
  34.1208287  14.6745535  58.0887237  34.2980753  14.0948409  57.5909205
  42.2435697   6.2915831  57.9897288  41.7476258   6.4879505  57.2988855
  43.0004759   6.6908499  57.8186090  42.2822522   6.3793565  57.8617425
  39.5138576   9.9658177  54.5800599  39.5381064   9.4318289  53.8913379
  39.7650050   9.4575486  55.2426190  39.5548495   9.8119081  54.5765244
  27.0246166  17.2489672  54.0143743  26.9189615  17.2036516  53.1495827
  26.2746386  17.5943452  54.2958028  26.8981769  17.2930580  53.9281073
  35.7939899   8.6928995  53.9606343  35.8338270   9.1938202  54.6741051
  34.9689563   8.7839389  53.6912266  35.6779425   8.7810811  54.0256881
  37.9769512  18.2589735  62.0626638  37.1265142  18.3961449  62.1984283
  38.1397639  17.5253513  62.5074340  37.8753375  18.1703836  62.1482237
  37.2154262  15.2089505  56.2580242  36.3846192  15.3763323  56.0515490
  37.1605779  14.8325456  57.0429128  37.0843677  15.1779236  56.3428770
  35.0238045   8.6998398  61.8936653  35.6490749   8.1560531  62.1666085
  34.5688525   8.2193315  61.3244443  35.0486306   8.5487879  61.8498247
  35.5890306  13.4845097  46.7870360  35.7293267  13.9817561  47.4899001
  36.0872839  12.7831391  46.9284574  35.6831387  13.4547075  46.9121939
  35.6190528  14.3512208  44.1162937  36.2535608  14.9472633  44.0512399
  35.7016139  14.0515665  44.9308807  35.7247079  14.3953116  44.2266023
  48.5973094  16.8827685  56.9849301  49.1890934  17.5224936  57.0167499
  49.0332089  16.1850722  57.2741368  48.7491525  16.8746035  57.0330134
  37.1969511  10.2826183  44.0908379  37.5185352   9.8029265  43.4367641
  37.4596455  11.0925829  43.8999190  37.2835537  10.3316081  43.9663871
  40.4266484  21.3045057  57.6107195  39.9191575  21.8580904  58.0547825
  40.1293130  21.3653347  56.7925969  40.3071369  21.3951368  57.5555652
  42.5928666   9.6698377  56.4531858  43.0183738   9.2170903  55.8415384
  41.9785659   9.1158448  56.7296645  42.5657311   9.5212353  56.4036883
  41.0322889   6.1413477  49.8622435  40.3891207   5.9911123  50.4307573
  40.6922296   5.8955822  49.0971539  40.8867966   6.0825599  49.8325450
  45.6222235  14.0972904  49.2852443  44.9513425  14.6402606  49.1565509
  46.3161986  14.5667759  49.0434138  45.6251103  14.2471175  49.2307971
  39.6708969  26.2369616  54.5164202  39.4474624  25.4788445  54.8848228
  39.1818812  26.2667637  53.7944641  39.5652418  26.1291840  54.4640943
  45.7850363  10.5528787  52.1942817  46.1377973  10.1258510  52.8688615
  44.9265164  10.4679631  52.3243893  45.7099808  10.4773528  52.3137827
  34.4834048  13.1836307  50.2525663  33.7646037  13.6000439  50.5198527
  34.8546410  13.7490546  49.7017301  34.4325980  13.3285588  50.2108470
  43.7833629  13.8164156  56.1427659  43.7631556  13.6347451  56.9962438
  43.8312829  14.6876174  56.1187243  43.7868270  13.9180694  56.2650954
  41.7279959  20.4051348  62.0676135  41.6875813  19.7601025  61.4821291
  42.5403277  20.3487965  62.3801548  41.8423112  20.3010315  62.0273085
  41.6852720  25.6160159  52.7224903  41.2869003  25.7262429  51.9545723
  41.0703940  25.8242225  53.3051463  41.5351610  25.6633727  52.6956202
  40.2580622  12.2234307  45.5899043  39.6645462  12.5451303  45.0383610
  40.2955900  11.3775402  45.3820149  40.1755011  12.1458635  45.4781814
  47.2174423   5.6747199  53.1227129  46.7105288   4.9676339  53.0548307
  48.0141857   5.3440388  53.2528206  47.2601662   5.5220350  53.1326124
  43.1338439  12.1813811  49.0200793  42.9052132  12.2046513  48.1779151
  43.3936515  11.3571278  49.1395803  43.1384627  12.0629891  48.9125991
  37.4157667  14.0348284  58.6225893  36.9036570  13.4269467  58.9810924
  37.2437163  14.7504877  59.0899869  37.3147304  14.0511584  58.7442117
  32.2623382  12.4785860  61.2728255  32.0925972  13.1387234  60.7276462
  31.8189332  12.6892421  61.9940744  32.1722716  12.6071842  61.2989884
  36.1883201  10.7190358  50.3154989  36.6640568  11.0807437  49.6805170
  35.6871801  11.3746825  50.5955131  36.1848560  10.8684546  50.2631730
  41.2926738  11.9572529  61.0628149  41.8498168  11.7286338  60.4306614
  40.9687803  12.7178195  60.7863361  41.3273148  12.0356366  60.9284646
  29.1625446  15.3832725  56.5316745  28.6152166  14.7133371  56.6497613
  29.9517825  15.0162573  56.5960212  29.1977630  15.2297712  56.5585445
  39.0109855  15.0440182  62.0280156  39.7621182  15.3591859  62.3419710
  39.2032431  14.8419353  61.2014078  39.1501269  15.0607564  61.9523552
  38.2309854  12.8631557  43.6828373  38.6108819  12.8811187  42.8979487
  37.4902451  13.3085546  43.5619220  38.1778692  12.9313332  43.5491941
  45.8595145  11.1713749  49.2703951  45.8589371  11.0162405  50.1288228
  45.6551325  12.0176736  49.2145337  45.8294923  11.2734369  49.3891891
  27.9212416  14.5953533  53.6862768  27.7434177  14.1430142  54.4117683
  27.6331438  15.3979694  53.8701245  27.8525369  14.6476091  53.8206271
  43.5835997  15.8511250  52.9240158  44.0789662  15.1334245  52.8844178
  42.7735773  15.5482048  52.8094645  43.5379890  15.7008897  52.9013884
  29.6584886  17.1281257  50.7984527  28.7930405  17.1166947  50.6867298
  29.7583702  16.9411480  51.6455666  29.5459053  17.0987318  50.9073471
  45.6487816  18.6014938  55.6117287  46.0742887  18.0789360  55.0587712
  45.2844736  19.1995775  55.0905910  45.6574418  18.6125165  55.4526297
  35.2841896  26.8979155  54.3714632  35.5988455  27.7115544  54.3792414
  35.6935309  26.5129374  55.0396792  35.3909994  26.9607858  54.4718724
  42.2366415  22.3149202  51.9418444  42.7077594  23.0289465  52.1108430
  42.5726594  21.7147952  52.4778314  42.3561530  22.3320666  52.0450820
  44.3243400  23.9250515  64.1210516  44.4340365  23.1359076  64.4767264
  44.6534297  23.8356452  63.3184854  44.3895806  23.7956368  64.0552907
  39.1535910   7.0876673  58.8976539  39.2863816   6.2907666  59.2257515
  39.5381063   7.6143076  59.4774815  39.2292239   7.0476589  59.0320042
  42.8740362  22.1067136  58.7046137  42.3261308  21.4825020  58.4366202
  43.3353390  22.2961408  57.9890216  42.8607571  22.0426186  58.5596568
  42.2268265   4.0106999  55.4957632  41.4214229   3.9004728  55.8125471
  42.0975001   4.1119455  54.6387498  42.0888398   4.0090669  55.4165673
  45.6834226  10.1752491  56.0897329  45.0997215  10.6761697  55.6774897
  46.0038520   9.6682047  55.4561653  45.6447401  10.1744326  55.9355836
  38.2229025   9.0893086  46.3656004  39.0444720   9.2591398  46.1237699
  37.7598676   9.2440347  45.6422302  38.2760187   9.1374819  46.2227648
  36.8124357   7.0835848  57.1454433  37.3568770   6.7426975  57.7358775
  36.8661293   7.9421309  57.2875717  36.9013476   7.1591107  57.2536306
  32.6254916  20.8452264  54.0193241  33.2299773  20.8048098  53.3907062
  32.4182228  21.6923416  54.0497297  32.6843813  20.9640266  53.9309357
  42.4398688  23.1118209  55.2355478  43.2597062  22.9681175  55.4971773
  42.1592766  23.7364408  55.7771916  42.5195431  23.1828561  55.3543418
  27.8606198  19.8286881  53.8892164  27.7630476  19.0183153  54.1982221
  28.6435068  19.8078675  53.5038432  27.9622335  19.7053971  53.8779027
  58.9112338  30.7683061  48.1998354  58.8806343  31.6227697  48.3716624
  59.5093687  30.4678353  48.7584498  58.9949496  30.8499557  48.3073157
  52.1112023  29.8558712  52.9551285  51.2549919  30.0167210  53.0060402
  52.1579677  28.9850776  52.9756346  51.9911135  29.7509514  52.9657351
  55.4205740  36.1245237  62.5611741  56.1272507  35.6297268  62.6898676
  55.6093675  36.5654319  61.8314399  55.5533645  36.1163588  62.4720787
  54.9563844  31.9150756  55.5982937  55.5019804  32.5935842  55.6576906
  54.8980721  31.7738216  54.7384518  55.0279759  31.9942757  55.4794997
  43.5693051  27.5945839  53.5087930  42.9498082  27.0038486  53.3397945
  43.4676914  28.1857274  52.8752254  43.4630726  27.5949921  53.3892920
  50.6660946  29.3345381  47.8420393  51.3641111  29.5133508  48.3341857
  50.9813279  28.8115720  47.2190783  50.8156284  29.2839153  47.8222404
  43.2962184  31.1398121  55.7531499  43.1720881  31.7260566  56.3881318
  43.9480468  30.6458316  56.0543774  43.3735833  31.1536925  55.8917429
  48.8387810  24.7037777  51.9241668  48.5091140  25.1548921  51.2545367
  48.1632812  24.6253941  52.4714675  48.6898246  24.7588913  51.9064891
  56.0464218  20.6923300  50.1691279  55.7317659  21.3826779  50.6011701
  55.5291159  20.6368082  49.4676779  55.9228688  20.7858189  50.1288228
  60.8424705  36.2674106  51.6561734  60.0122408  36.4784749  51.8195150
  60.7933957  35.4411160  51.3804017  60.7131440  36.1763712  51.6399099
  60.3378663  28.9144506  55.4512155  59.5007084  28.9846693  55.6859750
  60.3066894  28.9169001  54.5786457  60.2096945  28.9254733  55.3571703
  46.7343392  31.0577542  61.1660524  46.9063896  30.9483437  62.0145805
  47.2712749  31.7031947  60.9291716  46.8388396  31.1369544  61.2565620
  58.0989020  36.9373460  51.7926450  57.6624252  36.9410202  52.5485421
  57.7651935  37.6178959  51.3606027  57.9851640  37.0385916  51.8407282
  52.6718093  38.9781793  63.1169600  53.4558510  39.0912641  63.4825342
  52.4714688  38.1522930  63.3128286  52.7584119  38.8728512  63.2003986
  58.0186503  23.9787288  54.0355878  58.6612411  24.0485392  54.6217793
  58.2709523  23.3116511  53.5335419  58.1508635  23.8913636  54.0483157
  45.7903715  27.1887851  58.6480451  45.0975512  26.7184831  58.8941183
  46.4064043  26.9626156  59.2222159  45.7788245  27.0854983  58.7689604
  61.2333366  33.6554380  50.6846087  61.8949800  33.0945048  50.5841995
  60.5924778  33.1606411  51.0098778  61.2362233  33.4990789  50.7178427
  57.5198197  34.6719762  50.4258076  57.7553786  34.8164961  49.5984926
  57.6687760  35.4362170  50.8189589  57.5764000  34.8058817  50.3621679
  44.5144274  31.1553255  59.7907297  45.2384246  31.1406286  60.2772191
  44.6160411  31.8648610  59.2929265  44.6362483  31.2577958  59.7886083
  59.3488653  33.5121428  48.2627679  59.6796870  34.0449068  47.6567774
  59.9221742  33.5660316  48.9189630  59.4822333  33.5990997  48.2705461
  51.8889224  34.6352340  64.6556244  51.0962204  34.9495852  64.8408863
  52.0038151  34.8503808  63.8177028  51.7884634  34.7136177  64.5594578
  52.8173016  34.5372544  59.5941540  53.3911878  33.8999788  59.7490104
  52.7387820  34.5376626  58.7251198  52.8906251  34.4437655  59.4887951
  53.2537785  25.0724259  51.7466830  52.5494112  24.5833445  51.9050750
  53.3022759  25.0846734  50.8755275  53.1567837  25.0013907  51.6406170
  50.8144736  28.9956920  56.9920011  50.4259169  28.5711138  56.3372202
  50.1499434  29.2439070  57.4997038  50.6591664  28.9695642  56.9707879
  60.4568005  28.7531925  49.7667841  60.2004570  27.9411867  49.5765724
  61.2997319  28.7609492  49.5398028  60.5434030  28.6343923  49.7052658
  54.6371097  22.6931549  54.5043995  55.0181609  22.0109720  54.8911869
  53.8334382  22.4041151  54.3219660  54.5747559  22.5498598  54.5348051
  58.1393164  35.9081521  59.6026394  57.9031802  35.0769586  59.4838454
  58.7836393  35.8567128  60.1881238  58.1987835  35.7779209  59.6712287
  48.5962938  25.1985747  64.3706604  48.2816379  25.9685310  64.1076166
  48.2752870  24.6356003  63.7858831  48.5021857  25.2296016  64.2447954
  59.1629585  35.6925970  55.6654688  58.8575402  36.4254027  56.0268004
  58.4435801  35.2863899  55.3847474  59.0116927  35.7407703  55.6767825
  64.8631377  32.3318971  54.9923032  64.7955877  32.3514930  54.1225619
  64.8487039  33.1749298  55.2178703  64.8510133  32.4592705  54.8975509
  46.1494835  23.5876269  49.9852800  45.2817260  23.6598868  50.0510409
  46.4370039  24.3898348  50.1740775  46.0634583  23.7170416  50.0227567
  55.2727723  23.7354128  58.3164122  56.0181315  23.5463939  57.9027547
  54.8565028  24.2612366  57.7577978  55.3212698  23.7856274  58.1728695
  62.6489994  31.1063357  53.2669627  63.1997916  30.4731426  53.5066719
  62.6334110  31.6378750  53.9585131  62.7275191  31.0912305  53.4048485
  49.3012385  34.9401954  57.8129520  48.8024079  35.6517722  57.8914409
  50.1112609  35.2602621  57.7747683  49.3468492  35.0928803  57.8186089
  56.3518401  29.3459690  52.3774223  56.0083166  28.6250026  52.7281473
  56.4511443  29.1373542  51.5352581  56.3160443  29.2083894  52.3045903
  48.2279443  27.7982998  63.1091818  47.4179219  28.1040778  62.9981661
  48.7054130  28.5188581  63.2244403  48.1782922  27.9497600  63.1098890
  54.8709366  27.2651275  54.2533766  54.0320467  27.2912554  54.0172029
  54.9413733  27.9122011  54.8339113  54.7577759  27.3647401  54.3042883
  44.5623475  33.3345549  57.9791221  45.0744572  33.6129802  57.3299981
  44.2759818  34.0734843  58.3454034  44.5958338  33.4847903  57.9381099
  53.3178644  24.1636652  48.9861382  54.0204997  23.9644401  48.5081340
  53.0522833  23.3912595  49.2930225  53.3825277  24.0199618  48.9606823
  58.7466890  32.4719262  51.5395008  58.6600864  32.6274688  52.3929786
  58.2917370  33.1157338  51.1654413  58.6670146  32.5895017  51.6102114
  48.0807200  25.4271937  58.0392262  47.8890397  25.4427072  58.8891686
  48.9305796  25.6235612  58.0158917  48.1782922  25.4586289  58.1615557
  42.4654113  27.9562919  56.0176079  42.3239605  27.1046860  56.1420587
  42.7494677  27.9991580  55.1938285  42.4861960  27.8362669  55.9143703
  52.6192706  29.7930009  50.1620567  52.3727420  29.7125760  50.9957356
  52.9477829  29.0083477  49.9683095  52.6313949  29.6656274  50.2568090
  56.5140755  36.5013368  53.9507348  56.3755114  37.1994414  54.4556091
  55.7340753  36.3462025  53.5943530  56.3783982  36.5813535  53.9733623
  54.8518840  32.8009744  60.2029730  54.8466878  31.9289560  60.2072157
  55.5579834  32.9997913  59.7299186  54.9563844  32.7013618  60.1336765
  48.5789733  32.5286728  59.5743550  48.7233109  33.1087936  58.9386660
  48.9265382  32.9063024  60.2793405  48.6517194  32.6707432  59.5842545
  50.7509650  31.7276896  57.3568682  50.0032965  31.9207910  56.9516960
  50.9051176  30.9022116  57.1192803  50.6632078  31.6342007  57.2614088
  50.9911427  25.6227447  58.2464086  51.4484042  26.3551421  58.3736878
  51.0667756  25.1993912  59.0051341  51.0702397  25.6684685  58.3765162
  43.2344419  25.8693267  59.3353529  42.6986608  25.2573625  59.6514297
  43.2962183  26.4441402  59.9887196  43.1640051  25.8640194  59.4788956
  55.4638753  18.8017322  52.1157929  55.5822322  19.2593785  51.3825231
  55.2900929  17.9962583  51.8294146  55.4557924  18.7511094  51.9658862
  48.8693805  27.6129551  55.0905910  48.0789880  27.4321011  55.4123245
  49.2654428  26.8356503  55.0736204  48.8110682  27.4717012  55.1358458
  54.2537492  35.2471981  52.8165355  53.5782494  35.0157213  53.3178743
  54.2629868  34.6393164  52.1907461  54.1555996  35.1230906  52.7981508
  51.3831636  30.0889810  59.5729409  51.3190777  30.9499766  59.4449545
  51.5228823  29.7721803  58.7724960  51.3947106  30.1689976  59.4357621
  55.7629427  36.8634532  65.1293859  56.5764292  36.5919680  65.2898992
  55.6024393  36.5642072  64.3254055  55.8599375  36.7789458  65.0339265
  53.0401589  27.5468189  58.0689248  53.2543558  26.9079103  57.5152602
  52.4235488  27.9914013  57.6397109  52.9806918  27.5178332  57.9239679
  55.2040677  29.1557254  59.0072555  54.3917358  28.8483144  59.0885727
  55.6630611  28.6756254  59.5715267  55.1521061  29.0393746  59.1027149
  52.4316317  20.6568124  53.0576590  51.5609875  20.6306845  53.0109900
  52.6856658  20.4845317  52.2402436  52.3409877  20.6278268  52.9296727
  52.2994184  30.5617325  63.7901257  52.7693815  31.1859442  64.1769131
  52.3456064  29.8934301  64.3494472  52.3762060  30.5552006  63.9301328
  49.4565458  22.6674353  54.5150061  48.9403946  21.9754544  54.6401640
  48.8959387  23.3345130  54.4612660  49.2971971  22.6637610  54.5256127
  51.5257691  23.2067313  56.3442913  51.1389444  23.2316344  57.1256443
  51.0390628  22.6408991  55.8917430  51.3970200  23.1263064  56.3930817
  55.7750671  37.9240822  60.4016700  56.4130391  37.4301017  60.0679156
  55.1324762  37.8518222  59.8168927  55.7744897  37.8399830  60.2659055
  57.5007671  29.7729968  54.9682616  57.0735279  29.6856316  54.2130715
  56.8633724  29.8807743  55.5537460  57.3437278  29.7762628  54.9428057
  51.1914833  20.0934298  58.6353173  51.8207951  20.6294598  58.3574244
  51.3600696  20.0011657  59.4866739  51.3092627  20.1595661  58.7201701
  50.9928748  24.8805493  60.9079585  51.8202177  24.6090642  60.9638199
  51.0136594  25.6766335  61.2643403  51.1181598  24.9585247  60.9694768
  55.8304927  38.6160630  57.0422057  56.6197305  38.2649695  57.1624138
  56.0048525  39.4297019  56.7798690  55.9725209  38.6846487  57.0209925
  54.6838751  22.6270187  51.6038475  54.8888345  22.5592495  52.4495472
  54.3565175  23.4329008  51.5359652  54.6653999  22.7356127  51.7198130
  49.3814902  29.9550755  53.3447443  49.0778040  29.4006743  53.9457851
  48.6794323  30.1342965  52.8575477  49.2331112  29.8995537  53.3617149
  57.9372439  23.1801951  51.0841241  57.3246753  23.6672353  51.4694972
  58.0336614  22.5045442  51.6278892  57.8610337  23.1520260  51.2220099
  51.9391520  24.9364792  46.1838740  52.3935267  25.1075353  46.9086584
  52.4131566  24.3232903  45.7836516  52.0759840  24.8715677  46.2312501
  45.8567668  25.5815116  56.1809496  46.3169150  25.6554045  56.9184620
  45.9023775  26.3796370  55.8309317  45.9318224  25.7109263  56.2382252
  47.5051018  26.2481811  60.7481523  47.1136583  25.6015158  61.1837301
  47.6736881  26.8393246  61.3675778  47.4721928  26.2396079  60.9044229
  61.5797467  34.2518888  56.5118757  61.6380591  34.7005537  57.2578733
  60.9463935  34.6617701  56.0748837  61.4948762  34.3792622  56.5571305
  55.2196562  39.8722430  52.9473503  55.0216250  40.3613244  52.2529714
  54.5984273  40.0763671  53.5257636  55.0984126  39.9738968  52.9296726
  51.1984116  23.4357585  52.3215609  50.3520161  23.6080393  52.1956958
  51.1955248  22.6306929  52.6581437  51.0731265  23.3418614  52.3526736
  52.2682416  27.2132800  53.1877666  51.7942370  26.6874562  53.6982977
  52.6400552  26.6662273  52.6192528  52.2532305  27.0548796  53.1792814
  42.6455446  29.2104307  58.5561212  43.5081059  29.1100016  58.4698542
  42.3147229  28.6299016  57.9946784  42.7240642  29.1095933  58.4606618
  58.5319146  32.2735176  54.5984447  58.2917369  31.4341591  54.6026873
  59.0111154  32.3535342  55.3225220  58.5671330  32.1616575  54.7059249
  54.1965916  28.1069354  46.2503420  53.6688934  28.1898098  45.5609129
  54.6561624  28.8487226  46.2468065  54.1867766  28.2290017  46.1478115
  60.5324334  29.0536633  52.5513706  60.2934103  29.0132467  51.7134491
  60.6958235  29.9007785  52.6779427  60.5214637  29.1728718  52.4467188
  57.1370364  33.4386582  58.4818751  57.8604563  32.9859108  58.3029771
  56.8720326  33.7191248  57.6991079  57.2051637  33.4137551  58.3397467
  46.0057232  28.0346756  55.2171630  45.3810302  28.0465148  54.6097583
  45.6702827  28.5106931  55.8662871  45.8642724  28.1065273  55.2228199
  52.9189153  33.5370460  56.6313766  52.3046146  32.9928511  56.9262402
  53.4356438  33.0234697  56.1519582  52.9044816  33.3806869  56.6037995
  45.2747977  29.6439903  57.4346499  45.4341464  28.8883227  57.8398221
  45.0940871  30.1930843  58.0887237  45.2713336  29.6133717  57.5909205
  53.2168280  21.8101139  57.9897288  52.7208842  22.0064813  57.2988855
  53.9737342  22.2093807  57.8186090  53.2555105  21.8978873  57.8617425
  50.4871160  25.4843485  54.5800599  50.5113647  24.9503597  53.8913379
  50.7382634  24.9760794  55.2426190  50.5281079  25.3304389  54.5765244
  46.7672482  24.2114303  53.9606343  46.8070854  24.7123510  54.6741051
  45.9422147  24.3024697  53.6912266  46.6512008  24.2996119  54.0256881
  48.9502095  33.7775043  62.0626638  48.0997726  33.9146757  62.1984283
  49.1130223  33.0438821  62.5074340  48.8485959  33.6889144  62.1482237
  48.1886846  30.7274813  56.2580242  47.3578775  30.8948631  56.0515490
  48.1338363  30.3510764  57.0429128  48.0576260  30.6964544  56.3428770
  45.9970629  24.2183706  61.8936653  46.6223332  23.6745839  62.1666085
  45.5421109  23.7378623  61.3244443  46.0218889  24.0673187  61.8498247
  59.5705678  32.4012993  56.9849301  60.1623518  33.0410244  57.0167499
  60.0064672  31.7036030  57.2741368  59.7224109  32.3931343  57.0330134
  51.3999067  36.8230365  57.6107195  50.8924159  37.3766212  58.0547825
  51.1025714  36.8838655  56.7925969  51.2803952  36.9136676  57.5555652
  53.5661250  25.1883685  56.4531858  53.9916321  24.7356211  55.8415384
  52.9518243  24.6343756  56.7296645  53.5389895  25.0397661  56.4036883
  52.0055473  21.6598785  49.8622435  51.3623790  21.5096431  50.4307573
  51.6654879  21.4141130  49.0971539  51.8600550  21.6010907  49.8325450
  56.5954819  29.6158211  49.2852443  55.9246009  30.1587914  49.1565509
  57.2894569  30.0853067  49.0434138  56.5983686  29.7656483  49.2307971
  56.7582946  26.0714095  52.1942817  57.1110557  25.6443818  52.8688615
  55.8997748  25.9864939  52.3243893  56.6832391  25.9958836  52.3137827
  54.7566212  29.3349464  56.1427659  54.7364140  29.1532759  56.9962438
  54.8045413  30.2061482  56.1187243  54.7600853  29.4366002  56.2650954
  52.7012542  35.9236656  62.0676135  52.6608397  35.2786333  61.4821291
  53.5135860  35.8673273  62.3801548  52.8155696  35.8195623  62.0273085
  51.2313206  27.7419615  45.5899043  50.6378045  28.0636611  45.0383610
  51.2688483  26.8960710  45.3820149  51.1487595  27.6643943  45.4781814
  58.1907007  21.1932507  53.1227129  57.6837871  20.4861647  53.0548307
  58.9874440  20.8625696  53.2528206  58.2334246  21.0405658  53.1326124
  54.1071022  27.6999119  49.0200793  53.8784715  27.7231821  48.1779151
  54.3669099  26.8756586  49.1395803  54.1117210  27.5815199  48.9125991
  48.3890251  29.5533592  58.6225893  47.8769154  28.9454775  58.9810924
  48.2169747  30.2690185  59.0899869  48.2879888  29.5696892  58.7442117
  43.2355966  27.9971168  61.2728255  43.0658556  28.6572542  60.7276462
  42.7921915  28.2077729  61.9940744  43.1455299  28.1257150  61.2989884
  47.1615785  26.2375665  50.3154989  47.6373151  26.5992745  49.6805170
  46.6604385  26.8932133  50.5955131  47.1581144  26.3869854  50.2631730
  60.3927146  35.7097434  46.1067994  60.7760752  36.4588790  46.3366091
  59.5971260  35.9563253  45.8479983  60.3320929  35.8567127  46.1025567
  52.2659321  27.4757837  61.0628149  52.8230751  27.2471646  60.4306614
  51.9420386  28.2363502  60.7863361  52.3005731  27.5541674  60.9284646
  40.1358030  30.9018033  56.5316745  39.5884749  30.2318679  56.6497613
  40.9250408  30.5347881  56.5960212  40.1710214  30.7483020  56.5585445
  49.9842438  30.5625490  62.0280156  50.7353765  30.8777167  62.3419710
  50.1765015  30.3604661  61.2014078  50.1233853  30.5792872  61.9523552
  56.8327729  26.6899056  49.2703951  56.8321955  26.5347713  50.1288228
  56.6283909  27.5362044  49.2145337  56.8027506  26.7919677  49.3891891
  38.8945000  30.1138841  53.6862768  38.7166761  29.6615450  54.4117683
  38.6064022  30.9165002  53.8701245  38.8257953  30.1661399  53.8206271
  54.5568581  31.3696558  52.9240158  55.0522246  30.6519553  52.8844178
  53.7468356  31.0667356  52.8094645  54.5112474  31.2194205  52.9013884
  56.6220399  34.1200246  55.6117287  57.0475471  33.5974668  55.0587712
  56.2577319  34.7181083  55.0905910  56.6307002  34.1310473  55.4526297
  55.2975984  39.4435823  64.1210516  55.4072949  38.6544384  64.4767264
  55.6266880  39.3541760  63.3184854  55.3628389  39.3141676  64.0552907
  50.1268494  22.6061981  58.8976539  50.2596399  21.8092974  59.2257515
  50.5113647  23.1328384  59.4774815  50.2024823  22.5661897  59.0320042
  53.8472945  37.6252444  58.7046137  53.2993891  37.0010328  58.4366202
  54.3085974  37.8146716  57.9890216  53.8340155  37.5611494  58.5596568
  53.2000849  19.5292307  55.4957632  52.3946813  19.4190036  55.8125471
  53.0707585  19.6304762  54.6387498  53.0620982  19.5275977  55.4165673
  56.6566810  25.6937799  56.0897329  56.0729798  26.1947005  55.6774897
  56.9771104  25.1867355  55.4561653  56.6179985  25.6929634  55.9355836
  47.7856941  22.6021156  57.1454433  48.3301354  22.2612282  57.7358775
  47.8393876  23.4606617  57.2875717  47.8746060  22.6776415  57.2536306
  53.4131272  38.6303517  55.2355478  54.2329645  38.4866483  55.4971773
  53.1325349  39.2549716  55.7771916  53.4928015  38.7013869  55.3543418
  69.8844922  46.2868369  48.1998354  69.8538926  47.1413005  48.3716624
  70.4826271  45.9863661  48.7584498  69.9682080  46.3684865  48.3073157
  63.0844607  45.3744020  52.9551285  62.2282502  45.5352518  53.0060402
  63.1312261  44.5036084  52.9756346  62.9643718  45.2694821  52.9657351
  57.4685747  54.9106737  48.7188517  56.7168646  54.5322276  48.4904562
  57.9171758  54.9425171  47.9707327  57.4235413  54.8592345  48.5746019
  66.3938323  51.6430545  62.5611741  67.1005091  51.1482576  62.6898676
  66.5826259  52.0839627  61.8314399  66.5266229  51.6348896  62.4720787
  62.9210706  55.3332107  44.1474064  62.5862075  56.0109029  43.7118286
  63.4337577  54.9437418  43.5590935  62.9476287  55.3756685  43.9960855
  62.4614998  57.2846376  50.0885175  62.8454377  57.8533274  49.5489950
  62.3974139  56.5595886  49.6090991  62.5088425  57.2621839  49.9379038
  65.9296428  47.4336064  55.5982937  66.4752388  48.1121150  55.6576906
  65.8713304  47.2923524  54.7384518  66.0012342  47.5128065  55.4794997
  59.0470503  54.9225130  50.9851289  59.1480866  54.1125484  51.2948417
  58.4512248  54.8282076  50.3550968  58.9743041  54.7890158  50.9377527
  67.7061496  48.8620671  46.4716664  67.5901022  49.6128357  46.9008802
  68.5017383  48.6044624  46.7212751  67.8066086  48.9355518  46.5720756
  58.8871242  59.8402719  52.3866145  59.5308698  60.2815883  52.7762303
  59.2127498  59.0356145  52.2996404  59.0303071  59.7867914  52.4311622
  59.5891822  52.8514694  47.7586007  59.9107663  53.3919901  47.1547315
  60.2363918  52.2811465  47.8908297  59.7317877  52.8473869  47.6893042
  61.8281465  51.2401134  47.8300185  62.2675101  50.6318234  48.2754958
  61.6786128  50.8608507  47.0585650  61.8702931  51.0939605  47.7819352
  59.2953108  49.8345145  55.0319010  59.9402111  49.3417589  54.7129959
  59.5354885  49.9769932  55.8585089  59.4263694  49.7822588  55.1068544
  61.8339200  52.6800051  54.6825903  62.1162443  51.8851457  54.4612659
  62.5625360  53.1580639  54.7030964  61.9828763  52.6334648  54.6528918
  59.8120394  40.2223085  51.9241668  59.4823724  40.6734229  51.2545367
  59.1365395  40.1439249  52.4714675  59.6630830  40.2774220  51.9064891
  65.4290802  49.5928315  44.7830954  65.3442097  50.4489282  44.9280523
  65.9175185  49.3172639  45.4513113  65.4879699  49.6785636  44.9033036
  67.0196801  36.2108608  50.1691279  66.7050242  36.9012087  50.6011701
  66.5023743  36.1553390  49.4676779  66.8961272  36.3043497  50.1288228
  66.3609235  46.2113109  46.2828689  65.8320707  46.4272743  46.9425996
  66.8834255  46.9049248  46.2029659  66.3597688  46.3456246  46.3684289
  71.8157288  51.7859414  51.6561734  70.9854991  51.9970057  51.8195150
  71.7666540  50.9596468  51.3804017  71.6864024  51.6949020  51.6399099
  53.8052872  55.8231087  51.8859829  53.3220450  56.5481577  51.8619412
  54.6176190  56.1207217  51.9969987  53.8543619  55.9733441  51.8987108
  59.8767026  54.6163268  54.4909643  59.3593967  54.2570683  53.8870951
  60.5741417  54.0925442  54.5015709  59.9032607  54.4860956  54.4039902
  63.5330618  55.0658082  60.4525816  63.6213963  54.8784222  61.3004027
  63.9620330  54.4195511  60.0530663  63.6092720  54.9421089  60.5197568
  61.1001077  54.3489242  59.4343479  60.5371912  53.9361852  59.9583140
  61.8622101  54.2742147  59.8536622  61.1295526  54.2766642  59.5736479
  56.6597069  56.3387263  52.0380109  57.3617648  55.8239252  52.0952865
  56.5794552  56.6661414  52.8426984  56.7520829  56.3101489  52.1652901
  71.3111246  44.4329814  55.4512155  70.4739667  44.5032001  55.6859750
  71.2799477  44.4354309  54.5786457  71.1829529  44.4440041  55.3571703
  57.7075975  46.5762850  61.1660524  57.8796479  46.4668744  62.0145805
  58.2445333  47.2217255  60.9291716  57.8120979  46.6554851  61.2565620
  56.6100547  52.9494490  55.8479022  57.1498772  52.8065621  56.5182395
  55.9270494  53.3491241  56.2163048  56.5892701  52.9874161  56.0013444
  62.0533132  37.6932103  47.1391753  62.7819292  37.5148058  46.6929909
  62.1428024  38.5350183  47.3498931  62.1739794  37.7915982  47.1045270
  66.0341432  48.6285491  51.0424047  66.7898947  49.0617005  51.0812955
  66.1403757  47.9790260  51.6158683  66.1611603  48.5962975  51.1322072
  69.0721603  52.4558768  51.7926450  68.6356835  52.4595510  52.5485421
  68.7384519  53.1364267  51.3606027  68.9584223  52.5571224  51.8407282
  63.6450677  54.4967101  63.1169600  64.4291094  54.6097949  63.4825342
  63.4447271  53.6708238  63.3128286  63.7316702  54.3913820  63.2003986
  68.9919086  39.4972596  54.0355878  69.6344995  39.5670700  54.6217793
  69.2442107  38.8301819  53.5335419  69.1241218  39.4098944  54.0483157
  63.8021070  56.4077203  56.7636056  63.0036316  56.1676703  57.0209924
  64.2507082  56.4591596  57.5103103  63.7495682  56.3799594  56.9120980
  72.2065950  49.1739688  50.6846087  72.8682384  48.6130356  50.5841995
  71.5657362  48.6791719  51.0098778  72.2094817  49.0176097  50.7178427
  63.0942757  52.4709819  42.9927010  63.5093906  52.1394843  42.3011506
  62.2634687  52.2378721  42.8647147  63.0330766  52.3881075  42.8717857
  68.4930780  50.1905070  50.4258076  68.7286369  50.3350269  49.5984926
  68.6420344  50.9547478  50.8189589  68.5496584  50.3244125  50.3621679
  70.3221237  49.0306736  48.2627679  70.6529454  49.5634376  47.6567774
  70.8954325  49.0845624  48.9189630  70.4554916  49.1176305  48.2705461
  62.8621807  50.1537648  64.6556244  62.0694788  50.4681160  64.8408863
  62.9770734  50.3689116  63.8177028  62.7617218  50.2321484  64.5594578
  65.5353126  46.8771639  48.9451260  65.6299980  47.6160933  49.3990885
  64.9111970  46.4489114  49.3785824  65.4562156  46.9232959  49.0759407
  63.7905600  50.0557851  59.5941540  64.3644462  49.4185096  59.7490104
  63.7120404  50.0561934  58.7251198  63.8638835  49.9622963  59.4887951
  65.7876147  48.7220379  42.1788212  65.7056310  48.7922566  43.0443199
  66.4255868  49.2850123  41.9871952  65.8695985  48.8159350  42.2778161
  59.1469319  48.4881117  51.6462738  58.8888563  47.6552851  51.6194037
  59.2017801  48.7138730  50.8055238  59.1169096  48.3978888  51.5182875
  64.2270369  40.5909567  51.7466830  63.5226695  40.1018753  51.9050750
  64.2755343  40.6032042  50.8755275  64.1300420  40.5199215  51.6406170
  61.7877319  44.5142228  56.9920011  61.3991752  44.0896446  56.3372202
  61.1232018  44.7624378  57.4997038  61.6324247  44.4880949  56.9707879
  71.4300588  44.2717233  49.7667841  71.1737153  43.4597175  49.5765724
  72.2729902  44.2794800  49.5398028  71.5166614  44.1529231  49.7052658
  65.6103681  38.2116857  54.5043995  65.9914193  37.5295028  54.8911869
  64.8066965  37.9226459  54.3219660  65.5480143  38.0683906  54.5348051
  69.1125748  51.4266829  59.6026394  68.8764385  50.5954894  59.4838454
  69.7568977  51.3752436  60.1881238  69.1720419  51.2964517  59.6712287
  58.7624166  52.2162350  50.3169130  59.3998113  51.9774098  50.8620923
  59.1879237  52.4199509  49.5822291  58.9200332  52.2113361  50.2886287
  53.4536808  54.4550687  54.2003434  53.4940954  54.7265538  53.3723213
  54.0131332  54.9792595  54.6161222  53.5420154  54.5726442  54.1395322
  59.5695521  40.7171055  64.3706604  59.2548962  41.4870618  64.1076166
  59.2485454  40.1541311  63.7858831  59.4754440  40.7481324  64.2447954
  70.1362168  51.2111278  55.6654688  69.8307985  51.9439335  56.0268004
  69.4168384  50.8049207  55.3847474  69.9849511  51.2593011  55.6767825
  61.1445638  52.6934773  51.9962916  61.2184646  52.5309945  52.8504766
  61.9615144  52.8824963  51.7523398  61.2761996  52.6971515  52.0860942
  75.8363961  47.8504279  54.9923032  75.7688461  47.8700238  54.1225619
  75.8219623  48.6934606  55.2178703  75.8242717  47.9778013  54.8975509
  66.2460307  39.2539436  58.3164122  66.9913899  39.0649247  57.9027547
  65.8297612  39.7797674  57.7577978  66.2945281  39.3041582  58.1728695
  59.6850224  55.6569516  46.7276390  59.9748522  55.2658497  46.0035616
  60.4153704  55.8386221  47.1681665  59.8357108  55.6263330  46.6859197
  73.6222578  46.6248665  53.2669627  74.1730499  45.9916734  53.5066719
  73.6066693  47.1564058  53.9585131  73.7007774  46.6097613  53.4048485
  60.2744969  50.4587262  57.8129520  59.7756662  51.1703030  57.8914409
  61.0845193  50.7787929  57.7747683  60.3201075  50.6114111  57.8186089
  57.6256139  57.6336899  49.7936539  57.4056435  57.3434253  50.5863206
  57.4050661  56.9751854  49.2654452  57.5603733  57.4936607  49.8325448
  67.3250984  44.8644998  52.3774223  66.9815750  44.1435334  52.7281473
  67.4244027  44.6558850  51.5352581  67.2893027  44.7269202  52.3045903
  59.7924095  59.0066288  48.5767232  60.4448153  58.4742731  48.8058258
  59.0949704  58.6534941  48.9635106  59.7854813  58.8755811  48.6679400
  67.7864013  51.3270702  47.9198211  68.3522046  51.9863912  47.8356754
  67.1391917  51.6720401  48.3914613  67.7742770  51.4752644  47.9770968
  59.2012027  43.3168306  63.1091818  58.3911802  43.6226086  62.9981661
  59.6786713  44.0373889  63.2244403  59.1515505  43.4682908  63.1098890
  58.0603586  52.5314027  53.3574722  57.5384340  52.6714319  54.0426586
  58.4477607  51.7724692  53.5476839  58.0407287  52.4399551  53.4875798
  64.2570591  54.2709487  47.3435290  64.0157267  53.5377347  46.9362355
  64.4371924  54.8196344  46.6901624  64.2478215  54.2431878  47.1865513
  59.4869912  49.5618046  48.7556213  59.2912695  50.1692781  48.1616516
  59.7104257  48.8685990  48.2747887  59.4904553  49.5495572  48.5972293
  65.8441950  42.7836583  54.2533766  65.0053050  42.8097862  54.0172029
  65.9146317  43.4307319  54.8339113  65.7310343  42.8832709  54.3042883
  64.2911228  39.6821960  48.9861382  64.9937581  39.4829708  48.5081340
  64.0255417  38.9097903  49.2930225  64.3557860  39.5384926  48.9606823
  69.7199473  47.9904570  51.5395008  69.6333448  48.1459996  52.3929786
  69.2649953  48.6342645  51.1654413  69.6402730  48.1080325  51.6102114
  59.0539784  40.9457245  58.0392262  58.8622981  40.9612380  58.8891686
  59.9038380  41.1420920  58.0158917  59.1515506  40.9771597  58.1615557
  63.5925289  45.3115317  50.1620567  63.3460004  45.2311068  50.9957356
  63.9210412  44.5268785  49.9683095  63.6046533  45.1841582  50.2568090
  67.4873338  52.0198676  53.9507348  67.3487698  52.7179722  54.4556091
  66.7073336  51.8647333  53.5943530  67.3516565  52.0998843  53.9733623
  65.8251423  48.3195052  60.2029730  65.8199462  47.4474868  60.2072157
  66.5312417  48.5183221  59.7299186  65.9296427  48.2198926  60.1336765
  59.5522317  48.0472036  59.5743550  59.6965692  48.6273244  58.9386660
  59.8997965  48.4248332  60.2793405  59.6249778  48.1892740  59.5842545
  61.7242234  47.2462204  57.3568682  60.9765548  47.4393218  56.9516960
  61.8783759  46.4207424  57.1192803  61.6364662  47.1527315  57.2614088
  58.6250072  56.2374807  56.4404577  58.7739635  55.6777723  55.7877982
  59.4050074  56.3166809  56.8237096  58.7624165  56.1660373  56.4001526
  68.9826711  51.3776930  44.7123848  68.6033520  50.5914068  44.7053137
  68.3192956  51.9263787  44.5695492  68.8285186  51.3421754  44.6904645
  61.1503372  56.4089450  57.7189068  61.0747043  55.7398261  58.2739856
  61.0793231  57.1107238  58.2329734  61.1283979  56.4134358  57.8765916
  61.9644011  41.1412755  58.2464086  62.4216625  41.8736729  58.3736878
  62.0400340  40.7179220  59.0051341  62.0434981  41.1869993  58.3765162
  66.4371337  34.3202630  52.1157929  66.5554905  34.7779093  51.3825231
  66.2633513  33.5147891  51.8294146  66.4290508  34.2696402  51.9658862
  61.8073619  54.9290449  48.5512674  62.5723510  54.6600093  48.2295338
  61.7051709  54.4440460  49.2682737  61.9055115  54.8180014  48.6092501
  59.8426389  43.1314859  55.0905910  59.0522464  42.9506319  55.4123245
  60.2387012  42.3541811  55.0736204  59.7843265  42.9902320  55.1358458
  64.3292280  51.9602633  40.5312623  65.0965265  52.0202758  40.1218475
  63.8823589  51.3883074  40.0468942  64.3765707  51.8839209  40.3990333
  65.2270075  50.7657289  52.8165355  64.5515077  50.5342521  53.3178743
  65.2362451  50.1578472  52.1907461  65.1288580  50.6416214  52.7981508
  62.3564219  45.6075118  59.5729409  62.2923360  46.4685074  59.4449545
  62.4961407  45.2907111  58.7724960  62.3679689  45.6875284  59.4357621
  67.2286810  53.6222421  45.0475533  67.3106647  54.4289407  44.7236984
  67.7136552  53.6418380  45.7716307  67.3123968  53.7443084  45.1062432
  61.0383313  48.3007257  53.7145611  60.6145562  48.5011756  52.9784630
  60.8628168  47.4536105  53.8269911  60.9494194  48.2056039  53.6219302
  60.5395007  59.8157770  56.1767069  61.0290937  59.1168559  55.9942733
  59.9679239  59.5181640  56.7643126  60.5279537  59.6683994  56.2368109
  66.7362010  52.3819839  65.1293859  67.5496875  52.1104988  65.2898992
  66.5756976  52.0827379  64.3254055  66.8331959  52.2974765  65.0339265
  61.0331352  53.5634544  45.3006975  61.1024173  52.7049082  45.4399976
  61.8119808  53.7806425  44.9726000  61.1584203  53.4687408  45.2724132
  64.0134172  43.0653497  58.0689248  64.2276142  42.4264411  57.5152602
  63.3968071  43.5099320  57.6397109  63.9539501  43.0363640  57.9239679
  65.4238840  55.9872245  49.5143468  65.0318632  55.6838960  48.7966335
  65.5791912  56.8241335  49.3248422  65.3892430  56.0656082  49.3799966
  66.1773260  44.6742562  59.0072555  65.3649942  44.3668452  59.0885727
  66.6363195  44.1941562  59.5715267  66.1253645  44.5579054  59.1027149
  65.5878515  52.5522234  49.4549499  65.2293170  52.7236877  50.2313531
  65.1017226  53.0135439  48.8977498  65.4637212  52.6461205  49.4874768
  63.4048901  36.1753432  53.0576590  62.5342459  36.1492153  53.0109900
  63.6589242  36.0030624  52.2402436  63.3142461  36.1463576  52.9296727
  63.2726768  46.0802633  63.7901257  63.7426399  46.7044750  64.1769131
  63.3188648  45.4119609  64.3494472  63.3494643  46.0737314  63.9301328
  60.4298041  38.1859661  54.5150061  59.9136530  37.4939852  54.6401640
  59.8691970  38.8530438  54.4612660  60.2704555  38.1822918  54.5256127
  62.4990275  38.7252621  56.3442913  62.1122028  38.7501652  57.1256443
  62.0123212  38.1594299  55.8917430  62.3702784  38.6448372  56.3930817
  66.7483254  53.4426130  60.4016700  67.3862975  52.9486325  60.0679156
  66.1057346  53.3703530  59.8168927  66.7477481  53.3585138  60.2659055
  68.4740254  45.2915276  54.9682616  68.0467862  45.2041624  54.2130715
  67.8366307  45.3993051  55.5537460  68.3169861  45.2947936  54.9428057
  62.1647416  35.6119606  58.6353173  62.7940534  36.1479906  58.3574244
  62.3333279  35.5196965  59.4866739  62.2825211  35.6780968  58.7201701
  61.9661331  40.3990801  60.9079585  62.7934761  40.1275950  60.9638199
  61.9869177  41.1951643  61.2643403  62.0914181  40.4770555  60.9694768
  66.8037511  54.1345938  57.0422057  67.5929889  53.7835003  57.1624138
  66.9781109  54.9482326  56.7798690  66.9457792  54.2031795  57.0209925
  56.5430821  47.5454664  54.0949845  55.7018828  47.4458538  54.3028739
  56.7520829  48.3150144  54.4464166  56.4495514  47.6446707  54.1777160
  65.6571335  38.1455495  51.6038475  65.8620928  38.0777803  52.4495472
  65.3297759  38.9514316  51.5359652  65.6386583  38.2541435  51.7198130
  60.3547486  45.4736063  53.3447443  60.0510624  44.9192051  53.9457851
  59.6526907  45.6528273  52.8575477  60.2063696  45.4180845  53.3617149
  58.4165837  52.6885784  58.0519541  58.3086192  52.6987846  58.9181599
  58.6261619  53.5140564  57.8624495  58.4315948  52.8126858  58.1523632
  68.9105023  38.6987259  51.0841241  68.2979336  39.1857661  51.4694972
  69.0069198  38.0230750  51.6278892  68.8342920  38.6705568  51.2220099
  56.4339629  49.9398426  55.5141478  55.8427562  50.5807924  55.4844493
  57.1960653  50.3636043  55.4872778  56.4587890  50.0974264  55.5056626
  56.8300252  41.1000424  56.1809496  57.2901733  41.1739353  56.9184620
  56.8756359  41.8981678  55.8309317  56.9050807  41.2294571  56.2382252
  58.4783602  41.7667119  60.7481523  58.0869167  41.1200466  61.1837301
  58.6469464  42.3578554  61.3675778  58.4454512  41.7581387  60.9044229
  72.5530051  49.7704196  56.5118757  72.6113174  50.2190844  57.2578733
  71.9196518  50.1803009  56.0748837  72.4681346  49.8977930  56.5571305
  66.1929145  55.3907738  52.9473503  65.9948834  55.8798552  52.2529714
  65.5716856  55.5948979  53.5257636  66.0716710  55.4924276  52.9296726
  62.1716699  38.9542893  52.3215609  61.3252744  39.1265701  52.1956958
  62.1687832  38.1492237  52.6581437  62.0463849  38.8603922  52.3526736
  63.2414999  42.7318108  53.1877666  62.7674954  42.2059870  53.6982977
  63.6133135  42.1847581  52.6192528  63.2264888  42.5734104  53.1792814
  69.5051730  47.7920483  54.5984447  69.2649953  46.9526899  54.6026873
  69.9843737  47.8720650  55.3225220  69.5403914  47.6801883  54.7059249
  65.1698499  43.6254662  46.2503420  64.6421518  43.7083406  45.5609129
  65.6294207  44.3672534  46.2468065  65.1600350  43.7475325  46.1478115
  71.5056917  44.5721941  52.5513706  71.2666687  44.5317775  51.7134491
  71.6690818  45.4193093  52.6779427  71.4947221  44.6914026  52.4467188
  68.1102947  48.9571890  58.4818751  68.8337146  48.5044416  58.3029771
  67.8452910  49.2376556  57.6991079  68.1784221  48.9322858  58.3397467
  64.7235582  52.1958226  45.3813077  65.4469781  52.6616339  45.2377651
  64.2836173  52.2631836  44.6310674  64.7651274  52.2742063  45.2497859
  63.8921737  49.0555768  56.6313766  63.2778730  48.5113818  56.9262402
  64.4089022  48.5420005  56.1519582  63.8777399  48.8992177  56.6037995
  63.1318034  50.1260038  54.3658065  62.7045642  49.5009757  53.9323500
  63.1242978  49.8434960  55.1917072  63.0677175  49.9912819  54.4237892
  64.1900864  37.3286447  57.9897288  63.6941425  37.5250121  57.2988855
  64.9469926  37.7279115  57.8186090  64.2287689  37.4164181  57.8617425
  61.4603744  41.0028793  54.5800599  61.4846231  40.4688905  53.8913379
  61.7115217  40.4946102  55.2426190  61.5013662  40.8489697  54.5765244
  57.7405066  39.7299611  53.9606343  57.7803437  40.2308818  54.6741051
  56.9154730  39.8210005  53.6912266  57.6244592  39.8181427  54.0256881
  59.9234679  49.2960351  62.0626638  59.0730309  49.4332065  62.1984283
  60.0862806  48.5624129  62.5074340  59.8218542  49.2074452  62.1482237
  59.1619429  46.2460121  56.2580242  58.3311359  46.4133939  56.0515490
  59.1070946  45.8696072  57.0429128  59.0308844  46.2149852  56.3428770
  56.9703212  39.7369014  61.8936653  57.5955916  39.1931147  62.1666085
  56.5153692  39.2563931  61.3244443  56.9951473  39.5858495  61.8498247
  70.5438261  47.9198301  56.9849301  71.1356101  48.5595551  57.0167499
  70.9797256  47.2221337  57.2741368  70.6956692  47.9116651  57.0330134
  62.3731651  52.3415673  57.6107195  61.8656742  52.8951520  58.0547825
  62.0758297  52.4023963  56.7925969  62.2536536  52.4321984  57.5555652
  64.5393833  40.7068993  56.4531858  64.9648905  40.2541519  55.8415384
  63.9250826  40.1529063  56.7296645  64.5122479  40.5582969  56.4036883
  64.9839431  56.2578931  45.5411138  64.2668741  56.0839793  45.0758376
  65.6346169  56.0231503  45.0086624  64.9741282  56.1974723  45.3940356
  62.9788056  37.1784093  49.8622435  62.3356374  37.0281739  50.4307573
  62.6387463  36.9326438  49.0971539  62.8333133  37.1196215  49.8325450
  67.5687403  45.1343519  49.2852443  66.8978592  45.6773222  49.1565509
  68.2627153  45.6038375  49.0434138  67.5716270  45.2841791  49.2307971
  61.6174136  57.2740231  54.5164202  61.3939791  56.5159061  54.8848228
  61.1283980  57.3038253  53.7944641  61.5117585  57.1662456  54.4640943
  67.7315530  41.5899403  52.1942817  68.0843140  41.1629126  52.8688615
  66.8730332  41.5050247  52.3243893  67.6564975  41.5144144  52.3137827
  65.7298796  44.8534772  56.1427659  65.7096723  44.6718067  56.9962438
  65.7777997  45.7246790  56.1187243  65.7333437  44.9551310  56.2650954
  63.6745126  51.4421964  62.0676135  63.6340981  50.7971641  61.4821291
  64.4868444  51.3858581  62.3801548  63.7888279  51.3380930  62.0273085
  60.2652593  57.4940690  51.9701286  59.8512992  56.8314820  51.5805128
  60.9499967  57.6418548  51.4496981  60.3050965  57.4181348  51.8357784
  63.6317887  56.6530775  52.7224903  63.2334171  56.7633045  51.9545723
  63.0169107  56.8612841  53.3051463  63.4816777  56.7004343  52.6956202
  69.1639590  36.7117815  53.1227129  68.6570455  36.0046954  53.0548307
  69.9607024  36.3811004  53.2528206  69.2066829  36.5590966  53.1326124
  65.0803606  43.2184427  49.0200793  64.8517299  43.2417129  48.1779151
  65.3401682  42.3941894  49.1395803  65.0849794  43.1000507  48.9125991
  59.3622834  45.0718900  58.6225893  58.8501737  44.4640083  58.9810924
  59.1902331  45.7875493  59.0899869  59.2612471  45.0882199  58.7442117
  54.2088549  43.5156475  61.2728255  54.0391139  44.1757850  60.7276462
  53.7654499  43.7263037  61.9940744  54.1187883  43.6442458  61.2989884
  71.3659730  51.2282741  46.1067994  71.7493336  51.9774098  46.3366091
  70.5703843  51.4748561  45.8479983  71.3053512  51.3752435  46.1025567
  63.2391905  42.9943145  61.0628149  63.7963335  42.7656954  60.4306614
  62.9152970  43.7548810  60.7863361  63.2738315  43.0726981  60.9284646
  60.9575022  46.0810798  62.0280156  61.7086349  46.3962475  62.3419710
  61.1497598  45.8789969  61.2014078  61.0966436  46.0978180  61.9523552
  67.8060312  42.2084364  49.2703951  67.8054539  42.0533021  50.1288228
  67.6016492  43.0547351  49.2145337  67.7760090  42.3104985  49.3891891
  65.5301164  46.8881866  52.9240158  66.0254830  46.1704861  52.8844178
  64.7200940  46.5852664  52.8094645  65.4845057  46.7379512  52.9013884
  67.5952983  49.6385554  55.6117287  68.0208055  49.1159976  55.0587712
  67.2309903  50.2366391  55.0905910  67.6039586  49.6495781  55.4526297
  57.2307063  57.9349771  54.3714632  57.5453622  58.7486160  54.3792414
  57.6400476  57.5499990  55.0396792  57.3375161  57.9978474  54.4718724
  64.1831583  53.3519818  51.9418444  64.6542761  54.0660081  52.1108430
  64.5191761  52.7518568  52.4778314  64.3026698  53.3691282  52.0450820
  66.2708567  54.9621131  64.1210516  66.3805533  54.1729692  64.4767264
  66.5999464  54.8727068  63.3184854  66.3360973  54.8326984  64.0552907
  61.1001077  38.1247289  58.8976539  61.2328983  37.3278282  59.2257515
  61.4846230  38.6513692  59.4774815  61.1757406  38.0847205  59.0320042
  64.8205529  53.1437752  58.7046137  64.2726475  52.5195636  58.4366202
  65.2818558  53.3332024  57.9890216  64.8072738  53.0796802  58.5596568
  64.1733433  35.0477615  55.4957632  63.3679396  34.9375344  55.8125471
  64.0440168  35.1490070  54.6387498  64.0353565  35.0461285  55.4165673
  67.6299393  41.2123107  56.0897329  67.0462382  41.7132313  55.6774897
  67.9503687  40.7052663  55.4561653  67.5912569  41.2114942  55.9355836
  58.7589524  38.1206464  57.1454433  59.3033937  37.7797590  57.7358775
  58.8126460  38.9791925  57.2875717  58.8478644  38.1961723  57.2536306
  54.5720083  51.8822880  54.0193241  55.1764940  51.8418714  53.3907062
  54.3647396  52.7294032  54.0497297  54.6308980  52.0010882  53.9309357
  64.3863855  54.1488825  55.2355478  65.2062229  54.0051791  55.4971773
  64.1057933  54.7735024  55.7771916  64.4660598  54.2199177  55.3543418
  74.0577190  60.8929328  52.9551285  73.2015086  61.0537826  53.0060402
  74.1044844  60.0221391  52.9756346  73.9376302  60.7880129  52.9657351
  68.4418330  70.4292045  48.7188517  67.6901230  70.0507584  48.4904562
  68.8904342  70.4610479  47.9707327  68.3967997  70.3777653  48.5746019
  76.9029011  62.9521371  55.5982937  77.4484971  63.6306458  55.6576906
  76.8445888  62.8108832  54.7384518  76.9744926  63.0313373  55.4794997
  70.0203086  70.4410438  50.9851289  70.1213449  69.6310791  51.2948417
  69.4244832  70.3467384  50.3550968  69.9475625  70.3075466  50.9377527
  63.2168131  66.4630724  50.6103623  62.9818315  65.6298376  50.5035891
  63.3553771  66.7435390  49.7964824  63.2023793  66.3814228  50.4745978
  65.5158218  58.6316455  53.5087930  64.8963250  58.0409102  53.3397945
  65.4142082  59.2227890  52.8752254  65.4095893  58.6320537  53.3892920
  70.5624406  68.3700002  47.7586007  70.8840247  68.9105209  47.1547315
  71.2096502  67.7996773  47.8908297  70.7050461  68.3659177  47.6893042
  72.6126114  60.3715996  47.8420393  73.3106278  60.5504124  48.3341857
  72.9278446  59.8486336  47.2190783  72.7621451  60.3209769  47.8222404
  65.2427351  62.1768736  55.7531499  65.1186048  62.7631182  56.3881318
  65.8945636  61.6828932  56.0543774  65.3201000  62.1907541  55.8917429
  72.8014049  66.7586442  47.8300185  73.2407684  66.1503542  48.2754958
  72.6518712  66.3793815  47.0585650  72.8435515  66.6124913  47.7819352
  70.2685692  65.3530453  55.0319010  70.9134695  64.8602896  54.7129959
  70.5087469  65.4955240  55.8585089  70.3996277  65.3007896  55.1068544
  72.8071783  68.1985359  54.6825903  73.0895026  67.4036765  54.4612659
  73.5357944  68.6765947  54.7030964  72.9561347  68.1519956  54.6528918
  70.7852977  55.7408393  51.9241668  70.4556307  56.1919537  51.2545367
  70.1097979  55.6624557  52.4714675  70.6363414  55.7959528  51.9064891
  76.4023386  65.1113623  44.7830954  76.3174681  65.9674589  44.9280523
  76.8907769  64.8357947  45.4513113  76.4612283  65.1970944  44.9033036
  77.9929385  51.7293916  50.1691279  77.6782826  52.4197395  50.6011701
  77.4756327  51.6738698  49.4676779  77.8693855  51.8228805  50.1288228
  77.3341819  61.7298417  46.2828689  76.8053290  61.9458051  46.9425996
  77.8566839  62.4234555  46.2029659  77.3330272  61.8641554  46.3684289
  69.2241427  65.6261634  45.0836157  68.6398642  66.1311665  45.4902021
  68.8211522  65.4004021  44.3432749  69.0780730  65.6669882  45.0341183
  64.7785455  71.3416395  51.8859829  64.2953033  72.0666885  51.8619412
  65.5908773  71.6392525  51.9969987  64.8276203  71.4918749  51.8987108
  70.8499609  70.1348576  54.4909643  70.3326551  69.7755991  53.8870951
  71.5474001  69.6110750  54.5015709  70.8765190  70.0046264  54.4039902
  73.6818641  61.8727286  43.5605078  73.9214645  62.0805270  42.7480421
  74.0034482  61.0684795  43.6694022  73.7655799  61.7841387  43.4565631
  68.9908931  53.8020682  47.4064616  69.7454899  54.1698999  47.1681666
  68.8136466  54.1760236  48.1743795  69.0763410  53.9118869  47.4849504
  67.6329652  71.8572571  52.0380109  68.3350232  71.3424560  52.0952865
  67.5527136  72.1846722  52.8426984  67.7253413  71.8286797  52.1652901
  68.6808559  62.0948158  61.1660524  68.8529063  61.9854052  62.0145805
  69.2177917  62.7402563  60.9291716  68.7853563  62.1740159  61.2565620
  67.3465996  56.2091001  44.1042729  67.1641569  56.4262881  43.2783722
  68.2091609  56.3230013  44.1601343  67.4470585  56.2580898  43.9897216
  66.9580428  68.0478923  51.5465717  67.7969327  68.2801856  51.5939478
  66.9892197  67.1783234  51.4772752  67.0862145  67.9535869  51.5430361
  67.5833131  68.4679798  55.8479022  68.1231356  68.3250929  56.5182395
  66.9003077  68.8676549  56.2163048  67.5625285  68.5059469  56.0013444
  73.0265715  53.2117411  47.1391753  73.7551876  53.0333366  46.6929909
  73.1160608  54.0535491  47.3498931  73.1472377  53.3101290  47.1045270
  77.0074016  64.1470799  51.0424047  77.7631531  64.5802313  51.0812955
  77.1136340  63.4975568  51.6158683  77.1344186  64.1148282  51.1322072
  62.9870276  64.6880089  56.0013444  62.7208691  63.8719205  56.1604434
  63.0008840  64.7333244  55.1308959  62.9494998  64.5736994  55.8966926
  66.8928023  59.4865173  42.6165202  66.1786200  59.2003353  43.0287634
  67.3771992  59.8261799  43.2571589  66.8587386  59.4946823  42.7720837
  67.7368882  58.2258467  58.6480451  67.0440679  57.7555447  58.8941183
  68.3529210  57.9996772  59.2222159  67.7253412  58.1225599  58.7689604
  74.0675341  67.9895127  42.9927010  74.4826489  67.6580151  42.3011506
  73.2367270  67.7564029  42.8647147  74.0063350  67.9066383  42.8717857
  63.3963690  65.4738868  53.2825188  63.2139263  65.4485754  52.4297480
  64.1313359  65.9437806  53.3214097  63.4777754  65.5400230  53.1623107
  66.4609441  62.1923871  59.7907297  67.1849414  62.1776902  60.2772191
  66.5625578  62.9019226  59.2929265  66.5827650  62.2948574  59.7886083
  76.5085710  62.3956947  48.9451260  76.6032564  63.1346241  49.3990885
  75.8844553  61.9674422  49.3785824  76.4294740  62.4418267  49.0759407
  63.3634600  62.3532369  53.4324255  63.9408103  62.2168820  54.0716500
  62.6648662  61.8968153  53.6869839  63.3455621  62.2654635  53.5646544
  76.7608731  64.2405687  42.1788212  76.6788894  64.3107874  43.0443199
  77.3988451  64.8035431  41.9871952  76.8428568  64.3344658  42.2778161
  70.1201902  64.0066425  51.6462738  69.8621146  63.1738159  51.6194037
  70.1750385  64.2324038  50.8055238  70.0901680  63.9164196  51.5182875
  75.2002952  56.1094875  51.7466830  74.4959279  55.6204061  51.9050750
  75.2487927  56.1217350  50.8755275  75.1033004  56.0384523  51.6406170
  69.0936614  61.5604187  52.1327633  68.5186206  61.7196355  52.7691594
  68.7172291  60.9239596  51.6696083  68.9539427  61.4902000  52.1582191
  72.7609903  60.0327536  56.9920011  72.3724336  59.6081754  56.3372202
  72.0964601  60.2809686  57.4997038  72.6056831  60.0066257  56.9707879
  58.8393433  61.2044262  50.1472073  58.9253685  60.8276130  50.9285603
  59.4669231  60.8304707  49.6692031  58.9449984  61.0929744  50.1917550
  76.5836264  53.7302165  54.5043995  76.9646776  53.0480336  54.8911869
  75.7799549  53.4411767  54.3219660  76.5212726  53.5869214  54.5348051
  73.8648841  64.2626141  45.1896818  74.6789480  64.5541034  45.0779589
  73.8007982  63.6086003  44.6155111  73.9751580  64.2091336  45.0885655
  69.7356749  67.7347658  50.3169130  70.3730696  67.4959406  50.8620923
  70.1611821  67.9384817  49.5822291  69.8932916  67.7298669  50.2886287
  64.4269392  69.9735995  54.2003434  64.4673537  70.2450846  53.3723213
  64.9863916  70.4977903  54.6161222  64.5152738  70.0911750  54.1395322
  70.3759564  62.9549948  44.6544019  70.7604717  62.7357655  45.4060565
  70.1271185  63.7812894  44.7845096  70.3961637  63.0448094  44.7845096
  70.5428105  56.2356363  64.3706604  70.2281546  57.0055926  64.1076166
  70.2218037  55.6726619  63.7858831  70.4487024  56.2666632  64.2447954
  72.1178221  68.2120081  51.9962916  72.1917230  68.0495253  52.8504766
  72.9347728  68.4010271  51.7523398  72.2494580  68.2156823  52.0860942
  65.8783978  68.5577944  49.0257360  65.0522096  68.8039681  48.8991639
  65.9395969  68.4790025  49.8919418  65.7658145  68.5822893  49.1346304
  68.0960002  54.6246885  49.9852800  67.2282427  54.6969484  50.0510409
  68.3835206  55.4268964  50.1740775  68.0099750  54.7541032  50.0227567
  77.2192891  54.7724744  58.3164122  77.9646483  54.5834555  57.9027547
  76.8030195  55.2982982  57.7577978  77.2677865  54.8226890  58.1728695
  70.6582807  71.1754824  46.7276390  70.9481106  70.7843805  46.0035616
  71.3886288  71.3571529  47.1681665  70.8089691  71.1448638  46.6859197
  71.2477552  65.9772570  57.8129520  70.7489246  66.6888338  57.8914409
  72.0577777  66.2973237  57.7747683  71.2933659  66.1299419  57.8186089
  68.5988723  73.1522206  49.7936539  68.3789018  72.8619561  50.5863206
  68.3783245  72.4937161  49.2654452  68.5336317  73.0121915  49.8325448
  67.5105670  65.2395523  52.0592241  67.2218919  64.6132994  52.5937968
  68.3789018  65.1815810  52.1256922  67.5965922  65.1383067  52.1483196
  78.2983568  60.3830306  52.3774223  77.9548334  59.6620642  52.7281473
  78.3976610  60.1744158  51.5352581  78.2625611  60.2454510  52.3045903
  67.7137943  66.8790774  47.9834606  68.4683911  67.2603813  48.1970069
  67.1208556  67.3301918  48.4381303  67.7374657  67.0019601  48.0817485
  70.1744610  58.8353614  63.1091818  69.3644386  59.1411394  62.9981661
  70.6519297  59.5559197  63.2244403  70.1248089  58.9868216  63.1098890
  69.0336170  68.0499335  53.3574722  68.5116923  68.1899627  54.0426586
  69.4210190  67.2910000  53.5476839  69.0139871  67.9584859  53.4875798
  66.0227354  58.1005144  47.4269676  65.7352150  57.7306415  46.6901624
  66.7097822  58.5699999  47.1653381  66.0816251  58.1152113  47.2784752
  70.4602495  65.0803354  48.7556213  70.2645278  65.6878089  48.1616516
  70.6836841  64.3871298  48.2747887  70.4637137  65.0680880  48.5972293
  68.8581026  61.9658092  48.8737081  69.5803677  62.1299250  48.4140887
  68.3789018  62.6867757  48.7676421  68.8944756  62.0956322  48.7902695
  76.8174533  58.3021891  54.2533766  75.9785634  58.3283170  54.0172029
  76.8878900  58.9492627  54.8339113  76.7042927  58.4018017  54.3042883
  66.5088642  64.3716165  57.9791221  67.0209739  64.6500418  57.3299981
  66.2224985  65.1105459  58.3454034  66.5423505  64.5218518  57.9381099
  75.2643811  55.2007268  48.9861382  75.9670164  55.0015016  48.5081340
  74.9988000  54.4283210  49.2930225  75.3290444  55.0570234  48.9606823
  63.5955549  58.8786357  48.2754957  63.6971685  59.6812518  48.6035933
  64.3911435  58.6773692  47.9778038  63.7283454  58.9672255  48.2790313
  70.0272368  56.4642553  58.0392262  69.8355565  56.4797688  58.8891686
  70.8770964  56.6606228  58.0158917  70.1248090  56.4956904  58.1615557
  64.4119281  58.9933535  56.0176079  64.2704772  58.1417475  56.1420587
  64.6959844  59.0362195  55.1938285  64.4327127  58.8733285  55.9143703
  74.5657873  60.8300625  50.1620567  74.3192587  60.7496376  50.9957356
  74.8942996  60.0454093  49.9683095  74.5779117  60.7026890  50.2568090
  70.5254900  63.5657344  59.5743550  70.6698276  64.1458552  58.9386660
  70.8730549  63.9433640  60.2793405  70.5982362  63.7078048  59.5842545
  72.6974818  62.7647512  57.3568682  71.9498132  62.9578526  56.9516960
  72.8516343  61.9392731  57.1192803  72.6097245  62.6712623  57.2614088
  72.9376595  56.6598063  58.2464086  73.3949209  57.3922037  58.3736878
  73.0132923  56.2364528  59.0051341  73.0167564  56.7055301  58.3765162
  65.1809586  56.9063882  59.3353529  64.6451775  56.2944241  59.6514297
  65.2427351  57.4812018  59.9887196  65.1105219  56.9010810  59.4788956
  77.4103921  49.8387938  52.1157929  77.5287489  50.2964401  51.3825231
  77.2366096  49.0333199  51.8294146  77.4023092  49.7881710  51.9658862
  72.7806203  70.4475757  48.5512674  73.5456094  70.1785401  48.2295338
  72.6784293  69.9625767  49.2682737  72.8787698  70.3365322  48.6092501
  70.8158973  58.6500167  55.0905910  70.0255047  58.4691627  55.4123245
  71.2119595  57.8727119  55.0736204  70.7575849  58.5087627  55.1358458
  75.3024863  67.4787941  40.5312623  76.0697848  67.5388066  40.1218475
  74.8556172  66.9068382  40.0468942  75.3498291  67.4024517  40.3990333
  76.2002659  66.2842597  52.8165355  75.5247661  66.0527829  53.3178743
  76.2095035  65.6763780  52.1907461  76.1021163  66.1601522  52.7981508
  73.3296803  61.1260426  59.5729409  73.2655944  61.9870382  59.4449545
  73.4693991  60.8092419  58.7724960  73.3412273  61.2060592  59.4357621
  72.0115897  63.8192565  53.7145611  71.5878146  64.0197064  52.9784630
  71.8360752  62.9721413  53.8269911  71.9226777  63.7241346  53.6219302
  67.2998342  64.3144616  49.1473584  67.4562961  64.2491419  50.0029576
  67.6398935  65.0893169  48.9352264  67.3731577  64.4193815  49.2428178
  73.8377486  63.6902500  48.0166947  74.3793032  63.1872881  48.4805568
  74.1524045  63.6367695  47.2056432  73.9641883  63.6081921  47.9650759
  72.0063936  69.0819852  45.3006975  72.0756756  68.2234390  45.4399976
  72.7852391  69.2991732  44.9726000  72.1316786  68.9872716  45.2724132
  74.9866756  58.5838805  58.0689248  75.2008725  57.9449719  57.5152602
  74.3700655  59.0284628  57.6397109  74.9272085  58.5548948  57.9239679
  63.8732603  61.4979567  49.4634351  64.2531568  61.9164112  48.7994618
  63.2987968  62.0793023  49.7703194  63.8443928  61.6457426  49.4111092
  77.1505844  60.1927870  59.0072555  76.3382525  59.8853760  59.0885727
  77.6095778  59.7126870  59.5715267  77.0986228  60.0764362  59.1027149
  76.5611098  68.0707542  49.4549499  76.2025753  68.2422185  50.2313531
  76.0749809  68.5320747  48.8977498  76.4369795  68.1646513  49.4874768
  74.3781484  51.6938740  53.0576590  73.5075042  51.6677461  53.0109900
  74.6321826  51.5215932  52.2402436  74.2875044  51.6648884  52.9296727
  71.3499464  63.7506707  41.9949733  71.6391989  64.5271590  42.2693308
  71.4371263  63.2395439  42.6964233  71.4053720  63.7898625  42.1392231
  71.4030625  53.7044969  54.5150061  70.8869113  53.0125160  54.6401640
  70.8424554  54.3715746  54.4612660  71.2437138  53.7008226  54.5256127
  73.4722858  54.2437929  56.3442913  73.0854611  54.2686960  57.1256443
  72.9855796  53.6779607  55.8917430  73.3435367  54.1633680  56.3930817
  73.1380000  51.1304914  58.6353173  73.7673118  51.6665214  58.3574244
  73.3065863  51.0382273  59.4866739  73.2557795  51.1966276  58.7201701
  72.9393915  55.9176109  60.9079585  73.7667344  55.6461258  60.9638199
  72.9601761  56.7136951  61.2643403  73.0646765  55.9955863  60.9694768
  67.5163405  63.0639972  54.0949845  66.6751411  62.9643846  54.3028739
  67.7253413  63.8335452  54.4464166  67.4228097  63.1632015  54.1777160
  64.9938972  60.6859509  51.9234596  64.5995669  60.7602520  51.1484706
  64.4379089  61.0717455  52.4742958  64.8541784  60.7541283  51.8902256
  76.6303918  53.6640803  51.6038475  76.8353512  53.5963111  52.4495472
  76.3030342  54.4699624  51.5359652  76.6119166  53.7726743  51.7198130
  71.3280070  60.9921371  53.3447443  71.0243207  60.4377359  53.9457851
  70.6259490  61.1713581  52.8575477  71.1796279  60.9366153  53.3617149
  70.3846167  58.3021891  47.9092145  70.6605901  57.5840803  47.4969712
  70.9844836  58.9006811  47.7013251  70.5139431  58.2842261  47.8172906
  69.3898421  68.2071092  58.0519541  69.2818776  68.2173154  58.9181599
  69.5994202  69.0325872  57.8624495  69.4048532  68.3312166  58.1523632
  73.8856687  55.9735408  46.1838740  74.3400434  56.1445968  46.9086584
  74.3596733  55.3603519  45.7836516  74.0225007  55.9086293  46.2312501
  67.4072213  65.4583734  55.5141478  66.8160146  66.0993232  55.4844493
  68.1693236  65.8821351  55.4872778  67.4320473  65.6159572  55.5056626
  67.8032835  56.6185732  56.1809496  68.2634317  56.6924661  56.9184620
  67.8488942  57.4166986  55.8309317  67.8783391  56.7479879  56.2382252
  69.4516185  57.2852427  60.7481523  69.0601750  56.6385774  61.1837301
  69.6202048  57.8763862  61.3675778  69.4187095  57.2766694  60.9044229
  71.2269707  62.6777942  47.2883747  71.9711752  63.0652219  47.5266697
  71.3730403  61.8335368  47.4524235  71.3580292  62.6108415  47.3477717
  73.1449283  54.4728201  52.3215609  72.2985328  54.6451009  52.1956958
  73.1420415  53.6677545  52.6581437  73.0196433  54.3789230  52.3526736
  74.2147583  58.2503416  53.1877666  73.7407537  57.7245178  53.6982977
  74.5865719  57.7032889  52.6192528  74.1997472  58.0919412  53.1792814
  64.5920613  60.2474922  58.5561212  65.4546226  60.1470632  58.4698542
  64.2612396  59.6669632  57.9946784  64.6705810  60.1466549  58.4606618
  76.1431083  59.1439970  46.2503420  75.6154101  59.2268714  45.5609129
  76.6026791  59.8857842  46.2468065  76.1332933  59.2660633  46.1478115
  67.9522399  59.0717371  55.2171630  67.3275469  59.0835763  54.6097583
  67.6167994  59.5477547  55.8662871  67.8107891  59.1435888  55.2228199
  68.1364148  57.4142490  41.2744315  67.7876952  58.0662215  41.7375865
  67.6560594  57.3999603  40.5468187  68.0134392  57.5085543  41.2355407
  64.6648075  67.1317832  56.6575395  64.1347999  66.4410270  56.7070369
  64.9373168  67.1228017  55.8288103  64.6272797  67.0284963  56.5422811
  75.6968165  67.7143534  45.3813077  76.4202364  68.1801647  45.2377651
  75.2568756  67.7817143  44.6310674  75.7383857  67.7927371  45.2497859
  74.8654320  64.5741076  56.6313766  74.2511313  64.0299126  56.9262402
  75.3821605  64.0605313  56.1519582  74.8509983  64.4177485  56.6037995
  74.1050617  65.6445346  54.3658065  73.6778225  65.0195065  53.9323500
  74.0975562  65.3620268  55.1917072  74.0409759  65.5098127  54.4237892
  67.2213145  60.6810519  57.4346499  67.3806631  59.9253843  57.8398221
  67.0406038  61.2301459  58.0887237  67.2178504  60.6504333  57.5909205
  75.1633448  52.8471755  57.9897288  74.6674009  53.0435429  57.2988855
  75.9202510  53.2464423  57.8186090  75.2020272  52.9349489  57.8617425
  72.4336327  56.5214101  54.5800599  72.4578814  55.9874213  53.8913379
  72.6847801  56.0131410  55.2426190  72.4746246  56.3675005  54.5765244
  59.9443917  63.8045596  54.0143743  59.8387366  63.7592440  53.1495827
  59.1944137  64.1499376  54.2958028  59.8179520  63.8486504  53.9281073
  68.7137649  55.2484919  53.9606343  68.7536021  55.7494126  54.6741051
  67.8887314  55.3395313  53.6912266  68.5977175  55.3366735  54.0256881
  70.1352013  61.7645429  56.2580242  69.3043942  61.9319247  56.0515490
  70.0803530  61.3881380  57.0429128  70.0041428  61.7335160  56.3428770
  67.9435796  55.2554322  61.8936653  68.5688499  54.7116454  62.1666085
  67.4886276  54.7749239  61.3244443  67.9684057  55.1043803  61.8498247
  68.5088057  60.0401020  46.7870360  68.6491018  60.5373485  47.4899001
  69.0070589  59.3387315  46.9284574  68.6029138  60.0102999  46.9121939
  68.5388279  60.9068131  44.1162937  69.1733358  61.5028556  44.0512399
  68.6213890  60.6071589  44.9308807  68.6444830  60.9509039  44.2266023
  70.1167262  56.8382107  44.0908379  70.4383103  56.3585189  43.4367641
  70.3794206  57.6481753  43.8999190  70.2033287  56.8872005  43.9663871
  75.5126417  56.2254301  56.4531858  75.9381488  55.7726827  55.8415384
  74.8983410  55.6714371  56.7296645  75.4855062  56.0768277  56.4036883
  65.0441267  63.1035972  47.3852483  65.5533496  63.7000480  47.7663788
  65.5175539  62.8361946  46.7028902  65.1884643  63.1521788  47.3407006
  73.9520640  52.6969401  49.8622435  73.3088958  52.5467047  50.4307573
  73.6120047  52.4511746  49.0971539  73.8065717  52.6381523  49.8325450
  67.4031799  59.7392231  50.2525663  66.6843788  60.1556363  50.5198527
  67.7744161  60.3046469  49.7017301  67.3523730  59.8841512  50.2108470
  76.7031379  60.3720080  56.1427659  76.6829307  60.1903375  56.9962438
  76.7510580  61.2432098  56.1187243  76.7066020  60.4736618  56.2650954
  73.1778373  58.7790231  45.5899043  72.5843212  59.1007227  45.0383610
  73.2153651  57.9331326  45.3820149  73.0952762  58.7014559  45.4781814
  76.0536190  58.7369735  49.0200793  75.8249883  58.7602436  48.1779151
  76.3134266  57.9127202  49.1395803  76.0582378  58.6185815  48.9125991
  70.3355418  60.5904208  58.6225893  69.8234321  59.9825391  58.9810924
  70.1634914  61.3060801  59.0899869  70.2345055  60.6067507  58.7442117
  65.1821133  59.0341783  61.2728255  65.0123723  59.6943158  60.7276462
  64.7387083  59.2448345  61.9940744  65.0920466  59.1627766  61.2989884
  69.1080952  57.2746281  50.3154989  69.5838318  57.6363361  49.6805170
  68.6069552  57.9302749  50.5955131  69.1046311  57.4240470  50.2631730
  74.2124488  58.5128453  61.0628149  74.7695918  58.2842262  60.4306614
  73.8885553  59.2734118  60.7863361  74.2470898  58.5912289  60.9284646
  62.0823197  61.9388649  56.5316745  61.5349917  61.2689295  56.6497613
  62.8715575  61.5718497  56.5960212  62.1175381  61.7853635  56.5585445
  71.1507605  59.4187481  43.6828373  71.5306570  59.4367110  42.8979487
  70.4100201  59.8641470  43.5619220  71.0976443  59.4869256  43.5491941
  78.7792896  57.7269672  49.2703951  78.7787122  57.5718329  50.1288228
  78.5749076  58.5732659  49.2145337  78.7492674  57.8290293  49.3891891
  60.8410167  61.1509457  53.6862768  60.6631928  60.6986066  54.4117683
  60.5529189  61.9535618  53.8701245  60.7723120  61.2032015  53.8206271
  76.5033748  62.4067174  52.9240158  76.9987413  61.6890169  52.8844178
  75.6933524  62.1037972  52.8094645  76.4577641  62.2564820  52.9013884
  71.9492359  66.2564987  45.0737163  71.1403682  65.9331661  45.0270472
  72.4567268  65.5498209  45.0065411  71.9042026  66.1046304  45.0567457
  62.5782637  63.6837180  50.7984527  61.7128156  63.6722871  50.6867298
  62.6781452  63.4967403  51.6455666  62.4656804  63.6543242  50.9073471
  68.2039646  73.4535079  54.3714632  68.5186205  74.2671468  54.3792414
  68.6133060  73.0685298  55.0396792  68.3107744  73.5163782  54.4718724
  75.1564166  68.8705126  51.9418444  75.6275344  69.5845388  52.1108430
  75.4924345  68.2703876  52.4778314  75.2759281  68.8876590  52.0450820
  72.0733661  53.6432596  58.8976539  72.2061567  52.8463590  59.2257515
  72.4578814  54.1698999  59.4774815  72.1489990  53.6032513  59.0320042
  75.1466016  50.5662923  55.4957632  74.3411980  50.4560652  55.8125471
  75.0172752  50.6675378  54.6387498  75.0086149  50.5646593  55.4165673
  78.6031977  56.7308415  56.0897329  78.0194966  57.2317621  55.6774897
  78.9236271  56.2237971  55.4561653  78.5645152  56.7300250  55.9355836
  71.1426776  55.6449009  46.3656004  71.9642470  55.8147322  46.1237699
  70.6796427  55.7996270  45.6422302  71.1957938  55.6930742  46.2227648
  69.7322108  53.6391772  57.1454433  70.2766521  53.2982898  57.7358775
  69.7859044  54.4977233  57.2875717  69.8211227  53.7147031  57.2536306
  65.5452667  67.4008188  54.0193241  66.1497524  67.3604022  53.3907062
  65.3379979  68.2479340  54.0497297  65.6041564  67.5196190  53.9309357
  60.7803949  66.3842805  53.8892164  60.6828227  65.5739077  54.1982221
  61.5632819  66.3634598  53.5038432  60.8820085  66.2609895  53.8779027
  35.2171403   0.8114253  35.6528563  34.4654303   0.4329791  35.4244608
  35.6657415   0.8432686  34.9047374  35.1721070   0.7599860  35.5086065
  40.6696363   1.2339622  31.0814110  40.3347732   1.9116544  30.6458333
  41.1823234   0.8444934  30.4930982  40.6961944   1.2764200  30.9300902
  40.2100654   3.1853891  37.0225222  40.5940034   3.7540790  36.4829997
  40.1459796   2.4603401  36.5431038  40.2574082   3.1629354  36.8719085
  36.7956159   0.8232645  37.9191336  36.8966522   0.0132999  38.2288464
  36.1997905   0.7289591  37.2891014  36.7228698   0.6897673  37.8717574
  36.6356899   5.7410234  39.3206192  37.2794355   6.1823398  39.7102350
  36.9613155   4.9363660  39.2336451  36.7788728   5.6875429  39.3651669
  29.9921204  -3.1547069  37.5443669  29.7571388  -3.9879416  37.4375938
  30.1306844  -2.8742403  36.7304870  29.9776866  -3.2363565  37.4086024
  37.3377479  -1.2477791  34.6926054  37.6593320  -0.7072584  34.0887362
  37.9849575  -1.8181020  34.8248343  37.4803534  -1.2518616  34.6233089
  31.5538528   1.7238602  38.8199876  31.0706107   2.4489092  38.7959459
  32.3661847   2.0214732  38.9310033  31.6029276   1.8740956  38.8327155
  37.6252682   0.5170783  41.4249690  37.1079624   0.1578198  40.8210998
  38.3227074  -0.0067043  41.4355756  37.6518264   0.3868471  41.3379949
  41.2816274   0.9665597  47.3865863  41.3699620   0.7791737  48.2344073
  41.7105987   0.3203027  46.9870710  41.3578377   0.8428605  47.4537615
  38.8486734   0.2496757  46.3683525  38.2857569  -0.1630633  46.8923187
  39.6107758   0.1749663  46.7876669  38.8781183   0.1774158  46.5076526
  34.4082726   2.2394778  38.9720155  35.1103305   1.7246767  39.0292912
  34.3280209   2.5668930  39.7767031  34.5006486   2.2109004  39.0992948
  33.7333501  -1.5698870  38.4805764  34.5722401  -1.3375937  38.5279525
  33.7645270  -2.4394558  38.4112799  33.8615219  -1.6641923  38.4770408
  34.3586204  -1.1497995  42.7819069  34.8984429  -1.2926864  43.4522441
  33.6756150  -0.7501244  43.1503095  34.3378358  -1.1118324  42.9353491
  41.3936334   0.3974616  50.0509647  42.1776750   0.5105464  50.4165389
  41.1932928  -0.4284247  50.2468333  41.4802359   0.2921336  50.1344033
  41.5506727   2.3084718  43.6976102  40.7521973   2.0684218  43.9549971
  41.9992739   2.3599111  44.4443150  41.4981338   2.2807109  43.8461027
  36.5109823  -1.8830134  37.2509177  37.1483770  -2.1218387  37.7960970
  36.9364894  -1.6792975  36.5162337  36.6685989  -1.8879124  37.2226334
  31.2022465   0.3558202  41.1343481  31.2426610   0.6273053  40.3063260
  31.7616989   0.8800110  41.5501269  31.2905811   0.4733957  41.0735369
  38.8931295  -1.4057712  38.9302963  38.9670303  -1.5682540  39.7844813
  39.7100801  -1.2167522  38.6863445  39.0247653  -1.4020969  39.0200989
  32.6537051  -1.0599849  35.9597407  31.8275169  -0.8138112  35.8331685
  32.7149043  -1.1387768  36.8259465  32.5411218  -1.0354900  36.0686351
  37.4335880   1.5577031  33.6616437  37.7234179   1.1666013  32.9375663
  38.1639361   1.7393736  34.1021712  37.5842765   1.5270845  33.6199244
  35.3741796   3.5344414  36.7276586  35.1542091   3.2441769  37.5203253
  35.1536318   2.8759369  36.1994499  35.3089390   3.3944122  36.7665495
  37.5409752   4.9073804  35.5107279  38.1933810   4.3750246  35.7398305
  36.8435360   4.5542456  35.8975153  37.5340470   4.7763327  35.6019446
  34.4891016  -2.7387019  34.9174653  35.2436984  -2.3573980  35.1310115
  33.8961629  -2.2875875  35.3721349  34.5127730  -2.6158191  35.0157531
  35.8089243  -1.5678457  40.2914768  35.2869997  -1.4278166  40.9766633
  36.1963263  -2.3267793  40.4816886  35.7892944  -1.6592933  40.4215845
  42.0056248   0.1717002  34.2775337  41.7642924  -0.5615137  33.8702402
  42.1857581   0.7203859  33.6241670  41.9963872   0.1439393  34.1205560
  36.3735728   2.1382323  43.3744624  36.5225292   1.5785239  42.7218028
  37.1535731   2.2174324  43.7577143  36.5109822   2.0667888  43.3341573
  38.8989029   2.3096966  44.6529115  38.8232700   1.6405776  45.2079903
  38.8278888   3.0114754  45.1669781  38.8769636   2.3141873  44.8105963
  39.5559276   0.8297965  35.4852721  40.3209167   0.5607608  35.1635385
  39.4537366   0.3447975  36.2022783  39.6540771   0.7187529  35.5432548
  38.2880663   5.7165285  43.1107116  38.7776594   5.0176075  42.9282780
  37.7164896   5.4189155  43.6983173  38.2765193   5.5691509  43.1708156
  38.7817009  -0.5357941  32.2347022  38.8509830  -1.3943403  32.3740022
  39.5605464  -0.3186060  31.9066047  38.9069859  -0.6305077  32.2064179
  43.1724497   1.8879760  36.4483515  42.7804289   1.5846475  35.7306381
  43.3277569   2.7248850  36.2588469  43.1378087   1.9663597  36.3140012
  36.1651494  -1.4106701  44.9859588  36.0571849  -1.4004639  45.8521646
  36.3747275  -0.5851921  44.7964541  36.1801605  -1.2865626  45.0863679
  43.9414802   1.2915253  39.8813550  43.7434491   1.7806067  39.1869761
  43.3202513   1.4956494  40.4597683  43.8202367   1.3931791  39.8636773
  31.4401148  -2.4859961  43.5915442  30.9101072  -3.1767522  43.6410416
  31.7126241  -2.4949776  42.7628150  31.4025870  -2.5892829  43.4762857
  26.7196990  -5.8132197  40.9483790  26.6140439  -5.8585353  40.0835874
  25.9697210  -5.4678416  41.2298075  26.5932593  -5.7691289  40.8621120
  40.1217308  -1.7576812  44.5447242  39.6142399  -1.2040965  44.9887872
  39.8243954  -1.6968522  43.7266016  40.0022193  -1.6670500  44.4895698
  42.7325088   2.1586446  32.4751185  42.0154398   1.9847308  32.0098423
  43.3831826   1.9239018  31.9426671  42.7226939   2.0982239  32.3280403
  39.3659793   3.1747747  41.4504249  39.1425448   2.4166576  41.8188275
  38.8769636   3.2045768  40.7284688  39.2603242   3.0669971  41.3980990
  38.0138250   3.3948205  38.9041333  37.5998649   2.7322335  38.5145175
  38.6985624   3.5426064  38.3837027  38.0536622   3.3188863  38.7697830
  41.3803544   2.5538290  39.6564950  40.9819827   2.6640560  38.8885770
  40.7654764   2.7620356  40.2391510  41.2302433   2.6011858  39.6296249
  34.9792720   3.8357287  41.3054679  35.2939279   4.6493675  41.3132461
  35.3886133   3.4507505  41.9736838  35.0860818   3.8985989  41.4058771
  44.0194224   0.8628647  51.0550563  44.1291189   0.0737207  51.4107310
  44.3485120   0.7734583  50.2524901  44.0846630   0.7334500  50.9892954
  32.3205740  -2.2169605  40.9533288  32.9250597  -2.2573771  40.3247108
  32.1133052  -1.3698453  40.9837343  32.3794637  -2.0981603  40.8649404
  42.1349512   0.0496340  42.1695525  42.9547886  -0.0940694  42.4311820
  41.8543590   0.6742539  42.7111963  42.2146255   0.1206692  42.2883464
  27.5557022  -3.2334987  40.8232211  27.4581300  -4.0438716  41.1322267
  28.3385892  -3.2543194  40.4378479  27.6573159  -3.3567897  40.8119074
  58.6063162   7.7061192  35.1338401  58.5757167   8.5605829  35.3056671
  59.2044511   7.4056484  35.6924545  58.6900320   7.7877688  35.2413204
  51.8062847   6.7936843  39.8891332  50.9500743   6.9545341  39.9400449
  51.8530501   5.9228907  39.9096393  51.6861959   6.6887645  39.8997398
  55.1156564  13.0623368  49.4951788  55.8223331  12.5675399  49.6238722
  55.3044499  13.5032450  48.7654446  55.2484469  13.0541719  49.4060833
  51.6428947  16.7524930  31.0814110  51.3080315  17.4301852  30.6458333
  52.1555817  16.3630241  30.4930982  51.6694528  16.7949508  30.9300902
  51.1833238  18.7039199  37.0225222  51.5672617  19.2726098  36.4829997
  51.1192379  17.9788709  36.5431038  51.2306665  18.6814662  36.8719085
  54.6514668   8.8528887  42.5322983  55.1970628   9.5313973  42.5916953
  54.5931544   8.7116348  41.6724565  54.7230583   8.9320888  42.4135044
  56.4279737  10.2813494  33.4056711  56.3119263  11.0321180  33.8348849
  57.2235623  10.0237447  33.6552798  56.5284326  10.3548341  33.5060803
  40.9653787  12.3638239  37.5443669  40.7303972  11.5305892  37.4375938
  41.1039428  12.6442905  36.7304870  40.9509450  12.2821743  37.4086024
  43.2643875   4.5323970  40.4427977  42.6448906   3.9416617  40.2737992
  43.1627738   5.1235405  39.8092300  43.1581550   4.5328053  40.3232967
  50.3611770   6.2723512  34.7760440  51.0591935   6.4511639  35.2681904
  50.6764103   5.7493851  34.1530830  50.5107108   6.2217284  34.7562450
  42.9913008   8.0776252  42.6871546  42.8671705   8.6638697  43.3221365
  43.6431292   7.5836447  42.9883821  43.0686657   8.0915056  42.8257475
  48.0171349  11.2537969  41.9659057  48.6620351  10.7610412  41.6470006
  48.2573126  11.3962755  42.7925136  48.1481934  11.2015411  42.0408590
  50.5557440  14.0992875  41.6165950  50.8380683  13.3044280  41.3952706
  51.2843601  14.5773462  41.6371011  50.7047004  14.0527471  41.5868965
  48.5338634   1.6415909  38.8581715  48.2041964   2.0927052  38.1885414
  47.8583636   1.5632072  39.4054721  48.3849070   1.6967044  38.8404938
  54.1509042  11.0121138  31.7171001  54.0660337  11.8682105  31.8620570
  54.6393426  10.7365462  32.3853160  54.2097940  11.0978460  31.8373083
  55.0827476   7.6305932  33.2168736  54.5538947   7.8465566  33.8766042
  55.6052496   8.3242071  33.1369705  55.0815929   7.7649069  33.3024335
  60.5375528  13.2052237  38.5901781  59.7073232  13.4162880  38.7535197
  60.4884781  12.3789291  38.3144064  60.4082264  13.1141843  38.5739146
  46.9727083  11.5269149  32.0176204  46.3884299  12.0319180  32.4242068
  46.5697179  11.3011536  31.2772796  46.8266387  11.5677397  31.9681229
  52.2548858  16.4850905  47.3865863  52.3432204  16.2977045  48.2344073
  52.6838571  15.8388335  46.9870710  52.3310960  16.3613913  47.4537615
  51.4304298   7.7734801  30.4945125  51.6700301   7.9812785  29.6820468
  51.7520139   6.9692310  30.6034069  51.5141456   7.6848902  30.3905678
  60.0329487   5.8522637  42.3852202  59.1957908   5.9224824  42.6199796
  60.0017718   5.8547132  41.5126504  59.9047769   5.8632864  42.2911750
  46.4294216   7.9955673  48.1000571  46.6014720   7.8861568  48.9485852
  46.9663573   8.6410079  47.8631763  46.5339220   8.0747675  48.1905667
  45.0951653   2.1098516  31.0382776  44.9127226   2.3270397  30.2123768
  45.9577266   2.2237529  31.0941390  45.1956242   2.1588414  30.9237263
  54.7559673  10.0478314  37.9764093  55.5117188  10.4809828  38.0153002
  54.8621997   9.3983084  38.5498729  54.8829843  10.0155798  38.0662119
  57.7939844  13.8751591  38.7266496  57.3575076  13.8788334  39.4825468
  57.4602759  14.5557090  38.2946074  57.6802464  13.9764047  38.7747329
  52.3668917  15.9159924  50.0509647  53.1509334  16.0290772  50.4165389
  52.1665512  15.0901061  50.2468333  52.4534943  15.8106643  50.1344033
  40.7355933  10.5887604  42.9353491  40.4694348   9.7726721  43.0944481
  40.7494497  10.6340760  42.0649006  40.6980655  10.4744509  42.8306973
  44.6413680   5.3872689  29.5505249  43.9271857   5.1010868  29.9627681
  45.1257648   5.7269314  30.1911636  44.6073043   5.3954338  29.7060884
  45.4854539   4.1265982  45.5820498  44.7926336   3.6562962  45.8281230
  46.1014866   3.9004287  46.1562205  45.4739069   4.0233114  45.7029651
  60.9284190  10.5932511  37.6186134  61.5900624  10.0323180  37.5182042
  60.2875602  10.0984542  37.9438825  60.9313057  10.4368920  37.6518474
  51.8160998  13.8902642  29.9267057  52.2312146  13.5587666  29.2351553
  50.9852927  13.6571545  29.7987194  51.7549006  13.8073898  29.8057904
  41.1449346  11.3746384  40.2165235  40.9624920  11.3493270  39.3637527
  41.8799015  11.8445321  40.2554144  41.2263410  11.4407746  40.0963153
  57.2149021  11.6097893  37.3598122  57.4504610  11.7543092  36.5324973
  57.3638584  12.3740302  37.7529636  57.2714824  11.7436948  37.2961726
  44.2095098   8.0931386  46.7247343  44.9335070   8.0784417  47.2112238
  44.3111235   8.8026742  46.2269312  44.3313307   8.1956090  46.7226130
  59.0439477  10.4499559  35.1967726  59.3747694  10.9827200  34.5907821
  59.6172565  10.5038447  35.8529677  59.1773156  10.5369128  35.2045508
  51.5840048  11.5730471  51.5896291  50.7913028  11.8873983  51.7748910
  51.6988975  11.7881939  50.7517075  51.4835458  11.6514308  51.4934625
  54.2571366   8.2964462  35.8791306  54.3518221   9.0353756  36.3330932
  53.6330210   7.8681938  36.3125871  54.1780397   8.3425783  36.0099454
  52.5123840  11.4750675  46.5281587  53.0862702  10.8377919  46.6830151
  52.4338644  11.4754757  45.6591245  52.5857075  11.3815786  46.4227998
  41.1120257   8.2539884  40.3664301  41.6893759   8.1176335  41.0056547
  40.4134318   7.7975668  40.6209886  41.0941278   8.1662150  40.4986591
  54.5094388  10.1413202  29.1128258  54.4274550  10.2115389  29.9783245
  55.1474108  10.7042946  28.9211999  54.5914225  10.2352173  29.2118208
  47.8687559   9.9073940  38.5802785  47.6106803   9.0745675  38.5534084
  47.9236042  10.1331553  37.7395285  47.8387337   9.8171711  38.4522921
  46.8422271   7.4611702  39.0667679  46.2671862   7.6203871  39.7031640
  46.4657947   6.8247111  38.6036130  46.7025083   7.3909515  39.0922238
  50.5095560   5.9335052  43.9260058  50.1209992   5.5089269  43.2712249
  49.8450258   6.1817201  44.4337084  50.3542487   5.9073773  43.9047926
  36.5879090   7.1051777  37.0812120  36.6739342   6.7283645  37.8625650
  37.2154887   6.7312223  36.6032078  36.6935641   6.9937259  37.1257597
  51.6134498  10.1633656  32.1236865  52.4275137  10.4548549  32.0119636
  51.5493639   9.5093519  31.5495158  51.7237237  10.1098851  32.0225702
  57.8343988  12.8459652  46.5366440  57.5982626  12.0147717  46.4178501
  58.4787217  12.7945260  47.1221285  57.8938659  12.7157340  46.6052334
  48.1245221   8.8557463  31.5884066  48.5090374   8.6365170  32.3400611
  47.8756842   9.6820409  31.7185143  48.1447294   8.9455610  31.7185143
  48.2913762   2.1363879  51.3046650  47.9767203   2.9063441  51.0416213
  47.9703694   1.5734135  50.7198877  48.1972681   2.1674147  51.1788000
  58.8580409  12.6304101  42.5994735  58.5526226  13.3632158  42.9608051
  58.1386624  12.2242031  42.3187521  58.7067751  12.6785834  42.6107872
  64.5582201   9.2697102  41.9263079  64.4906701   9.2893061  41.0565666
  64.5437863  10.1127429  42.1518750  64.5460957   9.3970836  41.8315556
  43.6269635  14.4585459  35.9597407  42.8007753  14.7047196  35.8331685
  43.6881626  14.3797540  36.8259465  43.5143802  14.4830408  36.0686351
  62.3440818   8.0441488  40.2009674  62.8948740   7.4109557  40.4406766
  62.3284934   8.5756881  40.8925178  62.4226015   8.0290436  40.3388532
  48.9963209  11.8780085  44.7469567  48.4974903  12.5895853  44.8254455
  49.8063433  12.1980752  44.7087729  49.0419316  12.0306934  44.7526136
  45.2591327  11.1403038  38.9932288  44.9704575  10.5140510  39.5278015
  46.1274675  11.0823326  39.0596968  45.3451579  11.0390582  39.0823242
  56.0469224   6.2837822  39.3114270  55.7033990   5.5628157  39.6621519
  56.1462267   6.0751673  38.4692628  56.0111267   6.1462025  39.2385950
  56.5082254  12.7463526  34.8538258  57.0740286  13.4056736  34.7696801
  55.8610157  13.0913224  35.3254660  56.4961010  12.8945467  34.9111014
  47.9230267   4.7361130  50.0431865  47.1130043   5.0418909  49.9321708
  48.4004954   5.4566712  50.1584449  47.8733746   4.8875731  50.0438936
  43.7713011   4.0012659  34.3609723  43.4837806   3.6313930  33.6241670
  44.4583479   4.4707515  34.0993428  43.8301908   4.0159629  34.2124799
  52.9788832  15.6902310  34.2775337  52.7375508  14.9570171  33.8702402
  53.1590165  16.2389167  33.6241670  52.9696456  15.6624701  34.1205560
  46.6066682   7.8665608  35.8077128  47.3289334   8.0306766  35.3480934
  46.1274675   8.5875272  35.7016468  46.6430413   7.9963837  35.7242742
  54.5660190   4.2029406  41.1873813  53.7271291   4.2290685  40.9512076
  54.6364557   4.8500142  41.7679159  54.4528583   4.3025532  41.2382930
  44.2574299  10.2723680  44.9131268  44.7695396  10.5507933  44.2640027
  43.9710642  11.0112974  45.2794081  44.2909162  10.4226034  44.8721146
  58.4417714   9.4097393  38.4735054  58.3551688   9.5652819  39.3269833
  57.9868194  10.0535469  38.0994459  58.3620970   9.5273148  38.5442161
  41.3441205   4.7793872  35.2095004  41.4457342   5.5820033  35.5375980
  42.1397092   4.5781208  34.9118085  41.4769111   4.8679771  35.2130359
  47.7758024   2.3650069  44.9732309  47.5841221   2.3805203  45.8231733
  48.6256620   2.5613743  44.9498964  47.8733746   2.3964420  45.0955604
  42.1604937   4.8941050  42.9516126  42.0190429   4.0424991  43.0760634
  42.4445501   4.9369711  42.1278332  42.1812783   4.7740800  42.8483750
  52.3143530   6.7308140  37.0960614  52.0678244   6.6503891  37.9297403
  52.6428653   5.9461608  36.9023141  52.3264773   6.6034406  37.1908137
  56.2091579  13.4391500  40.8847395  56.0705938  14.1372545  41.3896138
  55.4291576  13.2840156  40.5283577  56.0734805  13.5191666  40.9073669
  54.5469664   9.7387875  47.1369777  54.5417702   8.8667692  47.1412203
  55.2530658   9.9376044  46.6639233  54.6514668   9.6391749  47.0676812
  48.2740557   9.4664859  46.5083597  48.4183933  10.0466067  45.8726707
  48.6216206   9.8441156  47.2133452  48.3468018   9.6085563  46.5182592
  50.4460474   8.6655027  44.2908729  49.6983788   8.8586042  43.8857007
  50.6002000   7.8400247  44.0532850  50.3582902   8.5720139  44.1954134
  57.7044951  12.7969753  31.6463894  57.3251760  12.0106891  31.6393184
  57.0411197  13.3456610  31.5035539  57.5503426  12.7614577  31.6244691
  50.6862251   2.5605578  45.1804132  51.1434866   3.2929552  45.3076925
  50.7618580   2.1372043  45.9391388  50.7653221   2.6062816  45.3105209
  42.9295243   2.8071398  46.2693576  42.3937432   2.1951756  46.5854343
  42.9913007   3.3819534  46.9227243  42.8590875   2.8018325  46.4129003
  48.5644629   4.5507682  42.0245956  47.7740704   4.3699142  42.3463292
  48.9605252   3.7734634  42.0076251  48.5061506   4.4095143  42.0698505
  53.0510520  13.3795456  27.4652670  53.8183505  13.4395581  27.0558522
  52.6041829  12.8075898  26.9808989  53.0983947  13.3032032  27.3330380
  53.9488316  12.1850112  39.7505402  53.2733317  11.9535344  40.2518789
  53.9580692  11.5771295  39.1247507  53.8506820  12.0609037  39.7321555
  51.0782460   7.0267941  46.5069455  51.0141601   7.8877897  46.3789592
  51.2179647   6.7099934  45.7065007  51.0897930   7.1068108  46.3697668
  55.9505050  15.0415244  31.9815580  56.0324888  15.8482231  31.6577031
  56.4354792  15.0611204  32.7056354  56.0342208  15.1635907  32.0402479
  49.7601554   9.7200080  40.6485658  49.3363803   9.9204579  39.9124677
  49.5846409   8.8728928  40.7609958  49.6712434   9.6248862  40.5559348
  45.0483999  10.2152132  36.0813631  45.2048618  10.1498935  36.9369623
  45.3884592  10.9900684  35.8692310  45.1217233  10.3201330  36.1768225
  51.5863143   9.5910015  34.9506994  52.1278689   9.0880396  35.4145615
  51.9009702   9.5375210  34.1396479  51.7127540   9.5089436  34.8990806
  55.4580251  13.8012663  52.0633906  56.2715116  13.5297812  52.2239039
  55.2975217  13.5020203  51.2594102  55.5550199  13.7167589  51.9679312
  52.7352412   4.4846320  45.0029294  52.9494382   3.8457234  44.4492648
  52.1186312   4.9292144  44.5737156  52.6757742   4.4556464  44.8579726
  54.1457080  17.4065068  36.4483515  53.7536872  17.1031783  35.7306381
  54.3010153  18.2434158  36.2588469  54.1110670  17.4848905  36.3140012
  41.6218260   7.3987082  36.3974398  42.0017225   7.8171627  35.7334665
  41.0473625   7.9800538  36.7043241  41.5929585   7.5464941  36.3451139
  54.8991500   6.0935385  45.9412602  54.0868182   5.7861275  46.0225774
  55.3581435   5.6134385  46.5055314  54.8471885   5.9771877  46.0367196
  54.3096755  13.9715057  36.3889546  53.9511410  14.1429700  37.1653578
  53.8235466  14.4328263  35.8317544  54.1855452  14.0654028  36.4214815
  49.0985121   9.6514222  28.9289780  49.3877645  10.4279105  29.2033355
  49.1856919   9.1402954  29.6304280  49.1539377   9.6906141  29.0732278
  51.9945008   7.4995456  50.7241304  52.4644639   8.1237573  51.1109178
  52.0406888   6.8312432  51.2834518  52.0712884   7.4930137  50.8641375
  55.4701495  14.8618953  47.3356747  56.1081215  14.3679149  47.0019203
  54.8275586  14.7896353  46.7508974  55.4695721  14.7777961  47.1999102
  57.1958495   6.7108099  41.9022662  56.7686103   6.6234448  41.1470762
  56.5584548   6.8185874  42.4877506  57.0388102   6.7140759  41.8768104
  55.5255751  15.5538761  43.9762103  56.3148129  15.2027826  44.0964185
  55.6999349  16.3675150  43.7138737  55.6676033  15.6224618  43.9549971
  45.2649062   8.9647487  41.0289892  44.4237068   8.8651361  41.2368786
  45.4739069   9.7342967  41.3804213  45.1713754   9.0639530  41.1117207
  42.7424628   6.5867024  38.8574643  42.3481326   6.6610036  38.0824753
  42.1864745   6.9724970  39.4083005  42.6027441   6.6548799  38.8242303
  49.0765726   6.8928886  40.2787490  48.7728864   6.3384874  40.8797898
  48.3745147   7.0721096  39.7915524  48.9281936   6.8373669  40.2957195
  48.1331824   4.2029406  34.8432192  48.4091558   3.4848319  34.4309759
  48.7330493   4.8014326  34.6353298  48.2625088   4.1849777  34.7512953
  45.1557869  11.3591249  42.4481525  44.5645803  12.0000747  42.4184540
  45.9178893  11.7828867  42.4212825  45.1806130  11.5167088  42.4396672
  45.5518492   2.5193247  43.1149543  46.0119974   2.5932176  43.8524667
  45.5974599   3.3174501  42.7649364  45.6269048   2.6487394  43.1722299
  47.2001842   3.1859942  47.6821570  46.8087407   2.5393289  48.1177348
  47.3687705   3.7771377  48.3015825  47.1672752   3.1774210  47.8384276
  61.2748291  11.1897019  43.4458803  61.3331415  11.6383668  44.1918780
  60.6414759  11.5995832  43.0088883  61.1899586  11.3170754  43.4911352
  54.9147386  16.8100561  39.8813550  54.7167074  17.2991375  39.1869761
  54.2935097  17.0141802  40.4597683  54.7934950  16.9117099  39.8636773
  48.9755364   8.5785458  34.2223794  49.7197409   8.9659734  34.4606744
  49.1216060   7.7342883  34.3864282  49.1065949   8.5115931  34.2817764
  51.9633240   4.1510931  40.1217713  51.4893194   3.6252693  40.6323024
  52.3351376   3.6040404  39.5532575  51.9483129   3.9926928  40.1132860
  42.3406270   6.1482438  45.4901259  43.2031883   6.0478147  45.4038589
  42.0098053   5.5677147  44.9286831  42.4191466   6.0474064  45.3946665
  58.2269970   9.2113307  41.5324494  57.9868193   8.3719722  41.5366920
  58.7061978   9.2913473  42.2565267  58.2622154   9.0994706  41.6399296
  53.8916740   5.0447486  33.1843467  53.3639758   5.1276230  32.4949176
  54.3512448   5.7865357  33.1808112  53.8818590   5.1668148  33.0818162
  60.2275157   5.9914764  39.4853753  59.9884927   5.9510598  38.6474538
  60.3909059   6.8385916  39.6119474  60.2165461   6.1106849  39.3807235
  56.8321188  10.3764713  45.4158798  57.5555386   9.9237240  45.2369818
  56.5671150  10.6569379  44.6331126  56.9002461  10.3515682  45.2737513
  45.7008056   4.9724887  42.1511677  45.0761126   4.9843279  41.5437630
  45.3653651   5.4485062  42.8002917  45.5593548   5.0443404  42.1568246
  45.8849805   3.3150005  28.2084362  45.5362609   3.9669730  28.6715912
  45.4046250   3.3007118  27.4808233  45.7620049   3.4093059  28.1695453
  42.4133732  13.0325347  43.5915442  41.8833656  12.3417786  43.6410416
  42.6858825  13.0235532  42.7628150  42.3758454  12.9292479  43.4762857
  53.4453822  13.6151049  32.3153124  54.1688021  14.0809162  32.1717697
  53.0054413  13.6824659  31.5650721  53.4869514  13.6934886  32.1837906
  52.6139977  10.4748591  43.5653813  51.9996970   9.9306642  43.8602448
  53.1307262   9.9612828  43.0859629  52.5995640  10.3185000  43.5378042
  51.8536274  11.5452861  41.2998112  51.4263882  10.9202580  40.8663547
  51.8461219  11.2627783  42.1257119  51.7895415  11.4105642  41.3577939
  44.9698801   6.5818035  44.3686546  45.1292288   5.8261359  44.7738268
  44.7891695   7.1308974  45.0227283  44.9664160   6.5511848  44.5249252
  50.1821984   2.4221616  41.5140646  50.2064471   1.8881728  40.8253426
  50.4333458   1.9138925  42.1766236  50.2231903   2.2682520  41.5105290
  46.4623306   1.1492434  40.8946390  46.5021678   1.6501641  41.6081097
  45.6372971   1.2402828  40.6252313  46.3462832   1.2374251  40.9596928
  48.6452919  10.7153174  48.9966685  47.7948550  10.8524888  49.1324330
  48.8081047   9.9816952  49.4414386  48.5436783  10.6267275  49.0822284
  47.8837670   7.6652944  43.1920289  47.0529599   7.8326762  42.9855537
  47.8289187   7.2888895  43.9769174  47.7527084   7.6342675  43.2768817
  45.6921453   1.1561837  48.8276700  46.3174156   0.6123970  49.1006132
  45.2371933   0.6756755  48.2584490  45.7169713   1.0051318  48.7838294
  46.2573713   5.9408536  33.7210407  46.3976674   6.4381000  34.4239048
  46.7556246   5.2394830  33.8624620  46.3514794   5.9110514  33.8461986
  46.2873936   6.8075647  31.0502984  46.9219015   7.4036072  30.9852445
  46.3699547   6.5079104  31.8648854  46.3930487   6.8516555  31.1606070
  59.2656502   9.3391124  43.9189348  59.8574342   9.9788375  43.9507546
  59.7015496   8.6414161  44.2081415  59.4174933   9.3309474  43.9670180
  47.8652919   2.7389622  31.0248426  48.1868760   2.2592705  30.3707688
  48.1279862   3.5489268  30.8339237  47.9518944   2.7879520  30.9003918
  51.0949891  13.7608496  44.5447242  50.5874982  14.3144343  44.9887872
  50.7976538  13.8216786  43.7266016  50.9754776  13.8514808  44.4895698
  42.7926924   9.0043487  34.3192530  43.3019153   9.6007995  34.7003835
  43.2661196   8.7369461  33.6368949  42.9370299   9.0529303  34.2747052
  53.7057672  17.6771754  32.4751185  52.9886981  17.5032616  32.0098423
  54.3564409  17.4424326  31.9426671  53.6959522  17.6167547  32.3280403
  56.2905643   6.5536343  36.2192490  55.6196833   7.0966045  36.0905556
  56.9845393   7.0231198  35.9774185  56.2934510   6.7034614  36.1648018
  45.1517455   5.6399746  37.1865710  44.4329445   6.0563879  37.4538574
  45.5229818   6.2053985  36.6357348  45.1009387   5.7849027  37.1448517
  54.4517036   6.2727595  43.0767706  54.4314964   6.0910890  43.9302485
  54.4996237   7.1439613  43.0527289  54.4551677   6.3744133  43.1991000
  52.3963366  12.8614787  49.0016182  52.3559221  12.2164464  48.4161338
  53.2086684  12.8051404  49.3141594  52.5106520  12.7573754  48.9613131
  52.3536128  18.0723598  39.6564950  51.9552411  18.1825868  38.8885770
  51.7387347  18.2805664  40.2391510  52.2035017  18.1197166  39.6296249
  50.9264030   4.6797746  32.5239089  50.3328869   5.0014742  31.9723657
  50.9639307   3.8338841  32.3160196  50.8438419   4.6022074  32.4121861
  53.8021846   4.6377250  35.9540840  53.5735539   4.6609952  35.1119198
  54.0619923   3.8134717  36.0735850  53.8068034   4.5193330  35.8466037
  48.0841075   6.4911723  45.5565940  47.5719978   5.8832906  45.9150971
  47.9120571   7.2068316  46.0239916  47.9830712   6.5075023  45.6782164
  42.9306789   4.9349299  48.2068302  42.7609380   5.5950674  47.6616508
  42.4872739   5.1455860  48.9280791  42.8406123   5.0635281  48.2329931
  46.8566609   3.1753797  37.2495035  47.3323975   3.5370876  36.6145217
  46.3555208   3.8310264  37.5295178  46.8531968   3.3247985  37.1971776
  60.0877970  12.6475565  33.0408040  60.4711576  13.3966921  33.2706137
  59.2922084  12.8941384  32.7820029  60.0271753  12.7945259  33.0365614
  51.9610145   4.4135968  47.9968195  52.5181575   4.1849778  47.3646661
  51.6371210   5.1741634  47.7203408  51.9956555   4.4919805  47.8624693
  39.8308854   7.8396164  43.4656792  39.2835573   7.1696810  43.5837660
  40.6201232   7.4726012  43.5300259  39.8661038   7.6861151  43.4925492
  49.6793262   7.5003621  48.9620203  50.4304589   7.8155298  49.2759757
  49.8715839   7.2982792  48.1354124  49.8184677   7.5171003  48.8863598
  48.8993262   5.3194996  30.6168419  49.2792227   5.3374626  29.8319534
  48.1585858   5.7648985  30.4959267  48.8462100   5.3876771  30.4831988
  38.5895823   7.0516972  40.6202815  38.4117585   6.5993581  41.3457730
  38.3014846   7.8543133  40.8041292  38.5208777   7.1039530  40.7546317
  54.2519405   8.3074689  39.8580205  54.7473070   7.5897684  39.8184225
  53.4419180   8.0045487  39.7434692  54.2063298   8.1572336  39.8353931
  49.6978016  12.1572503  32.0077209  48.8889339  11.8339176  31.9610519
  50.2052925  11.4505725  31.9405458  49.6527683  12.0053819  31.9907504
  40.3268293   9.5844696  37.7324574  39.4613813   9.5730386  37.6207345
  40.4267109   9.3974919  38.5795713  40.2142460   9.5550757  37.8413518
  56.3171223  11.0578377  42.5457334  56.7426295  10.5352799  41.9927759
  55.9528143  11.6559214  42.0245957  56.3257826  11.0688604  42.3866343
  52.9049823  14.7712641  38.8758491  53.3761001  15.4852904  39.0448476
  53.2410001  14.1711391  39.4118361  53.0244938  14.7884105  38.9790867
  54.9926807  16.3813955  51.0550563  55.1023773  15.5922515  51.4107310
  55.3217704  16.2919891  50.2524901  55.0579213  16.2519808  50.9892954
  53.5423769  14.5630575  45.6386184  52.9944715  13.9388459  45.3706249
  54.0036798  14.7524847  44.9230263  53.5290979  14.4989626  45.4936615
  48.8912433   1.5456525  33.2996051  49.7128127   1.7154838  33.0577746
  48.4282084   1.7003786  32.5762348  48.9443595   1.5938258  33.1567695
  43.2938323  13.3015703  40.9533288  43.8983181  13.2611537  40.3247108
  43.0865636  14.1486855  40.9837343  43.3527221  13.4203705  40.8649404
  53.1082096  15.5681648  42.1695525  53.9280469  15.4244614  42.4311820
  52.8276173  16.1927847  42.7111963  53.1878839  15.6392000  42.2883464
  38.5289606  12.2850320  40.8232211  38.4313884  11.4746592  41.1322267
  39.3118475  12.2642114  40.4378479  38.6305742  12.1617411  40.8119074
  69.5795746  23.2246500  35.1338401  69.5489750  24.0791136  35.3056671
  70.1777095  22.9241792  35.6924545  69.6632904  23.3062996  35.2413204
  62.7795431  22.3122151  39.8891332  61.9233326  22.4730649  39.9400449
  62.8263084  21.4414215  39.9096393  62.6594542  22.2072953  39.8997398
  66.0889147  28.5808676  49.4951788  66.7955915  28.0860707  49.6238722
  66.2777083  29.0217758  48.7654446  66.2217053  28.5727027  49.4060833
  62.6161530  32.2710238  31.0814110  62.2812899  32.9487160  30.6458333
  63.1288401  31.8815549  30.4930982  62.6427111  32.3134816  30.9300902
  62.1565822  34.2224507  37.0225222  62.5405201  34.7911405  36.4829997
  62.0924963  33.4974017  36.5431038  62.2039249  34.1999970  36.8719085
  65.6247252  24.3714195  42.5322983  66.1703212  25.0499281  42.5916953
  65.5664128  24.2301656  41.6724565  65.6963166  24.4506196  42.4135044
  58.7421327  31.8603261  37.9191336  58.8431690  31.0503615  38.2288464
  58.1463072  31.7660207  37.2891014  58.6693865  31.7268289  37.8717574
  67.4012320  25.7998802  33.4056711  67.2851846  26.5506488  33.8348849
  68.1968207  25.5422755  33.6552798  67.5016910  25.8733649  33.5060803
  54.2376458  20.0509278  40.4427977  53.6181490  19.4601925  40.2737992
  54.1360322  20.6420713  39.8092300  54.1314134  20.0513360  40.3232967
  59.2842646  29.7892825  34.6926054  59.6058487  30.3298032  34.0887362
  59.9314742  29.2189596  34.8248343  59.4268701  29.7852000  34.6233089
  61.3344354  21.7908820  34.7760440  62.0324519  21.9696947  35.2681904
  61.6496687  21.2679159  34.1530830  61.4839691  21.7402592  34.7562450
  53.9645591  23.5961560  42.6871546  53.8404288  24.1824005  43.3221365
  54.6163876  23.1021755  42.9883821  54.0419241  23.6100364  42.8257475
  61.5232289  28.1779265  34.7640232  61.9625925  27.5696365  35.2095005
  61.3736952  27.7986638  33.9925697  61.5653755  28.0317736  34.7159399
  58.9903932  26.7723277  41.9659057  59.6352935  26.2795720  41.6470006
  59.2305709  26.9148063  42.7925136  59.1214517  26.7200719  42.0408590
  61.5290024  29.6178182  41.6165950  61.8113267  28.8229588  41.3952706
  62.2576184  30.0958770  41.6371011  61.6779587  29.5712779  41.5868965
  59.5071218  17.1601216  38.8581715  59.1774548  17.6112360  38.1885414
  58.8316219  17.0817380  39.4054721  59.3581654  17.2152352  38.8404938
  65.1241626  26.5306446  31.7171001  65.0392921  27.3867413  31.8620570
  65.6126009  26.2550770  32.3853160  65.1830523  26.6163767  31.8373083
  66.7147625  13.1486739  37.1031326  66.4001066  13.8390218  37.5351748
  66.1974567  13.0931522  36.4016826  66.5912096  13.2421628  37.0628275
  66.0560059  23.1491240  33.2168736  65.5271531  23.3650874  33.8766042
  66.5785079  23.8427379  33.1369705  66.0548512  23.2834377  33.3024335
  71.5108112  28.7237545  38.5901781  70.6805815  28.9348188  38.7535197
  71.4617364  27.8974599  38.3144064  71.3814847  28.6327151  38.5739146
  57.9459667  27.0454457  32.0176204  57.3616882  27.5504488  32.4242068
  57.5429762  26.8196844  31.2772796  57.7998971  27.0862705  31.9681229
  59.5717850  31.5541399  41.4249690  59.0544791  31.1948814  40.8210998
  60.2692241  31.0303573  41.4355756  59.5983431  31.4239087  41.3379949
  63.2281442  32.0036213  47.3865863  63.3164787  31.8162353  48.2344073
  63.6571154  31.3573642  46.9870710  63.3043544  31.8799221  47.4537615
  60.7951901  31.2867373  46.3683525  60.2322736  30.8739983  46.8923187
  61.5572925  31.2120279  46.7876669  60.8246350  31.2144773  46.5076526
  62.4036881  23.2920109  30.4945125  62.6432885  23.4998093  29.6820468
  62.7252722  22.4877618  30.6034069  62.4874039  23.2034210  30.3905678
  57.7127172  15.2213505  34.3404663  58.4673140  15.5891822  34.1021713
  57.5354706  15.5953059  35.1083842  57.7981650  15.3311693  34.4189551
  71.0062070  21.3707945  42.3852202  70.1690491  21.4410132  42.6199796
  70.9750301  21.3732440  41.5126504  70.8780353  21.3818172  42.2911750
  57.4026799  23.5140981  48.1000571  57.5747303  23.4046876  48.9485852
  57.9396157  24.1595386  47.8631763  57.5071803  23.5932983  48.1905667
  56.0684236  17.6283824  31.0382776  55.8859810  17.8455705  30.2123768
  56.9309849  17.7422837  31.0941390  56.1688826  17.6773722  30.9237263
  55.6798668  29.4671746  38.4805764  56.5187568  29.6994679  38.5279525
  55.7110437  28.5976057  38.4112799  55.8080386  29.3728692  38.4770408
  56.3051371  29.8872621  42.7819069  56.8449596  29.7443752  43.4522441
  55.6221318  30.2869372  43.1503095  56.2843525  29.9252292  42.9353491
  61.7483955  14.6310235  34.0731799  62.4770116  14.4526189  33.6269956
  61.8378848  15.4728314  34.2838978  61.8690618  14.7294113  34.0385317
  65.7292256  25.5663622  37.9764093  66.4849771  25.9995136  38.0153002
  65.8354581  24.9168392  38.5498729  65.8562427  25.5341106  38.0662119
  68.7672427  29.3936899  38.7266496  68.3307659  29.3973642  39.4825468
  68.4335343  30.0742398  38.2946074  68.6535047  29.4949355  38.7747329
  63.3401501  31.4345232  50.0509647  64.1241917  31.5476080  50.4165389
  63.1398095  30.6086369  50.2468333  63.4267526  31.3291951  50.1344033
  51.7088516  26.1072912  42.9353491  51.4426932  25.2912029  43.0944481
  51.7227080  26.1526068  42.0649006  51.6713239  25.9929817  42.8306973
  68.6869910  16.4350727  40.9695924  69.3295819  16.5048832  41.5557840
  68.9392931  15.7679950  40.4675466  68.8192042  16.3477076  40.9823204
  56.4587123  19.6451290  45.5820498  55.7658919  19.1748270  45.8281230
  57.0747450  19.4189595  46.1562205  56.4471653  19.5418422  45.7029651
  63.4971894  33.3455334  43.6976102  62.6987140  33.1054834  43.9549971
  63.9457906  33.3969727  44.4443150  63.4446505  33.3177725  43.8461027
  71.9016773  26.1117819  37.6186134  72.5633208  25.5508487  37.5182042
  71.2608185  25.6169850  37.9438825  71.9045641  25.9554228  37.6518474
  62.7893581  29.4087950  29.9267057  63.2044730  29.0772974  29.2351553
  61.9585511  29.1756853  29.7987194  62.7281590  29.3259206  29.8057904
  68.1881604  27.1283201  37.3598122  68.4237193  27.2728400  36.5324973
  68.3371168  27.8925609  37.7529636  68.2447407  27.2622256  37.2961726
  55.1827682  23.6116694  46.7247343  55.9067654  23.5969725  47.2112238
  55.2843818  24.3212050  46.2269312  55.3045891  23.7141398  46.7226130
  70.0172061  25.9684867  35.1967726  70.3480278  26.5012507  34.5907821
  70.5905149  26.0223755  35.8529677  70.1505740  26.0554436  35.2045508
  62.5572631  27.0915779  51.5896291  61.7645612  27.4059291  51.7748910
  62.6721558  27.3067247  50.7517075  62.4568042  27.1699616  51.4934625
  65.2303950  23.8149770  35.8791306  65.3250804  24.5539064  36.3330932
  64.6062794  23.3867246  36.3125871  65.1512980  23.8611091  36.0099454
  63.4856424  26.9935983  46.5281587  64.0595286  26.3563227  46.6830151
  63.4071228  26.9940065  45.6591245  63.5589659  26.9001094  46.4227998
  65.4826971  25.6598510  29.1128258  65.4007134  25.7300697  29.9783245
  66.1206692  26.2228254  28.9211999  65.5646809  25.7537481  29.2118208
  58.8420142  25.4259248  38.5802785  58.5839387  24.5930983  38.5534084
  58.8968625  25.6516861  37.7395285  58.8119920  25.3357019  38.4522921
  63.9221193  17.5287698  38.6806877  63.2177519  17.0396884  38.8390796
  63.9706167  17.5410173  37.8095322  63.8251244  17.4577346  38.5746217
  57.8154855  22.9797010  39.0667679  57.2404446  23.1389179  39.7031640
  57.4390531  22.3432419  38.6036130  57.6757667  22.9094823  39.0922238
  61.4828143  21.4520360  43.9260058  61.0942576  21.0274577  43.2712249
  60.8182842  21.7002509  44.4337084  61.3275071  21.4259081  43.9047926
  71.1251412  21.2095364  36.7007888  70.8687977  20.3975306  36.5105771
  71.9680726  21.2172931  36.4738075  71.2117438  21.0907362  36.6392705
  65.3054505  15.1494988  41.4384042  65.6865017  14.4673159  41.8251916
  64.5017789  14.8604590  41.2559707  65.2430967  15.0062037  41.4688098
  62.5867082  25.6818964  32.1236865  63.4007720  25.9733857  32.0119636
  62.5226223  25.0278826  31.5495158  62.6969821  25.6284159  32.0225702
  68.8076572  28.3644960  46.5366440  68.5715209  27.5333025  46.4178501
  69.4519801  28.3130567  47.1221285  68.8671242  28.2342648  46.6052334
  58.4574990  29.1540482  37.2509177  59.0948937  28.9152229  37.7960970
  58.8830061  29.3577640  36.5162337  58.6151156  29.1491492  37.2226334
  59.0977805  24.3742771  31.5884066  59.4822958  24.1550478  32.3400611
  58.8489425  25.2005717  31.7185143  59.1179877  24.4640918  31.7185143
  59.2646345  17.6549187  51.3046650  58.9499786  18.4248749  51.0416213
  58.9436278  17.0919443  50.7198877  59.1705264  17.6859455  51.1788000
  69.8312992  28.1489409  42.5994735  69.5258809  28.8817466  42.9608051
  69.1119208  27.7427339  42.3187521  69.6800335  28.1971142  42.6107872
  60.8396462  29.6312904  38.9302963  60.9135470  29.4688076  39.7844813
  61.6565968  29.8203094  38.6863445  60.9712820  29.6349647  39.0200989
  75.5314784  24.7882410  41.9263079  75.4639285  24.8078369  41.0565666
  75.5170447  25.6312737  42.1518750  75.5193541  24.9156144  41.8315556
  56.8178242  16.0439708  36.9192847  55.9500668  16.1162308  36.9850456
  57.1053447  16.8461787  37.1080822  56.7317990  16.1733855  36.9567613
  65.9411131  16.1917567  45.2504169  66.6864723  16.0027378  44.8367594
  65.5248436  16.7175805  44.6918025  65.9896105  16.2419713  45.1068742
  59.3801047  32.5947647  33.6616437  59.6699346  32.2036629  32.9375663
  60.1104528  32.7764352  34.1021712  59.5307932  32.5641461  33.6199244
  73.3173402  23.5626796  40.2009674  73.8681323  22.9294865  40.4406766
  73.3017517  24.0942189  40.8925178  73.3958598  23.5475744  40.3388532
  59.9695793  27.3965393  44.7469567  59.4707486  28.1081161  44.8254455
  60.7796017  27.7166060  44.7087729  60.0151899  27.5492242  44.7526136
  56.2323910  26.6588346  38.9932288  55.9437159  26.0325817  39.5278015
  57.1007258  26.6008634  39.0596968  56.3184162  26.5575890  39.0823242
  67.0201808  21.8023130  39.3114270  66.6766574  21.0813465  39.6621519
  67.1194851  21.5936981  38.4692628  66.9843851  21.6647333  39.2385950
  59.4874919  35.9444420  35.5107279  60.1398977  35.4120862  35.7398305
  58.7900528  35.5913072  35.8975153  59.4805637  35.8133943  35.6019446
  56.4356184  28.2983597  34.9174653  57.1902152  28.6796636  35.1310115
  55.8426796  28.7494741  35.3721349  56.4592897  28.4212425  35.0157531
  67.4814837  28.2648834  34.8538258  68.0472870  28.9242044  34.7696801
  66.8342741  28.6098532  35.3254660  67.4693594  28.4130775  34.9111014
  58.8962851  20.2546438  50.0431865  58.0862626  20.5604217  49.9321708
  59.3737537  20.9752020  50.1584449  58.8466329  20.4061039  50.0438936
  57.7554410  29.4692159  40.2914768  57.2335164  29.6092450  40.9766633
  58.1428431  28.7102823  40.4816886  57.7358111  29.3777682  40.4215845
  54.7445594  19.5197967  34.3609723  54.4570390  19.1499238  33.6241670
  55.4316063  19.9892823  34.0993428  54.8034492  19.5344937  34.2124799
  63.9521415  31.2087618  34.2775337  63.7108091  30.4755479  33.8702402
  64.1322748  31.7574475  33.6241670  63.9429039  31.1810009  34.1205560
  59.1820736  26.4996178  35.6896259  58.9863518  27.1070912  35.0956562
  59.4055081  25.8064122  35.2087933  59.1855377  26.4873703  35.5312340
  57.5799266  23.3850916  35.8077128  58.3021918  23.5492074  35.3480934
  57.1007259  24.1060580  35.7016468  57.6162997  23.5149145  35.7242742
  65.5392773  19.7214714  41.1873813  64.7003874  19.7475993  40.9512076
  65.6097141  20.3685450  41.7679159  65.4261167  19.8210840  41.2382930
  55.2306883  25.7908988  44.9131268  55.7427980  26.0693241  44.2640027
  54.9443225  26.5298282  45.2794081  55.2641746  25.9411342  44.8721146
  63.9862052  16.6200091  35.9201429  64.6888405  16.4207840  35.4421387
  63.7206240  15.8476034  36.2270272  64.0508684  16.4763057  35.8946870
  69.4150297  24.9282701  38.4735054  69.3284272  25.0838127  39.3269833
  68.9600777  25.5720777  38.0994459  69.3353554  25.0458456  38.5442161
  52.3173789  20.2979180  35.2095004  52.4189925  21.1005341  35.5375980
  53.1129676  20.0966516  34.9118085  52.4501695  20.3865079  35.2130359
  58.7490608  17.8835377  44.9732309  58.5573805  17.8990511  45.8231733
  59.5989204  18.0799051  44.9498964  58.8466330  17.9149728  45.0955604
  53.1337521  20.4126358  42.9516126  52.9923013  19.5610299  43.0760634
  53.4178084  20.4555019  42.1278332  53.1545367  20.2926108  42.8483750
  63.2876113  22.2493448  37.0960614  63.0410828  22.1689199  37.9297403
  63.6161236  21.4646916  36.9023141  63.2997357  22.1219714  37.1908137
  67.1824162  28.9576808  40.8847395  67.0438521  29.6557853  41.3896138
  66.4024160  28.8025464  40.5283577  67.0467389  29.0376974  40.9073669
  65.5202247  25.2573183  47.1369777  65.5150286  24.3852999  47.1412203
  66.2263241  25.4561352  46.6639233  65.6247251  25.1577057  47.0676812
  59.2473141  24.9850167  46.5083597  59.3916516  25.5651375  45.8726707
  59.5948789  25.3626464  47.2133452  59.3200602  25.1270871  46.5182592
  61.4193058  24.1840335  44.2908729  60.6716372  24.3771350  43.8857007
  61.5734583  23.3585555  44.0532850  61.3315486  24.0905447  44.1954134
  58.3200896  33.1752939  43.3744624  58.4690459  32.6155854  42.7218028
  59.1000898  33.2544940  43.7577143  58.4574989  33.1038504  43.3341573
  68.6777535  28.3155061  31.6463894  68.2984344  27.5292199  31.6393184
  68.0143780  28.8641918  31.5035539  68.5236010  28.2799885  31.6244691
  60.8454196  33.3467582  44.6529115  60.7697867  32.6776392  45.2079903
  60.7744055  34.0485370  45.1669781  60.8234803  33.3512489  44.8105963
  61.6594835  18.0790886  45.1804132  62.1167449  18.8114860  45.3076925
  61.7351164  17.6557351  45.9391388  61.7385805  18.1248124  45.3105209
  53.9027826  18.3256706  46.2693576  53.3670016  17.7137064  46.5854343
  53.9645591  18.9004842  46.9227243  53.8323459  18.3203633  46.4129003
  66.1322161  11.2580761  39.0497975  66.2505729  11.7157224  38.3165278
  65.9584337  10.4526022  38.7634193  66.1241332  11.2074533  38.8998909
  61.5024443  31.8668580  35.4852721  62.2674334  31.5978224  35.1635385
  61.4002533  31.3818591  36.2022783  61.6005939  31.7558145  35.5432548
  59.5377213  20.0692990  42.0245956  58.7473288  19.8884450  42.3463292
  59.9337836  19.2919942  42.0076251  59.4794089  19.9280451  42.0698505
  64.0243104  28.8980764  27.4652670  64.7916089  28.9580889  27.0558522
  63.5774413  28.3261206  26.9808989  64.0716531  28.8217340  27.3330380
  64.9220899  27.7035420  39.7505402  64.2465901  27.4720652  40.2518789
  64.9313275  27.0956603  39.1247507  64.8239404  27.5794345  39.7321555
  62.0515043  22.5453249  46.5069455  61.9874184  23.4063205  46.3789592
  62.1912231  22.2285242  45.7065007  62.0630513  22.6253416  46.3697668
  66.9237634  30.5600552  31.9815580  67.0057471  31.3667539  31.6577031
  67.4087376  30.5796512  32.7056354  67.0074792  30.6821215  32.0402479
  60.7334137  25.2385388  40.6485658  60.3096386  25.4389887  39.9124677
  60.5578992  24.3914236  40.7609958  60.6445018  25.1434170  40.5559348
  56.0216582  25.7337440  36.0813631  56.1781201  25.6684243  36.9369623
  56.3617175  26.5085992  35.8692310  56.0949817  25.8386638  36.1768225
  62.5595727  25.1095323  34.9506994  63.1011272  24.6065704  35.4145615
  62.8742286  25.0560518  34.1396479  62.6860124  25.0274744  34.8990806
  66.4312834  29.3197971  52.0633906  67.2447699  29.0483120  52.2239039
  66.2707800  29.0205511  51.2594102  66.5282783  29.2352897  51.9679312
  60.7282176  30.5012675  32.2347022  60.7974997  29.6427213  32.3740022
  61.5070632  30.7184556  31.9066047  60.8535026  30.4065539  32.2064179
  63.7084996  20.0031628  45.0029294  63.9226966  19.3642542  44.4492648
  63.0918895  20.4477452  44.5737156  63.6490325  19.9741771  44.8579726
  65.1189664  32.9250376  36.4483515  64.7269456  32.6217091  35.7306381
  65.2742736  33.7619466  36.2588469  65.0843254  33.0034213  36.3140012
  52.5950844  22.9172390  36.3974398  52.9749808  23.3356935  35.7334665
  52.0206208  23.4985846  36.7043241  52.5662168  23.0650249  36.3451139
  65.8724084  21.6120693  45.9412602  65.0600766  21.3046583  46.0225774
  66.3314019  21.1319693  46.5055314  65.8204469  21.4957185  46.0367196
  65.2829339  29.4900365  36.3889546  64.9243993  29.6615008  37.1653578
  64.7968050  29.9513571  35.8317544  65.1588036  29.5839336  36.4214815
  63.0999725  13.1131563  39.9916637  62.2293283  13.0870285  39.9449947
  63.3540066  12.9408756  39.1742483  63.0093285  13.0841707  39.8636774
  60.0717704  25.1699530  28.9289780  60.3610229  25.9464413  29.2033355
  60.1589503  24.6588262  29.6304280  60.1271960  25.2091449  29.0732278
  62.9677592  23.0180764  50.7241304  63.4377223  23.6422881  51.1109178
  63.0139472  22.3497740  51.2834518  63.0445467  23.0115445  50.8641375
  60.1248865  15.1237792  41.4490108  59.6087354  14.4317983  41.5741687
  59.5642794  15.7908569  41.3952706  59.9655378  15.1201050  41.4596174
  62.1941099  15.6630752  43.2782960  61.8072852  15.6879783  44.0596490
  61.7074036  15.0972431  42.8257477  62.0653608  15.5826503  43.3270864
  66.4434078  30.3804261  47.3356747  67.0813799  29.8864457  47.0019203
  65.8008170  30.3081661  46.7508974  66.4428305  30.2963269  47.1999102
  68.1691078  22.2293407  41.9022662  67.7418686  22.1419755  41.1470762
  67.5317131  22.3371182  42.4877506  68.0120685  22.2326067  41.8768104
  61.8598240  12.5497737  45.5693220  62.4891358  13.0858037  45.2914290
  62.0284103  12.4575096  46.4206786  61.9776035  12.6159100  45.6541748
  61.6612155  17.3368932  47.8419632  62.4885585  17.0654081  47.8978246
  61.6820001  18.1329774  48.1983450  61.7865005  17.4148686  47.9034815
  66.4988335  31.0724069  43.9762103  67.2880713  30.7213134  44.0964185
  66.6731933  31.8860458  43.7138737  66.6408616  31.1409926  43.9549971
  56.2381645  24.4832795  41.0289892  55.3969652  24.3836669  41.2368786
  56.4471653  25.2528275  41.3804213  56.1446338  24.5824838  41.1117207
  53.7157212  22.1052332  38.8574643  53.3213910  22.1795344  38.0824753
  53.1597329  22.4910278  39.4083005  53.5760024  22.1734106  38.8242303
  65.3522159  15.0833626  38.5378522  65.5571752  15.0155934  39.3835519
  65.0248583  15.8892447  38.4699699  65.3337407  15.1919566  38.6538177
  60.0498310  22.4114194  40.2787490  59.7461447  21.8570182  40.8797898
  59.3477731  22.5906404  39.7915524  59.9014520  22.3558976  40.2957195
  59.1064407  19.7214714  34.8432192  59.3824141  19.0033626  34.4309759
  59.7063076  20.3199634  34.6353298  59.2357672  19.7035085  34.7512953
  58.1116661  29.6263915  44.9859588  58.0037016  29.6365977  45.8521646
  58.3212442  30.4518695  44.7964541  58.1266772  29.7504990  45.0863679
  68.6055847  15.6365390  38.0181287  67.9930160  16.1235792  38.4035019
  68.7020021  14.9608881  38.5618939  68.5293744  15.6083699  38.1560146
  62.6074928  17.3928231  33.1178787  63.0618674  17.5638792  33.8426631
  63.0814973  16.7796342  32.7176562  62.7443248  17.3279117  33.1652548
  56.1290453  26.8776557  42.4481525  55.5378386  27.5186055  42.4184540
  56.8911477  27.3014175  42.4212825  56.1538714  27.0352396  42.4396672
  56.5251076  18.0378555  43.1149543  56.9852557  18.1117484  43.8524667
  56.5707183  18.8359809  42.7649364  56.6001631  18.1672702  43.1722299
  58.1734426  18.7045250  47.6821570  57.7819991  18.0578597  48.1177348
  58.3420288  19.2956685  48.3015825  58.1405336  18.6959518  47.8384276
  72.2480875  26.7082327  43.4458803  72.3063998  27.1568976  44.1918780
  71.6147342  27.1181140  43.0088883  72.1632170  26.8356062  43.4911352
  65.8879969  32.3285869  39.8813550  65.6899658  32.8176683  39.1869761
  65.2667680  32.5327110  40.4597683  65.7667534  32.4302407  39.8636773
  59.9487948  24.0970766  34.2223794  60.6929993  24.4845042  34.4606744
  60.0948644  23.2528191  34.3864282  60.0798533  24.0301238  34.2817764
  61.8667523  15.8921025  39.2555655  61.0203568  16.0643832  39.1297005
  61.8638655  15.0870368  39.5921484  61.7414673  15.7982053  39.2866782
  62.9365823  19.6696239  40.1217713  62.4625778  19.1438001  40.6323024
  63.3083959  19.1225712  39.5532575  62.9215712  19.5112236  40.1132860
  53.3138854  21.6667746  45.4901259  54.1764467  21.5663455  45.4038589
  52.9830637  21.0862455  44.9286831  53.3924050  21.5659372  45.3946665
  69.2002554  24.7298615  41.5324494  68.9600777  23.8905030  41.5366920
  69.6794561  24.8098781  42.2565267  69.2354738  24.6180014  41.6399296
  64.8649323  20.5632794  33.1843467  64.3372342  20.6461538  32.4949176
  65.3245031  21.3050665  33.1808112  64.8551174  20.6853456  33.0818162
  71.2007741  21.5100072  39.4853753  70.9617511  21.4695906  38.6474538
  71.3641642  22.3571224  39.6119474  71.1898044  21.6292157  39.3807235
  67.8053771  25.8950021  45.4158798  68.5287970  25.4422548  45.2369818
  67.5403733  26.1754687  44.6331126  67.8735044  25.8700990  45.2737513
  56.6740640  20.4910195  42.1511677  56.0493710  20.5028587  41.5437630
  56.3386234  20.9670370  42.8002917  56.5326131  20.5628712  42.1568246
  56.8582388  18.8335313  28.2084362  56.5095193  19.4855038  28.6715912
  56.3778834  18.8192426  27.4808233  56.7352632  18.9278367  28.1695453
  53.3866315  28.5510655  43.5915442  52.8566240  27.8603094  43.6410416
  53.6591408  28.5420840  42.7628150  53.3491037  28.4477787  43.4762857
  64.4186406  29.1336357  32.3153124  65.1420604  29.5994470  32.1717697
  63.9786997  29.2009967  31.5650721  64.4602098  29.2120194  32.1837906
  63.5872561  25.9933899  43.5653813  62.9729554  25.4491950  43.8602448
  64.1039846  25.4798136  43.0859629  63.5728223  25.8370308  43.5378042
  62.8268858  27.0638169  41.2998112  62.3996466  26.4387888  40.8663547
  62.8193802  26.7813091  42.1257119  62.7627999  26.9290950  41.3577939
  55.9431385  22.1003342  44.3686546  56.1024872  21.3446667  44.7738268
  55.7624279  22.6494282  45.0227283  55.9396744  22.0697156  44.5249252
  63.8851688  14.2664578  44.9237335  63.3892249  14.4628252  44.2328902
  64.6420750  14.6657246  44.7526137  63.9238513  14.3542312  44.7957472
  61.1554567  17.9406924  41.5140646  61.1797055  17.4067036  40.8253426
  61.4066041  17.4324233  42.1766236  61.1964486  17.7867828  41.5105290
  57.4355890  16.6677742  40.8946390  57.4754261  17.1686949  41.6081097
  56.6105554  16.7588136  40.6252313  57.3195416  16.7559558  40.9596928
  59.6185503  26.2338482  48.9966685  58.7681133  26.3710196  49.1324330
  59.7813630  25.5002260  49.4414386  59.5169366  26.1452583  49.0822284
  58.8570253  23.1838252  43.1920289  58.0262183  23.3512070  42.9855537
  58.8021770  22.8074203  43.9769174  58.7259668  23.1527983  43.2768817
  56.6654036  16.6747145  48.8276700  57.2906740  16.1309278  49.1006132
  56.2104516  16.1942063  48.2584490  56.6902297  16.5236626  48.7838294
  57.2306297  21.4593844  33.7210407  57.3709258  21.9566308  34.4239048
  57.7288830  20.7580138  33.8624620  57.3247378  21.4295822  33.8461986
  57.2606519  22.3260955  31.0502984  57.8951599  22.9221380  30.9852445
  57.3432130  22.0264412  31.8648854  57.3663070  22.3701863  31.1606070
  70.2389085  24.8576432  43.9189348  70.8306925  25.4973683  43.9507546
  70.6748080  24.1599469  44.2081415  70.3907516  24.8494782  43.9670180
  58.8385502  18.2574930  31.0248426  59.1601343  17.7778012  30.3707688
  59.1012446  19.0674576  30.8339237  58.9251528  18.3064828  30.9003918
  62.0682475  29.2793804  44.5447242  61.5607566  29.8329651  44.9887872
  61.7709121  29.3402094  43.7266016  61.9487360  29.3700116  44.4895698
  64.2344657  17.6447124  43.3871905  64.6599729  17.1919650  42.7755431
  63.6201650  17.0907195  43.6636692  64.2073303  17.4961100  43.3376930
  53.7659507  24.5228795  34.3192530  54.2751737  25.1193303  34.7003835
  54.2393779  24.2554769  33.6368949  53.9102883  24.5714611  34.2747052
  64.6790255  33.1957062  32.4751185  63.9619565  33.0217924  32.0098423
  65.3296993  32.9609634  31.9426671  64.6692106  33.1352855  32.3280403
  62.6738880  14.1162224  36.7962482  62.0307198  13.9659870  37.3647620
  62.3338287  13.8704569  36.0311586  62.5283957  14.0574346  36.7665497
  67.2638226  22.0721651  36.2192490  66.5929416  22.6151353  36.0905556
  67.9577977  22.5416506  35.9774185  67.2667094  22.2219922  36.1648018
  61.3124960  34.2118363  41.4504249  61.0890615  33.4537192  41.8188275
  60.8234804  34.2416384  40.7284688  61.2068409  34.1040587  41.3980990
  67.4266354  18.5277534  39.1282863  67.7793964  18.1007257  39.8028662
  66.5681155  18.4428378  39.2583940  67.3515799  18.4522275  39.2477874
  56.1250039  21.1585054  37.1865710  55.4062028  21.5749186  37.4538574
  56.4962401  21.7239293  36.6357348  56.0741971  21.3034335  37.1448517
  65.4249620  21.7912903  43.0767706  65.4047547  21.6096198  43.9302485
  65.4728820  22.6624921  43.0527289  65.4284261  21.8929441  43.1991000
  63.3695950  28.3800095  49.0016182  63.3291804  27.7349772  48.4161338
  64.1819268  28.3236712  49.3141594  63.4839103  28.2759062  48.9613131
  59.9603417  34.4318821  38.9041333  59.5463816  33.7692951  38.5145175
  60.6450791  34.5796679  38.3837027  60.0001789  34.3559479  38.7697830
  63.3268711  33.5908906  39.6564950  62.9284995  33.7011176  38.8885770
  62.7119931  33.7990972  40.2391510  63.1767601  33.6382474  39.6296249
  61.8996613  20.1983054  32.5239089  61.3061453  20.5200050  31.9723657
  61.9371891  19.3524149  32.3160196  61.8171002  20.1207382  32.4121861
  68.8590414  13.6495946  40.0567176  68.3521279  12.9425086  39.9888353
  69.6557848  13.3189135  40.1868253  68.9017653  13.4969097  40.0666171
  64.7754430  20.1562558  35.9540840  64.5468123  20.1795260  35.1119198
  65.0352506  19.3320025  36.0735850  64.7800618  20.0378638  35.8466037
  59.0573658  22.0097031  45.5565940  58.5452561  21.4018214  45.9150971
  58.8853154  22.7253624  46.0239916  58.9563295  22.0260331  45.6782164
  53.9039373  20.4534607  48.2068302  53.7341963  21.1135981  47.6616508
  53.4605323  20.6641168  48.9280791  53.8138707  20.5820589  48.2329931
  57.8299192  18.6939105  37.2495035  58.3056559  19.0556184  36.6145217
  57.3287792  19.3495572  37.5295178  57.8264551  18.8433293  37.1971776
  71.0610554  28.1660873  33.0408040  71.4444160  28.9152229  33.2706137
  70.2654667  28.4126692  32.7820029  71.0004336  28.3130567  33.0365614
  62.9342729  19.9321276  47.9968195  63.4914159  19.7035085  47.3646661
  62.6103794  20.6926942  47.7203408  62.9689139  20.0105113  47.8624693
  60.6525846  23.0188929  48.9620203  61.4037173  23.3340606  49.2759757
  60.8448422  22.8168100  48.1354124  60.7917260  23.0356311  48.8863598
  59.8725846  20.8380304  30.6168419  60.2524810  20.8559934  29.8319534
  59.1318442  21.2834293  30.4959267  59.8194683  20.9062079  30.4831988
  67.5011136  19.1462496  36.2043998  67.5005363  18.9911152  37.0628274
  67.2967316  19.9925483  36.1485384  67.4710914  19.2483116  36.3231937
  65.2251988  23.8259997  39.8580205  65.7205653  23.1082992  39.8184225
  64.4151764  23.5230795  39.7434692  65.1795881  23.6757644  39.8353931
  60.6710600  27.6757811  32.0077209  59.8621922  27.3524484  31.9610519
  61.1785509  26.9691033  31.9405458  60.6260266  27.5239127  31.9907504
  67.2903807  26.5763685  42.5457334  67.7158879  26.0538107  41.9927759
  66.9260727  27.1744522  42.0245957  67.2990410  26.5873912  42.3866343
  63.8782406  30.2897949  38.8758491  64.3493585  31.0038212  39.0448476
  64.2142585  29.6896699  39.4118361  63.9977521  30.3069413  38.9790867
  65.9659391  31.8999263  51.0550563  66.0756357  31.1107823  51.4107310
  66.2950288  31.8105199  50.2524901  66.0311797  31.7705115  50.9892954
  60.7951901  15.0625420  45.8316586  60.9279807  14.2656413  46.1597561
  61.1797054  15.5891823  46.4114862  60.8708230  15.0225336  45.9660089
  64.5156353  30.0815883  45.6386184  63.9677299  29.4573767  45.3706249
  64.9769381  30.2710155  44.9230263  64.5023562  30.0174933  45.4936615
  63.8684257  11.9855746  42.4297679  63.0630220  11.8753475  42.7465518
  63.7390992  12.0868202  41.5727545  63.7304389  11.9839416  42.3505720
  67.3250217  18.1501238  43.0237376  66.7413206  18.6510444  42.6114943
  67.6454511  17.6430794  42.3901699  67.2863392  18.1493073  42.8695883
  59.8645016  17.0641833  33.2996051  60.6860711  17.2340145  33.0577746
  59.4014667  17.2189094  32.5762348  59.9176179  17.1123566  33.1567695
  58.4540348  15.0584595  44.0794480  58.9984761  14.7175722  44.6698821
  58.5077284  15.9170056  44.2215764  58.5429468  15.1339854  44.1876353
  54.2670907  28.8201011  40.9533288  54.8715764  28.7796845  40.3247108
  54.0598219  29.6672163  40.9837343  54.3259804  28.9389013  40.8649404
  64.0814679  31.0866956  42.1695525  64.9013053  30.9429922  42.4311820
  63.8008757  31.7113155  42.7111963  64.1611422  31.1577308  42.2883464
  73.7528014  37.8307459  39.8891332  72.8965910  37.9915957  39.9400449
  73.7995668  36.9599523  39.9096393  73.6327126  37.7258261  39.8997398
  68.1369154  47.3670177  35.6528563  67.3852054  46.9885715  35.4244608
  68.5855166  47.3988610  34.9047374  68.0918821  47.3155784  35.5086065
  77.0621731  44.0993984  49.4951788  77.7688498  43.6046015  49.6238722
  77.2509666  44.5403066  48.7654446  77.1949636  44.0912335  49.4060833
  73.5894114  47.7895546  31.0814110  73.2545482  48.4672468  30.6458333
  74.1020984  47.4000857  30.4930982  73.6159695  47.8320124  30.9300902
  73.1298405  49.7409815  37.0225222  73.5137785  50.3096713  36.4829997
  73.0657546  49.0159325  36.5431038  73.1771832  49.7185278  36.8719085
  76.5979835  39.8899503  42.5322983  77.1435795  40.5684589  42.5916953
  76.5396712  39.7486963  41.6724565  76.6695750  39.9691504  42.4135044
  69.7153910  47.3788569  37.9191336  69.8164273  46.5688923  38.2288464
  69.1195655  47.2845515  37.2891014  69.6426449  47.2453597  37.8717574
  69.5554650  52.2966158  39.3206192  70.1992105  52.7379322  39.7102350
  69.8810905  51.4919584  39.2336451  69.6986478  52.2431353  39.3651669
  65.2109042  35.5694586  40.4427977  64.5914074  34.9787233  40.2737992
  65.1092906  36.1606021  39.8092300  65.1046717  35.5698668  40.3232967
  70.2575229  45.3078133  34.6926054  70.5791071  45.8483340  34.0887362
  70.9047326  44.7374904  34.8248343  70.4001285  45.3037308  34.6233089
  72.3076938  37.3094128  34.7760440  73.0057102  37.4882255  35.2681904
  72.6229270  36.7864467  34.1530830  72.4572275  37.2587900  34.7562450
  64.9378175  39.1146868  42.6871546  64.8136872  39.7009313  43.3221365
  65.5896459  38.6207063  42.9883821  65.0151824  39.1285672  42.8257475
  72.4964873  43.6964573  34.7640232  72.9358508  43.0881673  35.2095005
  72.3469536  43.3171946  33.9925697  72.5386339  43.5503044  34.7159399
  69.9636516  42.2908585  41.9659057  70.6085518  41.7981028  41.6470006
  70.2038293  42.4333371  42.7925136  70.0947101  42.2386027  42.0408590
  72.5022607  45.1363490  41.6165950  72.7845850  44.3414896  41.3952706
  73.2308768  45.6144078  41.6371011  72.6512171  45.0898087  41.5868965
  70.4803801  32.6786524  38.8581715  70.1507131  33.1297668  38.1885414
  69.8048803  32.6002688  39.4054721  70.3314237  32.7337660  38.8404938
  76.0974210  42.0491754  31.7171001  76.0125505  42.9052721  31.8620570
  76.5858593  41.7736078  32.3853160  76.1563107  42.1349075  31.8373083
  77.6880209  28.6672047  37.1031326  77.3733650  29.3575526  37.5351748
  77.1707151  28.6116829  36.4016826  77.5644679  28.7606936  37.0628275
  77.0292643  38.6676548  33.2168736  76.5004114  38.8836182  33.8766042
  77.5517663  39.3612687  33.1369705  77.0281096  38.8019685  33.3024335
  68.9192251  42.5639765  32.0176204  68.3349466  43.0689796  32.4242068
  68.5162346  42.3382152  31.2772796  68.7731554  42.6048013  31.9681229
  64.4736279  48.2794526  38.8199876  63.9903857  49.0045016  38.7959459
  65.2859597  48.5770656  38.9310033  64.5227027  48.4296880  38.8327155
  70.5450433  47.0726707  41.4249690  70.0277375  46.7134122  40.8210998
  71.2424824  46.5488881  41.4355756  70.5716014  46.9424395  41.3379949
  74.2014025  47.5221521  47.3865863  74.2897371  47.3347661  48.2344073
  74.6303738  46.8758950  46.9870710  74.2776128  47.3984529  47.4537615
  71.7684485  46.8052681  46.3683525  71.2055320  46.3925291  46.8923187
  72.5305508  46.7305586  46.7876669  71.7978934  46.7330081  46.5076526
  73.3769465  38.8105417  30.4945125  73.6165469  39.0183401  29.6820468
  73.6985306  38.0062926  30.6034069  73.4606623  38.7219518  30.3905678
  68.6859755  30.7398813  34.3404663  69.4405723  31.1077130  34.1021713
  68.5087290  31.1138367  35.1083842  68.7714234  30.8497001  34.4189551
  67.3280476  48.7950702  38.9720155  68.0301056  48.2802691  39.0292912
  67.2477959  49.1224853  39.7767031  67.4204237  48.7664928  39.0992948
  68.3759383  39.0326289  48.1000571  68.5479887  38.9232184  48.9485852
  68.9128740  39.6780694  47.8631763  68.4804387  39.1118291  48.1905667
  67.0416820  33.1469132  31.0382776  66.8592393  33.3641013  30.2123768
  67.9042433  33.2608144  31.0941390  67.1421409  33.1959030  30.9237263
  67.2783955  45.4057929  42.7819069  67.8182180  45.2629060  43.4522441
  66.5953901  45.8054680  43.1503095  67.2576109  45.4437600  42.9353491
  72.7216539  30.1495542  34.0731799  73.4502699  29.9711497  33.6269956
  72.8111432  30.9913622  34.2838978  72.8423201  30.2479421  34.0385317
  76.7024840  41.0848930  37.9764093  77.4582355  41.5180444  38.0153002
  76.8087164  40.4353700  38.5498729  76.8295010  41.0526414  38.0662119
  74.3134084  46.9530540  50.0509647  75.0974501  47.0661388  50.4165389
  74.1130679  46.1271677  50.2468333  74.4000110  46.8477259  50.1344033
  66.5878847  36.4243304  29.5505249  65.8737024  36.1381484  29.9627681
  67.0722816  36.7639930  30.1911636  66.5538210  36.4324954  29.7060884
  67.4319706  35.1636598  45.5820498  66.7391503  34.6933578  45.8281230
  68.0480034  34.9374903  46.1562205  67.4204236  35.0603730  45.7029651
  74.4704478  48.8640642  43.6976102  73.6719724  48.6240142  43.9549971
  74.9190489  48.9155035  44.4443150  74.4179089  48.8363033  43.8461027
  73.7626165  44.9273258  29.9267057  74.1777313  44.5958282  29.2351553
  72.9318094  44.6942161  29.7987194  73.7014174  44.8444514  29.8057904
  66.1560265  39.1302002  46.7247343  66.8800238  39.1155033  47.2112238
  66.2576402  39.8397357  46.2269312  66.2778474  39.2326705  46.7226130
  73.5305215  42.6101087  51.5896291  72.7378195  42.9244599  51.7748910
  73.6454142  42.8252555  50.7517075  73.4300625  42.6884924  51.4934625
  76.2036534  39.3335078  35.8791306  76.2983388  40.0724372  36.3330932
  75.5795377  38.9052553  36.3125871  76.1245564  39.3796399  36.0099454
  74.4589007  42.5121291  46.5281587  75.0327869  41.8748535  46.6830151
  74.3803811  42.5125373  45.6591245  74.5322242  42.4186402  46.4227998
  76.4559555  41.1783818  29.1128258  76.3739717  41.2486005  29.9783245
  77.0939275  41.7413562  28.9211999  76.5379392  41.2722789  29.2118208
  69.8152726  40.9444556  38.5802785  69.5571970  40.1116291  38.5534084
  69.8701209  41.1702169  37.7395285  69.7852504  40.8542327  38.4522921
  74.8953776  33.0473006  38.6806877  74.1910103  32.5582192  38.8390796
  74.9438751  33.0595481  37.8095322  74.7983828  32.9762654  38.5746217
  68.7887438  38.4982318  39.0667679  68.2137029  38.6574487  39.7031640
  68.4123115  37.8617727  38.6036130  68.6490251  38.4280131  39.0922238
  72.4560727  36.9705667  43.9260058  72.0675160  36.5459885  43.2712249
  71.7915425  37.2187817  44.4337084  72.3007655  36.9444389  43.9047926
  76.2787088  30.6680296  41.4384042  76.6597600  29.9858467  41.8251916
  75.4750373  30.3789898  41.2559707  76.2163550  30.5247345  41.4688098
  73.5599665  41.2004272  32.1236865  74.3740304  41.4919165  32.0119636
  73.4958806  40.5464134  31.5495158  73.6702404  41.1469467  32.0225702
  69.4307573  44.6725790  37.2509177  70.0681520  44.4337537  37.7960970
  69.8562645  44.8762948  36.5162337  69.5883740  44.6676800  37.2226334
  70.0710388  39.8928079  31.5884066  70.4555541  39.6735786  32.3400611
  69.8222009  40.7191025  31.7185143  70.0912461  39.9826226  31.7185143
  70.2378929  33.1734494  51.3046650  69.9232370  33.9434057  51.0416213
  69.9168861  32.6104751  50.7198877  70.1437848  33.2044763  51.1788000
  71.8129045  45.1498212  38.9302963  71.8868054  44.9873384  39.7844813
  72.6298552  45.3388402  38.6863445  71.9445404  45.1534954  39.0200989
  67.7910826  31.5625016  36.9192847  66.9233251  31.6347615  36.9850456
  68.0786030  32.3647095  37.1080822  67.7050574  31.6919163  36.9567613
  76.9143715  31.7102875  45.2504169  77.6597307  31.5212686  44.8367594
  76.4981019  32.2361113  44.6918025  76.9628689  31.7605021  45.1068742
  70.3533631  48.1132955  33.6616437  70.6431929  47.7221937  32.9375663
  71.0837112  48.2949660  34.1021712  70.5040515  48.0826769  33.6199244
  70.9428376  42.9150701  44.7469567  70.4440070  43.6266469  44.8254455
  71.7528601  43.2351368  44.7087729  70.9884483  43.0677550  44.7526136
  68.2939547  50.0900338  36.7276586  68.0739842  49.7997692  37.5203253
  68.0734069  49.4315293  36.1994499  68.2287141  49.9500046  36.7665495
  77.9934392  37.3208437  39.3114270  77.6499157  36.5998773  39.6621519
  78.0927434  37.1122289  38.4692628  77.9576434  37.1832641  39.2385950
  70.4607502  51.4629728  35.5107279  71.1131560  50.9306170  35.7398305
  69.7633111  51.1098380  35.8975153  70.4538220  51.3319251  35.6019446
  69.8695434  35.7731746  50.0431865  69.0595210  36.0789525  49.9321708
  70.3470121  36.4937328  50.1584449  69.8198913  35.9246347  50.0438936
  68.7286994  44.9877467  40.2914768  68.2067747  45.1277758  40.9766633
  69.1161014  44.2288131  40.4816886  68.7090695  44.8962990  40.4215845
  65.7178178  35.0383275  34.3609723  65.4302974  34.6684546  33.6241670
  66.4048646  35.5078131  34.0993428  65.7767075  35.0530245  34.2124799
  74.9253999  46.7272926  34.2775337  74.6840675  45.9940786  33.8702402
  75.1055332  47.2759783  33.6241670  74.9161623  46.6995317  34.1205560
  70.1553319  42.0181486  35.6896259  69.9596102  42.6256220  35.0956562
  70.3787665  41.3249430  35.2087933  70.1587960  42.0059011  35.5312340
  68.5531849  38.9036223  35.8077128  69.2754501  39.0677382  35.3480934
  68.0739842  39.6245888  35.7016468  68.5895580  39.0334453  35.7242742
  76.5125357  35.2400022  41.1873813  75.6736458  35.2661301  40.9512076
  76.5829724  35.8870758  41.7679159  76.3993751  35.3396148  41.2382930
  66.2039466  41.3094296  44.9131268  66.7160563  41.5878549  44.2640027
  65.9175809  42.0483590  45.2794081  66.2374329  41.4596650  44.8721146
  74.9594635  32.1385399  35.9201429  75.6620988  31.9393148  35.4421387
  74.6938824  31.3661342  36.2270272  75.0241268  31.9948365  35.8946870
  63.2906372  35.8164488  35.2095004  63.3922509  36.6190649  35.5375980
  64.0862259  35.6151824  34.9118085  63.4234278  35.9050387  35.2130359
  69.7223192  33.4020684  44.9732309  69.5306389  33.4175819  45.8231733
  70.5721787  33.5984359  44.9498964  69.8198913  33.4335036  45.0955604
  64.1070105  35.9311666  42.9516126  63.9655596  35.0795607  43.0760634
  64.3910668  35.9740327  42.1278332  64.1277951  35.8111416  42.8483750
  74.2608697  37.7678756  37.0960614  74.0143411  37.6874507  37.9297403
  74.5893820  36.9832224  36.9023141  74.2729940  37.6405021  37.1908137
  78.1556746  44.4762115  40.8847395  78.0171105  45.1743161  41.3896138
  77.3756744  44.3210772  40.5283577  78.0199973  44.5562282  40.9073669
  76.4934831  40.7758491  47.1369777  76.4882869  39.9038307  47.1412203
  77.1995825  40.9746660  46.6639233  76.5979835  40.6762365  47.0676812
  70.2205724  40.5035475  46.5083597  70.3649100  41.0836683  45.8726707
  70.5681373  40.8811771  47.2133452  70.2933186  40.6456179  46.5182592
  72.3925642  39.7025643  44.2908729  71.6448956  39.8956657  43.8857007
  72.5467167  38.8770863  44.0532850  72.3048069  39.6090755  44.1954134
  69.2933479  48.6938247  43.3744624  69.4423043  48.1341162  42.7218028
  70.0733481  48.7730248  43.7577143  69.4307573  48.6223812  43.3341573
  71.8186780  48.8652889  44.6529115  71.7430451  48.1961700  45.2079903
  71.7476639  49.5670678  45.1669781  71.7967387  48.8697797  44.8105963
  72.6327419  33.5976194  45.1804132  73.0900033  34.3300168  45.3076925
  72.7083747  33.1742659  45.9391388  72.7118388  33.6433432  45.3105209
  64.8760410  33.8442014  46.2693576  64.3402599  33.2322372  46.5854343
  64.9378175  34.4190150  46.9227243  64.8056042  33.8388941  46.4129003
  77.1054745  26.7766069  39.0497975  77.2238313  27.2342532  38.3165278
  76.9316920  25.9711330  38.7634193  77.0973915  26.7259841  38.8998909
  72.4757027  47.3853888  35.4852721  73.2406918  47.1163532  35.1635385
  72.3735117  46.9003899  36.2022783  72.5738522  47.2743453  35.5432548
  70.5109796  35.5878298  42.0245956  69.7205871  35.4069758  42.3463292
  70.9070419  34.8105250  42.0076251  70.4526673  35.4465759  42.0698505
  74.9975687  44.4166072  27.4652670  75.7648672  44.4766197  27.0558522
  74.5506996  43.8446513  26.9808989  75.0449115  44.3402648  27.3330380
  75.8953483  43.2220728  39.7505402  75.2198485  42.9905960  40.2518789
  75.9045859  42.6141911  39.1247507  75.7971987  43.0979653  39.7321555
  73.0247627  38.0638557  46.5069455  72.9606768  38.9248513  46.3789592
  73.1644815  37.7470550  45.7065007  73.0363097  38.1438724  46.3697668
  77.8970217  46.0785860  31.9815580  77.9790055  46.8852846  31.6577031
  78.3819960  46.0981820  32.7056354  77.9807375  46.2006523  32.0402479
  71.7066721  40.7570696  40.6485658  71.2828970  40.9575195  39.9124677
  71.5311576  39.9099544  40.7609958  71.6177601  40.6619478  40.5559348
  71.2078414  52.2721209  43.1107116  71.6974344  51.5731998  42.9282780
  70.6362646  51.9745079  43.6983173  71.1962944  52.1247433  43.1708156
  66.9949166  41.2522748  36.0813631  67.1513785  41.1869550  36.9369623
  67.3349759  42.0271300  35.8692310  67.0682400  41.3571946  36.1768225
  73.5328310  40.6280631  34.9506994  74.0743856  40.1251012  35.4145615
  73.8474869  40.5745826  34.1396479  73.6592707  40.5460052  34.8990806
  77.4045418  44.8383279  52.0633906  78.2180283  44.5668427  52.2239039
  77.2440384  44.5390819  51.2594102  77.5015366  44.7538205  51.9679312
  71.7014760  46.0197983  32.2347022  71.7707580  45.1612521  32.3740022
  72.4803215  46.2369864  31.9066047  71.8267610  45.9250847  32.2064179
  74.6817580  35.5216936  45.0029294  74.8959549  34.8827850  44.4492648
  74.0651479  35.9662760  44.5737156  74.6222909  35.4927079  44.8579726
  76.0922248  48.4435684  36.4483515  75.7002039  48.1402399  35.7306381
  76.2475320  49.2804774  36.2588469  76.0575837  48.5219521  36.3140012
  63.5683427  38.4357698  36.3974398  63.9482392  38.8542243  35.7334665
  62.9938792  39.0171154  36.7043241  63.5394752  38.5835557  36.3451139
  76.8456668  37.1306001  45.9412602  76.0333349  36.8231891  46.0225774
  77.3046602  36.6505001  46.5055314  76.7937052  37.0142493  46.0367196
  76.2561922  45.0085673  36.3889546  75.8976577  45.1800316  37.1653578
  75.7700633  45.4698879  35.8317544  76.1320619  45.1024644  36.4214815
  74.0732308  28.6316871  39.9916637  73.2025866  28.6055592  39.9449947
  74.3272650  28.4594064  39.1742483  73.9825868  28.6027015  39.8636774
  71.0450288  40.6884838  28.9289780  71.3342813  41.4649721  29.2033355
  71.1322087  40.1773570  29.6304280  71.1004544  40.7276757  29.0732278
  73.9410175  38.5366072  50.7241304  74.4109806  39.1608189  51.1109178
  73.9872055  37.8683048  51.2834518  74.0178051  38.5300753  50.8641375
  71.0981449  30.6423100  41.4490108  70.5819937  29.9503291  41.5741687
  70.5375378  31.3093877  41.3952706  70.9387962  30.6386357  41.4596174
  73.1673682  31.1816060  43.2782960  72.7805435  31.2065091  44.0596490
  72.6806620  30.6157739  42.8257477  73.0386191  31.1011811  43.3270864
  77.4166662  45.8989569  47.3356747  78.0546382  45.4049764  47.0019203
  76.7740753  45.8266969  46.7508974  77.4160888  45.8148577  47.1999102
  72.8330824  28.0683045  45.5693220  73.4623942  28.6043345  45.2914290
  73.0016687  27.9760404  46.4206786  72.9508619  28.1344408  45.6541748
  72.6344739  32.8554240  47.8419632  73.4618168  32.5839389  47.8978246
  72.6552585  33.6515082  48.1983450  72.7597589  32.9333994  47.9034815
  77.4720918  46.5909377  43.9762103  78.2613296  46.2398442  44.0964185
  77.6464516  47.4045766  43.7138737  77.6141200  46.6595234  43.9549971
  67.2114229  40.0018103  41.0289892  66.3702235  39.9021977  41.2368786
  67.4204237  40.7713583  41.3804213  67.1178921  40.1010146  41.1117207
  64.6889796  37.6237640  38.8574643  64.2946493  37.6980652  38.0824753
  64.1329912  38.0095586  39.4083005  64.5492608  37.6919414  38.8242303
  76.3254742  30.6018934  38.5378522  76.5304336  30.5341242  39.3835519
  75.9981166  31.4077755  38.4699699  76.3069990  30.7104874  38.6538177
  71.0230894  37.9299502  40.2787490  70.7194031  37.3755490  40.8797898
  70.3210314  38.1091712  39.7915524  70.8747103  37.8744284  40.2957195
  70.0796991  35.2400022  34.8432192  70.3556725  34.5218934  34.4309759
  70.6795660  35.8384942  34.6353298  70.2090255  35.2220393  34.7512953
  69.0849245  45.1449223  44.9859588  68.9769599  45.1551285  45.8521646
  69.2945026  45.9704003  44.7964541  69.0999356  45.2690298  45.0863679
  73.5807511  32.9113539  33.1178787  74.0351258  33.0824100  33.8426631
  74.0547557  32.2981650  32.7176562  73.7175831  32.8464424  33.1652548
  67.1023037  42.3961865  42.4481525  66.5110970  43.0371363  42.4184540
  67.8644060  42.8199482  42.4212825  67.1271297  42.5537704  42.4396672
  67.4983659  33.5563863  43.1149543  67.9585141  33.6302792  43.8524667
  67.5439766  34.3545117  42.7649364  67.5734215  33.6858010  43.1722299
  69.1467009  34.2230558  47.6821570  68.7552574  33.5763905  48.1177348
  69.3152872  34.8141993  48.3015825  69.1137919  34.2144826  47.8384276
  76.8612553  47.8471177  39.8813550  76.6632241  48.3361991  39.1869761
  76.2400264  48.0512418  40.4597683  76.7400117  47.9487715  39.8636773
  70.9220531  39.6156074  34.2223794  71.6662576  40.0030350  34.4606744
  71.0681227  38.7713499  34.3864282  71.0531116  39.5486546  34.2817764
  72.8400107  31.4106332  39.2555655  71.9936152  31.5829140  39.1297005
  72.8371239  30.6055676  39.5921484  72.7147257  31.3167361  39.2866782
  73.9098407  35.1881547  40.1217713  73.4358361  34.6623309  40.6323024
  74.2816543  34.6411020  39.5532575  73.8948296  35.0297543  40.1132860
  64.2871437  37.1853054  45.4901259  65.1497050  37.0848763  45.4038589
  63.9563220  36.6047763  44.9286831  64.3656634  37.0844680  45.3946665
  75.8381907  36.0818101  33.1843467  75.3104925  36.1646845  32.4949176
  76.2977615  36.8235973  33.1808112  75.8283757  36.2038764  33.0818162
  67.6473223  36.0095503  42.1511677  67.0226293  36.0213895  41.5437630
  67.3118818  36.4855678  42.8002917  67.5058715  36.0814020  42.1568246
  67.8314972  34.3520621  28.2084362  67.4827776  35.0040346  28.6715912
  67.3511418  34.3377734  27.4808233  67.7085216  34.4463675  28.1695453
  75.3918989  44.6521665  32.3153124  76.1153188  45.1179778  32.1717697
  74.9519580  44.7195275  31.5650721  75.4334681  44.7305502  32.1837906
  74.5605144  41.5119207  43.5653813  73.9462137  40.9677258  43.8602448
  75.0772429  40.9983444  43.0859629  74.5460807  41.3555616  43.5378042
  73.8001441  42.5823477  41.2998112  73.3729049  41.9573196  40.8663547
  73.7926386  42.2998399  42.1257119  73.7360583  42.4476258  41.3577939
  66.9163969  37.6188650  44.3686546  67.0757455  36.8631975  44.7738268
  66.7356862  38.1679590  45.0227283  66.9129327  37.5882464  44.5249252
  74.8584271  29.7849886  44.9237335  74.3624833  29.9813560  44.2328902
  75.6153334  30.1842554  44.7526137  74.8971096  29.8727620  44.7957472
  72.1287151  33.4592232  41.5140646  72.1529638  32.9252344  40.8253426
  72.3798625  32.9509541  42.1766236  72.1697070  33.3053136  41.5105290
  68.4088473  32.1863050  40.8946390  68.4486845  32.6872257  41.6081097
  67.5838138  32.2773444  40.6252313  68.2927999  32.2744866  40.9596928
  70.5918086  41.7523790  48.9966685  69.7413717  41.8895504  49.1324330
  70.7546214  41.0187568  49.4414386  70.4901950  41.6637891  49.0822284
  69.8302837  38.7023560  43.1920289  68.9994766  38.8697378  42.9855537
  69.7754354  38.3259511  43.9769174  69.6992252  38.6713291  43.2768817
  67.6386620  32.1932453  48.8276700  68.2639323  31.6494586  49.1006132
  67.1837100  31.7127370  48.2584490  67.6634881  32.0421934  48.7838294
  68.2038881  36.9779151  33.7210407  68.3441842  37.4751616  34.4239048
  68.7021413  36.2765446  33.8624620  68.2979961  36.9481130  33.8461986
  68.2339103  37.8446263  31.0502984  68.8684182  38.4406688  30.9852445
  68.3164714  37.5449720  31.8648854  68.3395654  37.8887171  31.1606070
  69.8118086  33.7760238  31.0248426  70.1333927  33.2963320  30.3707688
  70.0745030  34.5859884  30.8339237  69.8984111  33.8250136  30.9003918
  73.0415059  44.7979112  44.5447242  72.5340150  45.3514959  44.9887872
  72.7441705  44.8587402  43.7266016  72.9219943  44.8885423  44.4895698
  75.2077241  33.1632432  43.3871905  75.6332312  32.7104958  42.7755431
  74.5934234  32.6092503  43.6636692  75.1805886  33.0146408  43.3376930
  75.6522839  48.7142370  32.4751185  74.9352149  48.5403232  32.0098423
  76.3029576  48.4794942  31.9426671  75.6424689  48.6538162  32.3280403
  73.6471464  29.6347532  36.7962482  73.0039782  29.4845178  37.3647620
  73.3070871  29.3889877  36.0311586  73.5016541  29.5759654  36.7665497
  78.2370810  37.5906958  36.2192490  77.5662000  38.1336661  36.0905556
  78.9310560  38.0601814  35.9774185  78.2399678  37.7405230  36.1648018
  72.2857544  49.7303670  41.4504249  72.0623198  48.9722500  41.8188275
  71.7967387  49.7601692  40.7284688  72.1800993  49.6225895  41.3980990
  78.3998938  34.0462842  39.1282863  78.7526548  33.6192565  39.8028662
  77.5413739  33.9613686  39.2583940  78.3248382  33.9707583  39.2477874
  67.0982623  36.6770362  37.1865710  66.3794612  37.0934494  37.4538574
  67.4694985  37.2424601  36.6357348  67.0474554  36.8219643  37.1448517
  76.3982203  37.3098211  43.0767706  76.3780131  37.1281506  43.9302485
  76.4461404  38.1810229  43.0527289  76.4016844  37.4114749  43.1991000
  74.3428533  43.8985403  49.0016182  74.3024388  43.2535080  48.4161338
  75.1551851  43.8422020  49.3141594  74.4571687  43.7944370  48.9613131
  70.9336001  49.9504129  38.9041333  70.5196399  49.2878259  38.5145175
  71.6183375  50.0981987  38.3837027  70.9734372  49.8744787  38.7697830
  74.3001295  49.1094214  39.6564950  73.9017578  49.2196484  38.8885770
  73.6852514  49.3176280  40.2391510  74.1500184  49.1567782  39.6296249
  72.8729197  35.7168362  32.5239089  72.2794036  36.0385358  31.9723657
  72.9104475  34.8709457  32.3160196  72.7903586  35.6392690  32.4121861
  75.7487013  35.6747866  35.9540840  75.5200706  35.6980568  35.1119198
  76.0085090  34.8505333  36.0735850  75.7533202  35.5563946  35.8466037
  70.0306242  37.5282339  45.5565940  69.5185145  36.9203522  45.9150971
  69.8585738  38.2438932  46.0239916  69.9295879  37.5445639  45.6782164
  64.8771957  35.9719915  48.2068302  64.7074547  36.6321289  47.6616508
  64.4337906  36.1826476  48.9280791  64.7871290  36.1005897  48.2329931
  68.8031776  34.2124413  37.2495035  69.2789142  34.5741492  36.6145217
  68.3020376  34.8680880  37.5295178  68.7997135  34.3618601  37.1971776
  73.9075312  35.4506584  47.9968195  74.4646742  35.2220393  47.3646661
  73.5836377  36.2112250  47.7203408  73.9421722  35.5290421  47.8624693
  71.6258430  38.5374237  48.9620203  72.3769756  38.8525914  49.2759757
  71.8181006  38.3353408  48.1354124  71.7649844  38.5541619  48.8863598
  70.8458429  36.3565612  30.6168419  71.2257394  36.3745241  29.8319534
  70.1051025  36.8019601  30.4959267  70.7927267  36.4247387  30.4831988
  78.4743720  34.6647804  36.2043998  78.4737946  34.5096460  37.0628274
  78.2699900  35.5110791  36.1485384  78.4443498  34.7668424  36.3231937
  76.1984572  39.3445305  39.8580205  76.6938237  38.6268300  39.8184225
  75.3884347  39.0416103  39.7434692  76.1528465  39.1942952  39.8353931
  71.6443183  43.1943119  32.0077209  70.8354506  42.8709792  31.9610519
  72.1518092  42.4876341  31.9405458  71.5992850  43.0424435  31.9907504
  78.2636391  42.0948993  42.5457334  78.6891462  41.5723415  41.9927759
  77.8993310  42.6929830  42.0245957  78.2722993  42.1059220  42.3866343
  67.8990470  50.3913210  41.3054679  68.2137029  51.2049599  41.3132461
  68.3083884  50.0063429  41.9736838  68.0058568  50.4541913  41.4058771
  74.8514990  45.8083257  38.8758491  75.3226168  46.5223520  39.0448476
  75.1875169  45.2082007  39.4118361  74.9710105  45.8254721  38.9790867
  76.9391975  47.4184570  51.0550563  77.0488940  46.6293131  51.4107310
  77.2682871  47.3290507  50.2524901  77.0044380  47.2890423  50.9892954
  71.7684485  30.5810728  45.8316586  71.9012391  29.7841721  46.1597561
  72.1529638  31.1077131  46.4114862  71.8440814  30.5410644  45.9660089
  75.4888936  45.6001191  45.6386184  74.9409882  44.9759075  45.3706249
  75.9501965  45.7895463  44.9230263  75.4756146  45.5360241  45.4936615
  74.8416840  27.5041054  42.4297679  74.0362804  27.3938783  42.7465518
  74.7123576  27.6053509  41.5727545  74.7036973  27.5024724  42.3505720
  78.2982801  33.6686546  43.0237376  77.7145790  34.1695752  42.6114943
  78.6187095  33.1616102  42.3901699  78.2595976  33.6678381  42.8695883
  70.8377600  32.5827141  33.2996051  71.6593294  32.7525453  33.0577746
  70.3747251  32.7374401  32.5762348  70.8908762  32.6308873  33.1567695
  69.4272932  30.5769903  44.0794480  69.9717345  30.2361030  44.6698821
  69.4809867  31.4355364  44.2215764  69.5162051  30.6525162  44.1876353
  75.0547263  46.6052264  42.1695525  75.8745636  46.4615230  42.4311820
  74.7741340  47.2298463  42.7111963  75.1344006  46.6762616  42.2883464
  73.8851538  58.9194163  37.5443669  73.6501722  58.0861816  37.4375938
  74.0237179  59.1998829  36.7304870  73.8707201  58.8377667  37.4086024
  76.1841625  51.0879894  40.4427977  75.5646657  50.4972541  40.2737992
  76.0825489  51.6791329  39.8092300  76.0779301  51.0883976  40.3232967
  75.9110759  54.6332176  42.6871546  75.7869455  55.2194621  43.3221365
  76.5629043  54.1392371  42.9883821  75.9884408  54.6470980  42.8257475
  75.4468863  63.7979834  38.8199876  74.9636441  64.5230324  38.7959459
  76.2592181  64.0955964  38.9310033  75.4959610  63.9482188  38.8327155
  78.0149403  48.6654440  31.0382776  77.8324977  48.8826321  30.2123768
  78.8775016  48.7793452  31.0941390  78.1153993  48.7144338  30.9237263
  77.6263835  60.5042362  38.4805764  78.4652735  60.7365295  38.5279525
  77.6575605  59.6346673  38.4112799  77.7545553  60.4099308  38.4770408
  78.2516538  60.9243237  42.7819069  78.7914763  60.7814368  43.4522441
  77.5686485  61.3239988  43.1503095  78.2308692  60.9622908  42.9353491
  73.6553683  57.1443528  42.9353491  73.3892099  56.3282645  43.0944481
  73.6692248  57.1896683  42.0649006  73.6178406  57.0300433  42.8306973
  77.5611430  51.9428612  29.5505249  76.8469608  51.6566792  29.9627681
  78.0455399  52.2825238  30.1911636  77.5270794  51.9510262  29.7060884
  74.0647097  57.9302307  40.2165235  73.8822670  57.9049193  39.3637527
  74.7996766  58.4001245  40.2554144  74.1461161  57.9963670  40.0963153
  77.1292849  54.6487310  46.7247343  77.8532821  54.6340341  47.2112238
  77.2308985  55.3582665  46.2269312  77.2511058  54.7512013  46.7226130
  74.0318007  54.8095808  40.3664301  74.6091510  54.6732259  41.0056547
  73.3332069  54.3531592  40.6209886  74.0139029  54.7218074  40.4986591
  69.5076841  53.6607701  37.0812120  69.5937093  53.2839569  37.8625650
  70.1352638  53.2868147  36.6032078  69.6133392  53.5493183  37.1257597
  75.0952799  62.4299434  41.1343481  75.1356945  62.7014285  40.3063260
  75.6547323  62.9541342  41.5501269  75.1836145  62.5475189  41.0735369
  76.5467386  61.0141383  35.9597407  75.7205503  61.2603120  35.8331685
  76.6079377  60.9353464  36.8259465  76.4341553  61.0386332  36.0686351
  76.6910761  50.5568583  34.3609723  76.4035557  50.1869854  33.6241670
  77.3781230  51.0263438  34.0993428  76.7499659  50.5715553  34.2124799
  77.1772050  56.8279604  44.9131268  77.6893147  57.1063857  44.2640027
  76.8908392  57.5668898  45.2794081  77.2106913  56.9781957  44.8721146
  74.2638956  51.3349796  35.2095004  74.3655092  52.1375957  35.5375980
  75.0594843  51.1337132  34.9118085  74.3966862  51.4235694  35.2130359
  75.0802688  51.4496974  42.9516126  74.9388180  50.5980915  43.0760634
  75.3643252  51.4925635  42.1278332  75.1010534  51.3296724  42.8483750
  75.8492993  49.3627321  46.2693576  75.3135183  48.7507680  46.5854343
  75.9110758  49.9375457  46.9227243  75.7788626  49.3574249  46.4129003
  77.9681749  56.7708056  36.0813631  78.1246368  56.7054858  36.9369623
  78.3082342  57.5456608  35.8692310  78.0414984  56.8757254  36.1768225
  74.5416011  53.9543006  36.3974398  74.9214976  54.3727551  35.7334665
  73.9671376  54.5356462  36.7043241  74.5127336  54.1020865  36.3451139
  78.1846812  55.5203411  41.0289892  77.3434819  55.4207285  41.2368786
  78.3936820  56.2898891  41.3804213  78.0911505  55.6195454  41.1117207
  75.6622379  53.1422948  38.8574643  75.2679077  53.2165960  38.0824753
  75.1062496  53.5280894  39.4083005  75.5225192  53.2104722  38.8242303
  78.0755620  57.9147173  42.4481525  77.4843553  58.5556671  42.4184540
  78.8376644  58.3384790  42.4212825  78.1003881  58.0723012  42.4396672
  78.4716243  49.0749171  43.1149543  78.9317724  49.1488100  43.8524667
  78.5172350  49.8730425  42.7649364  78.5466798  49.2043318  43.1722299
  75.2604021  52.7038362  45.4901259  76.1229634  52.6034071  45.4038589
  74.9295804  52.1233071  44.9286831  75.3389217  52.6029988  45.3946665
  78.6205807  51.5280811  42.1511677  77.9958877  51.5399202  41.5437630
  78.2851402  52.0040986  42.8002917  78.4791299  51.5999328  42.1568246
  78.8047555  49.8705929  28.2084362  78.4560360  50.5225654  28.6715912
  78.3244001  49.8563042  27.4808233  78.6817799  49.9648983  28.1695453
  75.3331482  59.5881271  43.5915442  74.8031407  58.8973710  43.6410416
  75.6056576  59.5791456  42.7628150  75.2956205  59.4848402  43.4762857
  77.8896552  53.1373958  44.3686546  78.0490039  52.3817282  44.7738268
  77.7089446  53.6864898  45.0227283  77.8861911  53.1067772  44.5249252
  70.6127324  56.2609035  40.9483790  70.5070774  56.2155879  40.0835874
  69.8627544  56.6062815  41.2298075  70.4862927  56.3049943  40.8621120
  75.7124674  55.5599411  34.3192530  76.2216904  56.1563919  34.7003835
  76.1858947  55.2925385  33.6368949  75.8568050  55.6085227  34.2747052
  78.0715206  52.1955670  37.1865710  77.3527195  52.6119802  37.4538574
  78.4427568  52.7609909  36.6357348  78.0207138  52.3404951  37.1448517
  75.8504540  51.4905223  48.2068302  75.6807130  52.1506597  47.6616508
  75.4070490  51.7011784  48.9280791  75.7603874  51.6191205  48.2329931
  72.7506605  54.3952088  43.4656792  72.2033324  53.7252734  43.5837660
  73.5398983  54.0281936  43.5300259  72.7858788  54.2417074  43.4925492
  71.5093574  53.6072896  40.6202815  71.3315335  53.1549505  41.3457730
  71.2212596  54.4099057  40.8041292  71.4406527  53.6595454  40.7546317
  73.2466044  56.1400620  37.7324574  72.3811564  56.1286310  37.6207345
  73.3464860  55.9530842  38.5795713  73.1340211  56.1106681  37.8413518
  76.2136074  59.8571627  40.9533288  76.8180931  59.8167461  40.3247108
  76.0063387  60.7042779  40.9837343  76.2724971  59.9759629  40.8649404
  71.4487356  58.8406244  40.8232211  71.3511634  58.0302516  41.1322267
  72.2316226  58.8198038  40.4378479  71.5503493  58.7173334  40.8119074
  56.8587394   8.7863000  22.5868610  56.1070294   8.4078538  22.3584655
  57.3073406   8.8181433  21.8387420  56.8137061   8.7348607  22.4426112
  62.3112354   9.2088369  18.0154157  61.9763723   9.8865291  17.5798379
  62.8239225   8.8193681  17.4271029  62.3377935   9.2512948  17.8640949
  61.8516646  11.1602638  23.9565269  62.2356025  11.7289537  23.4170044
  61.7875787  10.4352148  23.4771085  61.8990073  11.1378101  23.8059131
  58.4372151   8.7981392  24.8531383  58.5382513   7.9881746  25.1628510
  57.8413896   8.7038338  24.2231061  58.3644689   8.6646420  24.8057621
  58.2772890  13.7158981  26.2546239  58.9210346  14.1572145  26.6442397
  58.6029146  12.9112407  26.1676497  58.4204719  13.6624176  26.2991716
  51.6337195   4.8201679  24.4783716  51.3987379   3.9869331  24.3715985
  51.7722836   5.1006344  23.6644917  51.6192857   4.7385182  24.3426071
  58.9793470   6.7270956  21.6266100  59.3009311   7.2676163  21.0227408
  59.6265566   6.1567727  21.7588390  59.1219525   6.7230131  21.5573136
  61.2240848   6.5556314  28.5505997  61.5064091   5.7607719  28.3292752
  61.9527008   7.0336901  28.5711058  61.3730411   6.5090911  28.5209012
  53.1954520   9.6987349  25.7539922  52.7122098  10.4237839  25.7299506
  54.0077838   9.9963479  25.8650080  53.2445267   9.8489703  25.7667202
  59.2668674   8.4919530  28.3589737  58.7495615   8.1326945  27.7551045
  59.9643065   7.9681704  28.3695803  59.2934255   8.3617218  28.2719996
  62.9232266   8.9414344  34.3205910  63.0115611   8.7540485  35.1684120
  63.3521978   8.2951774  33.9210757  62.9994368   8.8177352  34.3877661
  60.4902725   8.2245504  33.3023572  59.9273560   7.8118114  33.8263233
  61.2523749   8.1498410  33.7216715  60.5197174   8.1522905  33.4416573
  56.0498717  10.2143525  25.9060202  56.7519296   9.6995514  25.9632959
  55.9696200  10.5417677  26.7107077  56.1422477  10.1857751  26.0332994
  55.3749492   6.4049877  25.4145810  56.2138392   6.6372810  25.4619572
  55.4061261   5.5354189  25.3452846  55.5031210   6.3106824  25.4110455
  56.0002195   6.8250752  29.7159116  56.5400420   6.6821883  30.3862488
  55.3172141   7.2247503  30.0843142  55.9794349   6.8630423  29.8693538
  63.0352325   8.3723363  36.9849694  63.8192741   8.4854211  37.3505436
  62.8348919   7.5464500  37.1808379  63.1218350   8.2670083  37.0684080
  51.4039340   3.0451043  29.8693537  51.1377756   2.2290160  30.0284528
  51.4177904   3.0904199  28.9989053  51.3664063   2.9307948  29.7647019
  63.1922718  10.2833465  30.6316149  62.3937964  10.0432965  30.8890018
  63.6408730  10.3347858  31.3783197  63.1397329  10.2555856  30.7801073
  51.8132754   3.8309823  27.1505282  51.6308327   3.8056709  26.2977574
  52.5482423   4.3008760  27.1894190  51.8946818   3.8971185  27.0303200
  58.1525814   6.0918613  24.1849224  58.7899761   5.8530360  24.7301017
  58.5780885   6.2955772  23.4502384  58.3101980   6.0869623  24.1566381
  52.8438456   8.3306949  28.0683527  52.8842601   8.6021800  27.2403307
  53.4032980   8.8548857  28.4841315  52.9321802   8.4482704  28.0075416
  60.5347286   6.5691035  25.8643010  60.6086294   6.4066207  26.7184860
  61.3516792   6.7581225  25.6203492  60.6663644   6.5727778  25.9541036
  54.2953042   6.9148898  22.8937453  53.4691160   7.1610635  22.7671732
  54.3565034   6.8360979  23.7599512  54.1827209   6.9393847  23.0026398
  59.0751871   9.5325778  20.5956483  59.3650170   9.1414760  19.8715710
  59.8055352   9.7142483  21.0361759  59.2258756   9.5019592  20.5539290
  57.0157787  11.5093161  23.6616633  56.7958082  11.2190516  24.4543300
  56.7952309  10.8508116  23.1334545  56.9505381  11.3692869  23.7005542
  59.1825743  12.8822551  22.4447325  59.8349801  12.3498993  22.6738352
  58.4851351  12.5291203  22.8315200  59.1756461  12.7512074  22.5359493
  56.1307008   5.2361728  21.8514700  56.8852976   5.6174767  22.0650162
  55.5377620   5.6872872  22.3061396  56.1543721   5.3590556  21.9497578
  57.4505234   6.4070290  27.2254815  56.9285988   6.5470581  27.9106680
  57.8379254   5.6480954  27.4156933  57.4308935   6.3155814  27.3555892
  63.6472239   8.1465749  21.2115384  63.4058915   7.4133610  20.8042449
  63.8273572   8.6952606  20.5581717  63.6379863   8.1188140  21.0545607
  58.0151720  10.1131070  30.3084671  58.1641283   9.5533986  29.6558075
  58.7951722  10.1923071  30.6917189  58.1525813  10.0416635  30.2681620
  60.5405020  10.2845713  31.5869161  60.4648691   9.6154523  32.1419950
  60.4694879  10.9863501  32.1009828  60.5185627  10.2890620  31.7446010
  61.1975267   8.8046712  22.4192767  61.9625158   8.5356355  22.0975432
  61.0953357   8.3196722  23.1362830  61.2956763   8.6936276  22.4772595
  59.9296654  13.6914032  30.0447162  60.4192585  12.9924822  29.8622827
  59.3580887  13.3937902  30.6323220  59.9181184  13.5440256  30.1048203
  60.4233000   7.4390806  19.1687069  60.4925821   6.5805344  19.3080069
  61.2021455   7.6562687  18.8406093  60.5485850   7.3443670  19.1404226
  64.8140488   9.8628507  23.3823562  64.4220280   9.5595222  22.6646428
  64.9693560  10.6997597  23.1928516  64.7794078   9.9412344  23.2480059
  57.8067485   6.5642046  31.9199634  57.6987840   6.5744108  32.7861692
  58.0163266   7.3896826  31.7304588  57.8217596   6.6883121  32.0203726
  55.8241277   3.8154688  29.3821572  55.2329210   4.4564187  29.3524587
  56.5862300   4.2392306  29.3552872  55.8489538   3.9730527  29.3736719
  65.5830793   9.2664000  26.8153596  65.3850482   9.7554814  26.1209808
  64.9618504   9.4705241  27.3937730  65.4618358   9.3680538  26.7976820
  53.0817139   5.4888786  30.5255488  52.5517064   4.7981225  30.5750463
  53.3542232   5.4798971  29.6968197  53.0441861   5.3855918  30.4102904
  48.3612981   2.1616550  27.8823837  48.2556430   2.1163394  27.0175921
  47.6113201   2.5070331  28.1638122  48.2348584   2.2057458  27.7961166
  61.7633299   6.2171935  31.4787289  61.2558390   6.7707782  31.9227919
  61.4659945   6.2780225  30.6606063  61.6438184   6.3078247  31.4235745
  64.3741079  10.1335193  19.4091232  63.6570389   9.9596055  18.9438469
  65.0247817   9.8987765  18.8766718  64.3642930  10.0730986  19.2620450
  61.0075784  11.1496494  28.3844295  60.7841439  10.3915323  28.7528322
  60.5185627  11.1794515  27.6624735  60.9019233  11.0418718  28.3321036
  59.6554241  11.3696952  25.8381380  59.2414640  10.7071082  25.4485222
  60.3401615  11.5174811  25.3177074  59.6952613  11.2937610  25.7037877
  63.0219535  10.5287037  26.5904997  62.6235818  10.6389307  25.8225817
  62.4070755  10.7369103  27.1731556  62.8718425  10.5760605  26.5636296
  56.6208711  11.8106034  28.2394726  56.9355270  12.6242422  28.2472508
  57.0302124  11.4256252  28.9076885  56.7276809  11.8734736  28.3398818
  63.5733230   7.2276080  25.8098538  64.0444409   7.9416343  25.9788523
  63.9093409   6.6274830  26.3458407  63.6928345   7.2447545  25.9130914
  65.6610215   8.8377394  37.9890610  65.7707180   8.0485954  38.3447357
  65.9901112   8.7483330  37.1864948  65.7262621   8.7083247  37.9233001
  53.9621731   5.7579142  27.8873334  54.5666588   5.7174976  27.2587155
  53.7549043   6.6050294  27.9177390  54.0210628   5.8767145  27.7989451
  63.7765503   8.0245087  29.1035572  64.5963877   7.8808053  29.3651867
  63.4959581   8.6491286  29.6452010  63.8562246   8.0955439  29.2223511
  49.1973013   4.7413760  27.7572258  49.0997291   3.9310031  28.0662314
  49.9801883   4.7205553  27.3718526  49.2989150   4.6180850  27.7459120
  73.4478838  14.7685590  26.8231379  72.5916734  14.9294088  26.8740495
  73.4946492  13.8977654  26.8436440  73.3277950  14.6636392  26.8337445
  67.8319978  24.3048308  22.5868610  67.0802877  23.9263846  22.3584655
  68.2805990  24.3366741  21.8387420  67.7869645  24.2533915  22.4426112
  76.7572555  21.0372116  36.4291835  77.4639322  20.5424146  36.5578769
  76.9460490  21.4781197  35.6994493  76.8900460  21.0290466  36.3400880
  73.2844938  24.7273677  18.0154157  72.9496306  25.4050599  17.5798379
  73.7971808  24.3378989  17.4271029  73.3110519  24.7698255  17.8640949
  72.8249229  26.6787946  23.9565269  73.2088608  27.2474845  23.4170044
  72.7608370  25.9537456  23.4771085  72.8722656  26.6563409  23.8059131
  76.2930659  16.8277634  29.4663030  76.8386619  17.5062720  29.5257000
  76.2347536  16.6865095  28.6064612  76.3646574  16.9069635  29.3475091
  69.4104734  24.3166700  24.8531383  69.5115097  23.5067054  25.1628510
  68.8146479  24.2223646  24.2231061  69.3377273  24.1831728  24.8057621
  78.0695728  18.2562241  20.3396758  77.9535254  19.0069927  20.7688896
  78.8651615  17.9986194  20.5892845  78.1700317  18.3297088  20.4400850
  69.2505474  29.2344289  26.2546239  69.8942929  29.6757453  26.6442397
  69.5761729  28.4297715  26.1676497  69.3937302  29.1809484  26.2991716
  62.6069778  20.3386986  24.4783716  62.3719963  19.5054639  24.3715985
  62.7455419  20.6191652  23.6644917  62.5925441  20.2570490  24.3426071
  64.9059866  12.5072717  27.3768024  64.2864897  11.9165364  27.2078039
  64.8043729  13.0984152  26.7432347  64.7997541  12.5076800  27.2573014
  69.9526053  22.2456264  21.6266100  70.2741894  22.7861471  21.0227408
  70.5998150  21.6753035  21.7588390  70.0952109  22.2415439  21.5573136
  72.0027761  14.2472259  21.7100487  72.7007926  14.4260386  22.2021950
  72.3180094  13.7242598  21.0870876  72.1523099  14.1966031  21.6902497
  64.6328999  16.0524999  29.6211593  64.5087696  16.6387444  30.2561412
  65.2847283  15.5585194  29.9223868  64.7102648  16.0663803  29.7597522
  72.1915697  20.6342704  21.6980279  72.6309332  20.0259804  22.1435051
  72.0420360  20.2550077  20.9265744  72.2337163  20.4881175  21.6499446
  69.6587340  19.2286716  28.8999104  70.3036342  18.7359159  28.5810053
  69.8989117  19.3711502  29.7265182  69.7897925  19.1764158  28.9748637
  72.1973431  22.0741622  28.5505997  72.4796674  21.2793027  28.3292752
  72.9259592  22.5522209  28.5711058  72.3462995  22.0276219  28.5209012
  70.1754625   9.6164656  25.7921762  69.8457955  10.0675799  25.1225460
  69.4999627   9.5380819  26.3394768  70.0265061   9.6715791  25.7744985
  75.7925033  18.9869885  18.6511048  75.7076329  19.8430852  18.7960617
  76.2809417  18.7114209  19.3193207  75.8513931  19.0727207  18.7713129
  76.7243467  15.6054679  20.1508783  76.1954938  15.8214313  20.8106089
  77.2468487  16.2990818  20.0709752  76.7231920  15.7397816  20.2364382
  68.6143074  19.5017896  18.9516251  68.0300290  20.0067928  19.3582115
  68.2113170  19.2760283  18.2112843  68.4682378  19.5426144  18.9021276
  64.1687103  25.2172657  25.7539922  63.6854681  25.9423147  25.7299506
  64.9810421  25.5148787  25.8650080  64.2177851  25.3675011  25.7667202
  70.2401257  24.0104838  28.3589737  69.7228199  23.6512253  27.7551045
  70.9375648  23.4867012  28.3695803  70.2666838  23.8802526  28.2719996
  73.8964849  24.4599652  34.3205910  73.9848195  24.2725792  35.1684120
  74.3254562  23.8137082  33.9210757  73.9726951  24.3362660  34.3877661
  71.4635309  23.7430812  33.3023572  70.9006144  23.3303422  33.8263233
  72.2256332  23.6683718  33.7216715  71.4929758  23.6708213  33.4416573
  67.0231300  25.7328833  25.9060202  67.7251880  25.2180822  25.9632959
  66.9428783  26.0602985  26.7107077  67.1155061  25.7043059  26.0332994
  68.0710207  15.9704420  35.0340617  68.2430711  15.8610315  35.8825899
  68.6079564  16.6158826  34.7971810  68.1755211  16.0496422  35.1245714
  66.7367644  10.0847263  17.9722822  66.5543217  10.3019144  17.1463815
  67.5993257  10.1986276  18.0281437  66.8372233  10.1337161  17.8577309
  66.3482076  21.9235185  25.4145810  67.1870975  22.1558118  25.4619572
  66.3793845  21.0539497  25.3452846  66.4763793  21.8292132  25.4110455
  66.9734779  22.3436060  29.7159116  67.5133004  22.2007191  30.3862488
  66.2904725  22.7432811  30.0843142  66.9526933  22.3815731  29.8693538
  76.3975664  18.0227061  24.9104140  77.1533179  18.4558575  24.9493049
  76.5037988  17.3731831  25.4838776  76.5245834  17.9904545  25.0002166
  74.0084908  23.8908671  36.9849694  74.7925325  24.0039519  37.3505436
  73.8081503  23.0649808  37.1808379  74.0950934  23.7855390  37.0684080
  62.3771924  18.5636351  29.8693537  62.1110339  17.7475468  30.0284528
  62.3910488  18.6089507  28.9989053  62.3396646  18.4493256  29.7647019
  66.2829671  13.3621436  16.4845296  65.5687848  13.0759615  16.8967728
  66.7673640  13.7018061  17.1251683  66.2489034  13.3703085  16.6400930
  67.1270530  12.1014729  32.5160545  66.4342327  11.6311709  32.7621277
  67.7430858  11.8753034  33.0902252  67.1155060  11.9981861  32.6369698
  74.1655302  25.8018773  30.6316149  73.3670547  25.5618273  30.8890018
  74.6141313  25.8533166  31.3783197  74.1129913  25.7741164  30.7801073
  73.4576989  21.8651390  16.8607104  73.8728137  21.5336413  16.1691599
  72.6268918  21.6320292  16.7327240  73.3964997  21.7822645  16.7397951
  62.7865338  19.3495131  27.1505282  62.6040911  19.3242017  26.2977574
  63.5215006  19.8194068  27.1894190  62.8679401  19.4156493  27.0303200
  65.8511089  16.0680133  33.6587390  66.5751062  16.0533164  34.1452285
  65.9527226  16.7775489  33.1609359  65.9729298  16.1704837  33.6566177
  73.2256039  19.5479218  38.5236337  72.4329019  19.8622730  38.7088957
  73.3404966  19.7630686  37.6857122  73.1251449  19.6263055  38.4274672
  75.8987358  16.2713209  22.8131353  75.9934212  17.0102503  23.2670979
  75.2746201  15.8430685  23.2465918  75.8196388  16.3174530  22.9439501
  74.1539831  19.4499422  33.4621634  74.7278693  18.8126666  33.6170198
  74.0754635  19.4503504  32.5931292  74.2273066  19.3564533  33.3568045
  62.7536248  16.2288631  27.3004348  63.3309750  16.0925082  27.9396594
  62.0550310  15.7724415  27.5549933  62.7357269  16.1410897  27.4326638
  69.5103550  17.8822687  25.5142831  69.2522794  17.0494422  25.4874131
  69.5652033  18.1080300  24.6735332  69.4803328  17.7920458  25.3862968
  68.4838262  15.4360449  26.0007726  67.9087853  15.5952618  26.6371687
  68.1073938  14.7995858  25.5376177  68.3441075  15.3658262  26.0262285
  72.1511551  13.9083799  30.8600105  71.7625984  13.4838016  30.2052296
  71.4866249  14.1565948  31.3677131  71.9958479  13.8822520  30.8387973
  58.2295081  15.0800524  24.0152167  58.3155333  14.7032392  24.7965697
  58.8570879  14.7060970  23.5372125  58.3351632  14.9686006  24.0597644
  73.2550489  18.1382403  19.0576912  74.0691128  18.4297296  18.9459683
  73.1909630  17.4842266  18.4835205  73.3653228  18.0847598  18.9565749
  69.1258397  21.6103921  24.1849224  69.7632344  21.3715668  24.7301017
  69.5513469  21.8141080  23.4502384  69.2834564  21.6054931  24.1566381
  63.8171040  23.8492257  28.0683527  63.8575185  24.1207108  27.2403307
  64.3765564  24.3734165  28.4841315  63.9054386  23.9668012  28.0075416
  69.7661212  16.8306210  18.5224113  70.1506365  16.6113917  19.2740658
  69.5172833  17.6569156  18.6525189  69.7863285  16.9204357  18.6525190
  69.9329753  10.1112626  38.2386697  69.6183194  10.8812188  37.9756260
  69.6119685   9.5482882  37.6538924  69.8388672  10.1422894  38.1128047
  71.5079869  22.0876343  25.8643010  71.5818878  21.9251515  26.7184860
  72.3249376  22.2766533  25.6203492  71.6396228  22.0913086  25.9541036
  65.2685626  22.4334206  22.8937453  64.4423744  22.6795943  22.7671732
  65.3297617  22.3546287  23.7599512  65.1559793  22.4579155  23.0026398
  67.4861650   8.5003147  23.8532894  66.6184075   8.5725747  23.9190503
  67.7736854   9.3025226  24.0420869  67.4001398   8.6297294  23.8907660
  70.0484455  25.0511086  20.5956483  70.3382753  24.6600068  19.8715710
  70.7787936  25.2327791  21.0361759  70.1991339  25.0204900  20.5539290
  70.6379200  19.8528832  31.6809614  70.1390894  20.5644600  31.7594502
  71.4479424  20.1729499  31.6427776  70.6835307  20.0055681  31.6866182
  67.9890371  27.0278469  23.6616633  67.7690666  26.7375824  24.4543300
  67.7684893  26.3693424  23.1334545  67.9237965  26.8878177  23.7005542
  66.9007318  19.1151785  25.9272335  66.6120566  18.4889257  26.4618062
  67.7690666  19.0572073  25.9937015  66.9867570  19.0139330  26.0163289
  77.6885216  14.2586569  26.2454317  77.3449981  13.5376904  26.5961566
  77.7878258  14.0500420  25.4032675  77.6527258  14.1210772  26.1725997
  70.1558326  28.4007859  22.4447325  70.8082384  27.8684301  22.6738352
  69.4583935  28.0476511  22.8315200  70.1489044  28.2697382  22.5359493
  67.1039591  20.7547036  21.8514700  67.8585559  21.1360075  22.0650162
  66.5110204  21.2058180  22.3061396  67.1276305  20.8775864  21.9497578
  78.1498245  20.7212273  21.7878305  78.7156277  21.3805483  21.7036848
  77.5026148  21.0661971  22.2594707  78.1377001  20.8694214  21.8451061
  69.5646258  12.7109877  36.9771912  68.7546034  13.0167656  36.8661754
  70.0420945  13.4315459  37.0924496  69.5149737  12.8624478  36.9778983
  68.4237818  21.9255598  27.2254815  67.9018571  22.0655889  27.9106680
  68.8111838  21.1666262  27.4156933  68.4041519  21.8341122  27.3555892
  65.4129002  11.9761406  21.2949770  65.1253798  11.6062677  20.5581717
  66.0999470  12.4456262  21.0333475  65.4717899  11.9908376  21.1464846
  74.6204823  23.6651057  21.2115384  74.3791499  22.9318918  20.8042449
  74.8006156  24.2137914  20.5581717  74.6112447  23.6373448  21.0545607
  69.8504143  18.9559617  22.6236306  69.6546926  19.5634351  22.0296609
  70.0738489  18.2627561  22.1427980  69.8538784  18.9437142  22.4652387
  68.2482673  15.8414355  22.7417175  68.9705325  16.0055513  22.2820981
  67.7690666  16.5624019  22.6356514  68.2846404  15.9712584  22.6582789
  76.2076181  12.1778153  28.1213860  75.3687282  12.2039432  27.8852123
  76.2780548  12.8248889  28.7019206  76.0944574  12.2774279  28.1722976
  65.8990290  18.2472427  31.8471314  66.4111387  18.5256680  31.1980074
  65.6126633  18.9861721  32.2134127  65.9325153  18.3974781  31.8061192
  62.9857196  12.7542619  22.1435051  63.0873333  13.5568780  22.4716026
  63.7813083  12.5529955  21.8458131  63.1185102  12.8428518  22.1470406
  69.4174015  10.3398816  31.9072356  69.2257212  10.3553950  32.7571780
  70.2672611  10.5362490  31.8839011  69.5149737  10.3713167  32.0295651
  63.8020928  12.8689797  29.8856172  63.6606420  12.0173738  30.0100680
  64.0861492  12.9118458  29.0618379  63.8228775  12.7489547  29.7823797
  73.9559521  14.7056887  24.0300661  73.7094235  14.6252638  24.8637450
  74.2844644  13.9210355  23.8363188  73.9680764  14.5783153  24.1248184
  77.8507570  21.4140247  27.8187442  77.7121929  22.1121292  28.3236184
  77.0707568  21.2588903  27.4623624  77.7150797  21.4940413  27.8413716
  76.1885655  17.7136622  34.0709824  76.1833693  16.8416439  34.0752250
  76.8946649  17.9124791  33.5979279  76.2930659  17.6140496  34.0016859
  69.9156548  17.4413606  33.4423644  70.0599924  18.0214814  32.8066754
  70.2632197  17.8189903  34.1473498  69.9884009  17.5834310  33.4522639
  72.0876465  16.6403774  31.2248775  71.3399780  16.8334789  30.8197054
  72.2417991  15.8148994  30.9872897  71.9998893  16.5468886  31.1294181
  68.9884303  25.6316378  30.3084671  69.1373867  25.0719294  29.6558075
  69.7684305  25.7108379  30.6917189  69.1258397  25.5601943  30.2681620
  71.5137604  25.8031021  31.5869161  71.4381275  25.1339831  32.1419950
  71.4427463  26.5048809  32.1009828  71.4918211  25.8075928  31.7446010
  72.3278243  10.5354325  32.1144179  72.7850857  11.2678299  32.2416971
  72.4034571  10.1120790  32.8731435  72.4069212  10.5811563  32.2445256
  64.5711234  10.7820145  33.2033623  64.0353423  10.1700503  33.5194390
  64.6328998  11.3568281  33.8567289  64.5006866  10.7767072  33.3469050
  72.1707851  24.3232019  22.4192767  72.9357742  24.0541663  22.0975432
  72.0685941  23.8382030  23.1362830  72.2689346  24.2121584  22.4772595
  70.2060620  12.5256429  28.9586003  69.4156695  12.3447889  29.2803339
  70.6021243  11.7483381  28.9416298  70.1477497  12.3843890  29.0038552
  75.5904307  20.1598859  26.6845449  74.9149309  19.9284091  27.1858836
  75.5996683  19.5520042  26.0587554  75.4922811  20.0357784  26.6661601
  72.7198451  15.0016688  33.4409502  72.6557592  15.8626644  33.3129639
  72.8595638  14.6848681  32.6405053  72.7313921  15.0816855  33.3037715
  77.5921041  23.0163991  18.9155627  77.6740879  23.8230978  18.5917078
  78.0770784  23.0359951  19.6396401  77.6758199  23.1384654  18.9742526
  71.4017545  17.6948827  27.5825705  70.9779794  17.8953326  26.8464723
  71.2262400  16.8477675  27.6950005  71.3128425  17.5997609  27.4899395
  70.9029238  29.2099340  30.0447162  71.3925168  28.5110130  29.8622827
  70.3313470  28.9123210  30.6323220  70.8913768  29.0625564  30.1048203
  66.6899990  18.1900879  23.0153678  66.8464609  18.1247682  23.8709670
  67.0300583  18.9649431  22.8032357  66.7633224  18.2950077  23.1108272
  73.2279134  17.5658762  21.8847041  73.7694680  17.0629143  22.3485661
  73.5425693  17.5123957  21.0736526  73.3543531  17.4838183  21.8330853
  77.0996242  21.7761410  38.9973953  77.9131107  21.5046559  39.1579085
  76.9391208  21.4768950  38.1934149  77.1966190  21.6916336  38.9019359
  71.3965584  22.9576114  19.1687069  71.4658404  22.0990652  19.3080069
  72.1754039  23.1747995  18.8406093  71.5218434  22.8628978  19.1404226
  74.3768404  12.4595067  31.9369341  74.5910373  11.8205981  31.3832695
  73.7602303  12.9040891  31.5077203  74.3173733  12.4305211  31.7919772
  75.7873071  25.3813815  23.3823562  75.3952863  25.0780530  22.6646428
  75.9426144  26.2182905  23.1928516  75.7526661  25.4597652  23.2480059
  63.2634251  15.3735829  23.3314445  63.6433216  15.7920374  22.6674712
  62.6889616  15.9549285  23.6383288  63.2345576  15.5213688  23.2791186
  76.5407492  14.0684132  32.8752648  75.7284173  13.7610022  32.9565821
  76.9997426  13.5883132  33.4395361  76.4887876  13.9520624  32.9707242
  75.9512746  21.9463804  23.3229593  75.5927401  22.1178447  24.0993625
  75.4651457  22.4077010  22.7657591  75.8271443  22.0402775  23.3554862
  70.7401112  17.6262969  15.8629827  71.0293636  18.4027852  16.1373401
  70.8272910  17.1151701  16.5644326  70.7955368  17.6654888  16.0072325
  73.6360999  15.4744204  37.6581351  74.1060630  16.0986320  38.0449225
  73.6822879  14.8061179  38.2174565  73.7128875  15.4678884  37.7981422
  77.1117486  22.8367700  34.2696794  77.7497206  22.3427896  33.9359250
  76.4691577  22.7645100  33.6849020  77.1111712  22.7526709  34.1339148
  78.8374486  14.6856846  28.8362709  78.4102094  14.5983195  28.0810809
  78.2000539  14.7934621  29.4217553  78.6804093  14.6889506  28.8108151
  77.1671742  23.5287508  30.9102150  77.9564120  23.1776573  31.0304232
  77.3415340  24.3423897  30.6478784  77.3092024  23.5973365  30.8890018
  66.9065053  16.9396234  27.9629939  66.0653059  16.8400108  28.1708833
  67.1155061  17.7091714  28.3144260  66.8129745  17.0388277  28.0457254
  64.3840620  14.5615771  25.7914690  63.9897317  14.6358783  25.0164799
  63.8280736  14.9473717  26.3423052  64.2443432  14.6297546  25.7582350
  70.7181717  14.8677633  27.2127537  70.4144855  14.3133621  27.8137944
  70.0161138  15.0469843  26.7255571  70.5697927  14.8122416  27.2297242
  69.7747815  12.1778153  21.7772238  70.0507549  11.4597066  21.3649806
  70.3746484  12.7763073  21.5693345  69.9041079  12.1598524  21.6853000
  68.7800068  22.0827354  31.9199634  68.6720423  22.0929416  32.7861692
  68.9895850  22.9082134  31.7304588  68.7950180  22.2068429  32.0203726
  66.7973860  19.3339996  29.3821572  66.2061794  19.9749495  29.3524587
  67.5594884  19.7577614  29.3552872  66.8222121  19.4915835  29.3736719
  67.1934483  10.4941994  30.0489590  67.6535965  10.5680924  30.7864713
  67.2390590  11.2923248  29.6989411  67.2685039  10.6236141  30.1062346
  68.8417833  11.1608689  34.6161617  68.4503398  10.5142036  35.0517395
  69.0103696  11.7520124  35.2355872  68.8088743  11.1522957  34.7724323
  76.5563377  24.7849308  26.8153596  76.3583065  25.2740122  26.1209808
  75.9351088  24.9890549  27.3937730  76.4350941  24.8865846  26.7976820
  70.6171355  16.5534205  21.1563841  71.3613400  16.9408481  21.3946791
  70.7632051  15.7091630  21.3204329  70.7481940  16.4864678  21.2157810
  73.6049231  12.1259678  27.0557760  73.1309185  11.6001440  27.5663071
  73.9767367  11.5789151  26.4872622  73.5899120  11.9675675  27.0472907
  63.9822261  14.1231185  32.4241306  64.8447874  14.0226894  32.3378636
  63.6514044  13.5425894  31.8626878  64.0607457  14.0222811  32.3286712
  67.3424047  12.9473634  29.0851724  66.7177117  12.9592026  28.4777677
  67.0069642  13.4233809  29.7342964  67.2009539  13.0192151  29.0908293
  67.5265796  11.2898752  15.1424409  67.1778600  11.9418477  15.6055958
  67.0462242  11.2755865  14.4148280  67.4036040  11.3841806  15.1035500
  64.0549723  21.0074094  30.5255488  63.5249647  20.3166533  30.5750463
  64.3274816  20.9984279  29.6968197  64.0174445  20.9041226  30.4102904
  75.0869813  21.5899796  19.2493171  75.8104012  22.0557909  19.1057744
  74.6470404  21.6573406  18.4990768  75.1285505  21.6683633  19.1177952
  74.2555968  18.4497338  30.4993860  73.6412961  17.9055389  30.7942495
  74.7723253  17.9361575  30.0199676  74.2411631  18.2933748  30.4718088
  73.4952265  19.5201608  28.2338159  73.0679873  18.8951327  27.8003594
  73.4877210  19.2376530  29.0597166  73.4311407  19.3854389  28.2917986
  66.6114792  14.5566782  31.3026593  66.7708279  13.8010106  31.7078314
  66.4307686  15.1057721  31.9567330  66.6080151  14.5260595  31.4589299
  71.8237975  10.3970363  28.4480693  71.8480462   9.8630475  27.7593473
  72.0749449   9.8887672  29.1106283  71.8647894  10.2431267  28.4445337
  59.3345565  17.6801858  27.8823837  59.2289014  17.6348702  27.0175921
  58.5845785  18.0255639  28.1638122  59.2081168  17.7242766  27.7961166
  68.1039297   9.1241181  27.8286437  68.1437669   9.6250388  28.5421144
  67.2788962   9.2151575  27.5592360  67.9878823   9.2122998  27.8936975
  70.2868910  18.6901921  35.9306731  69.4364541  18.8273636  36.0664376
  70.4497038  17.9565700  36.3754433  70.1852774  18.6016022  36.0162331
  69.5253661  15.6401691  30.1260336  68.6945590  15.8075509  29.9195584
  69.4705178  15.2637642  30.9109221  69.3943076  15.6091422  30.2108864
  67.3337444   9.1310584  35.7616747  67.9590147   8.5872717  36.0346179
  66.8787924   8.6505502  35.1924537  67.3585705   8.9800065  35.7178340
  67.8989704  13.9157283  20.6550454  68.0392666  14.4129747  21.3579095
  68.3972237  13.2143577  20.7964667  67.9930785  13.8859261  20.7802033
  67.9289927  14.7824394  17.9843030  68.5635006  15.3784819  17.9192492
  68.0115538  14.4827851  18.7988901  68.0346478  14.8265302  18.0946117
  69.5068910  10.7138369  17.9588472  69.8284751  10.2341452  17.3047735
  69.7695853  11.5238015  17.7679284  69.5934935  10.7628267  17.8343964
  72.7365882  21.7357243  31.4787289  72.2290974  22.2893090  31.9227919
  72.4392529  21.7965533  30.6606063  72.6170767  21.8263555  31.4235745
  64.4342915  16.9792234  21.2532576  64.9435144  17.5756742  21.6343882
  64.9077187  16.7118208  20.5708996  64.5786290  17.0278050  21.2087099
  75.3473663  25.6520501  19.4091232  74.6302973  25.4781363  18.9438469
  75.9980400  25.4173073  18.8766718  75.3375513  25.5916294  19.2620450
  77.9321634  14.5285090  23.1532537  77.2612824  15.0714792  23.0245603
  78.6261384  14.9979945  22.9114232  77.9350502  14.6783361  23.0988065
  71.9808368  26.6681802  28.3844295  71.7574022  25.9100631  28.7528322
  71.4918211  26.6979823  27.6624735  71.8751817  26.5604026  28.3321036
  66.7933446  13.6148493  24.1205757  66.0745436  14.0312626  24.3878620
  67.1645809  14.1802732  23.5697395  66.7425378  13.7597774  24.0788564
  76.0933027  14.2476342  30.0107753  76.0730955  14.0659637  30.8642531
  76.1412228  15.1188360  29.9867336  76.0967668  14.3492880  30.1331047
  74.0379357  20.8363534  35.9356229  73.9975212  20.1913211  35.3501385
  74.8502675  20.7800151  36.2481641  74.1522511  20.7322501  35.8953178
  70.6286825  26.8882260  25.8381380  70.2147223  26.2256390  25.4485222
  71.3134199  27.0360119  25.3177074  70.6685196  26.8122918  25.7037877
  73.9952119  26.0472345  26.5904997  73.5968402  26.1574615  25.8225817
  73.3803338  26.2554411  27.1731556  73.8451008  26.0945913  26.5636296
  72.5680021  12.6546493  19.4579136  71.9744860  12.9763489  18.9063703
  72.6055299  11.8087588  19.2500242  72.4854410  12.5770821  19.3461908
  75.4437837  12.6125997  22.8880887  75.2151530  12.6358699  22.0459245
  75.7035914  11.7883464  23.0075897  75.4484025  12.4942077  22.7806084
  69.7257066  14.4660470  32.4905987  69.2135969  13.8581653  32.8491018
  69.5536562  15.1817063  32.9579963  69.6246703  14.4823770  32.6122210
  64.5722781  12.9098046  35.1408349  64.4025371  13.5699421  34.5956555
  64.1288730  13.1204607  35.8620838  64.4822114  13.0384028  35.1669978
  68.4982600  11.1502544  24.1835082  68.9739966  11.5119624  23.5485263
  67.9971200  11.8059011  24.4635225  68.4947959  11.2996732  24.1311823
  73.6026136  12.3884715  34.9308242  74.1597566  12.1598525  34.2986708
  73.2787201  13.1490381  34.6543455  73.6372546  12.4668552  34.7964739
  61.4724845  15.8144911  30.3996838  60.9251565  15.1445557  30.5177707
  62.2617223  15.4474759  30.4640306  61.5077029  15.6609898  30.4265539
  71.3209253  15.4752368  35.8960249  72.0720580  15.7904045  36.2099804
  71.5131830  15.2731539  35.0694171  71.4600668  15.4919750  35.8203645
  70.5409253  13.2943743  17.5508466  70.9208218  13.3123373  16.7659581
  69.8001849  13.7397732  17.4299313  70.4878091  13.3625518  17.4172034
  60.2311815  15.0265719  27.5542861  60.0533576  14.5742328  28.2797777
  59.9430837  15.8291881  27.7381339  60.1624768  15.0788277  27.6886364
  75.8935396  16.2823436  26.7920252  76.3889061  15.5646432  26.7524272
  75.0835171  15.9794234  26.6774739  75.8479289  16.1321083  26.7693978
  71.3394007  20.1321250  18.9417256  70.5305330  19.8087923  18.8950566
  71.8468916  19.4254472  18.8745505  71.2943674  19.9802566  18.9247551
  61.9684284  17.5593443  24.6664620  61.1029804  17.5479133  24.5547392
  62.0683100  17.3723666  25.5135760  61.8558451  17.5299504  24.7753565
  77.9587215  19.0327124  29.4797380  78.3842286  18.5101546  28.9267806
  77.5944134  19.6307961  28.9586003  77.9673817  19.0437351  29.3206390
  67.5941294  27.3291341  28.2394726  67.9087853  28.1427730  28.2472508
  68.0034708  26.9441560  28.9076885  67.7009392  27.3920044  28.3398818
  74.5465814  22.7461388  25.8098538  75.0176992  23.4601651  25.9788523
  74.8825992  22.1460138  26.3458407  74.6660929  22.7632853  25.9130914
  76.6342799  24.3562702  37.9890610  76.7439764  23.5671262  38.3447357
  76.9633695  24.2668638  37.1864948  76.6995204  24.2268555  37.9233001
  75.1839760  22.5379322  32.5726231  74.6360706  21.9137206  32.3046296
  75.6452789  22.7273594  31.8570310  75.1706970  22.4738373  32.4276662
  70.5328424   9.5205272  20.2336098  71.3544118   9.6903585  19.9917793
  70.0698075   9.6752533  19.5102395  70.5859586   9.5687005  20.0907742
  64.9354314  21.2764450  27.8873334  65.5399172  21.2360284  27.2587155
  64.7281627  22.1235602  27.9177390  64.9943212  21.3952452  27.7989451
  74.7498087  23.5430395  29.1035572  75.5696460  23.3993361  29.3651867
  74.4692164  24.1676594  29.6452010  74.8294830  23.6140747  29.2223511
  60.1705597  20.2599067  27.7572258  60.0729875  19.4495339  28.0662314
  60.9534466  20.2390861  27.3718526  60.2721733  20.1366158  27.7459120
  73.5802362  35.8572294  24.4783716  73.3452546  35.0239947  24.3715985
  73.7188003  36.1376960  23.6644917  73.5658024  35.7755798  24.3426071
  75.8792449  28.0258025  27.3768024  75.2597481  27.4350672  27.2078039
  75.7776313  28.6169460  26.7432347  75.7730125  28.0262107  27.2573014
  75.6061582  31.5710307  29.6211593  75.4820279  32.1572752  30.2561412
  76.2579867  31.0770502  29.9223868  75.6835232  31.5849111  29.7597522
  75.1419687  40.7357965  25.7539922  74.6587265  41.4608455  25.7299506
  75.9543005  41.0334095  25.8650080  75.1910434  40.8860319  25.7667202
  77.9963884  41.2514141  25.9060202  78.6984463  40.7366130  25.9632959
  77.9161367  41.5788292  26.7107077  78.0887644  41.2228367  26.0332994
  77.7100227  25.6032571  17.9722822  77.5275801  25.8204452  17.1463815
  78.5725840  25.7171584  18.0281437  77.8104817  25.6522469  17.8577309
  77.3214659  37.4420493  25.4145810  78.1603559  37.6743426  25.4619572
  77.3526429  36.5724804  25.3452846  77.4496377  37.3477440  25.4110455
  77.9467362  37.8621368  29.7159116  78.4865587  37.7192499  30.3862488
  77.2637309  38.2618119  30.0843142  77.9259516  37.9001039  29.8693538
  73.3504507  34.0821659  29.8693537  73.0842923  33.2660776  30.0284528
  73.3643072  34.1274815  28.9989053  73.3129230  33.9678564  29.7647019
  77.2562254  28.8806743  16.4845296  76.5420432  28.5944923  16.8967728
  77.7406223  29.2203369  17.1251683  77.2221618  28.8888393  16.6400930
  78.1003114  27.6200037  32.5160545  77.4074911  27.1497017  32.7621277
  78.7163441  27.3938342  33.0902252  78.0887644  27.5167169  32.6369698
  73.7597921  34.8680438  27.1505282  73.5773494  34.8427324  26.2977574
  74.4947590  35.3379376  27.1894190  73.8411985  34.9341801  27.0303200
  76.8243673  31.5865441  33.6587390  77.5483645  31.5718472  34.1452285
  76.9259809  32.2960797  33.1609359  76.9461882  31.6890145  33.6566177
  73.7268831  31.7473939  27.3004348  74.3042334  31.6110390  27.9396594
  73.0282893  31.2909723  27.5549933  73.7089853  31.6596205  27.4326638
  69.2027665  30.5985832  24.0152167  69.2887916  30.2217700  24.7965697
  69.8303462  30.2246278  23.5372125  69.3084216  30.4871314  24.0597644
  74.7903623  39.3677565  28.0683527  74.8307769  39.6392416  27.2403307
  75.3498147  39.8919473  28.4841315  74.8786969  39.4853320  28.0075416
  76.2418210  37.9519514  22.8937453  75.4156327  38.1981251  22.7671732
  76.3030201  37.8731595  23.7599512  76.1292377  37.9764463  23.0026398
  78.4594233  24.0188455  23.8532894  77.5916659  24.0911055  23.9190503
  78.7469438  24.8210534  24.0420869  78.3733981  24.1482602  23.8907660
  77.8739901  34.6337093  25.9272335  77.5853150  34.0074564  26.4618062
  78.7423249  34.5757381  25.9937015  77.9600153  34.5324637  26.0163289
  78.0772175  36.2732344  21.8514700  78.8318143  36.6545383  22.0650162
  77.4842787  36.7243488  22.3061396  78.1008888  36.3961172  21.9497578
  76.3861585  27.4946714  21.2949770  76.0986381  27.1247985  20.5581717
  77.0732054  27.9641570  21.0333475  76.4450483  27.5093684  21.1464846
  76.8722874  33.7657735  31.8471314  77.3843971  34.0441988  31.1980074
  76.5859216  34.5047029  32.2134127  76.9057737  33.9160089  31.8061192
  73.9589780  28.2727927  22.1435051  74.0605916  29.0754088  22.4716026
  74.7545667  28.0715263  21.8458131  74.0917686  28.3613826  22.1470406
  74.7753512  28.3875105  29.8856172  74.6339004  27.5359046  30.0100680
  75.0594075  28.4303766  29.0618379  74.7961358  28.2674855  29.7823797
  75.5443817  26.3005453  33.2033623  75.0086007  25.6885811  33.5194390
  75.6061582  26.8753589  33.8567289  75.4739450  26.2952380  33.3469050
  77.6632573  33.7086187  23.0153678  77.8197192  33.6432990  23.8709670
  78.0033166  34.4834739  22.8032357  77.7365808  33.8135385  23.1108272
  74.2366835  30.8921137  23.3314445  74.6165799  31.3105682  22.6674712
  73.6622199  31.4734593  23.6383288  74.2078160  31.0398996  23.2791186
  77.8797636  32.4581542  27.9629939  77.0385643  32.3585416  28.1708833
  78.0887644  33.2277022  28.3144260  77.7862329  32.5573585  28.0457254
  75.3573203  30.0801079  25.7914690  74.9629901  30.1544091  25.0164799
  74.8013320  30.4659025  26.3423052  75.2176016  30.1482854  25.7582350
  77.7706444  34.8525304  29.3821572  77.1794377  35.4934802  29.3524587
  78.5327468  35.2762922  29.3552872  77.7954705  35.0101143  29.3736719
  78.1667067  26.0127302  30.0489590  78.6268548  26.0866231  30.7864713
  78.2123174  26.8108556  29.6989411  78.2417622  26.1421449  30.1062346
  74.9554845  29.6416493  32.4241306  75.8180458  29.5412202  32.3378636
  74.6246628  29.0611202  31.8626878  75.0340041  29.5408119  32.3286712
  78.3156631  28.4658942  29.0851724  77.6909701  28.4777334  28.4777677
  77.9802226  28.9419117  29.7342964  78.1742122  28.5377459  29.0908293
  78.4998379  26.8084060  15.1424409  78.1511184  27.4603785  15.6055958
  78.0194825  26.7941173  14.4148280  78.3768623  26.9027114  15.1035500
  75.0282306  36.5259402  30.5255488  74.4982231  35.8351841  30.5750463
  75.3007400  36.5169587  29.6968197  74.9907029  36.4226534  30.4102904
  77.5847376  30.0752089  31.3026593  77.7440863  29.3195414  31.7078314
  77.4040270  30.6243029  31.9567330  77.5812735  30.0445903  31.4589299
  70.3078148  33.1987166  27.8823837  70.2021598  33.1534010  27.0175921
  69.5578368  33.5440946  28.1638122  70.1813751  33.2428074  27.7961166
  78.3070027  24.6495892  35.7616747  78.9322731  24.1058025  36.0346179
  77.8520507  24.1690810  35.1924537  78.3318288  24.4985373  35.7178340
  77.7666030  29.1333801  24.1205757  77.0478019  29.5497934  24.3878620
  78.1378392  29.6988040  23.5697395  77.7157962  29.2783082  24.0788564
  75.5455364  28.4283354  35.1408349  75.3757954  29.0884729  34.5956555
  75.1021314  28.6389915  35.8620838  75.4554698  28.5569336  35.1669978
  72.4457429  31.3330219  30.3996838  71.8984148  30.6630865  30.5177707
  73.2349807  30.9660067  30.4640306  72.4809612  31.1795206  30.4265539
  71.2044398  30.5451027  27.5542861  71.0266159  30.0927636  28.2797777
  70.9163420  31.3477188  27.7381339  71.1357351  30.5973585  27.6886364
  72.9416868  33.0778751  24.6664620  72.0762387  33.0664441  24.5547392
  73.0415684  32.8908974  25.5135760  72.8291035  33.0484812  24.7753565
  75.9086898  36.7949758  27.8873334  76.5131755  36.7545592  27.2587155
  75.7014211  37.6420910  27.9177390  75.9675795  36.9137760  27.7989451
  71.1438180  35.7784375  27.7572258  71.0462458  34.9680647  28.0662314
  71.9267050  35.7576169  27.3718526  71.2454317  35.6551466  27.7459120
   4.7364130  22.5200969  60.9923668   4.7058134  23.3745606  61.1641938
   5.3345479  22.2196261  61.5509812   4.8201288  22.6017465  61.0998470
   2.5580704  25.0953271  59.2641978   2.4420230  25.8460957  59.6934116
   3.3536591  24.8377224  59.5138065   2.6585294  25.1688118  59.3646070
   1.2128443  22.4445709  59.0754003   0.6839915  22.6605343  59.7351309
   1.7353463  23.1381848  58.9954972   1.2116896  22.5788846  59.1609602
   6.6676496  28.0192014  64.4487047   5.8374199  28.2302657  64.6120464
   6.6185748  27.1929068  64.1729331   6.5383231  27.9281620  64.4324413
   3.9240811  28.6891368  64.5851763   3.4876043  28.6928111  65.3410735
   3.5903727  29.3696867  64.1531341   3.8103431  28.7903824  64.6332596
   7.0585157  25.4072288  63.4771400   7.7201592  24.8462957  63.3767309
   6.4176569  24.9124319  63.8024092   7.0614025  25.2508697  63.5103741
   3.3449988  26.4237670  63.2183389   3.5805577  26.5682869  62.3910240
   3.4939552  27.1880079  63.6114903   3.4015791  26.5576725  63.1546993
   5.1740445  25.2639336  61.0552993   5.5048662  25.7966977  60.4493088
   5.7473533  25.3178224  61.7114944   5.3074124  25.3508905  61.0630775
   2.6383221  27.5603303  60.7123525   3.2041254  28.2196513  60.6282068
   1.9911125  27.9053001  61.1839927   2.6261978  27.7085244  60.7696281
   3.8345919  27.6109530  57.5049161   3.4552728  26.8246668  57.4978451
   3.1712164  28.1596387  57.3620805   3.6804394  27.5754354  57.4829958
   2.0806018  29.8555021  57.8400847   2.1625855  30.6622008  57.5162298
   2.5655760  29.8750981  58.5641621   2.1643176  29.9775684  57.8987746
   6.2178938  27.4615342  58.8993307   6.6012544  28.2106698  59.1291404
   5.4223051  27.7081161  58.6405296   6.1572720  27.6085036  58.8950881
  15.7096713  38.0386277  60.9923668  15.6790718  38.8930913  61.1641938
  16.3078062  37.7381569  61.5509812  15.7933871  38.1202773  61.0998470
   8.9096398  37.1261928  65.7476599   8.0534294  37.2870426  65.7985715
   8.9564052  36.2553992  65.7681660   8.7895510  37.0212730  65.7582665
   3.2937538  46.6624646  61.5113830   2.5420437  46.2840184  61.2829875
   3.7423550  46.6943079  60.7632640   3.2487205  46.6110253  61.3671332
  12.2190115  43.3948453  75.3537055  12.9256882  42.9000484  75.4823989
  12.4078050  43.8357535  74.6239713  12.3518020  43.3866804  75.2646100
   8.7462498  47.0850015  56.9399377   8.4113866  47.7626937  56.5043599
   9.2589368  46.6955326  56.3516249   8.7728079  47.1274593  56.7886169
   8.2866789  49.0364284  62.8810489   8.6706168  49.6051182  62.3415264
   8.2225930  48.3113794  62.4016305   8.3340216  49.0139747  62.7304351
  11.7548219  39.1853972  68.3908250  12.3004179  39.8639058  68.4502220
  11.6965096  39.0441433  67.5309832  11.8264134  39.2645973  68.2720311
   4.8722294  46.6743038  63.7776603   4.9732657  45.8643392  64.0873730
   4.2764039  46.5799984  63.1476281   4.7994833  46.5408066  63.7302841
  13.5313288  40.6138579  59.2641978  13.4152814  41.3646265  59.6934116
  14.3269175  40.3562532  59.5138065  13.6317877  40.6873426  59.3646070
   4.7123034  51.5920627  65.1791459   5.3560489  52.0333791  65.5687617
   5.0379289  50.7874053  65.0921717   4.8554862  51.5385822  65.2236936
   5.4143613  44.6032602  60.5511320   5.7359454  45.1437809  59.9472628
   6.0615710  44.0329373  60.6833610   5.5569669  44.5991777  60.4818356
   7.4645321  36.6048597  60.6345707   8.1625486  36.7836724  61.1267170
   7.7797654  36.0818936  60.0116096   7.6140659  36.5542369  60.6147717
   7.6533257  42.9919042  60.6225499   8.0926892  42.3836142  61.0680271
   7.5037920  42.6126415  59.8510964   7.6954723  42.8457513  60.5744666
   5.1204900  41.5863054  67.8244324   5.7653902  41.0935497  67.5055273
   5.3606677  41.7287840  68.6510402   5.2515485  41.5340496  67.8993857
   7.6590991  44.4317959  67.4751217   7.9414234  43.6369365  67.2537972
   8.3877152  44.9098547  67.4956278   7.8080555  44.3852556  67.4454232
   5.6372185  31.9740993  64.7166982   5.3075515  32.4252137  64.0470680
   4.9617187  31.8957157  65.2639988   5.4882621  32.0292129  64.6990205
  11.2542593  41.3446223  57.5756268  11.1693889  42.2007190  57.7205837
  11.7426977  41.0690547  58.2438427  11.3131491  41.4303544  57.6958349
  12.8448593  27.9626516  62.9616592  12.5302034  28.6529995  63.3937015
  12.3275535  27.9071299  62.2602093  12.7213063  28.0561405  62.9213542
  12.1861027  37.9631017  59.0754003  11.6572498  38.1790651  59.7351309
  12.7086047  38.6567156  58.9954972  12.1849480  38.0974154  59.1609602
  17.6409080  43.5377322  64.4487047  16.8106783  43.7487965  64.6120464
  17.5918332  42.7114376  64.1729331  17.5115815  43.4466928  64.4324413
   4.0760634  41.8594234  57.8761471   3.4917850  42.3644265  58.2827335
   3.6730730  41.6336621  57.1358063   3.9299938  41.9002482  57.8266496
   5.7018817  46.3681176  67.2834957   5.1845759  46.0088591  66.6796265
   6.3993208  45.8443350  67.2941023   5.7284398  46.2378864  67.1965216
   9.3582409  46.8175990  73.2451130   9.4465755  46.6302130  74.0929340
   9.7872122  46.1713419  72.8455977   9.4344511  46.6938998  73.3122881
   8.5337849  38.1059886  56.3530392   8.7733853  38.3137870  55.5405735
   8.8553690  37.3017395  56.4619336   8.6175007  38.0173987  56.2490945
   3.8428139  30.0353282  60.1989929   4.5974107  30.4031599  59.9606980
   3.6655674  30.4092836  60.9669109   3.9282618  30.1451470  60.2774818
   2.4848860  48.0905171  64.8305422   3.1869440  47.5757160  64.8878179
   2.4046343  48.4179322  65.6352297   2.5772621  48.0619397  64.9578215
  17.1363038  36.1847722  68.2437469  16.2991459  36.2549909  68.4785063
  17.1051269  36.1872217  67.3711771  17.0081320  36.1957949  68.1497017
   2.1985204  32.4423601  56.8968042   2.0160777  32.6595482  56.0709035
   3.0610817  32.5562614  56.9526657   2.2989793  32.4913499  56.7822529
   1.8099636  44.2811523  64.3391030   2.6488535  44.5134456  64.3864792
   1.8411405  43.4115834  64.2698066   1.9381353  44.1868469  64.3355675
   2.4352339  44.7012398  68.6404336   2.9750564  44.5583529  69.3107708
   1.7522285  45.1009149  69.0088362   2.4144493  44.7392069  68.7938758
   7.8784923  29.4450012  59.9317066   8.6071083  29.2665966  59.4855223
   7.9679816  30.2868091  60.1424244   7.9991585  29.5433890  59.8970584
  11.8593224  40.3803399  63.8349360  12.6150739  40.8134913  63.8738269
  11.9655548  39.7308169  64.4083996  11.9863394  40.3480883  63.9247386
  14.8973395  44.2076676  64.5851763  14.4608627  44.2113419  65.3410735
  14.5636310  44.8882175  64.1531341  14.7836015  44.3089132  64.6332596
  14.8170878  31.2490504  66.8281191  15.4596786  31.3188609  67.4143106
  15.0693898  30.5819727  66.3260733  14.9493010  31.1616853  66.8408470
   1.7447231  35.7197773  55.4090516   1.0305408  35.4335953  55.8212948
   2.2291200  36.0594399  56.0496903   1.7106594  35.7279423  55.5646150
   9.6272862  48.1595111  69.5561369   8.8288107  47.9194611  69.8135238
  10.0758873  48.2109504  70.3028417   9.5747473  48.1317502  69.7046293
  18.0317741  40.9257596  63.4771400  18.6934175  40.3648264  63.3767309
  17.3909153  40.4309627  63.8024092  18.0346609  40.7694005  63.5103741
   8.9194549  44.2227727  55.7852324   9.3345697  43.8912751  55.0936819
   8.0886478  43.9896630  55.6572460   8.8582557  44.1398983  55.6643171
  14.3182572  41.9422978  63.2183389  14.5538161  42.0868177  62.3910240
  14.4672135  42.7065386  63.6114903  14.3748375  42.0762033  63.1546993
  16.1473028  40.7824644  61.0552993  16.4781246  41.3152284  60.4493088
  16.7206117  40.8363532  61.7114944  16.2806708  40.8694213  61.0630775
  11.3604918  38.6289547  61.7376573  11.4551772  39.3678841  62.1916199
  10.7363761  38.2007023  62.1711138  11.2813948  38.6750868  61.8684721
   9.6157391  41.8075760  72.3866854  10.1896253  41.1703004  72.5415418
   9.5372195  41.8079842  71.5176512   9.6890626  41.7140871  72.2813265
  11.6127939  40.4738287  54.9713525  11.5308101  40.5440474  55.8368512
  12.2507659  41.0368031  54.7797266  11.6947776  40.5677258  55.0703475
   4.9721110  40.2399025  64.4388051   4.7140354  39.4070760  64.4119351
   5.0269593  40.4656638  63.5980552   4.9420888  40.1496796  64.3108188
  10.0522160  32.3427475  64.5392144   9.3478487  31.8536661  64.6976063
  10.1007134  32.3549950  63.6680589   9.9552212  32.2717123  64.4331484
   3.9455822  37.7936787  64.9252946   3.3705413  37.9528956  65.5616907
   3.5691498  37.1572196  64.4621397   3.8058635  37.7234600  64.9507505
   7.6129111  36.2660137  69.7845325   7.2243544  35.8414354  69.1297516
   6.9483809  36.5142286  70.2922351   7.4576039  36.2398858  69.7633193
  17.2552380  36.0235141  62.5593155  16.9988945  35.2115083  62.3691037
  18.0981694  36.0312708  62.3323342  17.3418405  35.9047139  62.4977972
  11.4355472  29.9634765  67.2969309  11.8165984  29.2812936  67.6837183
  10.6318757  29.6744367  67.1144973  11.3731934  29.8201814  67.3273365
   8.7168049  40.4958741  57.9822132   9.5308688  40.7873634  57.8704903
   8.6527190  39.8418603  57.4080425   8.8270788  40.4423936  57.8810969
  14.9377539  43.1784737  72.3951707  14.7016177  42.3472802  72.2763768
  15.5820768  43.1270344  72.9806551  14.9972210  43.0482425  72.4637601
   4.5875957  43.9680259  63.1094444   5.2249904  43.7292006  63.6546237
   5.0131029  44.1717417  62.3747604   4.7452124  43.9631269  63.0811601
   5.2278772  39.1882548  57.4469333   5.6123925  38.9690255  58.1985878
   4.9790393  40.0145494  57.5770409   5.2480845  39.2780695  57.5770410
  15.9613960  42.9629186  68.4580002  15.6559777  43.6957243  68.8193317
  15.2420176  42.5567116  68.1772788  15.8101302  43.0110919  68.4693139
   6.9697429  44.4452681  64.7888230   7.0436438  44.2827853  65.6430080
   7.7866936  44.6342871  64.5448712   7.1013788  44.4489424  64.8786256
  21.6615752  39.6022187  67.7848346  21.5940252  39.6218146  66.9150933
  21.6471414  40.4452514  68.0104017  21.6494508  39.7295921  67.6900823
   2.9479210  30.8579485  62.7778114   2.0801635  30.9302085  62.8435723
   3.2354414  31.6601564  62.9666089   2.8618958  30.9873632  62.8152880
  12.0712098  31.0057344  71.1089435  12.8165690  30.8167155  70.6952861
  11.6549403  31.5315582  70.5503292  12.1197073  31.0559490  70.9654009
   5.5102015  47.4087424  59.5201703   5.8000313  47.0176406  58.7960930
   6.2405496  47.5904129  59.9606979   5.6608899  47.3781238  59.4784510
  19.4474369  38.3766573  66.0594940  19.9982291  37.7434642  66.2992032
  19.4318485  38.9081966  66.7510445  19.5259566  38.3615521  66.1973799
   6.0996760  42.2105170  70.6054834   5.6008454  42.9220938  70.6839722
   6.9096984  42.5305837  70.5672996   6.1452867  42.3632019  70.6111402
   3.4507931  49.3854807  62.5861853   3.2308226  49.0952161  63.3788520
   3.2302453  48.7269762  62.0579765   3.3855525  49.2454515  62.6250762
   2.3624878  41.4728123  64.8517555   2.0738126  40.8465594  65.3863282
   3.2308226  41.4148411  64.9182235   2.4485130  41.3715667  64.9408509
  13.1502776  36.6162907  65.1699537  12.8067541  35.8953242  65.5206786
  13.2495818  36.4076758  64.3277895  13.1144818  36.4787110  65.0971217
   5.6175886  50.7584197  61.3692545   6.2699944  50.2260639  61.5983572
   4.9201495  50.4052849  61.7560420   5.6106604  50.6273720  61.4604713
   2.5657151  43.1123374  60.7759920   3.3203119  43.4936413  60.9895382
   1.9727764  43.5634518  61.2306616   2.5893865  43.2352202  60.8742798
  13.6115805  43.0788611  60.7123525  14.1773837  43.7381821  60.6282068
  12.9643708  43.4238309  61.1839927  13.5994561  43.2270552  60.7696281
   3.8855378  44.2831936  66.1500035   3.3636131  44.4232227  66.8351900
   4.2729398  43.5242600  66.3402153   3.8659079  44.1917459  66.2801112
  10.0822383  46.0227395  60.1360604   9.8409059  45.2895256  59.7287669
  10.2623716  46.5714252  59.4826937  10.0730007  45.9949786  59.9790827
   5.3121703  41.3135955  61.5481526   5.1164486  41.9210689  60.9541829
   5.5356049  40.6203899  61.0673200   5.3156344  41.3013480  61.3897607
   3.7100233  38.1990693  61.6662395   4.4322885  38.3631851  61.2066201
   3.2308226  38.9200357  61.5601734   3.7463964  38.3288922  61.5828009
  11.6693741  34.5354491  67.0459080  10.8304842  34.5615770  66.8097343
  11.7398108  35.1825227  67.6264426  11.5562134  34.6350617  67.0968196
  10.1163019  31.4339868  61.7786695  10.8189372  31.2347617  61.3006654
   9.8507208  30.6615811  62.0855539  10.1809652  31.2902834  61.7532137
  15.5451265  39.7422478  64.3320321  15.4585239  39.8977904  65.1855100
  15.0901745  40.3860554  63.9579726  15.4654521  39.8598233  64.4027428
   9.4177081  37.0633225  62.9545881   9.1711795  36.9828976  63.7882670
   9.7462204  36.2786693  62.7608408   9.4298324  36.9359491  63.0493404
  13.3125130  43.7716585  66.7432662  13.1739489  44.4697630  67.2481404
  12.5325128  43.6165241  66.3868844  13.1768357  43.8516751  66.7658936
  11.6503215  40.0712960  72.9955044  11.6451253  39.1992776  72.9997470
  12.3564209  40.2701129  72.5224499  11.7548219  39.9716834  72.9262079
   5.3774108  39.7989944  72.3668864   5.5217484  40.3791152  71.7311974
   5.7249757  40.1766241  73.0718718   5.4501569  39.9410648  72.3767859
   7.5494025  38.9980112  70.1493995   6.8017340  39.1911127  69.7442274
   7.7035551  38.1725332  69.9118117   7.4616453  38.9045224  70.0539401
   4.4501863  47.9892716  69.2329891   4.5991427  47.4295631  68.5803295
   5.2301865  48.0684717  69.6162410   4.5875957  47.9178281  69.1926840
  14.8078503  43.1294838  57.5049161  14.4285311  42.3431976  57.4978451
  14.1444748  43.6781695  57.3620805  14.6536977  43.0939662  57.4829958
   6.9755164  48.1607358  70.5114382   6.8998835  47.4916169  71.0665170
   6.9045023  48.8625147  71.0255048   6.9535771  48.1652266  70.6691230
  12.2623128  26.0720538  64.9083242  12.3806697  26.5297001  64.1750545
  12.0885304  25.2665799  64.6219460  12.2542299  26.0214310  64.7584176
   7.6325411  46.6808357  61.3437987   8.3975302  46.4118001  61.0220652
   7.5303501  46.1958368  62.0608050   7.7306906  46.5697922  61.4017815
   5.6678180  34.8832767  67.8831223   4.8774255  34.7024227  68.2048559
   6.0638803  34.1059719  67.8661518   5.6095057  34.7420228  67.9283772
  10.1544071  43.7120541  53.3237937  10.9217056  43.7720666  52.9143789
   9.7075380  43.1400983  52.8394255  10.2017498  43.6357117  53.1915647
  11.0521867  42.5175197  65.6090669  10.3766869  42.2860429  66.1104056
  11.0614243  41.9096380  64.9832774  10.9540371  42.3934122  65.5906821
   8.1816011  37.3593026  72.3654722   8.1175152  38.2202982  72.2374859
   8.3213198  37.0425019  71.5650273   8.1931481  37.4393193  72.2282935
  13.0538601  45.3740329  57.8400847  13.1358439  46.1807316  57.5162298
  13.5388344  45.3936289  58.5641621  13.1375759  45.4960992  57.8987746
   6.8635105  40.0525165  66.5070925   6.4397354  40.2529664  65.7709943
   6.6879960  39.2054013  66.6195225   6.7745985  39.9573947  66.4144615
   2.1517550  40.5477217  61.9398898   2.3082169  40.4824020  62.7954890
   2.4918143  41.3225769  61.7277577   2.2250784  40.6526415  62.0353492
   8.6896694  39.9235100  60.8092261   9.2312240  39.4205481  61.2730881
   9.0043253  39.8700295  59.9981746   8.8161091  39.8414521  60.7576073
  12.5613802  44.1337748  77.9219173  13.3748667  43.8622897  78.0824305
  12.4008768  43.8345288  77.1179369  12.6583750  44.0492674  77.8264579
   6.8583144  45.3152452  58.0932289   6.9275964  44.4566990  58.2325289
   7.6371599  45.5324333  57.7651313   6.9835994  45.2205316  58.0649446
   9.8385964  34.8171405  70.8614561  10.0527933  34.1782319  70.3077915
   9.2219863  35.2617229  70.4322423   9.7791293  34.7881548  70.7164992
  11.2490631  47.7390153  62.3068782  10.8570423  47.4356868  61.5891648
  11.4043704  48.5759243  62.1173736  11.2144221  47.8173990  62.1725279
  12.0025052  36.4260470  71.7997868  11.1901733  36.1186360  71.8811041
  12.4614986  35.9459470  72.3640581  11.9505436  36.3096962  71.8952462
  11.4130306  44.3040142  62.2474813  11.0544961  44.4754785  63.0238845
  10.9269017  44.7653348  61.6902811  11.2889003  44.3979113  62.2800082
   9.2300692  27.9271340  65.8501904   8.3594250  27.9010062  65.8035214
   9.4841033  27.7548533  65.0327750   9.1394252  27.8981484  65.7222041
   6.2018672  39.9839307  54.7875047   6.4911196  40.7604190  55.0618621
   6.2890470  39.4728039  55.4889546   6.2572928  40.0231226  54.9317545
   6.2549833  29.9377569  67.3075374   5.7388321  29.2457760  67.4326953
   5.6943762  30.6048346  67.2537973   6.0956346  29.9340827  67.3181440
  12.5735046  45.1944038  73.1942014  13.2114766  44.7004234  72.8604470
  11.9309137  45.1221438  72.6094240  12.5729272  45.1103046  73.0584369
  14.2992046  37.0433184  67.7607929  13.8719654  36.9559532  67.0056029
  13.6618099  37.1510959  68.3462773  14.1421653  37.0465844  67.7353371
  12.6289302  45.8863846  69.8347370  13.4181680  45.5352911  69.9549452
  12.8032900  46.7000235  69.5724004  12.7709584  45.9549703  69.8135238
   2.3682613  39.2972572  66.8875159   1.5270619  39.1976446  67.0954053
   2.5772621  40.0668052  67.2389480   2.2747305  39.3964615  66.9702474
  11.4823126  29.8973403  64.3963789  11.6872720  29.8295711  65.2420786
  11.1549550  30.7032224  64.3284966  11.4638374  30.0059343  64.5123444
   6.1799277  37.2253971  66.1372757   5.8762415  36.6709959  66.7383164
   5.4778698  37.4046181  65.6500791   6.0315487  37.1698753  66.1542462
   5.2365375  34.5354491  60.7017459   5.5125109  33.8173403  60.2895026
   5.8364044  35.1339411  60.4938565   5.3658639  34.5174862  60.6098220
  14.7356814  30.4505167  63.8766554  14.1231128  30.9375569  64.2620286
  14.8320989  29.7748658  64.4204205  14.6594712  30.4223476  64.0145412
   8.7375895  32.2068008  58.9764054   9.1919642  32.3778569  59.7011898
   9.2115941  31.5936119  58.5761829   8.8744215  32.1418894  59.0237815
   2.2591420  41.6916334  68.3066792   1.6679354  42.3325832  68.2769807
   3.0212444  42.1153951  68.2798092   2.2839681  41.8492173  68.2981939
  18.3781842  41.5222104  69.3044070  18.4364966  41.9708753  70.0504047
  17.7448310  41.9320917  68.8674150  18.2933137  41.6495839  69.3496619
  12.0180937  47.1425646  65.7398816  11.8200625  47.6316460  65.0455028
  11.3968648  47.3466887  66.3182950  11.8968501  47.2442184  65.7222040
   6.0788915  38.9110543  60.0809061   6.8230960  39.2984819  60.3192011
   6.2249611  38.0667968  60.2449549   6.2099500  38.8441015  60.1403030
   7.9968491  30.7060802  65.1140922   7.1504536  30.8783609  64.9882272
   7.9939623  29.9010145  65.4506751   7.8715640  30.6121830  65.1452049
   9.0666791  34.4836016  65.9802980   8.5926745  33.9577778  66.4908291
   9.4384927  33.9365489  65.4117842   9.0516680  34.3252013  65.9718127
  15.3303522  39.5438392  67.3909761  15.0901744  38.7044807  67.3952187
  15.8095529  39.6238558  68.1150534  15.3655705  39.4319791  67.4984563
  10.9950291  35.3772571  59.0428734  10.4673309  35.4601315  58.3534443
  11.4545999  36.1190442  59.0393379  10.9852141  35.4993233  58.9403429
  17.3308709  36.3239849  65.3439020  17.0918479  36.2835683  64.5059804
  17.4942610  37.1711001  65.4704741  17.3199012  36.4431934  65.2392502
  13.9354739  40.7089798  71.2744065  14.6588938  40.2562325  71.0955085
  13.6704701  40.9894464  70.4916393  14.0036012  40.6840767  71.1322780
   2.8041607  35.3049972  68.0096944   2.1794677  35.3168364  67.4022897
   2.4687202  35.7810147  68.6588184   2.6627099  35.3768489  68.0153513
   2.9883356  33.6475090  54.0669629   2.6396160  34.2994815  54.5301178
   2.5079802  33.6332203  53.3393500   2.8653600  33.7418144  54.0280720
  10.5487373  43.9476134  58.1738391  11.2721572  44.4134247  58.0302964
  10.1087964  44.0149744  57.4235988  10.5903065  44.0259971  58.0423172
   9.7173528  40.8073676  69.4239080   9.1030521  40.2631727  69.7187715
  10.2340813  40.2937913  68.9444896   9.7029191  40.6510085  69.3963308
   8.9569825  41.8777946  67.1583379   8.5297433  41.2527665  66.7248814
   8.9494770  41.5952868  67.9842386   8.8928967  41.7430727  67.2163206
   7.2855535  32.7546701  67.3725913   7.3098022  32.2206813  66.6838693
   7.5367009  32.2464010  68.0351503   7.3265454  32.6007605  67.3690557
   3.5656857  31.4817519  66.7531657   3.6055229  31.9826726  67.4666364
   2.7406522  31.5727913  66.4837580   3.4496383  31.5699335  66.8182195
   4.9871221  37.9978029  69.0505556   4.1563150  38.1651847  68.8440804
   4.9322738  37.6213980  69.8354441   4.8560636  37.9667760  69.1354084
   3.3607264  36.2733621  59.5795674   3.5010226  36.7706085  60.2824315
   3.8589797  35.5719915  59.7209887   3.4548345  36.2435599  59.7047253
   3.3907487  37.1400732  56.9088250   4.0252566  37.7361157  56.8437712
   3.4733098  36.8404189  57.7234121   3.4964038  37.1841640  57.0191337
  16.3690053  39.6716209  69.7774615  16.9607893  40.3113460  69.8092813
  16.8049047  38.9739246  70.0666681  16.5208484  39.6634559  69.8255447
   4.9686470  33.0714707  56.8833692   5.2902311  32.5917789  56.2292955
   5.2313413  33.8814353  56.6924504   5.0552495  33.1204605  56.7589184
   8.1983442  44.0933581  70.4032509   7.6908534  44.6469428  70.8473139
   7.9010089  44.1541871  69.5851283   8.0788327  44.1839893  70.3480965
  10.3645625  32.4586901  69.2457172  10.7900696  32.0059427  68.6340698
   9.7502618  31.9046972  69.5221959  10.3374270  32.3100877  69.1962197
  10.8091223  48.0096839  58.3336452  10.0920533  47.8357701  57.8683689
  11.4597960  47.7749411  57.8011938  10.7993073  47.9492632  58.1865670
   8.8039848  28.9302001  62.6547749   8.1608165  28.7799647  63.2232887
   8.4639255  28.6844346  61.8896853   8.6584925  28.8714123  62.6250764
  13.3939194  36.8861428  62.0777757  12.7230384  37.4291130  61.9490823
  14.0878944  37.3556283  61.8359452  13.3968062  37.0359699  62.0233285
   7.4425928  49.0258140  67.3089515   7.2191582  48.2676969  67.6773542
   6.9535771  49.0556161  66.5869955   7.3369377  48.9180364  67.2566256
  13.5567321  33.3417311  64.9868130  13.9094932  32.9147034  65.6613929
  12.6982123  33.2568155  65.1169207  13.4816766  33.2662052  65.1063141
   2.2551006  35.9724831  63.0450977   1.5362996  36.3888963  63.3123840
   2.6263369  36.5379070  62.4942615   2.2042938  36.1174112  63.0033784
  11.5550587  36.6052680  68.9352973  11.5348515  36.4235975  69.7887751
  11.6029788  37.4764698  68.9112556  11.5585228  36.7069218  69.0576267
   9.4996917  43.1939872  74.8601449   9.4592772  42.5489549  74.2746605
  10.3120235  43.1376489  75.1726861   9.6140071  43.0898839  74.8198398
   6.0904385  49.2458598  64.7626600   5.6764783  48.5832728  64.3730442
   6.7751759  49.3936456  64.2422294   6.1302756  49.1699256  64.6283097
   9.4569679  48.4048683  65.5150217   9.0585962  48.5150953  64.7471037
   8.8420898  48.6130749  66.0976776   9.3068568  48.4522251  65.4881516
   8.0297581  35.0122831  58.3824356   7.4362420  35.3339827  57.8308923
   8.0672859  34.1663926  58.1745462   7.9471970  34.9347159  58.2707128
  14.9891382  28.4635723  65.9152443  14.4822246  27.7564863  65.8473620
  15.7858815  28.1328912  66.0453519  15.0318621  28.3108874  65.9251438
  10.9055397  34.9702335  61.8126107  10.6769090  34.9935037  60.9704465
  11.1653474  34.1459802  61.9321117  10.9101585  34.8518415  61.7051304
   3.9600160  33.5078882  63.1080302   4.4357526  33.8695961  62.4730483
   3.4588760  34.1635349  63.3880445   3.9565519  33.6573070  63.0557043
  17.1911522  42.9800650  58.8993307  17.5745127  43.7292006  59.1291404
  16.3955635  43.2266469  58.6405296  17.1305304  43.1270344  58.8950881
   6.0026813  35.6520081  56.4753686   6.3825778  35.6699711  55.6904801
   5.2619409  36.0974070  56.3544533   5.9495651  35.7201856  56.3417254
  13.6312104  33.9602273  62.0629265  13.6306330  33.8050929  62.9213541
  13.4268284  34.8065260  62.0070650  13.6011881  34.0622893  62.1817204
  11.3552956  38.6399774  65.7165472  11.8506621  37.9222769  65.6769492
  10.5452731  38.3370572  65.6019959  11.3096849  38.4897421  65.6939198
   6.8011567  42.4897588  57.8662476   5.9922890  42.1664261  57.8195786
   7.3086476  41.7830810  57.7990725   6.7561234  42.3378904  57.8492771
  13.4204775  41.3903462  68.4042600  13.8459846  40.8677884  67.8513026
  13.0561694  41.9884299  67.8831223  13.4291377  41.4013689  68.2451610
   3.0558854  49.6867679  67.1639946   3.3705413  50.5004068  67.1717728
   3.4652268  49.3017898  67.8322105   3.1626952  49.7496382  67.2644038
  10.0083374  45.1037726  64.7343758  10.4794552  45.8177989  64.9033743
  10.3443552  44.5036476  65.2703627  10.1278489  45.1209190  64.8376134
  10.6457320  44.8955660  71.4971451  10.0978266  44.2713544  71.2291516
  11.1070349  45.0849932  70.7815530  10.6324530  44.8314710  71.3521882
  13.4551185  32.9641015  68.8822643  12.8714173  33.4650221  68.4700210
  13.7755479  32.4570571  68.2486966  13.4164360  32.9632850  68.7281150
   5.9945984  31.8781610  59.1581318   6.8161678  32.0479922  58.9163013
   5.5315635  32.0328871  58.4347615   6.0477146  31.9263343  59.0152962
  10.2115647  45.9006733  68.0280792  11.0314020  45.7569699  68.2897087
   9.9309724  46.5252932  68.5697230  10.2912390  45.9717085  68.1468731
  26.6829297  53.5571585  60.9923668  26.6523301  54.4116221  61.1641938
  27.2810646  53.2566877  61.5509812  26.7666455  53.6388081  61.0998470
  19.8828982  52.6447236  65.7476599  19.0266877  52.8055734  65.7985715
  19.9296636  51.7739300  65.7681660  19.7628093  52.5398038  65.7582665
  14.2670122  62.1809954  61.5113830  13.5153021  61.8025492  61.2829875
  14.7156133  62.2128387  60.7632640  14.2219788  62.1295561  61.3671332
  23.1922698  58.9133761  75.3537055  23.8989466  58.4185792  75.4823989
  23.3810634  59.3542843  74.6239713  23.3250604  58.9052112  75.2646100
  19.7195081  62.6035323  56.9399377  19.3846450  63.2812245  56.5043599
  20.2321952  62.2140634  56.3516249  19.7460663  62.6459901  56.7886169
  19.2599373  64.5549592  62.8810489  19.6438752  65.1236490  62.3415264
  19.1958514  63.8299102  62.4016305  19.3072800  64.5325055  62.7304351
  22.7280803  54.7039280  68.3908250  23.2736763  55.3824366  68.4502220
  22.6697679  54.5626740  67.5309832  22.7996717  54.7831281  68.2720311
  15.8454878  62.1928346  63.7776603  15.9465241  61.3828700  64.0873730
  15.2496623  62.0985292  63.1476281  15.7727416  62.0593374  63.7302841
  24.5045871  56.1323887  59.2641978  24.3885397  56.8831573  59.6934116
  25.3001758  55.8747840  59.5138065  24.6050461  56.2058734  59.3646070
  15.6855617  67.1105935  65.1791459  16.3293073  67.5519099  65.5687617
  16.0111873  66.3059361  65.0921717  15.8287446  67.0571130  65.2236936
   9.0419922  58.2148632  63.4028936   8.8070106  57.3816285  63.2961205
   9.1805563  58.4953298  62.5890137   9.0275584  58.1332136  63.2671291
  11.3410009  50.3834363  66.3013244  10.7215041  49.7927010  66.1323259
  11.2393873  50.9745798  65.6677567  11.2347685  50.3838445  66.1818234
  16.3876197  60.1217910  60.5511320  16.7092038  60.6623117  59.9472628
  17.0348294  59.5514681  60.6833610  16.5302252  60.1177085  60.4818356
  18.4377905  52.1233905  60.6345707  19.1358070  52.3022032  61.1267170
  18.7530238  51.6004244  60.0116096  18.5873242  52.0727677  60.6147717
  11.0679142  53.9286645  68.5456813  10.9437839  54.5149090  69.1806632
  11.7197427  53.4346840  68.8469088  11.1452792  53.9425449  68.6842742
  18.6265840  58.5104350  60.6225499  19.0659476  57.9021450  61.0680271
  18.4770503  58.1311723  59.8510964  18.6687306  58.3642821  60.5744666
  16.0937483  57.1048362  67.8244324  16.7386486  56.6120805  67.5055273
  16.3339261  57.2473148  68.6510402  16.2248069  57.0525804  67.8993857
  18.6323575  59.9503267  67.4751217  18.9146818  59.1554673  67.2537972
  19.3609735  60.4283855  67.4956278  18.7813139  59.9037864  67.4454232
  16.6104769  47.4926301  64.7166982  16.2808099  47.9437445  64.0470680
  15.9349770  47.4142465  65.2639988  16.4615205  47.5477437  64.6990205
  22.2275177  56.8631531  57.5756268  22.1426472  57.7192498  57.7205837
  22.7159560  56.5875855  58.2438427  22.2864074  56.9488852  57.6958349
  23.8181176  43.4811824  62.9616592  23.5034617  44.1715303  63.3937015
  23.3008118  43.4256606  62.2602093  23.6945647  43.5746713  62.9213542
  23.1593610  53.4816325  59.0754003  22.6305082  53.6975959  59.7351309
  23.6818630  54.1752464  58.9954972  23.1582063  53.6159462  59.1609602
  28.6141663  59.0562630  64.4487047  27.7839366  59.2673273  64.6120464
  28.5650915  58.2299684  64.1729331  28.4848399  58.9652236  64.4324413
  15.0493218  57.3779542  57.8761471  14.4650433  57.8829573  58.2827335
  14.6463313  57.1521929  57.1358063  14.9032522  57.4187790  57.8266496
  10.6037247  63.0934303  64.6785142  10.1204825  63.8184793  64.6544726
  11.4160565  63.3910433  64.7895300  10.6527994  63.2436657  64.6912422
  16.6751401  61.8866484  67.2834957  16.1578342  61.5273899  66.6796265
  17.3725792  61.3628658  67.2941023  16.7016982  61.7564172  67.1965216
  20.3314993  62.3361298  73.2451130  20.4198339  62.1487438  74.0929340
  20.7604705  61.6898727  72.8455977  20.4077095  62.2124306  73.3122881
  19.5070432  53.6245194  56.3530392  19.7466436  53.8323178  55.5405735
  19.8286273  52.8202703  56.4619336  19.5907590  53.5359295  56.2490945
  14.8160723  45.5538590  60.1989929  15.5706691  45.9216907  59.9606980
  14.6388257  45.9278144  60.9669109  14.9015201  45.6636778  60.2774818
  13.4581444  63.6090479  64.8305422  14.1602023  63.0942468  64.8878179
  13.3778927  63.9364630  65.6352297  13.5505204  63.5804705  64.9578215
  28.1095621  51.7033030  68.2437469  27.2724043  51.7735217  68.4785063
  28.0783852  51.7057525  67.3711771  27.9813904  51.7143257  68.1497017
  14.5060350  53.8466066  73.9585837  14.6780854  53.7371961  74.8071119
  15.0429708  54.4920471  73.7217030  14.6105354  53.9258068  74.0490934
  13.1717787  47.9608909  56.8968042  12.9893361  48.1780790  56.0709035
  14.0343400  48.0747921  56.9526657  13.2722377  48.0098807  56.7822529
  12.7832219  59.7996831  64.3391030  13.6221119  60.0319764  64.3864792
  12.8143989  58.9301142  64.2698066  12.9113937  59.7053777  64.3355675
  13.4084922  60.2197706  68.6404336  13.9483147  60.0768837  69.3107708
  12.7254869  60.6194457  69.0088362  13.3877076  60.2577377  68.7938758
  18.8517507  44.9635319  59.9317066  19.5803667  44.7851274  59.4855223
  18.9412399  45.8053399  60.1424244  18.9724169  45.0619198  59.8970584
  22.8325807  55.8988707  63.8349360  23.5883322  56.3320221  63.8738269
  22.9388132  55.2493477  64.4083996  22.9595978  55.8666191  63.9247386
  25.8705978  59.7261984  64.5851763  25.4341210  59.7298726  65.3410735
  25.5368894  60.4067483  64.1531341  25.7568598  59.8274440  64.6332596
  25.7903461  46.7675812  66.8281191  26.4329370  46.8373916  67.4143106
  26.0426482  46.1005035  66.3260733  25.9225593  46.6802161  66.8408470
  12.7179814  51.2383081  55.4090516  12.0037992  50.9521261  55.8212948
  13.2023783  51.5779707  56.0496903  12.6839178  51.2464731  55.5646150
  13.5620674  49.9776375  71.4405765  12.8692471  49.5073355  71.6866497
  14.1781001  49.7514680  72.0147472  13.5505204  49.8743507  71.5614918
  20.6005445  63.6780419  69.5561369  19.8020691  63.4379919  69.8135238
  21.0491457  63.7294812  70.3028417  20.5480057  63.6502810  69.7046293
  29.0050325  56.4442904  63.4771400  29.6666759  55.8833572  63.3767309
  28.3641737  55.9494935  63.8024092  29.0079192  56.2879313  63.5103741
  19.8927132  59.7413035  55.7852324  20.3078281  59.4098059  55.0936819
  19.0619062  59.5081938  55.6572460  19.8315141  59.6584291  55.6643171
   9.2215481  57.2256776  66.0750502   9.0391054  57.2003662  65.2222794
   9.9565150  57.6955714  66.1139410   9.3029545  57.2918139  65.9548420
  25.2915155  57.4608286  63.2183389  25.5270744  57.6053485  62.3910240
  25.4404719  58.2250694  63.6114903  25.3480959  57.5947341  63.1546993
  12.2861233  53.9441779  72.5832610  13.0101205  53.9294810  73.0697505
  12.3877369  54.6537134  72.0854579  12.4079442  54.0466482  72.5811397
  27.1205612  56.3009952  61.0552993  27.4513829  56.8337592  60.4493088
  27.6938700  56.3548840  61.7114944  27.2539291  56.3879521  61.0630775
  22.3337501  54.1474855  61.7376573  22.4284356  54.8864149  62.1916199
  21.7096345  53.7192330  62.1711138  22.2546531  54.1936176  61.8684721
  20.5889975  57.3261068  72.3866854  21.1628837  56.6888312  72.5415418
  20.5104779  57.3265150  71.5176512  20.6623210  57.2326179  72.2813265
   9.1886391  54.1050277  66.2249568   9.7659894  53.9686728  66.8641814
   8.4900453  53.6486061  66.4795153   9.1707413  54.0172543  66.3571858
  22.5860522  55.9923595  54.9713525  22.5040685  56.0625782  55.8368512
  23.2240243  56.5553339  54.7797266  22.6680360  56.0862566  55.0703475
  15.9453694  55.7584333  64.4388051  15.6872938  54.9256068  64.4119351
  16.0002176  55.9841946  63.5980552  15.9153471  55.6682104  64.3108188
  21.0254744  47.8612783  64.5392144  20.3211070  47.3721969  64.6976063
  21.0739718  47.8735258  63.6680589  20.9284795  47.7902431  64.4331484
  14.9188406  53.3122095  64.9252946  14.3437997  53.4714264  65.5616907
  14.5424082  52.6757504  64.4621397  14.7791218  53.2419908  64.9507505
  18.5861694  51.7845444  69.7845325  18.1976127  51.3599662  69.1297516
  17.9216393  52.0327594  70.2922351  18.4308622  51.7584166  69.7633193
  28.2284964  51.5420449  62.5593155  27.9721528  50.7300391  62.3691037
  29.0714277  51.5498016  62.3323342  28.3150989  51.4232447  62.4977972
   4.6645225  52.9562170  62.9397387   4.7505476  52.5794038  63.7210917
   5.2921022  52.5822616  62.4617345   4.7701776  52.8447652  62.9842864
  22.4088056  45.4820073  67.2969309  22.7898568  44.7998244  67.6837183
  21.6051340  45.1929675  67.1144973  22.3464518  45.3387122  67.3273365
  19.6900633  56.0144049  57.9822132  20.5041271  56.3058942  57.8704903
  19.6259774  55.3603911  57.4080425  19.8003372  55.9609244  57.8810969
  25.9110123  58.6970045  72.3951707  25.6748760  57.8658110  72.2763768
  26.5553352  58.6455652  72.9806551  25.9704794  58.5667733  72.4637601
  15.5608541  59.4865566  63.1094444  16.1982488  59.2477314  63.6546237
  15.9863612  59.6902725  62.3747604  15.7184707  59.4816577  63.0811601
  16.2011356  54.7067856  57.4469333  16.5856509  54.4875563  58.1985878
  15.9522976  55.5330802  57.5770409  16.2213429  54.7966003  57.5770410
  16.3679896  47.9874271  77.1631917  16.0533337  48.7573834  76.9001480
  16.0469829  47.4244528  76.5784144  16.2738815  48.0184540  77.0373267
  26.9346543  58.4814494  68.4580002  26.6292360  59.2142551  68.8193317
  26.2152759  58.0752423  68.1772788  26.7833886  58.5296227  68.4693139
  17.9430013  59.9637989  64.7888230  18.0169021  59.8013161  65.6430080
  18.7599519  60.1528179  64.5448712  18.0746371  59.9674731  64.8786256
  32.6348336  55.1207495  67.7848346  32.5672836  55.1403454  66.9150933
  32.6203998  55.9637822  68.0104017  32.6227092  55.2481229  67.6900823
  11.7035770  60.3095852  61.8182673  10.8773887  60.5557589  61.6916952
  11.7647761  60.2307933  62.6844732  11.5909937  60.3340801  61.9271618
  13.9211793  46.3764793  62.7778114  13.0534219  46.4487392  62.8435723
  14.2086998  47.1786872  62.9666089  13.8351541  46.5058940  62.8152880
  23.0444682  46.5242652  71.1089435  23.7898274  46.3352463  70.6952861
  22.6281987  47.0500890  70.5503292  23.0929656  46.5744798  70.9654009
  16.4834599  62.9272732  59.5201703  16.7732897  62.5361714  58.7960930
  17.2138079  63.1089437  59.9606979  16.6341483  62.8966546  59.4784510
  30.4206953  53.8951881  66.0594940  30.9714874  53.2619950  66.2992032
  30.4051068  54.4267274  66.7510445  30.4992149  53.8800829  66.1973799
  17.0729344  57.7290478  70.6054834  16.5741037  58.4406246  70.6839722
  17.8829568  58.0491145  70.5672996  17.1185450  57.8817327  70.6111402
  14.4240514  64.9040115  62.5861853  14.2040810  64.6137469  63.3788520
  14.2035036  64.2455070  62.0579765  14.3588108  64.7639823  62.6250762
  13.3357461  56.9913431  64.8517555  13.0470710  56.3650902  65.3863282
  14.2040809  56.9333719  64.9182235  13.4217713  56.8900975  64.9408509
  24.1235359  52.1348214  65.1699537  23.7800125  51.4138550  65.5206786
  24.2228402  51.9262066  64.3277895  24.0877402  51.9972418  65.0971217
  16.5908470  66.2769505  61.3692545  17.2432528  65.7445947  61.5983572
  15.8934079  65.9238157  61.7560420  16.5839188  66.1459028  61.4604713
  13.5389735  58.6308682  60.7759920  14.2935703  59.0121721  60.9895382
  12.9460347  59.0819826  61.2306616  13.5626448  58.7537510  60.8742798
  24.5848388  58.5973919  60.7123525  25.1506421  59.2567128  60.6282068
  23.9376292  58.9423617  61.1839927  24.5727145  58.7455860  60.7696281
  15.9996402  50.5871523  75.9017132  15.1896177  50.8929302  75.7906974
  16.4771088  51.3077105  76.0169716  15.9499881  50.7386124  75.9024203
  14.8587961  59.8017244  66.1500035  14.3368715  59.9417535  66.8351900
  15.2461982  59.0427908  66.3402153  14.8391662  59.7102767  66.2801112
  11.8479145  49.8523052  60.2194990  11.5603941  49.4824323  59.4826937
  12.5349614  50.3217908  59.9578695  11.9068043  49.8670022  60.0710066
  21.0554966  61.5412703  60.1360604  20.8141642  60.8080563  59.7287669
  21.2356299  62.0899560  59.4826937  21.0462590  61.5135094  59.9790827
  16.2854287  56.8321263  61.5481526  16.0897070  57.4395997  60.9541829
  16.5088633  56.1389207  61.0673200  16.2888928  56.8198788  61.3897607
  14.6832817  53.7176000  61.6662395  15.4055469  53.8817159  61.2066201
  14.2040810  54.4385665  61.5601734  14.7196548  53.8474230  61.5828009
  22.6426325  50.0539799  67.0459080  21.8037425  50.0801078  66.8097343
  22.7130692  50.7010535  67.6264426  22.5294718  50.1535925  67.0968196
  21.0895603  46.9525176  61.7786695  21.7921956  46.7532925  61.3006654
  20.8239792  46.1801119  62.0855539  21.1542235  46.8088142  61.7532137
  26.5183848  55.2607786  64.3320321  26.4317823  55.4163212  65.1855100
  26.0634328  55.9045862  63.9579726  26.4387105  55.3783541  64.4027428
   9.4207340  50.6304265  61.0680271   9.5223476  51.4330426  61.3961246
  10.2163227  50.4291601  60.7703351   9.5535246  50.7190164  61.0715626
  15.8524159  48.2160461  70.8317576  15.6607356  48.2315596  71.6817000
  16.7022755  48.4124136  70.8084231  15.9499881  48.2474813  70.9540871
  10.2371072  50.7451443  68.8101392  10.0956564  49.8935384  68.9345900
  10.5211635  50.7880104  67.9863599  10.2578918  50.6251193  68.7069017
  20.3909664  52.5818533  62.9545881  20.1444379  52.5014284  63.7882670
  20.7194788  51.7972001  62.7608408  20.4030908  52.4544798  63.0493404
  24.2857713  59.2901892  66.7432662  24.1472073  59.9882938  67.2481404
  23.5057711  59.1350549  66.3868844  24.1500940  59.3702059  66.7658936
  22.6235798  55.5898268  72.9955044  22.6183837  54.7178084  72.9997470
  23.3296792  55.7886437  72.5224499  22.7280802  55.4902142  72.9262079
  16.3506692  55.3175252  72.3668864  16.4950067  55.8976460  71.7311974
  16.6982340  55.6951548  73.0718718  16.4234153  55.4595956  72.3767859
  18.5226609  54.5165420  70.1493995  17.7749923  54.7096434  69.7442274
  18.6768134  53.6910640  69.9118117  18.4349037  54.4230531  70.0539401
  15.4234447  63.5078024  69.2329891  15.5724010  62.9480939  68.5803295
  16.2034449  63.5870025  69.6162410  15.5608540  63.4363589  69.1926840
  25.7811086  58.6480146  57.5049161  25.4017895  57.8617284  57.4978451
  25.1177332  59.1967003  57.3620805  25.6269561  58.6124970  57.4829958
  17.9487747  63.6792666  70.5114382  17.8731418  63.0101477  71.0665170
  17.8777606  64.3810455  71.0255048  17.9268354  63.6837574  70.6691230
  18.7628386  48.4115971  71.0389399  19.2201000  49.1439945  71.1662191
  18.8384715  47.9882436  71.7976655  18.8419356  48.4573209  71.1690476
  11.0061377  48.6581791  72.1278843  10.4703567  48.0462149  72.4439610
  11.0679142  49.2329927  72.7812510  10.9357010  48.6528718  72.2714270
  23.2355712  41.5905846  64.9083242  23.3539280  42.0482309  64.1750545
  23.0617888  40.7851107  64.6219460  23.2274883  41.5399618  64.7584176
  18.6057994  62.1993665  61.3437987  19.3707885  61.9303309  61.0220652
  18.5036084  61.7143676  62.0608050  18.7039490  62.0883230  61.4017815
  16.6410764  50.4018075  67.8831223  15.8506839  50.2209535  68.2048559
  17.0371387  49.6245027  67.8661518  16.5827640  50.2605536  67.9283772
  21.1276655  59.2305849  53.3237937  21.8949640  59.2905974  52.9143789
  20.6807964  58.6586290  52.8394255  21.1750082  59.1542425  53.1915647
  22.0254450  58.0360505  65.6090669  21.3499452  57.8045737  66.1104056
  22.0346826  57.4281688  64.9832774  21.9272955  57.9119430  65.5906821
  19.1548594  52.8778334  72.3654722  19.0907736  53.7388290  72.2374859
  19.2945782  52.5610327  71.5650273  19.1664064  52.9578500  72.2282935
  24.0271185  60.8925637  57.8400847  24.1091022  61.6992623  57.5162298
  24.5120927  60.9121596  58.5641621  24.1108343  61.0146300  57.8987746
  17.8367688  55.5710473  66.5070925  17.4129937  55.7714972  65.7709943
  17.6612543  54.7239321  66.6195225  17.7478569  55.4759255  66.4144615
  13.1250133  56.0662525  61.9398898  13.2814752  56.0009327  62.7954890
  13.4650726  56.8411077  61.7277577  13.1983368  56.1711723  62.0353492
  19.6629278  55.4420408  60.8092261  20.2044823  54.9390789  61.2730881
  19.9775837  55.3885603  59.9981746  19.7893675  55.3599829  60.7576073
  23.5346385  59.6523056  77.9219173  24.3481250  59.3808204  78.0824305
  23.3741352  59.3530596  77.1179369  23.6316334  59.5677982  77.8264579
  17.8315727  60.8337760  58.0932289  17.9008548  59.9752298  58.2325289
  18.6104183  61.0509641  57.7651313  17.9568578  60.7390624  58.0649446
  20.8118547  50.3356713  70.8614561  21.0260517  49.6967627  70.3077915
  20.1952446  50.7802537  70.4322423  20.7523876  50.3066856  70.7164992
  22.2223215  63.2575461  62.3068782  21.8303007  62.9542176  61.5891648
  22.3776287  64.0944551  62.1173736  22.1876805  63.3359298  62.1725279
   9.6984395  53.2497475  62.2559665  10.0783360  53.6682020  61.5919932
   9.1239759  53.8310931  62.5628508   9.6695720  53.3975334  62.2036406
  22.9757635  51.9445778  71.7997868  22.1634317  51.6371668  71.8811041
  23.4347570  51.4644778  72.3640581  22.9238020  51.8282270  71.8952462
  22.3862890  59.8225450  62.2474813  22.0277545  59.9940093  63.0238845
  21.9001601  60.2838656  61.6902811  22.2621587  59.9164421  62.2800082
  20.2033276  43.4456648  65.8501904  19.3326834  43.4195369  65.8035214
  20.4573617  43.2733841  65.0327750  20.1126836  43.4166792  65.7222041
  17.1751255  55.5024615  54.7875047  17.4643780  56.2789498  55.0618621
  17.2623054  54.9913347  55.4889546  17.2305511  55.5416534  54.9317545
  20.0711143  53.3505849  76.5826571  20.5410774  53.9747966  76.9694445
  20.1173023  52.6822825  77.1419785  20.1479019  53.3440530  76.7226642
  17.2282416  45.4562877  67.3075374  16.7120905  44.7643068  67.4326953
  16.6676345  46.1233654  67.2537973  17.0688930  45.4526134  67.3181440
  19.2974650  45.9955837  69.1368227  18.9106403  46.0204868  69.9181757
  18.8107587  45.4297516  68.6842744  19.1687159  45.9151588  69.1856131
  23.5467629  60.7129346  73.1942014  24.1847350  60.2189541  72.8604470
  22.9041721  60.6406746  72.6094240  23.5461856  60.6288354  73.0584369
  25.2724629  52.5618492  67.7607929  24.8452237  52.4744840  67.0056029
  24.6350682  52.6696267  68.3462773  25.1154237  52.5651152  67.7353371
  18.9631791  42.8822822  71.4278487  19.5924909  43.4183122  71.1499557
  19.1317654  42.7900181  72.2792053  19.0809586  42.9484185  71.5127015
  18.7645706  47.6694017  73.7004898  19.5919136  47.3979166  73.7563513
  18.7853552  48.4654859  74.0568717  18.8898556  47.7473771  73.7620081
  23.6021886  61.4049154  69.8347370  24.3914264  61.0538219  69.9549452
  23.7765484  62.2185543  69.5724004  23.7442167  61.4735011  69.8135238
  13.3415196  54.8157880  66.8875159  12.5003203  54.7161754  67.0954053
  13.5505204  55.5853360  67.2389480  13.2479889  54.9149923  66.9702474
  10.8190763  52.4377417  64.7159910  10.4247461  52.5120429  63.9410019
  10.2630880  52.8235363  65.2668272  10.6793576  52.5059191  64.6827570
  22.4555710  45.4158711  64.3963789  22.6605303  45.3481019  65.2420786
  22.1282134  46.2217532  64.3284966  22.4370958  45.5244651  64.5123444
  17.1531861  52.7439279  66.1372757  16.8494999  52.1895267  66.7383164
  16.4511282  52.9231489  65.6500791  17.0048071  52.6884061  66.1542462
  16.2097958  50.0539799  60.7017459  16.4857693  49.3358711  60.2895026
  16.8096627  50.6524719  60.4938565  16.3391223  50.0360170  60.6098220
  25.7089398  45.9690475  63.8766554  25.0963711  46.4560877  64.2620286
  25.8053573  45.2933966  64.4204205  25.6327295  45.9408784  64.0145412
  19.7108479  47.7253316  58.9764054  20.1652225  47.8963877  59.7011898
  20.1848524  47.1121427  58.5761829  19.8476799  47.6604201  59.0237815
  13.2324004  57.2101642  68.3066792  12.6411937  57.8511140  68.2769807
  13.9945028  57.6339259  68.2798092  13.2572265  57.3677481  68.2981939
  13.6284627  48.3703640  68.9734810  14.0886108  48.4442569  69.7109933
  13.6740734  49.1684894  68.6234631  13.7035182  48.4997787  69.0307566
  15.2767977  49.0370335  73.5406837  14.8853542  48.3903682  73.9762615
  15.4453839  49.6281770  74.1601092  15.2438887  49.0284603  73.6969543
  29.3514426  57.0407412  69.3044070  29.4097549  57.4894061  70.0504047
  28.7180893  57.4506225  68.8674150  29.2665721  57.1681147  69.3496619
  22.9913520  62.6610954  65.7398816  22.7933209  63.1501768  65.0455028
  22.3701231  62.8652195  66.3182950  22.8701085  62.7627492  65.7222040
  17.0521499  54.4295851  60.0809061  17.7963544  54.8170127  60.3192011
  17.1982195  53.5853276  60.2449549  17.1832084  54.3626323  60.1403030
  18.9701074  46.2246109  65.1140922  18.1237119  46.3968917  64.9882272
  18.9672207  45.4195453  65.4506751  18.8448224  46.1307138  65.1452049
  20.0399375  50.0021324  65.9802980  19.5659329  49.4763086  66.4908291
  20.4117510  49.4550797  65.4117842  20.0249263  49.8437320  65.9718127
  10.4172405  51.9992831  71.3486526  11.2798018  51.8988540  71.2623856
  10.0864188  51.4187540  70.7872098  10.4957601  51.8984457  71.2531932
  26.3036105  55.0623700  67.3909761  26.0634328  54.2230115  67.3952187
  26.7828112  55.1423866  68.1150534  26.3388289  54.9505099  67.4984563
  21.9682874  50.8957878  59.0428734  21.4405893  50.9786622  58.3534443
  22.4278582  51.6375750  59.0393379  21.9584725  51.0178541  58.9403429
  28.3041292  51.8425157  65.3439020  28.0651062  51.8020991  64.5059804
  28.4675193  52.6896309  65.4704741  28.2931596  51.9617242  65.2392502
  24.9087322  56.2275106  71.2744065  25.6321521  55.7747632  71.0955085
  24.6437285  56.5079772  70.4916393  24.9768596  56.2026075  71.1322780
  13.7774191  50.8235280  68.0096944  13.1527261  50.8353672  67.4022897
  13.4419786  51.2995455  68.6588184  13.6359682  50.8953797  68.0153513
  13.9615939  49.1660398  54.0669629  13.6128744  49.8180123  54.5301178
  13.4812385  49.1517511  53.3393500  13.8386183  49.2603452  54.0280720
  21.5219957  59.4661442  58.1738391  22.2454156  59.9319555  58.0302964
  21.0820548  59.5335052  57.4235988  21.5635649  59.5445279  58.0423172
  20.6906112  56.3258984  69.4239080  20.0763105  55.7817035  69.7187715
  21.2073397  55.8123221  68.9444896  20.6761774  56.1695393  69.3963308
  19.9302409  57.3963254  67.1583379  19.5030017  56.7712973  66.7248814
  19.9227353  57.1138176  67.9842386  19.8661550  57.2616035  67.2163206
  13.0464936  52.4328427  70.2271813  13.2058423  51.6771752  70.6323534
  12.8657830  52.9819367  70.8812550  13.0430295  52.4022241  70.3834519
  20.9885239  44.5989663  70.7822602  20.4925800  44.7953337  70.0914169
  21.7454301  44.9982331  70.6111404  21.0272064  44.6867397  70.6542739
  18.2588119  48.2732009  67.3725913  18.2830606  47.7392121  66.6838693
  18.5099592  47.7649318  68.0351503  18.2998037  48.1192913  67.3690557
  14.5389441  47.0002827  66.7531657  14.5787812  47.5012034  67.4666364
  13.7139105  47.0913221  66.4837580  14.4228967  47.0884643  66.8182195
  15.9603804  53.5163337  69.0505556  15.1295734  53.6837155  68.8440804
  15.9055321  53.1399288  69.8354441  15.8293219  53.4853068  69.1354084
  13.7687587  47.0072230  74.6861967  14.3940291  46.4634363  74.9591399
  13.3138067  46.5267147  74.1169757  13.7935848  46.8561711  74.6423560
  14.3339848  51.7918928  59.5795674  14.4742809  52.2891393  60.2824315
  14.8322381  51.0905223  59.7209887  14.4280929  51.7620907  59.7047253
  14.3640070  52.6586040  56.9088250  14.9985150  53.2546465  56.8437712
  14.4465681  52.3589497  57.7234121  14.4696621  52.7026948  57.0191337
  27.3422636  55.1901517  69.7774615  27.9340476  55.8298768  69.8092813
  27.7781631  54.4924554  70.0666681  27.4941067  55.1819867  69.8255447
  15.9419053  48.5900015  56.8833692  16.2634894  48.1103097  56.2292955
  16.2045997  49.3999661  56.6924504  16.0285079  48.6389913  56.7589184
  19.1716026  59.6118889  70.4032509  18.6641117  60.1654736  70.8473139
  18.8742672  59.6727179  69.5851283  19.0520911  59.7025200  70.3480965
  21.3378208  47.9772209  69.2457172  21.7633280  47.5244735  68.6340698
  20.7235201  47.4232280  69.5221959  21.3106854  47.8286185  69.1962197
  10.8693058  54.8553880  60.1777796  11.3785288  55.4518388  60.5589102
  11.3427331  54.5879854  59.4954216  11.0136434  54.9039696  60.1332319
  21.7823806  63.5282147  58.3336452  21.0653116  63.3543009  57.8683689
  22.4330544  63.2934719  57.8011938  21.7725657  63.4677939  58.1865670
  19.7772431  44.4487309  62.6547749  19.1340749  44.2984955  63.2232887
  19.4371838  44.2029654  61.8896853  19.6317508  44.3899431  62.6250764
  24.3671778  52.4046735  62.0777757  23.6962967  52.9476438  61.9490823
  25.0611528  52.8741591  61.8359452  24.3700645  52.5545007  62.0233285
  18.4158511  64.5443447  67.3089515  18.1924166  63.7862277  67.6773542
  17.9268355  64.5741469  66.5869955  18.3101960  64.4365672  67.2566256
  24.5299905  48.8602619  64.9868130  24.8827515  48.4332342  65.6613929
  23.6714707  48.7753463  65.1169207  24.4549350  48.7847360  65.1063141
  13.2283590  51.4910139  63.0450977  12.5095579  51.9074271  63.3123840
  13.5995952  52.0564378  62.4942615  13.1775522  51.6359420  63.0033784
  22.5283171  52.1237988  68.9352973  22.5081098  51.9421283  69.7887751
  22.5762372  52.9950006  68.9112556  22.5317812  52.2254526  69.0576267
  20.4729501  58.7125180  74.8601449  20.4325356  58.0674857  74.2746605
  21.2852819  58.6561797  75.1726861  20.5872654  58.6084147  74.8198398
  17.0636968  64.7643906  64.7626600  16.6497367  64.1018036  64.3730442
  17.7484343  64.9121764  64.2422294  17.1035340  64.6884564  64.6283097
  20.4302262  63.9233991  65.5150217  20.0318546  64.0336261  64.7471037
  19.8153482  64.1316057  66.0976776  20.2801152  63.9707559  65.4881516
  19.0030164  50.5308139  58.3824356  18.4095004  50.8525135  57.8308923
  19.0405442  49.6849234  58.1745462  18.9204554  50.4532467  58.2707128
  25.9623965  43.9821031  65.9152443  25.4554830  43.2750171  65.8473620
  26.7591399  43.6514220  66.0453519  26.0051204  43.8294182  65.9251438
  21.8787981  50.4887643  61.8126107  21.6501674  50.5120345  60.9704465
  22.1386057  49.6645110  61.9321117  21.8834169  50.3703723  61.7051304
  16.1607209  52.3422116  71.4151207  15.6486113  51.7343299  71.7736238
  15.9886706  53.0578709  71.8825183  16.0596846  52.3585416  71.5367430
  14.9332743  49.0264190  63.1080302  15.4090110  49.3881269  62.4730483
  14.4321343  49.6820657  63.3880445  14.9298102  49.1758378  63.0557043
  28.1644105  58.4985958  58.8993307  28.5477711  59.2477314  59.1291404
  27.3688218  58.7451777  58.6405296  28.1037887  58.6455651  58.8950881
  20.0376280  50.2646361  73.8553462  20.5947710  50.0360170  73.2231928
  19.7137345  51.0252027  73.5788675  20.0722690  50.3430198  73.7209959
  17.7559397  53.3514014  74.8205469  18.5070724  53.6665691  75.1345024
  17.9481974  53.1493185  73.9939391  17.8950811  53.3681396  74.7448865
  16.9759397  51.1705389  56.4753686  17.3558361  51.1885018  55.6904801
  16.2351993  51.6159378  56.3544533  16.9228234  51.2387164  56.3417254
  24.6044687  49.4787581  62.0629265  24.6038914  49.3236237  62.9213541
  24.4000867  50.3250568  62.0070650  24.5744465  49.5808201  62.1817204
   6.6661958  52.9027365  66.4788081   6.4883719  52.4503974  67.2042997
   6.3780980  53.7053526  66.6626559   6.5974911  52.9549923  66.6131584
  22.3285539  54.1585082  65.7165472  22.8239205  53.4408077  65.6769492
  21.5185315  53.8555880  65.6019959  22.2829433  54.0082729  65.6939198
  17.7744151  58.0082896  57.8662476  16.9655473  57.6849569  57.8195786
  18.2819060  57.3016118  57.7990725  17.7293818  57.8564212  57.8492771
   8.4034428  55.4355089  63.5909840   7.5379947  55.4240779  63.4792612
   8.5033244  55.2485312  64.4380980   8.2908595  55.4061150  63.6998785
  24.3937358  56.9088770  68.4042600  24.8192430  56.3863192  67.8513026
  24.0294278  57.5069607  67.8831223  24.4023961  56.9198997  68.2451610
  14.0291438  65.2052987  67.1639946  14.3437997  66.0189376  67.1717728
  14.4384851  64.8203206  67.8322105  14.1359536  65.2681690  67.2644038
  20.9815958  60.6223034  64.7343758  21.4527136  61.3363297  64.9033743
  21.3176136  60.0221784  65.2703627  21.1011073  60.6394498  64.8376134
  17.8985453  45.3950505  71.6901853  18.0313358  44.5981498  72.0182828
  18.2830605  45.9216908  72.2700128  17.9741781  45.3550421  71.8245356
  21.6189904  60.4140968  71.4971451  21.0710850  59.7898852  71.2291516
  22.0802933  60.6035240  70.7815530  21.6057113  60.3500018  71.3521882
  20.9717808  42.3180831  68.2882946  20.1663771  42.2078560  68.6050784
  20.8424543  42.4193286  67.4312812  20.8337941  42.3164501  68.2090986
  24.4283768  48.4826323  68.8822643  23.8446757  48.9835529  68.4700210
  24.7488062  47.9755879  68.2486966  24.3896944  48.4818158  68.7281150
  16.9678567  47.3966917  59.1581318  17.7894262  47.5665230  58.9163013
  16.5048218  47.5514178  58.4347615  17.0209730  47.4448650  59.0152962
  15.5573899  45.3909680  69.9379747  16.1018312  45.0500807  70.5284088
  15.6110835  46.2495141  70.0801031  15.6463019  45.4664939  70.0461620
  11.3704458  59.1526096  66.8118554  11.9749315  59.1121930  66.1832375
  11.1631771  59.9997248  66.8422610  11.4293355  59.2714098  66.7234671
  21.1848230  61.4192041  68.0280792  22.0046604  61.2755007  68.2897087
  20.9042308  62.0438240  68.5697230  21.2644974  61.4902393  68.1468731
  37.6561881  69.0756893  60.9923668  37.6255885  69.9301529  61.1641938
  38.2543229  68.7752185  61.5509812  37.7399038  69.1573389  61.0998470
  30.8561565  68.1632544  65.7476599  29.9999461  68.3241042  65.7985715
  30.9029219  67.2924608  65.7681660  30.7360677  68.0583345  65.7582665
  33.7013386  70.2224588  68.3908250  34.2469346  70.9009674  68.4502220
  33.6430263  70.0812048  67.5309832  33.7729301  70.3016589  68.2720311
  35.4778455  71.6509195  59.2641978  35.3617981  72.4016881  59.6934116
  36.2734342  71.3933148  59.5138065  35.5783045  71.7244042  59.3646070
  20.0152506  73.7333940  63.4028936  19.7802690  72.9001593  63.2961205
  20.1538146  74.0138606  62.5890137  20.0008168  73.6517444  63.2671291
  22.3142593  65.9019671  66.3013244  21.6947625  65.3112318  66.1323259
  22.2126457  66.4931106  65.6677567  22.2080269  65.9023753  66.1818234
  27.3608781  75.6403218  60.5511320  27.6824622  76.1808425  59.9472628
  28.0080877  75.0699989  60.6833610  27.5034836  75.6362393  60.4818356
  29.4110489  67.6419213  60.6345707  30.1090653  67.8207340  61.1267170
  29.7262821  67.1189552  60.0116096  29.5605826  67.5912985  60.6147717
  22.0411726  69.4471953  68.5456813  21.9170423  70.0334398  69.1806632
  22.6930011  68.9532148  68.8469088  22.1185375  69.4610757  68.6842742
  29.5998424  74.0289658  60.6225499  30.0392060  73.4206758  61.0680271
  29.4503087  73.6497031  59.8510964  29.6419890  73.8828129  60.5744666
  27.0670067  72.6233669  67.8244324  27.7119070  72.1306113  67.5055273
  27.3071844  72.7658456  68.6510402  27.1980652  72.5711112  67.8993857
  29.6056158  75.4688575  67.4751217  29.8879401  74.6739981  67.2537972
  30.3342319  75.9469163  67.4956278  29.7545722  75.4223172  67.4454232
  27.5837352  63.0111609  64.7166982  27.2540682  63.4622753  64.0470680
  26.9082354  62.9327773  65.2639988  27.4347789  63.0662744  64.6990205
  33.2007761  72.3816839  57.5756268  33.1159056  73.2377806  57.7205837
  33.6892144  72.1061163  58.2438427  33.2596658  72.4674160  57.6958349
  34.7913760  58.9997132  62.9616592  34.4767201  59.6900611  63.3937015
  34.2740702  58.9441914  62.2602093  34.6678230  59.0932021  62.9213542
  34.1326194  69.0001633  59.0754003  33.6037665  69.2161267  59.7351309
  34.6551214  69.6937772  58.9954972  34.1314647  69.1344770  59.1609602
  39.5874247  74.5747938  64.4487047  38.7571950  74.7858581  64.6120464
  39.5383499  73.7484992  64.1729331  39.4580982  74.4837544  64.4324413
  26.0225802  72.8964850  57.8761471  25.4383017  73.4014881  58.2827335
  25.6195897  72.6707237  57.1358063  25.8765105  72.9373098  57.8266496
  30.4803016  69.1430502  56.3530392  30.7199020  69.3508486  55.5405735
  30.8018857  68.3388011  56.4619336  30.5640174  69.0544603  56.2490945
  25.7893306  61.0723898  60.1989929  26.5439274  61.4402215  59.9606980
  25.6120841  61.4463452  60.9669109  25.8747785  61.1822086  60.2774818
  39.0828205  67.2218338  68.2437469  38.2456626  67.2920525  68.4785063
  39.0516436  67.2242833  67.3711771  38.9546487  67.2328565  68.1497017
  25.4792934  69.3651374  73.9585837  25.6513438  69.2557268  74.8071119
  26.0162292  70.0105779  73.7217030  25.5837938  69.4443376  74.0490934
  24.1450371  63.4794217  56.8968042  23.9625944  63.6966097  56.0709035
  25.0075984  63.5933229  56.9526657  24.2454960  63.5284115  56.7822529
  23.7564803  75.3182139  64.3391030  24.5953702  75.5505072  64.3864792
  23.7876572  74.4486450  64.2698066  23.8846521  75.2239085  64.3355675
  29.8250090  60.4820627  59.9317066  30.5536251  60.3036582  59.4855223
  29.9144983  61.3238707  60.1424244  29.9456752  60.5804506  59.8970584
  33.8058391  71.4174015  63.8349360  34.5615906  71.8505529  63.8738269
  33.9120715  70.7678784  64.4083996  33.9328561  71.3851499  63.9247386
  36.8438562  75.2447292  64.5851763  36.4073794  75.2484034  65.3410735
  36.5101477  75.9252791  64.1531341  36.7301182  75.3459748  64.6332596
  36.7636045  62.2861120  66.8281191  37.4061953  62.3559224  67.4143106
  37.0159066  61.6190343  66.3260733  36.8958177  62.1987468  66.8408470
  23.6912398  66.7568389  55.4090516  22.9770575  66.4706569  55.8212948
  24.1756367  67.0965015  56.0496903  23.6571761  66.7650039  55.5646150
  24.5353257  65.4961683  71.4405765  23.8425054  65.0258663  71.6866497
  25.1513585  65.2699988  72.0147472  24.5237787  65.3928815  71.5614918
  39.9782908  71.9628212  63.4771400  40.6399342  71.4018880  63.3767309
  39.3374320  71.4680243  63.8024092  39.9811776  71.8064621  63.5103741
  30.8659716  75.2598343  55.7852324  31.2810864  74.9283367  55.0936819
  30.0351646  75.0267246  55.6572460  30.8047725  75.1769599  55.6643171
  20.1948065  72.7442084  66.0750502  20.0123638  72.7188970  65.2222794
  20.9297734  73.2141022  66.1139410  20.2762129  72.8103447  65.9548420
  36.2647739  72.9793594  63.2183389  36.5003328  73.1238793  62.3910240
  36.4137303  73.7436002  63.6114903  36.3213542  73.1132649  63.1546993
  23.2593816  69.4627087  72.5832610  23.9833789  69.4480118  73.0697505
  23.3609953  70.1722442  72.0854579  23.3812025  69.5651790  72.5811397
  38.0938196  71.8195260  61.0552993  38.4246413  72.3522900  60.4493088
  38.6671284  71.8734148  61.7114944  38.2271875  71.9064829  61.0630775
  33.3070085  69.6660163  61.7376573  33.4016939  70.4049457  62.1916199
  32.6828928  69.2377638  62.1711138  33.2279115  69.7121483  61.8684721
  20.1618975  69.6235585  66.2249568  20.7392478  69.4872036  66.8641814
  19.4633037  69.1671369  66.4795153  20.1439996  69.5357851  66.3571858
  33.5593106  71.5108903  54.9713525  33.4773269  71.5811090  55.8368512
  34.1972827  72.0738647  54.7797266  33.6412943  71.6047874  55.0703475
  26.9186277  71.2769641  64.4388051  26.6605521  70.4441376  64.4119351
  26.9734760  71.5027254  63.5980552  26.8886055  71.1867412  64.3108188
  31.9987327  63.3798091  64.5392144  31.2943654  62.8907277  64.6976063
  32.0472302  63.3920566  63.6680589  31.9017379  63.3087739  64.4331484
  25.8920989  68.8307403  64.9252946  25.3170581  68.9899571  65.5616907
  25.5156666  68.1942812  64.4621397  25.7523802  68.7605216  64.9507505
  29.5594278  67.3030752  69.7845325  29.1708711  66.8784970  69.1297516
  28.8948976  67.5512902  70.2922351  29.4041206  67.2769473  69.7633193
  39.2017547  67.0605757  62.5593155  38.9454112  66.2485699  62.3691037
  40.0446861  67.0683324  62.3323342  39.2883573  66.9417755  62.4977972
  15.6377808  68.4747478  62.9397387  15.7238060  68.0979346  63.7210917
  16.2653606  68.1007924  62.4617345  15.7434359  68.3632960  62.9842864
  33.3820640  61.0005381  67.2969309  33.7631151  60.3183552  67.6837183
  32.5783924  60.7114983  67.1144973  33.3197101  60.8572430  67.3273365
  30.6633216  71.5329357  57.9822132  31.4773855  71.8244250  57.8704903
  30.5992357  70.8789219  57.4080425  30.7735955  71.4794552  57.8810969
  26.5341124  75.0050874  63.1094444  27.1715071  74.7662622  63.6546237
  26.9596196  75.2088033  62.3747604  26.6917291  75.0001885  63.0811601
  27.1743940  70.2253164  57.4469333  27.5589092  70.0060871  58.1985878
  26.9255560  71.0516110  57.5770409  27.1946012  70.3151310  57.5770410
  27.3412480  63.5059579  77.1631917  27.0265921  64.2759142  76.9001480
  27.0202412  62.9429835  76.5784144  27.2471399  63.5369848  77.0373267
  28.9162596  75.4823297  64.7888230  28.9901605  75.3198469  65.6430080
  29.7332103  75.6713487  64.5448712  29.0478955  75.4860039  64.8786256
  24.8944377  61.8950101  62.7778114  24.0266802  61.9672700  62.8435723
  25.1819581  62.6972180  62.9666089  24.8084125  62.0244248  62.8152880
  34.0177266  62.0427960  71.1089435  34.7630858  61.8537771  70.6952861
  33.6014570  62.5686198  70.5503292  34.0662240  62.0930106  70.9654009
  41.3939537  69.4137189  66.0594940  41.9447458  68.7805258  66.2992032
  41.3783652  69.9452582  66.7510445  41.4724733  69.3986137  66.1973799
  28.0461927  73.2475786  70.6054834  27.5473621  73.9591554  70.6839722
  28.8562152  73.5676453  70.5672996  28.0918034  73.4002635  70.6111402
  24.3090045  72.5098739  64.8517555  24.0203294  71.8836210  65.3863282
  25.1773393  72.4519026  64.9182235  24.3950297  72.4086283  64.9408509
  35.0967943  67.6533522  65.1699537  34.7532709  66.9323858  65.5206786
  35.1960985  67.4447374  64.3277895  35.0609986  67.5157726  65.0971217
  24.5122318  74.1493990  60.7759920  25.2668286  74.5307029  60.9895382
  23.9192931  74.6005134  61.2306616  24.5359032  74.2722817  60.8742798
  35.5580972  74.1159227  60.7123525  36.1239004  74.7752436  60.6282068
  34.9108875  74.4608925  61.1839927  35.5459728  74.2641168  60.7696281
  26.9728985  66.1056830  75.9017132  26.1628761  66.4114610  75.7906974
  27.4503672  66.8262413  76.0169716  26.9232464  66.2571432  75.9024203
  25.8320545  75.3202551  66.1500035  25.3101298  75.4602843  66.8351900
  26.2194565  74.5613216  66.3402153  25.8124246  75.2288075  66.2801112
  22.8211729  65.3708360  60.2194990  22.5336525  65.0009631  59.4826937
  23.5082197  65.8403215  59.9578695  22.8800626  65.3855330  60.0710066
  32.0287550  77.0598011  60.1360604  31.7874226  76.3265871  59.7287669
  32.2088883  77.6084868  59.4826937  32.0195174  77.0320402  59.9790827
  27.2586871  72.3506570  61.5481526  27.0629653  72.9581305  60.9541829
  27.4821216  71.6574514  61.0673200  27.2621512  72.3384096  61.3897607
  25.6565401  69.2361308  61.6662395  26.3788052  69.4002467  61.2066201
  25.1773393  69.9570973  61.5601734  25.6929131  69.3659538  61.5828009
  33.6158908  65.5725107  67.0459080  32.7770009  65.5986386  66.8097343
  33.6863275  66.2195843  67.6264426  33.5027302  65.6721233  67.0968196
  32.0628186  62.4710484  61.7786695  32.7654539  62.2718233  61.3006654
  31.7972375  61.6986427  62.0855539  32.1274819  62.3273450  61.7532137
  37.4916432  70.7793094  64.3320321  37.4050406  70.9348520  65.1855100
  37.0366912  71.4231169  63.9579726  37.4119689  70.8968849  64.4027428
  20.3939924  66.1489573  61.0680271  20.4956060  66.9515734  61.3961246
  21.1895810  65.9476909  60.7703351  20.5267829  66.2375471  61.0715626
  26.8256743  63.7345769  70.8317576  26.6339940  63.7500904  71.6817000
  27.6755339  63.9309444  70.8084231  26.9232465  63.7660121  70.9540871
  21.2103656  66.2636751  68.8101392  21.0689147  65.4120692  68.9345900
  21.4944219  66.3065412  67.9863599  21.2311502  66.1436501  68.7069017
  31.3642248  68.1003841  62.9545881  31.1176962  68.0199592  63.7882670
  31.6927371  67.3157309  62.7608408  31.3763492  67.9730106  63.0493404
  35.2590297  74.8087200  66.7432662  35.1204656  75.5068246  67.2481404
  34.4790295  74.6535857  66.3868844  35.1233524  74.8887367  66.7658936
  27.3239275  70.8360560  72.3668864  27.4682651  71.4161768  71.7311974
  27.6714924  71.2136856  73.0718718  27.3966737  70.9781264  72.3767859
  29.4959193  70.0350728  70.1493995  28.7482507  70.2281742  69.7442274
  29.6500718  69.2095948  69.9118117  29.4081620  69.9415839  70.0539401
  36.7543670  74.1665454  57.5049161  36.3750478  73.3802592  57.4978451
  36.0909915  74.7152311  57.3620805  36.6002144  74.1310278  57.4829958
  29.7360970  63.9301279  71.0389399  30.1933584  64.6625253  71.1662191
  29.8117298  63.5067744  71.7976655  29.8151940  63.9758517  71.1690476
  21.9793961  64.1767098  72.1278843  21.4436150  63.5647457  72.4439610
  22.0411726  64.7515234  72.7812510  21.9089594  64.1714026  72.2714270
  34.2088296  57.1091154  64.9083242  34.3271864  57.5667617  64.1750545
  34.0350471  56.3036415  64.6219460  34.2007467  57.0584926  64.7584176
  27.6143348  65.9203383  67.8831223  26.8239422  65.7394843  68.2048559
  28.0103970  65.1430335  67.8661518  27.5560224  65.7790844  67.9283772
  32.1009238  74.7491157  53.3237937  32.8682223  74.8091282  52.9143789
  31.6540547  74.1771598  52.8394255  32.1482666  74.6727733  53.1915647
  32.9987034  73.5545813  65.6090669  32.3232036  73.3231045  66.1104056
  33.0079410  72.9466996  64.9832774  32.9005538  73.4304738  65.5906821
  30.1281178  68.3963642  72.3654722  30.0640319  69.2573598  72.2374859
  30.2678366  68.0795635  71.5650273  30.1396648  68.4763808  72.2282935
  35.0003768  76.4110945  57.8400847  35.0823606  77.2177931  57.5162298
  35.4853511  76.4306904  58.5641621  35.0840926  76.5331608  57.8987746
  28.8100272  71.0895781  66.5070925  28.3862521  71.2900280  65.7709943
  28.6345127  70.2424629  66.6195225  28.7211152  70.9944563  66.4144615
  24.0982717  71.5847833  61.9398898  24.2547336  71.5194635  62.7954890
  24.4383310  72.3596385  61.7277577  24.1715952  71.6897031  62.0353492
  30.6361861  70.9605716  60.8092261  31.1777407  70.4576097  61.2730881
  30.9508420  70.9070911  59.9981746  30.7626258  70.8785137  60.7576073
  28.8048311  76.3523068  58.0932289  28.8741131  75.4937606  58.2325289
  29.5836766  76.5694949  57.7651313  28.9301161  76.2575932  58.0649446
  31.7851131  65.8542021  70.8614561  31.9993100  65.2152935  70.3077915
  31.1685030  66.2987844  70.4322423  31.7256460  65.8252164  70.7164992
  20.6716978  68.7682783  62.2559665  21.0515943  69.1867328  61.5919932
  20.0972343  69.3496239  62.5628508  20.6428303  68.9160642  62.2036406
  33.9490219  67.4631086  71.7997868  33.1366900  67.1556976  71.8811041
  34.4080153  66.9830086  72.3640581  33.8970603  67.3467578  71.8952462
  33.3595473  75.3410758  62.2474813  33.0010128  75.5125401  63.0238845
  32.8734184  75.8023963  61.6902811  33.2354170  75.4349729  62.2800082
  31.1765859  58.9641956  65.8501904  30.3059417  58.9380677  65.8035214
  31.4306201  58.7919148  65.0327750  31.0859419  58.9352100  65.7222041
  28.1483839  71.0209923  54.7875047  28.4376364  71.7974806  55.0618621
  28.2355638  70.5098655  55.4889546  28.2038095  71.0601842  54.9317545
  28.2015000  60.9748185  67.3075374  27.6853488  60.2828376  67.4326953
  27.6408929  61.6418962  67.2537973  28.0421513  60.9711442  67.3181440
  30.2707233  61.5141145  69.1368227  29.8838986  61.5390176  69.9181757
  29.7840171  60.9482823  68.6842744  30.1419742  61.4336896  69.1856131
  36.2457213  68.0803800  67.7607929  35.8184821  67.9930148  67.0056029
  35.6083266  68.1881575  68.3462773  36.0886820  68.0836460  67.7353371
  29.9364375  58.4008130  71.4278487  30.5657493  58.9368430  71.1499557
  30.1050238  58.3085489  72.2792053  30.0542170  58.4669493  71.5127015
  29.7378290  63.1879325  73.7004898  30.5651719  62.9164474  73.7563513
  29.7586136  63.9840167  74.0568717  29.8631140  63.2659079  73.7620081
  24.3147780  70.3343188  66.8875159  23.4735786  70.2347062  67.0954053
  24.5237788  71.1038668  67.2389480  24.2212472  70.4335231  66.9702474
  21.7923347  67.9562725  64.7159910  21.3980044  68.0305737  63.9410019
  21.2363464  68.3420671  65.2668272  21.6526159  68.0244499  64.6827570
  33.4288294  60.9344019  64.3963789  33.6337887  60.8666327  65.2420786
  33.1014718  61.7402840  64.3284966  33.4103541  61.0429959  64.5123444
  28.1264445  68.2624587  66.1372757  27.8227582  67.7080575  66.7383164
  27.4243865  68.4416797  65.6500791  27.9780654  68.2069369  66.1542462
  27.1830542  65.5725107  60.7017459  27.4590276  64.8544019  60.2895026
  27.7829211  66.1710027  60.4938565  27.3123806  65.5545478  60.6098220
  36.6821981  61.4875783  63.8766554  36.0696295  61.9746185  64.2620286
  36.7786156  60.8119274  64.4204205  36.6059879  61.4594092  64.0145412
  30.6841062  63.2438624  58.9764054  31.1384809  63.4149185  59.7011898
  31.1581108  62.6306735  58.5761829  30.8209382  63.1789509  59.0237815
  24.2056588  72.7286950  68.3066792  23.6144521  73.3696448  68.2769807
  24.9677611  73.1524567  68.2798092  24.2304848  72.8862789  68.2981939
  24.6017210  63.8888948  68.9734810  25.0618692  63.9627877  69.7109933
  24.6473317  64.6870202  68.6234631  24.6767766  64.0183095  69.0307566
  26.2500560  64.5555643  73.5406837  25.8586125  63.9088990  73.9762615
  26.4186423  65.1467078  74.1601092  26.2171471  64.5469911  73.6969543
  33.9646104  78.1796262  65.7398816  33.7665793  78.6687076  65.0455028
  33.3433815  78.3837503  66.3182950  33.8433668  78.2812800  65.7222040
  28.0254082  69.9481158  60.0809061  28.7696127  70.3355435  60.3192011
  28.1714778  69.1038584  60.2449549  28.1564667  69.8811631  60.1403030
  29.9433658  61.7431417  65.1140922  29.0969703  61.9154225  64.9882272
  29.9404790  60.9380761  65.4506751  29.8180808  61.6492446  65.1452049
  31.0131958  65.5206632  65.9802980  30.5391912  64.9948394  66.4908291
  31.3850094  64.9736105  65.4117842  30.9981847  65.3622628  65.9718127
  21.3904988  67.5178139  71.3486526  22.2530601  67.4173848  71.2623856
  21.0596771  66.9372848  70.7872098  21.4690185  67.4169765  71.2531932
  37.2768689  70.5809007  67.3909761  37.0366912  69.7415423  67.3952187
  37.7560696  70.6609174  68.1150534  37.3120872  70.4690407  67.4984563
  32.9415458  66.4143186  59.0428734  32.4138476  66.4971930  58.3534443
  33.4011166  67.1561058  59.0393379  32.9317308  66.5363849  58.9403429
  39.2773876  67.3610465  65.3439020  39.0383646  67.3206299  64.5059804
  39.4407777  68.2081617  65.4704741  39.2664179  67.4802550  65.2392502
  24.7506774  66.3420588  68.0096944  24.1259844  66.3538979  67.4022897
  24.4152369  66.8180763  68.6588184  24.6092266  66.4139105  68.0153513
  24.9348523  64.6845706  54.0669629  24.5861327  65.3365431  54.5301178
  24.4544969  64.6702819  53.3393500  24.8118767  64.7788760  54.0280720
  32.4952540  74.9846750  58.1738391  33.2186739  75.4504863  58.0302964
  32.0553131  75.0520360  57.4235988  32.5368232  75.0630587  58.0423172
  31.6638695  71.8444292  69.4239080  31.0495688  71.3002343  69.7187715
  32.1805980  71.3308529  68.9444896  31.6494358  71.6880701  69.3963308
  30.9034992  72.9148562  67.1583379  30.4762601  72.2898281  66.7248814
  30.8959937  72.6323484  67.9842386  30.8394134  72.7801343  67.2163206
  24.0197520  67.9513735  70.2271813  24.1791006  67.1957059  70.6323534
  23.8390413  68.5004675  70.8812550  24.0162879  67.9207549  70.3834519
  31.9617823  60.1174971  70.7822602  31.4658384  60.3138645  70.0914169
  32.7186885  60.5167639  70.6111404  32.0004647  60.2052705  70.6542739
  29.2320702  63.7917317  67.3725913  29.2563189  63.2577429  66.6838693
  29.4832176  63.2834626  68.0351503  29.2730621  63.6378221  67.3690557
  25.5122024  62.5188135  66.7531657  25.5520396  63.0197342  67.4666364
  24.6871689  62.6098529  66.4837580  25.3961550  62.6069951  66.8182195
  26.9336388  69.0348645  69.0505556  26.1028317  69.2022463  68.8440804
  26.8787905  68.6584596  69.8354441  26.8025803  69.0038376  69.1354084
  24.7420171  62.5257538  74.6861967  25.3672874  61.9819671  74.9591399
  24.2870651  62.0452455  74.1169757  24.7668432  62.3747019  74.6423560
  25.3072432  67.3104236  59.5795674  25.4475393  67.8076701  60.2824315
  25.8054964  66.6090531  59.7209887  25.4013513  67.2806215  59.7047253
  25.3372654  68.1771347  56.9088250  25.9717733  68.7731772  56.8437712
  25.4198265  67.8774805  57.7234121  25.4429205  68.2212256  57.0191337
  26.9151637  64.1085323  56.8833692  27.2367478  63.6288405  56.2292955
  27.1778581  64.9184969  56.6924504  27.0017662  64.1575221  56.7589184
  32.3110792  63.4957517  69.2457172  32.7365863  63.0430043  68.6340698
  31.6967785  62.9417588  69.5221959  32.2839437  63.3471493  69.1962197
  21.8425642  70.3739188  60.1777796  22.3517871  70.9703696  60.5589102
  22.3159914  70.1065162  59.4954216  21.9869018  70.4225004  60.1332319
  30.7505015  59.9672617  62.6547749  30.1073333  59.8170263  63.2232887
  30.4104422  59.7214962  61.8896853  30.6050092  59.9084739  62.6250764
  35.3404361  67.9232043  62.0777757  34.6695551  68.4661746  61.9490823
  36.0344111  68.3926899  61.8359452  35.3433229  68.0730315  62.0233285
  35.5032489  64.3787927  64.9868130  35.8560099  63.9517650  65.6613929
  34.6447290  64.2938771  65.1169207  35.4281933  64.3032668  65.1063141
  24.2016174  67.0095447  63.0450977  23.4828163  67.4259579  63.3123840
  24.5728536  67.5749686  62.4942615  24.1508105  67.1544728  63.0033784
  33.5015754  67.6423296  68.9352973  33.4813682  67.4606591  69.7887751
  33.5494955  68.5135314  68.9112556  33.5050395  67.7439834  69.0576267
  29.9762748  66.0493447  58.3824356  29.3827587  66.3710443  57.8308923
  30.0138026  65.2034542  58.1745462  29.8937137  65.9717775  58.2707128
  36.9356549  59.5006339  65.9152443  36.4287413  58.7935478  65.8473620
  37.7323982  59.1699528  66.0453519  36.9783788  59.3479490  65.9251438
  32.8520565  66.0072951  61.8126107  32.6234258  66.0305653  60.9704465
  33.1118641  65.1830418  61.9321117  32.8566753  65.8889031  61.7051304
  27.1339793  67.8607424  71.4151207  26.6218696  67.2528607  71.7736238
  26.9619289  68.5764017  71.8825183  27.0329430  67.8770723  71.5367430
  25.9065327  64.5449497  63.1080302  26.3822693  64.9066577  62.4730483
  25.4053927  65.2005965  63.3880445  25.9030686  64.6943686  63.0557043
  39.1376689  74.0171266  58.8993307  39.5210294  74.7662622  59.1291404
  38.3420802  74.2637085  58.6405296  39.0770471  74.1640959  58.8950881
  31.0108863  65.7831669  73.8553462  31.5680294  65.5545478  73.2231928
  30.6869928  66.5437334  73.5788675  31.0455274  65.8615506  73.7209959
  27.9491980  66.6890697  56.4753686  28.3290945  66.7070326  55.6904801
  27.2084576  67.1344686  56.3544533  27.8960818  66.7572472  56.3417254
  35.5777271  64.9972888  62.0629265  35.5771497  64.8421545  62.9213541
  35.3733451  65.8435875  62.0070650  35.5477049  65.0993509  62.1817204
  17.6394542  68.4212673  66.4788081  17.4616303  67.9689282  67.2042997
  17.3513564  69.2238834  66.6626559  17.5707495  68.4735231  66.6131584
  33.3018123  69.6770390  65.7165472  33.7971788  68.9593385  65.6769492
  32.4917899  69.3741188  65.6019959  33.2562016  69.5268037  65.6939198
  28.7476734  73.5268203  57.8662476  27.9388057  73.2034877  57.8195786
  29.2551643  72.8201426  57.7990725  28.7026401  73.3749520  57.8492771
  19.3767012  70.9540397  63.5909840  18.5112531  70.9426087  63.4792612
  19.4765827  70.7670619  64.4380980  19.2641179  70.9246458  63.6998785
  35.3669942  72.4274078  68.4042600  35.7925013  71.9048500  67.8513026
  35.0026862  73.0254915  67.8831223  35.3756544  72.4384305  68.2451610
  31.9548541  76.1408342  64.7343758  32.4259719  76.8548605  64.9033743
  32.2908720  75.5407092  65.2703627  32.0743656  76.1579806  64.8376134
  31.9450391  57.8366139  68.2882946  31.1396355  57.7263868  68.6050784
  31.8157127  57.9378594  67.4312812  31.8070524  57.8349809  68.2090986
  35.4016352  64.0011631  68.8822643  34.8179341  64.5020837  68.4700210
  35.7220646  63.4941187  68.2486966  35.3629527  64.0003466  68.7281150
  27.9411151  62.9152225  59.1581318  28.7626845  63.0850538  58.9163013
  27.4780802  63.0699486  58.4347615  27.9942313  62.9633958  59.0152962
  26.5306483  60.9094988  69.9379747  27.0750896  60.5686114  70.5284088
  26.5843419  61.7680449  70.0801031  26.6195602  60.9850247  70.0461620
  32.1580814  76.9377349  68.0280792  32.9779188  76.7940315  68.2897087
  31.8774891  77.5623548  68.5697230  32.2377557  77.0087701  68.1468731
  38.5569936  78.5296917  64.7166982  38.2273266  78.9808061  64.0470680
  37.8814938  78.4513081  65.2639988  38.4080372  78.5848052  64.6990205
  45.7646344  74.5182440  62.9616592  45.4499785  75.2085919  63.3937015
  45.2473285  74.4627222  62.2602093  45.6410814  74.6117329  62.9213542
  36.7625890  76.5909206  60.1989929  37.5171858  76.9587523  59.9606980
  36.5853424  76.9648760  60.9669109  36.8480368  76.7007393  60.2774818
  35.1182955  78.9979525  56.8968042  34.9358528  79.2151405  56.0709035
  35.9808568  79.1118537  56.9526657  35.2187544  79.0469423  56.7822529
  40.7982674  76.0005935  59.9317066  41.5268834  75.8221890  59.4855223
  40.8877567  76.8424015  60.1424244  40.9189336  76.0989814  59.8970584
  35.8676960  77.4135409  62.7778114  34.9999386  77.4858008  62.8435723
  36.1552165  78.2157488  62.9666089  35.7816709  77.5429556  62.8152880
  43.0360770  77.9895792  61.7786695  43.7387123  77.7903540  61.3006654
  42.7704959  77.2171734  62.0855539  43.1007402  77.8458758  61.7532137
  45.1820879  72.6276462  64.9083242  45.3004447  73.0852925  64.1750545
  45.0083055  71.8221723  64.6219460  45.1740050  72.5770234  64.7584176
  42.1498443  74.4827264  65.8501904  41.2792001  74.4565985  65.8035214
  42.4038784  74.3104456  65.0327750  42.0592003  74.4537408  65.7222041
  41.6573646  78.7623932  58.9764054  42.1117392  78.9334492  59.7011898
  42.1313692  78.1492043  58.5761829  41.7941966  78.6974817  59.0237815
  40.9166241  77.2616725  65.1140922  40.0702286  77.4339533  64.9882272
  40.9137374  76.4566069  65.4506751  40.7913391  77.1677754  65.1452049
  43.9148041  81.9328494  59.0428734  43.3871060  82.0157238  58.3534443
  44.3743749  82.6746366  59.0393379  43.9049892  82.0549157  58.9403429
  37.8884220  79.6270631  56.8833692  38.2100062  79.1473713  56.2292955
  38.1511164  80.4370277  56.6924504  37.9750246  79.6760529  56.7589184
  41.7237598  75.4857925  62.6547749  41.0805916  75.3355571  63.2232887
  41.3837005  75.2400270  61.8896853  41.5782676  75.4270047  62.6250764
  38.9143735  78.4337533  59.1581318  39.7359429  78.6035846  58.9163013
  38.4513385  78.5884794  58.4347615  38.9674897  78.4819266  59.0152962
  15.4047537  14.9764408  47.9263715  15.3741542  15.8309045  48.0981984
  16.0028886  14.6759701  48.4849859  15.4884695  15.0580904  48.0338517
   8.6047222  14.0640059  52.6816645   7.7485118  14.2248557  52.7325762
   8.6514876  13.1932123  52.7021706   8.4846334  13.9590861  52.6922711
   2.9888362  23.6002777  48.4453877   2.2371261  23.2218315  48.2169922
   3.4374374  23.6321210  47.6972687   2.9438029  23.5488384  48.3011379
  11.9140939  20.3326585  62.2877102  12.6207706  19.8378615  62.4164036
  12.1028874  20.7735666  61.5579760  12.0468844  20.3244935  62.1986147
   8.4413322  24.0228146  43.8739424   8.1064690  24.7005068  43.4383646
   8.9540192  23.6333458  43.2856296   8.4678903  24.0652725  43.7226216
   7.9817613  25.9742415  49.8150536   8.3656992  26.5429314  49.2755311
   7.9176754  25.2491925  49.3356352   8.0291040  25.9517878  49.6644398
  11.4499043  16.1232103  55.3248297  11.9955003  16.8017189  55.3842267
  11.3915920  15.9819564  54.4649879  11.5214958  16.2024105  55.2060358
   4.5673118  23.6121169  50.7116649   4.6683481  22.8021523  51.0213777
   3.9714863  23.5178115  50.0816328   4.4945657  23.4786197  50.6642888
  13.2264112  17.5516710  46.1982025  13.1103638  18.3024396  46.6274163
  14.0219999  17.2940663  46.4478112  13.3268701  17.6251557  46.2986116
   4.4073858  28.5298758  52.1131506   5.0511313  28.9711922  52.5027664
   4.7330113  27.7252184  52.0261764   4.5505686  28.4763953  52.1576983
   5.1094437  21.5410733  47.4851367   5.4310278  22.0815940  46.8812675
   5.7566534  20.9707504  47.6173657   5.2520493  21.5369908  47.4158403
   7.1596145  13.5426728  47.5685754   7.8576310  13.7214855  48.0607217
   7.4748478  13.0197067  46.9456143   7.3091483  13.4920500  47.5487764
   7.3484081  19.9297173  47.5565545   7.7877716  19.3214273  48.0020318
   7.1988744  19.5504546  46.7851010   7.3905547  19.7835644  47.5084713
   4.8155724  18.5241185  54.7584371   5.4604726  18.0313628  54.4395319
   5.0557501  18.6665971  55.5850449   4.9466309  18.4718627  54.8333904
   7.3541815  21.3696091  54.4091263   7.6365058  20.5747496  54.1878019
   8.0827976  21.8476678  54.4296324   7.5031379  21.3230688  54.3794279
  10.9493417  18.2824354  44.5096315  10.8644712  19.1385321  44.6545883
  11.4377801  18.0068678  45.1778474  11.0082315  18.3681676  44.6298396
  12.5399417   4.9004647  49.8956639  12.2252858   5.5908126  50.3277062
  12.0226358   4.8449430  49.1942140  12.4163887   4.9939536  49.8553588
  11.8811851  14.9009148  46.0094050  11.3523322  15.1168782  46.6691356
  12.4036871  15.5945287  45.9295019  11.8800304  15.0352285  46.0949649
  17.3359904  20.4755453  51.3827094  16.5057607  20.6866097  51.5460511
  17.2869156  19.6492507  51.1069378  17.2066639  20.3845059  51.3664460
   3.7711458  18.7972365  44.8101518   3.1868674  19.3022397  45.2167382
   3.3681554  18.5714752  44.0698110   3.6250762  18.8380613  44.7606543
   5.3969641  23.3059307  54.2175004   4.8796583  22.9466722  53.6136312
   6.0944032  22.7821481  54.2281070   5.4235222  23.1756995  54.1305262
   9.0533233  23.7554121  60.1791177   9.1416579  23.5680262  61.0269387
   9.4822946  23.1091551  59.7796024   9.1295335  23.6317129  60.2462928
   6.6203693  23.0385281  59.1608839   6.0574528  22.6257891  59.6848500
   7.3824716  22.9638187  59.5801982   6.6498141  22.9662682  59.3001839
   8.2288673  15.0438017  43.2870438   8.4684677  15.2516001  42.4745781
   8.5504514  14.2395526  43.3959383   8.3125831  14.9552118  43.1830991
   2.1799684  25.0283302  51.7645469   2.8820264  24.5135291  51.8218226
   2.0997167  25.3557454  52.5692344   2.2723445  24.9997528  51.8918261
  16.8313862  13.1225854  55.1777516  15.9942283  13.1928041  55.4125110
  16.8002093  13.1250348  54.3051818  16.7032144  13.1336081  55.0837064
   1.5050460  21.2189654  51.2731077   2.3439359  21.4512587  51.3204839
   1.5362229  20.3493966  51.2038113   1.6332177  21.1246601  51.2695722
   2.1303163  21.6390529  55.5744383   2.6701388  21.4961660  56.2447755
   1.4473109  22.0387280  55.9428409   2.1095317  21.6770200  55.7278804
  11.5544048  17.3181530  50.7689407  12.3101563  17.7513044  50.8078316
  11.6606372  16.6686300  51.3424043  11.6814218  17.2859014  50.8587433
  14.5924219  21.1454807  51.5191810  14.1559451  21.1491550  52.2750781
  14.2587134  21.8260306  51.0871388  14.4786839  21.2467263  51.5672643
   9.1653292  23.1863140  62.8434960   9.9493709  23.2993988  63.2090702
   8.9649887  22.3604277  63.0393646   9.2519318  23.0809860  62.9269346
  14.5121702   8.1868635  53.7621238  15.1547610   8.2566740  54.3483153
  14.7644722   7.5197858  53.2600780  14.6443834   8.0994984  53.7748517
   1.4398055  12.6575905  42.3430562   0.7256232  12.3714084  42.7552995
   1.9242023  12.9972530  42.9836950   1.4057418  12.6657554  42.4986197
   9.3223686  25.0973242  56.4901416   8.5238931  24.8572742  56.7475285
   9.7709697  25.1487635  57.2368464   9.2698297  25.0695633  56.6386340
  17.7268565  17.8635727  50.4111447  18.3884999  17.3026396  50.3107356
  17.0859977  17.3687758  50.7364138  17.7297432  17.7072136  50.4443787
   8.6145373  21.1605859  42.7192371   9.0296521  20.8290882  42.0276866
   7.7837302  20.9274761  42.5912507   8.5533381  21.0777115  42.5983218
  14.0133396  18.8801110  50.1523436  14.2488985  19.0246308  49.3250287
  14.1622959  19.6443518  50.5454950  14.0699199  19.0140164  50.0887040
  15.8423852  17.7202776  47.9893040  16.1732069  18.2530416  47.3833135
  16.4156940  17.7741663  48.6454991  15.9757531  17.8072344  47.9970822
  11.0555741  15.5667678  48.6716620  11.1502596  16.3056972  49.1256245
  10.4314585  15.1385154  49.1051185  10.9764772  15.6128999  48.8024768
   9.3108215  18.7453891  59.3206901   9.8847077  18.1081135  59.4755465
   9.2323019  18.7457973  58.4516558   9.3841450  18.6519002  59.2153312
  11.3078763  17.4116418  41.9053572  11.2258925  17.4818605  42.7708559
  11.9458483  17.9746162  41.7137313  11.3898600  17.5055389  42.0043521
   4.6671934  17.1777156  51.3728098   4.4091178  16.3448891  51.3459398
   4.7220417  17.4034769  50.5320599   4.6371712  17.0874927  51.2448235
   9.7472984   9.2805607  51.4732191   9.0429311   8.7914792  51.6316110
   9.7957958   9.2928081  50.6020635   9.6503036   9.2095255  51.3671531
   3.6406646  14.7314918  51.8592993   3.0656237  14.8907087  52.4956954
   3.2642322  14.0950328  51.3961444   3.5009458  14.6612731  51.8847551
   7.3079935  13.2038268  56.7185371   6.9194368  12.7792485  56.0637563
   6.6434633  13.4520417  57.2262398   7.1526863  13.1776989  56.6973239
  16.9503204  12.9613272  49.4933202  16.6939769  12.1493214  49.3031084
  17.7932518  12.9690840  49.2663389  17.0369229  12.8425270  49.4318019
  11.1306296   6.9012896  54.2309356  11.5116808   6.2191068  54.6177230
  10.3269581   6.6122499  54.0485020  11.0682758   6.7579945  54.2613412
   8.4118873  17.4336872  44.9162178   9.2259512  17.7251765  44.8044950
   8.3478014  16.7796735  44.3420471   8.5221612  17.3802067  44.8151016
  14.6328363  20.1162868  59.3291754  14.3967001  19.2850933  59.2103815
  15.2771592  20.0648476  59.9146598  14.6923034  19.9860556  59.3977648
   4.2826781  20.9058390  50.0434491   4.9200728  20.6670137  50.5886284
   4.7081853  21.1095549  49.3087651   4.4402948  20.9009400  50.0151648
   4.9229596  16.1260680  44.3809380   5.3074749  15.9068386  45.1325925
   4.6741217  16.9523625  44.5110456   4.9431669  16.2158826  44.5110456
  15.6564784  19.9007317  55.3920049  15.3510601  20.6335374  55.7533364
  14.9370999  19.4945247  55.1112835  15.5052126  19.9489050  55.4033186
   6.6648253  21.3830812  51.7228277   6.7387261  21.2205984  52.5770127
   7.4817760  21.5721002  51.4788758   6.7964612  21.3867555  51.8126302
  21.3566576  16.5400318  54.7188393  21.2891076  16.5596277  53.8490979
  21.3422238  17.3830645  54.9444063  21.3445332  16.6674053  54.6240870
   5.2052839  24.3465555  46.4541750   5.4951137  23.9554537  45.7300977
   5.9356320  24.5282260  46.8947025   5.3559723  24.3159369  46.4124557
  19.1425193  15.3144704  52.9934987  19.6933115  14.6812773  53.2332079
  19.1269309  15.8460097  53.6850492  19.2210390  15.2993652  53.1313845
   5.7947584  19.1483301  57.5394881   5.2959278  19.8599069  57.6179769
   6.6047808  19.4683968  57.5013043   5.8403691  19.3010150  57.5451449
   3.1458755  26.3232938  49.5201900   2.9259050  26.0330293  50.3128567
   2.9253277  25.6647893  48.9919812   3.0806349  26.1832646  49.5590809
   2.0575702  18.4106254  51.7857602   1.7688950  17.7843726  52.3203329
   2.9259050  18.3526542  51.8522282   2.1435954  18.3093799  51.8748556
  12.8453600  13.5541038  52.1039583  12.5018365  12.8331373  52.4546833
  12.9446642  13.3454889  51.2617942  12.8095642  13.4165241  52.0311263
   5.3126710  27.6962328  48.3032592   5.9650768  27.1638770  48.5323618
   4.6152319  27.3430980  48.6900466   5.3057428  27.5651851  48.3944760
   2.2607975  20.0501505  47.7099967   3.0153943  20.4314544  47.9235429
   1.6678588  20.5012649  48.1646663   2.2844689  20.1730333  47.8082845
  13.3066629  20.0166742  47.6463572  13.8724661  20.6759952  47.5622114
  12.6594532  20.3616440  48.1179974  13.2945385  20.1648683  47.7036328
   3.5806202  21.2210067  53.0840082   3.0586955  21.3610358  53.7691947
   3.9680222  20.4620731  53.2742199   3.5609903  21.1295591  53.2141159
   9.7773207  22.9605526  47.0700651   9.5359883  22.2273387  46.6627716
   9.9574540  23.5092383  46.4166984   9.7680831  22.9327917  46.9130874
   5.0072527  18.2514086  48.4821573   4.8115310  18.8588820  47.8881876
   5.2306873  17.5582030  48.0013247   5.0107168  18.2391611  48.3237654
   3.4051057  15.1368824  48.6002441   4.1273709  15.3009982  48.1406247
   2.9259050  15.8578489  48.4941781   3.4414788  15.2667053  48.5168055
  11.3644565  11.4732623  53.9799126  10.5255666  11.4993901  53.7437390
  11.4348932  12.1203358  54.5604473  11.2512958  11.5728748  54.0308243
   1.0558674  17.5426896  57.7056581   1.5679771  17.8211149  57.0565341
   0.7695017  18.2816190  58.0719394   1.0893537  17.6929250  57.6646459
   9.8113843   8.3718000  48.7126742  10.5140196   8.1725748  48.2346701
   9.5458032   7.5993942  49.0195586   9.8760475   8.2280966  48.6872184
  15.2402089  16.6800609  51.2660368  15.1536063  16.8356035  52.1195147
  14.7852569  17.3238685  50.8919773  15.1605345  16.7976364  51.3367475
   9.1127905  14.0011356  49.8885928   8.8662619  13.9207107  50.7222717
   9.4413028  13.2164824  49.6948455   9.1249148  13.8737622  49.9833451
  13.0075954  20.7094716  53.6772709  12.8690313  21.4075762  54.1821451
  12.2275952  20.5543372  53.3208891  12.8719180  20.7894882  53.6998983
  11.3454039  17.0091091  59.9295091  11.3402077  16.1370908  59.9337517
  12.0515033  17.2079260  59.4564546  11.4499043  16.9094965  59.8602126
   5.0724932  16.7368075  59.3008911   5.2168308  17.3169283  58.6652021
   5.4200581  17.1144372  60.0058765   5.1452393  16.8788779  59.3107906
   7.2444849  15.9358243  57.0834042   6.4968163  16.1289258  56.6782320
   7.3986375  15.1103463  56.8458164   7.1567277  15.8423355  56.9879448
   4.1452687  24.9270847  56.1669937   4.2942251  24.3673763  55.5143342
   4.9252689  25.0062848  56.5502456   4.2826781  24.8556412  56.1266887
  14.5029326  20.0672969  44.4389208  14.1236135  19.2810107  44.4318497
  13.8395572  20.6159827  44.2960852  14.3487801  20.0317793  44.4170005
   6.6705988  25.0985490  57.4454428   6.5949659  24.4294300  58.0005217
   6.5995847  25.8003278  57.9595095   6.6486595  25.1030397  57.6031276
   7.3276235  23.6186489  48.2778034   8.0926126  23.3496132  47.9560699
   7.2254325  23.1336499  48.9948097   7.4257730  23.5076053  48.3357862
   5.3629004  11.8210898  54.8171270   4.5725079  11.6402358  55.1388606
   5.7589627  11.0437851  54.8001564   5.3045881  11.6798359  54.8623818
   9.8494895  20.6498672  40.2577984  10.6167880  20.7098797  39.8483835
   9.4026204  20.0779114  39.7734302   9.8968322  20.5735248  40.1255694
  10.7472691  19.4553328  52.5430716  10.0717692  19.2238560  53.0444103
  10.7565067  18.8474511  51.9172821  10.6491195  19.3312253  52.5246868
   7.8766835  14.2971157  59.2994769   7.8125976  15.1581114  59.1714906
   8.0164022  13.9803150  58.4990320   7.8882305  14.3771324  59.1622982
  12.7489425  22.3118461  44.7740894  12.8309263  23.1185447  44.4502345
  13.2339167  22.3314420  45.4981667  12.8326583  22.4339123  44.8327793
   6.5585929  16.9903296  53.4410972   6.1348178  17.1907795  52.7049990
   6.3830784  16.1432144  53.5535272   6.4696809  16.8952078  53.3484662
   6.0597622  28.5053809  55.9032429   6.5493552  27.8064599  55.7208094
   5.4881854  28.2077679  56.4908486   6.0482152  28.3580033  55.9633470
   1.8468374  17.4855348  48.8738944   2.0032993  17.4202151  49.7294936
   2.1868967  18.2603900  48.6617624   1.9201608  17.5904546  48.9693539
   8.3847518  16.8613231  47.7432308   8.9263064  16.3583613  48.2070928
   8.6994077  16.8078426  46.9321793   8.5111915  16.7792652  47.6916120
  12.2564626  21.0715879  64.8559220  13.0699491  20.8001028  65.0164352
  12.0959592  20.7723419  64.0519416  12.3534574  20.9870805  64.7604626
   6.5533968  22.2530583  45.0272336   6.6226788  21.3945121  45.1665336
   7.3322423  22.4702464  44.6991360   6.6786818  22.1583447  44.9989493
   9.5336788  11.7549536  57.7954608   9.7478757  11.1160450  57.2417962
   8.9170687  12.1995360  57.3662470   9.4742117  11.7259680  57.6505039
  10.9441455  24.6768284  49.2408829  10.5521247  24.3734999  48.5231695
  11.0994528  25.5137374  49.0513783  10.9095045  24.7552121  49.1065326
  11.6975876  13.3638601  58.7337915  10.8852557  13.0564492  58.8151088
  12.1565810  12.8837601  59.2980627  11.6456260  13.2475094  58.8292509
  11.1081130  21.2418273  49.1814859  10.7495785  21.4132916  49.9578892
  10.6219841  21.7031479  48.6242858  10.9839827  21.3357244  49.2140129
   5.8969496  16.9217439  41.7215094   6.1862020  17.6982321  41.9958668
   5.9841294  16.4106170  42.4229593   5.9523752  16.9609357  41.8657592
  12.2685870  22.1322169  60.1282060  12.9065590  21.6382365  59.7944516
  11.6259961  22.0599570  59.5434287  12.2680096  22.0481178  59.9924415
  13.9942870  13.9811315  54.6947976  13.5670478  13.8937664  53.9396076
  13.3568923  14.0889091  55.2802820  13.8372477  13.9843975  54.6693418
  12.3240126  22.8241977  56.7687417  13.1132504  22.4731042  56.8889499
  12.4983724  23.6378366  56.5064051  12.4660408  22.8927834  56.7475285
   2.0633437  16.2350703  53.8215206   1.2221443  16.1354577  54.0294100
   2.2723445  17.0046183  54.1729527   1.9698129  16.3342746  53.9042521
  11.1773950   6.8351534  51.3303836  11.3823544   6.7673842  52.1760833
  10.8500374   7.6410355  51.2625013  11.1589198   6.9437475  51.4463491
   5.8750101  14.1632102  53.0712804   5.5713239  13.6088091  53.6723211
   5.1729522  14.3424312  52.5840838   5.7266311  14.1076885  53.0882509
   4.9316199  11.4732622  47.6357505   5.2075933  10.7551535  47.2235073
   5.5314868  12.0717542  47.4278611   5.0609463  11.4552993  47.5438267
   3.9368452  21.3781823  57.7784901   3.8288807  21.3883885  58.6446959
   4.1464234  22.2036603  57.5889855   3.9518564  21.5022898  57.8788993
  14.4307638   7.3883298  50.8106601  13.8181952   7.8753700  51.1960333
  14.5271813   6.7126789  51.3544252  14.3545536   7.3601607  50.9485459
   8.4326719   9.1446139  45.9104100   8.8870466   9.3156700  46.6351945
   8.9066765   8.5314250  45.5101876   8.5695039   9.0797025  45.9577862
   1.9542244  18.6294465  55.2406839   1.3630178  19.2703964  55.2109854
   2.7163268  19.0532083  55.2138138   1.9790505  18.7870304  55.2321986
  18.0732666  18.4600235  56.2384117  18.1315790  18.9086884  56.9844094
  17.4399134  18.8699048  55.8014197  17.9883961  18.5873970  56.2836665
  11.7131761  24.0803777  52.6738863  11.5151449  24.5694591  51.9795075
  11.0919472  24.2845018  53.2522997  11.5919325  24.1820315  52.6562087
   5.7739739  15.8488674  47.0149108   6.5181784  16.2362950  47.2532057
   5.9200435  15.0046099  47.1789595   5.9050324  15.7819147  47.0743077
   8.7617615  11.4214147  52.9143027   8.2877569  10.8955909  53.4248338
   9.1335751  10.8743620  52.3457888   8.7467504  11.2630144  52.9058174
  15.0254345  16.4816523  54.3249807  14.7852568  15.6422938  54.3292234
  15.5046353  16.5616689  55.0490581  15.0606529  16.3697922  54.4324610
  10.6901115  12.3150702  45.9768781  10.1624133  12.3979446  45.2874490
  11.1496823  13.0568573  45.9733425  10.6802965  12.4371364  45.8743476
  17.0259532  13.2617980  52.2779067  16.7869302  13.2213814  51.4399851
  17.1893434  14.1089132  52.4044788  17.0149836  13.3810065  52.1732548
  13.6305563  17.6467929  58.2084112  14.3539761  17.1940456  58.0295132
  13.3655525  17.9272595  57.4256440  13.6986836  17.6218898  58.0662827
   2.4992431  12.2428103  54.9436991   1.8745501  12.2546495  54.3362944
   2.1638026  12.7188278  55.5928231   2.3577923  12.3146620  54.9493559
  10.2438197  20.8854265  45.1078438  10.9672396  21.3512378  44.9643011
   9.8038788  20.9527875  44.3576035  10.2853889  20.9638102  44.9763219
   9.4124352  17.7451808  56.3579127   8.7981345  17.2009858  56.6527762
   9.9291637  17.2316044  55.8784943   9.3980015  17.5888217  56.3303355
   8.6520649  18.8156078  54.0923425   8.2248257  18.1905796  53.6588861
   8.6445594  18.5330999  54.9182433   8.5879790  18.6808858  54.1503253
   6.9806359   9.6924832  54.3065959   7.0048846   9.1584944  53.6178739
   7.2317833   9.1842141  54.9691550   7.0216278   9.5385736  54.3030604
   4.6822045  14.9356160  55.9845603   3.8513974  15.1029978  55.7780851
   4.6273562  14.5592111  56.7694488   4.5511459  14.9045891  56.0694131
   3.0558088  13.2111752  46.5135720   3.1961049  13.7084216  47.2164362
   3.5540621  12.5098046  46.6549934   3.1499169  13.1813730  46.6387299
   3.0858311  14.0778863  43.8428297   3.7203390  14.6739288  43.7777759
   3.1683922  13.7782320  44.6574167   3.1914862  14.1219771  43.9531384
  16.0640877  16.6094340  56.7114661  16.6558717  17.2491591  56.7432859
  16.4999871  15.9117377  57.0006728  16.2159308  16.6012690  56.7595494
   4.6637294  10.0092838  43.8173739   4.9853135   9.5295921  43.1633002
   4.9264237  10.8192484  43.6264551   4.7503319  10.0582736  43.6929231
   7.8934266  21.0311712  57.3372555   7.3859358  21.5847559  57.7813186
   7.5960913  21.0920002  56.5191330   7.7739151  21.1218024  57.2821012
  10.0596449   9.3965032  56.1797218  10.4851520   8.9437559  55.5680745
   9.4453442   8.8425103  56.4562006  10.0325094   9.2479008  56.1302244
  10.5042047  24.9474970  45.2676499   9.7871356  24.7735832  44.8023736
  11.1548784  24.7127542  44.7351985  10.4943897  24.8870763  45.1205717
  13.0890018  13.8239559  49.0117804  12.4181208  14.3669261  48.8830869
  13.7829768  14.2934414  48.7699499  13.0918885  13.9737830  48.9573332
   7.1376752  25.9636271  54.2429562   6.9142406  25.2055100  54.6113589
   6.6486595  25.9934292  53.5210002   7.0320201  25.8558495  54.1906303
  13.2518145  10.2795442  51.9208177  13.6045756   9.8525165  52.5953976
  12.3932947  10.1946286  52.0509254  13.1767590  10.2040183  52.0403188
   1.9501830  12.9102962  49.9791024   1.2313820  13.3267095  50.2463887
   2.3214193  13.4757201  49.4282662   1.8993762  13.0552243  49.9373831
  11.2501411  13.5430811  55.8693019  11.2299339  13.3614106  56.7227798
  11.2980612  14.4142829  55.8452603  11.2536052  13.6447349  55.9916314
   9.1947741  20.1318003  61.7941496   9.1543596  19.4867680  61.2086652
  10.0071059  20.0754620  62.1066908   9.3090895  20.0276970  61.7538445
   5.7855209  26.1836729  51.6966647   5.3715607  25.5210859  51.3070489
   6.4702583  26.3314588  51.1762341   5.8253580  26.1077387  51.5623144
   9.1520503  25.3426814  52.4490263   8.7536786  25.4529084  51.6811084
   8.5371722  25.5508880  53.0316823   9.0019392  25.3900382  52.4221563
   7.7248405  11.9500962  45.3164403   7.1313244  12.2717958  44.7648970
   7.7623682  11.1042057  45.1085509   7.6422794  11.8725290  45.2047174
  14.6842206   5.4013854  52.8492490  14.1773070   4.6942994  52.7813667
  15.4809639   5.0707043  52.9793566  14.7269445   5.2487006  52.8591485
  10.6006221  11.9080466  48.7466153  10.3719914  11.9313168  47.9044512
  10.8604298  11.0837933  48.8661164  10.6052409  11.7896546  48.6391351
   3.6550984  10.4457013  50.0420349   4.1308350  10.8074093  49.4070530
   3.1539583  11.1013480  50.3220492   3.6516343  10.5951202  49.9897090
  16.8862345  19.9178781  45.8333354  17.2695951  20.6670137  46.0631451
  16.0906459  20.1644600  45.5745343  16.8256128  20.0648475  45.8290928
   5.6977637  12.5898213  43.4093733   6.0776602  12.6077842  42.6244848
   4.9570233  13.0352201  43.2884580   5.6446475  12.6579987  43.2757301
  13.3262928  10.8980404  48.9969312  13.3257154  10.7429060  49.8553588
  13.1219108  11.7443391  48.9410697  13.2962705  11.0001024  49.1157251
  11.0503780  15.5777906  52.6505519  11.5457445  14.8600901  52.6109539
  10.2403555  15.2748703  52.5360006  11.0047673  15.4275552  52.6279244
   6.4962391  19.4275719  44.8002523   5.6873714  19.1042392  44.7535832
   7.0037300  18.7208941  44.7330772   6.4512058  19.2757035  44.7832817
  13.1155598  18.3281593  55.3382647  13.5410670  17.8056015  54.7853072
  12.7512518  18.9262430  54.8171270  13.1242201  18.3391820  55.1791657
   2.7509678  26.6245811  54.0979993   3.0656237  27.4382199  54.1057775
   3.1603092  26.2396029  54.7662152   2.8577776  26.6874513  54.1984084
   9.7034198  22.0415857  51.6683805  10.1745376  22.7556120  51.8373790
  10.0394376  21.4414607  52.2043674   9.8229313  22.0587322  51.7716181
  11.7911182  23.6517171  63.8475877  11.9008148  22.8625731  64.2032624
  12.1202079  23.5623107  63.0450215  11.8563588  23.5223024  63.7818268
  10.3408144  21.8333791  58.4311497   9.7929090  21.2091675  58.1631563
  10.8021173  22.0228063  57.7155577  10.3275354  21.7692842  58.2861929
  13.1502009   9.9019146  55.8162690  12.5664997  10.4028352  55.4040257
  13.4706303   9.3948702  55.1827013  13.1115184   9.9010981  55.6621197
   5.6896808   8.8159741  46.0921365   6.5112502   8.9858054  45.8503059
   5.2266459   8.9707002  45.3687662   5.7427970   8.8641474  45.9493009
   9.9066471  22.8384864  54.9620839  10.7264844  22.6947830  55.2237134
   9.6260548  23.4631063  55.5037277   9.9863214  22.9095216  55.0808778
  26.3780121  30.4949716  47.9263715  26.3474125  31.3494353  48.0981984
  26.9761470  30.1945008  48.4849859  26.4617279  30.5766212  48.0338517
  19.5779806  29.5825367  52.6816645  18.7217701  29.7433865  52.7325762
  19.6247459  28.7117431  52.7021706  19.4578917  29.4776169  52.6922711
  13.9620945  39.1188085  48.4453877  13.2103845  38.7403623  48.2169922
  14.4106957  39.1506518  47.6972687  13.9170612  39.0673692  48.3011379
  22.8873522  35.8511892  62.2877102  23.5940290  35.3563923  62.4164036
  23.0761458  36.2920974  61.5579760  23.0201428  35.8430243  62.1986147
  19.4145905  39.5413454  43.8739424  19.0797274  40.2190376  43.4383646
  19.9272776  39.1518766  43.2856296  19.4411486  39.5838032  43.7226216
  18.9550197  41.4927723  49.8150536  19.3389576  42.0614622  49.2755311
  18.8909338  40.7677233  49.3356352  19.0023624  41.4703186  49.6644398
  22.4231627  31.6417411  55.3248297  22.9687587  32.3202497  55.3842267
  22.3648503  31.5004872  54.4649879  22.4947541  31.7209412  55.2060358
  15.5405702  39.1306477  50.7116649  15.6416065  38.3206831  51.0213777
  14.9447447  39.0363423  50.0816328  15.4678240  38.9971505  50.6642888
  24.1996695  33.0702018  46.1982025  24.0836221  33.8209704  46.6274163
  24.9952582  32.8125971  46.4478112  24.3001285  33.1436865  46.2986116
  15.3806441  44.0484066  52.1131506  16.0243897  44.4897230  52.5027664
  15.7062697  43.2437492  52.0261764  15.5238270  43.9949261  52.1576983
   8.7370746  35.1526763  50.3368983   8.5020930  34.3194416  50.2301252
   8.8756387  35.4331429  49.5230184   8.7226408  35.0710267  50.2011338
  11.0360833  27.3212494  53.2353291  10.4165865  26.7305141  53.0663306
  10.9344697  27.9123929  52.6017614  10.9298509  27.3216577  53.1158280
  16.0827021  37.0596041  47.4851367  16.4042862  37.6001248  46.8812675
  16.7299117  36.4892812  47.6173657  16.2253076  37.0555216  47.4158403
  18.1328729  29.0612036  47.5685754  18.8308894  29.2400163  48.0607217
  18.4481062  28.5382375  46.9456143  18.2824066  29.0105808  47.5487764
  10.7629966  30.8664776  55.4796860  10.6388663  31.4527221  56.1146679
  11.4148251  30.3724971  55.7809135  10.8403616  30.8803580  55.6182789
  18.3216664  35.4482481  47.5565545  18.7610300  34.8399581  48.0020318
  18.1721327  35.0689854  46.7851010  18.3638130  35.3020952  47.5084713
  15.7888307  34.0426493  54.7584371  16.4337310  33.5498936  54.4395319
  16.0290084  34.1851279  55.5850449  15.9198893  33.9903935  54.8333904
  18.3274399  36.8881399  54.4091263  18.6097642  36.0932804  54.1878019
  19.0560559  37.3661986  54.4296324  18.4763962  36.8415995  54.3794279
  16.3055593  24.4304433  51.6507029  15.9758923  24.8815576  50.9810727
  15.6300594  24.3520596  52.1980035  16.1566029  24.4855568  51.6330252
  21.9226001  33.8009662  44.5096315  21.8377296  34.6570629  44.6545883
  22.4110384  33.5253986  45.1778474  21.9814898  33.8866984  44.6298396
  23.5132000  20.4189955  49.8956639  23.1985441  21.1093434  50.3277062
  22.9958942  20.3634738  49.1942140  23.3896471  20.5124844  49.8553588
  22.8544434  30.4194456  46.0094050  22.3255906  30.6354090  46.6691356
  23.3769454  31.1130595  45.9295019  22.8532887  30.5537593  46.0949649
  14.7444042  34.3157673  44.8101518  14.1601257  34.8207705  45.2167382
  14.3414137  34.0900060  44.0698110  14.5983346  34.3565921  44.7606543
  10.2988071  40.0312434  51.6125189   9.8155649  40.7562924  51.5884773
  11.1111389  40.3288564  51.7235347  10.3478818  40.1814788  51.6252469
  16.3702225  38.8244615  54.2175004  15.8529166  38.4652030  53.6136312
  17.0676616  38.3006789  54.2281070  16.3967806  38.6942303  54.1305262
  20.0265817  39.2739429  60.1791177  20.1149162  39.0865569  61.0269387
  20.4555529  38.6276859  59.7796024  20.1027919  39.1502437  60.2462928
  17.5936276  38.5570589  59.1608839  17.0307111  38.1443199  59.6848500
  18.3557300  38.4823495  59.5801982  17.6230725  38.4847990  59.3001839
  19.2021256  30.5623325  43.2870438  19.4417260  30.7701309  42.4745781
  19.5237097  29.7580834  43.3959383  19.2858414  30.4737426  43.1830991
  14.5111547  22.4916721  47.1329976  15.2657515  22.8595038  46.8947026
  14.3339081  22.8656275  47.9009156  14.5966025  22.6014909  47.2114865
  13.1532268  40.5468610  51.7645469  13.8552847  40.0320599  51.8218226
  13.0729751  40.8742762  52.5692344  13.2456028  40.5182836  51.8918261
  27.8046445  28.6411161  55.1777516  26.9674866  28.7113349  55.4125110
  27.7734676  28.6435656  54.3051818  27.6764728  28.6521388  55.0837064
  14.2011174  30.7844197  60.8925884  14.3731678  30.6750092  61.7411166
  14.7380532  31.4298603  60.6557077  14.3056178  30.8636199  60.9830981
  12.8668611  24.8987040  43.8308089  12.6844185  25.1158921  43.0049082
  13.7294224  25.0126053  43.8866704  12.9673201  24.9476938  43.7162576
  12.4783043  36.7374962  51.2731077  13.3171943  36.9697895  51.3204839
  12.5094812  35.8679274  51.2038113  12.6064761  36.6431909  51.2695722
  13.1035746  37.1575837  55.5744383  13.6433971  37.0146968  56.2447755
  12.4205693  37.5572588  55.9428409  13.0827900  37.1955508  55.7278804
  18.5468331  21.9013451  46.8657113  19.2754491  21.7229406  46.4195269
  18.6363223  22.7431530  47.0764291  18.6674993  21.9997329  46.8310631
  22.5276631  32.8366838  50.7689407  23.2834146  33.2698352  50.8078316
  22.6338956  32.1871608  51.3424043  22.6546802  32.8044322  50.8587433
  25.5656802  36.6640115  51.5191810  25.1292034  36.6676858  52.2750781
  25.2319718  37.3445614  51.0871388  25.4519422  36.7652571  51.5672643
  20.1385876  38.7048448  62.8434960  20.9226293  38.8179296  63.2090702
  19.9382470  37.8789585  63.0393646  20.2251901  38.5995167  62.9269346
   8.5072891  33.3776128  55.7278804   8.2411307  32.5615245  55.8869795
   8.5211456  33.4229284  54.8574320   8.4697614  33.2633033  55.6232286
  25.4854285  23.7053943  53.7621238  26.1280194  23.7752048  54.3483153
  25.7377306  23.0383166  53.2600780  25.6176417  23.6180292  53.7748517
  12.4130638  28.1761213  42.3430562  11.6988815  27.8899392  42.7552995
  12.8974607  28.5157838  42.9836950  12.3790002  28.1842862  42.4986197
  13.2571498  26.9154506  58.3745812  12.5643294  26.4451486  58.6206543
  13.8731825  26.6892811  58.9487519  13.2456028  26.8121638  58.4954965
  20.2956269  40.6158550  56.4901416  19.4971515  40.3758050  56.7475285
  20.7442281  40.6672943  57.2368464  20.2430880  40.5880941  56.6386340
  19.5877956  36.6791167  42.7192371  20.0029105  36.3476190  42.0276866
  18.7569886  36.4460069  42.5912507  19.5265965  36.5962422  42.5983218
   8.9166305  34.1634908  53.0090548   8.7341878  34.1381794  52.1562841
   9.6515974  34.6333845  53.0479457   8.9980369  34.2296270  52.8888467
  24.9865979  34.3986418  50.1523436  25.2221568  34.5431616  49.3250287
  25.1355543  35.1628826  50.5454950  25.0431782  34.5325472  50.0887040
  11.9812057  30.8819910  59.5172657  12.7052029  30.8672941  60.0037552
  12.0828193  31.5915266  59.0194625  12.1030266  30.9844614  59.5151444
  26.8156436  33.2388083  47.9893040  27.1464653  33.7715724  47.3833135
  27.3889524  33.2926971  48.6454991  26.9490115  33.3257652  47.9970822
  19.3557006  34.3618995  64.3821604  18.5629987  34.6762507  64.5674224
  19.4705933  34.5770463  63.5442389  19.2552417  34.4402832  64.2859939
  22.0288325  31.0852986  48.6716620  22.1235179  31.8242280  49.1256245
  21.4047169  30.6570462  49.1051185  21.9497355  31.1314307  48.8024768
  20.2840799  34.2639199  59.3206901  20.8579661  33.6266443  59.4755465
  20.2055603  34.2643281  58.4516558  20.3574034  34.1704310  59.2153312
   8.8837215  31.0428408  53.1589615   9.4610718  30.9064859  53.7981860
   8.1851277  30.5864192  53.4135199   8.8658237  30.9550674  53.2911905
  22.2811346  32.9301726  41.9053572  22.1991509  33.0003913  42.7708559
  22.9191067  33.4931470  41.7137313  22.3631184  33.0240697  42.0043521
  15.6404518  32.6962464  51.3728098  15.3823762  31.8634199  51.3459398
  15.6953000  32.9220077  50.5320599  15.6104295  32.6060235  51.2448235
  20.7205568  24.7990915  51.4732191  20.0161894  24.3100100  51.6316110
  20.7690542  24.8113389  50.6020635  20.6235619  24.7280563  51.3671531
  14.6139230  30.2500226  51.8592993  14.0388821  30.4092395  52.4956954
  14.2374906  29.6135635  51.3961444  14.4742042  30.1798039  51.8847551
  18.2812518  28.7223576  56.7185371  17.8926951  28.2977793  56.0637563
  17.6167217  28.9705725  57.2262398  18.1259446  28.6962297  56.6973239
  27.9235787  28.4798580  49.4933202  27.6672352  27.6678522  49.3031084
  28.7665101  28.4876147  49.2663389  28.0101813  28.3610578  49.4318019
   4.3596049  29.8940301  49.8737434   4.4456300  29.5172169  50.6550964
   4.9871846  29.5200747  49.3957392   4.4652600  29.7825783  49.9182911
  22.1038880  22.4198204  54.2309356  22.4849392  21.7376375  54.6177230
  21.3002164  22.1307806  54.0485020  22.0415342  22.2765253  54.2613412
  19.3851457  32.9522180  44.9162178  20.1992095  33.2437073  44.8044950
  19.3210598  32.2982043  44.3420471  19.4954196  32.8987375  44.8151016
  25.6060947  35.6348176  59.3291754  25.3699584  34.8036241  59.2103815
  26.2504176  35.5833784  59.9146598  25.6655618  35.5045864  59.3977648
  15.2559365  36.4243698  50.0434491  15.8933312  36.1855445  50.5886284
  15.6814436  36.6280857  49.3087651  15.4135531  36.4194708  50.0151648
   9.9472007  38.6632034  53.9268794   9.9876153  38.9346885  53.0988574
  10.5066531  39.1873942  54.3426582  10.0355353  38.7807789  53.8660682
  15.8962180  31.6445987  44.3809380  16.2807333  31.4253694  45.1325925
  15.6473800  32.4708933  44.5110456  15.9164252  31.7344134  44.5110456
  16.0630720  24.9252403  64.0971964  15.7484161  25.6951965  63.8341527
  15.7420653  24.3622659  63.5124191  15.9689639  24.9562671  63.9713314
  17.6380837  36.9016120  51.7228277  17.7119845  36.7391292  52.5770127
  18.4550343  37.0906310  51.4788758  17.7697195  36.9052863  51.8126302
  11.3986593  37.2473983  48.7522720  10.5724711  37.4935720  48.6256999
  11.4598585  37.1686064  49.6184778  11.2860760  37.2718932  48.8611665
  13.6162617  23.3142924  49.7118160  12.7485043  23.3865524  49.7775770
  13.9037822  24.1165003  49.9006136  13.5302365  23.4437071  49.7492927
  22.7395506  23.4620784  58.0429482  23.4849098  23.2730594  57.6292908
  22.3232811  23.9879021  57.4843339  22.7880480  23.5122929  57.8994055
  16.1785423  39.8650863  46.4541750  16.4683721  39.4739845  45.7300977
  16.9088903  40.0467568  46.8947025  16.3292307  39.8344677  46.4124557
  16.7680168  34.6668609  57.5394881  16.2691861  35.3784377  57.6179769
  17.5780392  34.9869276  57.5013043  16.8136274  34.8195458  57.5451449
  14.1191338  41.8418246  49.5201900  13.8991634  41.5515600  50.3128567
  13.8985860  41.1833201  48.9919812  14.0538932  41.7017954  49.5590809
  13.0308285  33.9291562  51.7857602  12.7421534  33.3029034  52.3203329
  13.8991633  33.8711850  51.8522282  13.1168537  33.8279107  51.8748556
  23.8186183  29.0726346  52.1039583  23.4750949  28.3516681  52.4546833
  23.9179226  28.8640197  51.2617942  23.7828226  28.9350549  52.0311263
  16.2859294  43.2147636  48.3032592  16.9383352  42.6824078  48.5323618
  15.5884903  42.8616288  48.6900466  16.2790012  43.0837159  48.3944760
  13.2340559  35.5686813  47.7099967  13.9886527  35.9499852  47.9235429
  12.6411171  36.0197957  48.1646663  13.2577272  35.6915641  47.8082845
  24.2799212  35.5352050  47.6463572  24.8457245  36.1945260  47.5622114
  23.6327116  35.8801748  48.1179974  24.2677969  35.6833991  47.7036328
  15.6947226  27.5249654  62.8357179  14.8847001  27.8307433  62.7247021
  16.1721912  28.2455236  62.9509763  15.6450704  27.6764255  62.8364250
  14.5538785  36.7395375  53.0840082  14.0319539  36.8795666  53.7691947
  14.9412806  35.9806039  53.2742199  14.5342486  36.6480899  53.2141159
  11.5429969  26.7901183  47.1535037  11.2554765  26.4202454  46.4166984
  12.2300438  27.2596039  46.8918742  11.6018867  26.8048153  47.0050112
  20.7505790  38.4790834  47.0700651  20.5092466  37.7458695  46.6627716
  20.9307123  39.0277691  46.4166984  20.7413414  38.4513225  46.9130874
  15.9805111  33.7699394  48.4821573  15.7847894  34.3774128  47.8881876
  16.2039456  33.0767338  48.0013247  15.9839752  33.7576919  48.3237654
  14.3783641  30.6554132  48.6002441  15.1006293  30.8195290  48.1406247
  13.8991634  31.3763796  48.4941781  14.4147372  30.7852361  48.5168055
  22.3377149  26.9917930  53.9799126  21.4988249  27.0179209  53.7437390
  22.4081516  27.6388666  54.5604473  22.2245542  27.0914056  54.0308243
  12.0291258  33.0612204  57.7056581  12.5412355  33.3396457  57.0565341
  11.7427600  33.8001498  58.0719394  12.0626121  33.2114558  57.6646459
  20.7846427  23.8903307  48.7126742  21.4872780  23.6911056  48.2346701
  20.5190615  23.1179250  49.0195586  20.8493059  23.7466273  48.6872184
   9.1158164  27.5682396  48.0020318   9.2174300  28.3708557  48.3301293
   9.9114051  27.3669732  47.7043398   9.2486070  27.6568295  48.0055673
  15.5474983  25.1538593  57.7657623  15.3558180  25.1693727  58.6157046
  16.3973579  25.3502267  57.7424278  15.6450705  25.1852944  57.8880918
   9.9321896  27.6829574  55.7441439   9.7907388  26.8313515  55.8685947
  10.2162459  27.7258235  54.9203645   9.9529742  27.5629324  55.6409063
  20.0860488  29.5196664  49.8885928  19.8395203  29.4392415  50.7222717
  20.4145611  28.7350132  49.6948455  20.0981732  29.3922930  49.9833451
  23.9808537  36.2280024  53.6772709  23.8422897  36.9261069  54.1821451
  23.2008535  36.0728680  53.3208891  23.8451764  36.3080190  53.6998983
  22.3186622  32.5276399  59.9295091  22.3134661  31.6556216  59.9337517
  23.0247616  32.7264568  59.4564546  22.4231626  32.4280273  59.8602126
  16.0457516  32.2553383  59.3008911  16.1900891  32.8354591  58.6652021
  16.3933164  32.6329680  60.0058765  16.1184977  32.3974087  59.3107906
  18.2177433  31.4543551  57.0834042  17.4700747  31.6474566  56.6782320
  18.3718958  30.6288771  56.8458164  18.1299861  31.3608663  56.9879448
  15.1185271  40.4456155  56.1669937  15.2674834  39.8859071  55.5143342
  15.8985273  40.5248156  56.5502456  15.2559364  40.3741720  56.1266887
  25.4761910  35.5858277  44.4389208  25.0968719  34.7995415  44.4318497
  24.8128155  36.1345134  44.2960852  25.3220385  35.5503101  44.4170005
  17.6438571  40.6170798  57.4454428  17.5682242  39.9479608  58.0005217
  17.5728430  41.3188586  57.9595095  17.6219178  40.6215705  57.6031276
  18.4579210  25.3494102  57.9729446  18.9151824  26.0818076  58.1002238
  18.5335539  24.9260567  58.7316702  18.5370180  25.3951340  58.1030522
  10.7012201  25.5959922  59.0618890  10.1654391  24.9840280  59.3779657
  10.7629966  26.1708058  59.7152556  10.6307834  25.5906849  59.2054316
  22.9306536  18.5283977  51.8423289  23.0490104  18.9860440  51.1090592
  22.7568712  17.7229238  51.5559507  22.9225707  18.4777749  51.6924223
  18.3008818  39.1371796  48.2778034  19.0658709  38.8681440  47.9560699
  18.1986908  38.6521807  48.9948097  18.3990314  39.0261361  48.3357862
  16.3361588  27.3396206  54.8171270  15.5457663  27.1587666  55.1388606
  16.7322211  26.5623158  54.8001564  16.2778464  27.1983667  54.8623818
  21.7205274  34.9738636  52.5430716  21.0450276  34.7423868  53.0444103
  21.7297650  34.3659819  51.9172821  21.6223779  34.8497561  52.5246868
  18.8499418  29.8156465  59.2994769  18.7858559  30.6766421  59.1714906
  18.9896606  29.4988458  58.4990320  18.8614888  29.8956632  59.1622982
  17.5318512  32.5088604  53.4410972  17.1080761  32.7093103  52.7049990
  17.3563367  31.6617452  53.5535272  17.4429393  32.4137386  53.3484662
  17.0330206  44.0239117  55.9032429  17.5226136  43.3249907  55.7208094
  16.4614438  43.7262987  56.4908486  17.0214736  43.8765341  55.9633470
  12.8200957  33.0040656  48.8738944  12.9765576  32.9387459  49.7294936
  13.1601550  33.7789208  48.6617624  12.8934192  33.1089854  48.9693539
  19.3580102  32.3798539  47.7432308  19.8995647  31.8768920  48.2070928
  19.6726661  32.3263734  46.9321793  19.4844499  32.2977960  47.6916120
  23.2297209  36.5901187  64.8559220  24.0432074  36.3186336  65.0164352
  23.0692175  36.2908727  64.0519416  23.3267158  36.5056113  64.7604626
  17.5266551  37.7715891  45.0272336  17.5959372  36.9130429  45.1665336
  18.3055007  37.9887772  44.6991360  17.6519402  37.6768755  44.9989493
  20.5069371  27.2734844  57.7954608  20.7211341  26.6345758  57.2417962
  19.8903270  27.7180668  57.3662470  20.4474700  27.2444988  57.6505039
  21.9174039  40.1953592  49.2408829  21.5253831  39.8920307  48.5231695
  22.0727111  41.0322682  49.0513783  21.8827629  40.2737429  49.1065326
   9.3935219  30.1875606  49.1899712   9.7734183  30.6060151  48.5259979
   8.8190583  30.7689062  49.4968555   9.3646543  30.3353465  49.1376453
  22.6708459  28.8823909  58.7337915  21.8585141  28.5749799  58.8151088
  23.1298394  28.4022909  59.2980627  22.6188844  28.7660401  58.8292509
  22.0813714  36.7603581  49.1814859  21.7228369  36.9318224  49.9578892
  21.5952425  37.2216787  48.6242858  21.9572411  36.8542552  49.2140129
  19.8984100  20.3834780  52.7841951  19.0277658  20.3573501  52.7375260
  20.1524441  20.2111972  51.9667797  19.8077660  20.3544923  52.6562088
  16.8702079  32.4402746  41.7215094  17.1594604  33.2167629  41.9958668
  16.9573878  31.9291478  42.4229593  16.9256335  32.4794665  41.8657592
  19.7661967  30.2883981  63.5166617  20.2361598  30.9126097  63.9034492
  19.8123847  29.6200956  64.0759832  19.8429842  30.2818661  63.6566689
  16.9233240  22.3941008  54.2415421  16.4071729  21.7021199  54.3667000
  16.3627169  23.0611785  54.1878020  16.7639753  22.3904266  54.2521487
  18.9925474  22.9333968  56.0708274  18.6057227  22.9583000  56.8521804
  18.5058411  22.3675647  55.6182790  18.8637983  22.8529719  56.1196177
  23.2418453  37.6507477  60.1282060  23.8798174  37.1567673  59.7944516
  22.5992545  37.5784877  59.5434287  23.2412680  37.5666486  59.9924415
  24.9675453  29.4996623  54.6947976  24.5403061  29.4122972  53.9396076
  24.3301506  29.6074398  55.2802820  24.8105060  29.5029283  54.6693418
  18.6582615  19.8200954  58.3618534  19.2875733  20.3561254  58.0839604
  18.8268478  19.7278312  59.2132099  18.7760410  19.8862316  58.4467062
  18.4596530  24.6072148  60.6344945  19.2869960  24.3357297  60.6903560
  18.4804376  25.4032990  60.9908763  18.5849380  24.6851902  60.6960128
  23.2972710  38.3427285  56.7687417  24.0865088  37.9916350  56.8889499
  23.4716308  39.1563674  56.5064051  23.4392991  38.4113142  56.7475285
  13.0366020  31.7536011  53.8215206  12.1954027  31.6539885  54.0294100
  13.2456028  32.5231491  54.1729527  12.9430713  31.8528054  53.9042521
  10.5141587  29.3755548  51.6499957  10.1198285  29.4498560  50.8750066
   9.9581704  29.7613494  52.2008318  10.3744399  29.4437323  51.6167616
  22.1506534  22.3536842  51.3303836  22.3556127  22.2859150  52.1760833
  21.8232958  23.1595663  51.2625013  22.1321782  22.4622782  51.4463491
  16.8482685  29.6817410  53.0712804  16.5445823  29.1273398  53.6723211
  16.1462106  29.8609620  52.5840838  16.6998895  29.6262193  53.0882509
  15.9048782  26.9917930  47.6357505  16.1808516  26.2736843  47.2235073
  16.5047451  27.5902850  47.4278611  16.0342047  26.9738301  47.5438267
  14.9101036  36.8967131  57.7784901  14.8021391  36.9069193  58.6446959
  15.1196818  37.7221911  57.5889855  14.9251147  37.0208206  57.8788993
  25.4040222  22.9068606  50.8106601  24.7914535  23.3939008  51.1960333
  25.5004397  22.2312097  51.3544252  25.3278119  22.8786915  50.9485459
  19.4059303  24.6631447  45.9104100  19.8603049  24.8342008  46.6351945
  19.8799348  24.0499558  45.5101876  19.5427623  24.5982333  45.9577862
  12.9274828  34.1479773  55.2406839  12.3362761  34.7889272  55.2109854
  13.6895852  34.5717391  55.2138138  12.9523089  34.3055612  55.2321986
  13.3235451  25.3081771  55.9074856  13.7836932  25.3820701  56.6449980
  13.3691558  26.1063025  55.5574678  13.3986006  25.4375918  55.9647613
  14.9718801  25.9748466  60.4746884  14.5804366  25.3281813  60.9102661
  15.1404663  26.5659901  61.0941139  14.9389711  25.9662734  60.6309590
  22.6864344  39.5989085  52.6738863  22.4884033  40.0879899  51.9795075
  22.0652055  39.8030326  53.2522997  22.5651909  39.7005623  52.6562087
  16.7472323  31.3673982  47.0149108  17.4914368  31.7548258  47.2532057
  16.8933019  30.5231407  47.1789595  16.8782908  31.3004455  47.0743077
  18.6651898  23.1624241  52.0480969  17.8187943  23.3347048  51.9222319
  18.6623031  22.3573584  52.3846797  18.5399048  23.0685270  52.0792096
  19.7350198  26.9399455  52.9143027  19.2610153  26.4141217  53.4248338
  20.1068334  26.3928928  52.3457888  19.7200087  26.7815452  52.9058174
  10.1123229  28.9370962  58.2826573  10.9748842  28.8366671  58.1963903
   9.7815012  28.3565671  57.7212145  10.1908425  28.8362588  58.1871979
  21.6633698  27.8336010  45.9768781  21.1356717  27.9164754  45.2874490
  22.1229406  28.5753881  45.9733425  21.6535549  27.9556672  45.8743476
  24.6038146  33.1653237  58.2084112  25.3272345  32.7125764  58.0295132
  24.3388109  33.4457903  57.4256440  24.6719420  33.1404206  58.0662827
  13.4725015  27.7613411  54.9436991  12.8478085  27.7731803  54.3362944
  13.1370609  28.2373586  55.5928231  13.3310506  27.8331928  54.9493559
  13.6566763  26.1038529  41.0009676  13.3079568  26.7558254  41.4641225
  13.1763209  26.0895642  40.2733547  13.5337007  26.1981583  40.9620767
  10.1850690  35.8213871  56.3840755   9.6550615  35.1306310  56.4335730
  10.4575783  35.8124056  55.5553464  10.1475412  35.7181003  56.2688171
  21.2170781  36.4039573  45.1078438  21.9404980  36.8697686  44.9643011
  20.7771372  36.4713183  44.3576035  21.2586473  36.4823410  44.9763219
  20.3856936  33.2637115  56.3579127  19.7713929  32.7195166  56.6527762
  20.9024221  32.7501352  55.8784943  20.3712598  33.1073524  56.3303355
  19.6253233  34.3341385  54.0923425  19.1980841  33.7091104  53.6588861
  19.6178177  34.0516307  54.9182433  19.5612374  34.1994166  54.1503253
  12.7415760  29.3706559  57.1611859  12.9009247  28.6149883  57.5663581
  12.5608654  29.9197498  57.8152597  12.7381119  29.3400372  57.3174565
  20.6836063  21.5367794  57.7162649  20.1876624  21.7331468  57.0254216
  21.4405125  21.9360462  57.5451450  20.7222888  21.6245528  57.5882786
  17.9538943  25.2110140  54.3065959  17.9781430  24.6770252  53.6178739
  18.2050416  24.7027449  54.9691550  17.9948861  25.0571044  54.3030604
   5.4646532  32.4941635  53.7409103   5.3589981  32.4488479  52.8761188
   4.7146752  32.8395416  54.0223388   5.3382135  32.5382543  53.6546433
  14.2340265  23.9380958  53.6871704  14.2738636  24.4390165  54.4006411
  13.4089929  24.0291352  53.4177627  14.1179791  24.0262775  53.7522242
  16.4169878  33.5041698  61.7891998  15.5665508  33.6413413  61.9249643
  16.5798005  32.7705476  62.2339700  16.3153741  33.4155799  61.8747597
  15.6554628  30.4541468  55.9845603  14.8246558  30.6215286  55.7780851
  15.6006145  30.0777419  56.7694488  15.5244043  30.4231199  56.0694131
  13.4638411  23.9450361  61.6202013  14.0891115  23.4012494  61.8931446
  13.0088891  23.4645279  61.0509804  13.4886672  23.7939842  61.5763607
  14.0290672  28.7297060  46.5135720  14.1693633  29.2269524  47.2164362
  14.5273205  28.0283354  46.6549934  14.1231753  28.6999038  46.6387299
  14.0590894  29.5964171  43.8428297  14.6935974  30.1924596  43.7777759
  14.1416505  29.2967628  44.6574167  14.1647445  29.6405079  43.9531384
  27.0373460  32.1279648  56.7114661  27.6291300  32.7676899  56.7432859
  27.4732455  31.4302685  57.0006728  27.1891891  32.1197998  56.7595494
  15.6369877  25.5278146  43.8173739  15.9585718  25.0481229  43.1633002
  15.8996821  26.3377792  43.6264551  15.7235903  25.5768044  43.6929231
  18.8666850  36.5497020  57.3372555  18.3591941  37.1032867  57.7813186
  18.5693496  36.6105310  56.5191330  18.7471735  36.6403332  57.2821012
  21.0329032  24.9150340  56.1797218  21.4584104  24.4622866  55.5680745
  20.4186025  24.3610411  56.4562006  21.0057678  24.7664316  56.1302244
  10.5643882  31.7932011  47.1117843  11.0736112  32.3896519  47.4929149
  11.0378155  31.5257985  46.4294263  10.7087258  31.8417827  47.0672366
  21.4774630  40.4660278  45.2676499  20.7603940  40.2921140  44.8023736
  22.1281368  40.2312850  44.7351985  21.4676481  40.4056071  45.1205717
  19.4723255  21.3865440  49.5887795  18.8291573  21.2363086  50.1572934
  19.1322662  21.1407785  48.8236900  19.3268332  21.3277562  49.5590810
  24.0622602  29.3424867  49.0117804  23.3913791  29.8854569  48.8830869
  24.7562352  29.8119722  48.7699499  24.0651469  29.4923138  48.9573332
  18.1109335  41.4821579  54.2429562  17.8874990  40.7240408  54.6113589
  17.6219179  41.5119600  53.5210002  18.0052784  41.3743803  54.1906303
  24.2250729  25.7980750  51.9208177  24.5778339  25.3710473  52.5953976
  23.3665530  25.7131594  52.0509254  24.1500174  25.7225491  52.0403188
  12.9234414  28.4288270  49.9791024  12.2046403  28.8452403  50.2463887
  13.2946776  28.9942509  49.4282662  12.8726346  28.5737551  49.9373831
  22.2233995  29.0616119  55.8693019  22.2031922  28.8799414  56.7227798
  22.2713196  29.9328137  55.8452603  22.2268636  29.1632657  55.9916314
  20.1680325  35.6503311  61.7941496  20.1276180  35.0052988  61.2086652
  20.9803643  35.5939928  62.1066908  20.2823478  35.5462278  61.7538445
  16.7587792  41.7022037  51.6966647  16.3448191  41.0396167  51.3070489
  17.4435166  41.8499896  51.1762341  16.7986164  41.6262695  51.5623144
  20.1253086  40.8612122  52.4490263  19.7269370  40.9714392  51.6811084
  19.5104306  41.0694188  53.0316823  19.9751976  40.9085690  52.4221563
  18.6980988  27.4686270  45.3164403  18.1045828  27.7903266  44.7648970
  18.7356266  26.6227365  45.1085509  18.6155377  27.3910598  45.2047174
  25.6574789  20.9199162  52.8492490  25.1505654  20.2128302  52.7813667
  26.4542223  20.5892351  52.9793566  25.7002028  20.7672314  52.8591485
  21.5738805  27.4265774  48.7466153  21.3452498  27.4498476  47.9044512
  21.8336881  26.6023241  48.8661164  21.5784993  27.3081854  48.6391351
  15.8558033  29.2800247  58.3491254  15.3436936  28.6721430  58.7076285
  15.6837530  29.9956840  58.8165229  15.7547670  29.2963547  58.4707477
  10.7023748  27.7237823  60.9993615  10.5326338  28.3839198  60.4541822
  10.2589698  27.9344384  61.7206104  10.6123082  27.8523805  61.0255245
  14.6283567  25.9642321  50.0420349  15.1040934  26.3259401  49.4070530
  14.1272167  26.6198788  50.3220492  14.6248926  26.1136509  49.9897090
  27.8594929  35.4364089  45.8333354  28.2428535  36.1855445  46.0631451
  27.0639042  35.6829908  45.5745343  27.7988711  35.5833783  45.8290928
  19.7327104  27.2024492  60.7893509  20.2898534  26.9738302  60.1571975
  19.4088169  27.9630158  60.5128722  19.7673514  27.2808329  60.6550006
   7.6025813  30.6284688  56.2582105   7.0552532  29.9585334  56.3762974
   8.3918191  30.2614536  56.3225572   7.6377996  30.4749675  56.2850806
  17.4510221  30.2892145  61.7545516  18.2021548  30.6043822  62.0685070
  17.6432797  30.0871316  60.9279438  17.5901635  30.3059527  61.6788912
  16.6710221  28.1083520  43.4093733  17.0509185  28.1263150  42.6244848
  15.9302817  28.5537509  43.2884580  16.6179058  28.1765295  43.2757301
  24.2995511  26.4165712  48.9969312  24.2989738  26.2614368  49.8553588
  24.0951691  27.2628699  48.9410697  24.2695289  26.5186332  49.1157251
   6.3612782  29.8405496  53.4128128   6.1834543  29.3882105  54.1383044
   6.0731804  30.6431658  53.5966606   6.2925735  29.8928054  53.5471631
  22.0236363  31.0963213  52.6505519  22.5190028  30.3786209  52.6109539
  21.2136139  30.7934011  52.5360006  21.9780256  30.9460860  52.6279244
  17.4694975  34.9461027  44.8002523  16.6606297  34.6227700  44.7535832
  17.9769884  34.2394249  44.7330772  17.4244641  34.7942343  44.7832817
   8.0985252  32.3733220  50.5249887   7.2330771  32.3618910  50.4132659
   8.1984068  32.1863443  51.3721027   7.9859419  32.3439281  50.6338832
  24.0888182  33.8466901  55.3382647  24.5143254  33.3241323  54.7853072
  23.7245102  34.4447738  54.8171270  24.0974785  33.8577128  55.1791657
  13.7242262  42.1431118  54.0979993  14.0388821  42.9567507  54.1057775
  14.1335675  41.7581337  54.7662152  13.8310360  42.2059821  54.1984084
  20.6766781  37.5601165  51.6683805  21.1477960  38.2741428  51.8373790
  21.0126960  36.9599915  52.2043674  20.7961897  37.5772630  51.7716181
  22.7643766  39.1702479  63.8475877  22.8740732  38.3811039  64.2032624
  23.0934663  39.0808415  63.0450215  22.8296172  39.0408332  63.7818268
  17.5936276  22.3328636  58.6241900  17.7264182  21.5359629  58.9522875
  17.9781429  22.8595039  59.2040175  17.6692605  22.2928553  58.7585402
  21.3140728  37.3519099  58.4311497  20.7661674  36.7276983  58.1631563
  21.7753757  37.5413371  57.7155577  21.3007937  37.2878150  58.2861929
  20.6668632  19.2558962  55.2222993  19.8614595  19.1456692  55.5390831
  20.5375367  19.3571418  54.3652859  20.5288764  19.2542632  55.1431033
  24.1234592  25.4204454  55.8162690  23.5397581  25.9213660  55.4040257
  24.4438886  24.9134010  55.1827013  24.0847767  25.4196289  55.6621197
  16.6629391  24.3345049  46.0921365  17.4845086  24.5043362  45.8503059
  16.1999042  24.4892310  45.3687662  16.7160554  24.3826782  45.9493009
  15.2524723  22.3287811  56.8719793  15.7969136  21.9878938  57.4624135
  15.3061659  23.1873272  57.0141078  15.3413843  22.4043070  56.9801667
  11.0655282  36.0904227  53.7458601  11.6700139  36.0500061  53.1172422
  10.8582595  36.9375379  53.7762657  11.1244179  36.2092229  53.6574718
  20.8799054  38.3570172  54.9620839  21.6997428  38.2133138  55.2237134
  20.5993132  38.9816371  55.5037277  20.9595797  38.4280524  55.0808778
   6.3006564  35.0738844  53.6157524   6.2030842  34.2635116  53.9247581
   7.0835434  35.0530638  53.2303792   6.4022701  34.9505935  53.6044387
  30.5512389  45.1010675  52.6816645  29.6950285  45.2619173  52.7325762
  30.5980043  44.2302739  52.7021706  30.4311501  44.9961477  52.6922711
  24.9353529  54.6373393  48.4453877  24.1836429  54.2588931  48.2169922
  25.3839541  54.6691826  47.6972687  24.8903196  54.5859000  48.3011379
  33.8606106  51.3697200  62.2877102  34.5672873  50.8749231  62.4164036
  34.0494041  51.8106282  61.5579760  33.9934011  51.3615551  62.1986147
  30.3878489  55.0598762  43.8739424  30.0529857  55.7375684  43.4383646
  30.9005359  54.6704073  43.2856296  30.4144070  55.1023340  43.7226216
  29.9282780  57.0113031  49.8150536  30.3122160  57.5799930  49.2755311
  29.8641921  56.2862541  49.3356352  29.9756207  56.9888494  49.6644398
  33.3964210  47.1602719  55.3248297  33.9420170  47.8387805  55.3842267
  33.3381087  47.0190180  54.4649879  33.4680125  47.2394720  55.2060358
  26.5138285  54.6491785  50.7116649  26.6148648  53.8392139  51.0213777
  25.9180030  54.5548731  50.0816328  26.4410824  54.5156813  50.6642888
  26.3539025  59.5669374  52.1131506  26.9976480  60.0082538  52.5027664
  26.6795280  58.7622800  52.0261764  26.4970853  59.5134569  52.1576983
  19.7103330  50.6712071  50.3368983  19.4753514  49.8379724  50.2301252
  19.8488970  50.9516737  49.5230184  19.6958992  50.5895575  50.2011338
  22.0093417  42.8397802  53.2353291  21.3898449  42.2490449  53.0663306
  21.9077281  43.4309237  52.6017614  21.9031092  42.8401884  53.1158280
  27.0559605  52.5781349  47.4851367  27.3775446  53.1186556  46.8812675
  27.7031701  52.0078120  47.6173657  27.1985660  52.5740524  47.4158403
  21.7362550  46.3850084  55.4796860  21.6121247  46.9712529  56.1146679
  22.3880834  45.8910279  55.7809135  21.8136199  46.3988888  55.6182789
  29.2949248  50.9667789  47.5565545  29.7342883  50.3584889  48.0020318
  29.1453911  50.5875162  46.7851010  29.3370714  50.8206260  47.5084713
  26.7620891  49.5611801  54.7584371  27.4069894  49.0684244  54.4395319
  27.0022668  49.7036587  55.5850449  26.8931476  49.5089243  54.8333904
  29.3006982  52.4066706  54.4091263  29.5830225  51.6118112  54.1878019
  30.0293143  52.8847294  54.4296324  29.4496546  52.3601303  54.3794279
  32.8958585  49.3194970  44.5096315  32.8109880  50.1755937  44.6545883
  33.3842968  49.0439294  45.1778474  32.9547482  49.4052292  44.6298396
  25.7176626  49.8342981  44.8101518  25.1333841  50.3393012  45.2167382
  25.3146721  49.6085368  44.0698110  25.5715929  49.8751229  44.7606543
  21.2720654  55.5497742  51.6125189  20.7888232  56.2748232  51.5884773
  22.0843972  55.8473872  51.7235347  21.3211402  55.7000096  51.6252469
  27.3434808  54.3429923  54.2175004  26.8261750  53.9837338  53.6136312
  28.0409199  53.8192097  54.2281070  27.3700389  54.2127611  54.1305262
  30.9998400  54.7924737  60.1791177  31.0881746  54.6050877  61.0269387
  31.4288113  54.1462166  59.7796024  31.0760503  54.6687745  60.2462928
  28.5668860  54.0755897  59.1608839  28.0039695  53.6628507  59.6848500
  29.3289883  54.0008803  59.5801982  28.5963309  54.0033297  59.3001839
  24.1264851  56.0653918  51.7645469  24.8285431  55.5505907  51.8218226
  24.0462335  56.3928069  52.5692344  24.2188612  56.0368144  51.8918261
  23.4515627  52.2560270  51.2731077  24.2904526  52.4883203  51.3204839
  23.4827396  51.3864581  51.2038113  23.5797344  52.1617217  51.2695722
  24.0768330  52.6761145  55.5744383  24.6166555  52.5332276  56.2447755
  23.3938276  53.0757896  55.9428409  24.0560484  52.7140816  55.7278804
  33.5009215  48.3552146  50.7689407  34.2566730  48.7883660  50.8078316
  33.6071539  47.7056916  51.3424043  33.6279385  48.3229630  50.8587433
  36.5389386  52.1825423  51.5191810  36.1024618  52.1862166  52.2750781
  36.2052301  52.8630922  51.0871388  36.4252006  52.2837879  51.5672643
  31.1118459  54.2233756  62.8434960  31.8958876  54.3364604  63.2090702
  30.9115054  53.3974893  63.0393646  31.1984485  54.1180475  62.9269346
  19.4805475  48.8961436  55.7278804  19.2143890  48.0800553  55.8869795
  19.4944039  48.9414592  54.8574320  19.4430197  48.7818341  55.6232286
  24.2304081  42.4339814  58.3745812  23.5375878  41.9636794  58.6206543
  24.8464409  42.2078119  58.9487519  24.2188611  42.3306946  58.4954965
  31.2688853  56.1343858  56.4901416  30.4704099  55.8943358  56.7475285
  31.7174864  56.1858251  57.2368464  31.2163464  56.1066249  56.6386340
  30.5610540  52.1976474  42.7192371  30.9761688  51.8661498  42.0276866
  29.7302469  51.9645377  42.5912507  30.4998549  52.1147730  42.5983218
  19.8898889  49.6820215  53.0090548  19.7074462  49.6567101  52.1562841
  20.6248558  50.1519153  53.0479457  19.9712952  49.7481578  52.8888467
  22.9544640  46.4005218  59.5172657  23.6784613  46.3858249  60.0037552
  23.0560777  47.1100574  59.0194625  23.0762849  46.5029922  59.5151444
  30.3289590  49.8804303  64.3821604  29.5362570  50.1947815  64.5674224
  30.4438517  50.0955771  63.5442389  30.2285000  49.9588140  64.2859939
  31.2573383  49.7824507  59.3206901  31.8312244  49.1451751  59.4755465
  31.1788186  49.7828589  58.4516558  31.3306617  49.6889618  59.2153312
  19.8569799  46.5613716  53.1589615  20.4343302  46.4250167  53.7981860
  19.1583861  46.1049500  53.4135199  19.8390820  46.4735982  53.2911905
  26.6137101  48.2147772  51.3728098  26.3556345  47.3819507  51.3459398
  26.6685584  48.4405385  50.5320599  26.5836879  48.1245543  51.2448235
  25.5871813  45.7685534  51.8592993  25.0121405  45.9277703  52.4956954
  25.2107490  45.1320943  51.3961444  25.4474626  45.6983347  51.8847551
  29.2545102  44.2408884  56.7185371  28.8659535  43.8163101  56.0637563
  28.5899800  44.4891033  57.2262398  29.0992030  44.2147605  56.6973239
  15.3328632  45.4125609  49.8737434  15.4188884  45.0357477  50.6550964
  15.9604430  45.0386055  49.3957392  15.4385183  45.3011091  49.9182911
  30.3584040  48.4707488  44.9162178  31.1724679  48.7622381  44.8044950
  30.2943181  47.8167351  44.3420471  30.4686779  48.4172683  44.8151016
  36.5793530  51.1533484  59.3291754  36.3432168  50.3221549  59.2103815
  37.2236759  51.1019091  59.9146598  36.6388201  51.0231172  59.3977648
  26.2291948  51.9429006  50.0434491  26.8665895  51.7040753  50.5886284
  26.6547020  52.1466165  49.3087651  26.3868115  51.9380016  50.0151648
  20.9204591  54.1817342  53.9268794  20.9608736  54.4532193  53.0988574
  21.4799115  54.7059250  54.3426582  21.0087937  54.2993097  53.8660682
  27.0363304  40.4437711  64.0971964  26.7216745  41.2137273  63.8341527
  26.7153236  39.8807967  63.5124191  26.9422223  40.4747979  63.9713314
  37.6029951  50.9377933  55.3920049  37.2975768  51.6705990  55.7533364
  36.8836167  50.5315863  55.1112835  37.4517293  50.9859666  55.4033186
  28.6113420  52.4201428  51.7228277  28.6852429  52.2576600  52.5770127
  29.4282927  52.6091618  51.4788758  28.7429779  52.4238171  51.8126302
  22.3719177  52.7659291  48.7522720  21.5457295  53.0121028  48.6256999
  22.4331168  52.6871372  49.6184778  22.2593344  52.7904240  48.8611665
  24.5895201  38.8328232  49.7118160  23.7217626  38.9050832  49.7775770
  24.8770405  39.6350311  49.9006136  24.5034949  38.9622379  49.7492927
  33.7128090  38.9806091  58.0429482  34.4581682  38.7915902  57.6292908
  33.2965394  39.5064329  57.4843339  33.7613064  39.0308237  57.8994055
  27.1518006  55.3836171  46.4541750  27.4416304  54.9925153  45.7300977
  27.8821487  55.5652876  46.8947025  27.3024890  55.3529985  46.4124557
  27.7412751  50.1853917  57.5394881  27.2424445  50.8969685  57.6179769
  28.5512976  50.5054584  57.5013043  27.7868858  50.3380766  57.5451449
  25.0923922  57.3603554  49.5201900  24.8724217  57.0700908  50.3128567
  24.8718444  56.7018509  48.9919812  25.0271516  57.2203262  49.5590809
  24.0040869  49.4476870  51.7857602  23.7154118  48.8214341  52.3203329
  24.8724217  49.3897158  51.8522282  24.0901121  49.3464414  51.8748556
  27.2591877  58.7332944  48.3032592  27.9115935  58.2009386  48.5323618
  26.5617486  58.3801596  48.6900466  27.2522595  58.6022467  48.3944760
  24.2073142  51.0872121  47.7099967  24.9619110  51.4685160  47.9235429
  23.6143755  51.5383265  48.1646663  24.2309856  51.2100949  47.8082845
  35.2531796  51.0537358  47.6463572  35.8189828  51.7130568  47.5622114
  34.6059699  51.3987056  48.1179974  35.2410552  51.2019299  47.7036328
  26.6679809  43.0434962  62.8357179  25.8579585  43.3492741  62.7247021
  27.1454496  43.7640544  62.9509763  26.6183288  43.1949563  62.8364250
  25.5271369  52.2580683  53.0840082  25.0052122  52.3980974  53.7691947
  25.9145389  51.4991347  53.2742199  25.5075070  52.1666206  53.2141159
  22.5162553  42.3086491  47.1535037  22.2287349  41.9387762  46.4166984
  23.2033021  42.7781347  46.8918742  22.5751450  42.3233461  47.0050112
  31.7238374  53.9976142  47.0700651  31.4825050  53.2644003  46.6627716
  31.9039707  54.5462999  46.4166984  31.7145998  53.9698533  46.9130874
  26.9537694  49.2884702  48.4821573  26.7580477  49.8959436  47.8881876
  27.1772040  48.5952646  48.0013247  26.9572335  49.2762227  48.3237654
  25.3516224  46.1739440  48.6002441  26.0738876  46.3380598  48.1406247
  24.8724217  46.8949104  48.4941781  25.3879955  46.3037669  48.5168055
  33.3109732  42.5103238  53.9799126  32.4720833  42.5364517  53.7437390
  33.3814099  43.1573974  54.5604473  33.1978126  42.6099364  54.0308243
  23.0023841  48.5797512  57.7056581  23.5144938  48.8581765  57.0565341
  22.7160184  49.3186806  58.0719394  23.0358704  48.7299866  57.6646459
  20.0890748  43.0867704  48.0020318  20.1906884  43.8893865  48.3301293
  20.8846634  42.8855040  47.7043398  20.2218653  43.1753603  48.0055673
  26.5207567  40.6723901  57.7657623  26.3290764  40.6879035  58.6157046
  27.3706163  40.8687575  57.7424278  26.6183289  40.7038252  57.8880918
  20.9054480  43.2014882  55.7441439  20.7639971  42.3498823  55.8685947
  21.1895043  43.2443543  54.9203645  20.9262326  43.0814632  55.6409063
  34.9541121  51.7465332  53.6772709  34.8155480  52.4446377  54.1821451
  34.1741119  51.5913988  53.3208891  34.8184348  51.8265498  53.6998983
  33.2919206  48.0461707  59.9295091  33.2867244  47.1741523  59.9337517
  33.9980200  48.2449876  59.4564546  33.3964210  47.9465581  59.8602126
  27.0190099  47.7738691  59.3008911  27.1633475  48.3539899  58.6652021
  27.3665748  48.1514988  60.0058765  27.0917561  47.9159395  59.3107906
  29.1910017  46.9728859  57.0834042  28.4433331  47.1659874  56.6782320
  29.3451542  46.1474079  56.8458164  29.1032444  46.8793971  56.9879448
  26.0917854  55.9641463  56.1669937  26.2407418  55.4044379  55.5143342
  26.8717856  56.0433464  56.5502456  26.2291948  55.8927028  56.1266887
  28.6171155  56.1356106  57.4454428  28.5414826  55.4664916  58.0005217
  28.5461014  56.8373894  57.9595095  28.5951762  56.1401013  57.6031276
  29.4311794  40.8679410  57.9729446  29.8884408  41.6003384  58.1002238
  29.5068122  40.4445875  58.7316702  29.5102763  40.9136648  58.1030522
  21.6744785  41.1145230  59.0618890  21.1386974  40.5025588  59.3779657
  21.7362550  41.6893366  59.7152556  21.6040418  41.1092157  59.2054316
  29.2741402  54.6557104  48.2778034  30.0391293  54.3866748  47.9560699
  29.1719492  54.1707115  48.9948097  29.3722897  54.5446669  48.3357862
  27.3094172  42.8581514  54.8171270  26.5190246  42.6772974  55.1388606
  27.7054794  42.0808466  54.8001564  27.2511048  42.7168975  54.8623818
  32.6937858  50.4923944  52.5430716  32.0182860  50.2609176  53.0444103
  32.7030234  49.8845127  51.9172821  32.5956362  50.3682869  52.5246868
  29.8232002  45.3341773  59.2994769  29.7591143  46.1951729  59.1714906
  29.9629190  45.0173766  58.4990320  29.8347472  45.4141940  59.1622982
  28.5051096  48.0273912  53.4410972  28.0813345  48.2278411  52.7049990
  28.3295951  47.1802760  53.5535272  28.4161976  47.9322694  53.3484662
  28.0062789  59.5424425  55.9032429  28.4958719  58.8435215  55.7208094
  27.4347021  59.2448295  56.4908486  27.9947319  59.3950649  55.9633470
  23.7933541  48.5225964  48.8738944  23.9498160  48.4572767  49.7294936
  24.1334134  49.2974516  48.6617624  23.8666776  48.6275162  48.9693539
  30.3312685  47.8983847  47.7432308  30.8728231  47.3954228  48.2070928
  30.6459244  47.8449042  46.9321793  30.4577082  47.8163268  47.6916120
  34.2029793  52.1086495  64.8559220  35.0164658  51.8371644  65.0164352
  34.0424759  51.8094035  64.0519416  34.2999741  52.0241421  64.7604626
  28.4999135  53.2901199  45.0272336  28.5691955  52.4315737  45.1665336
  29.2787590  53.5073080  44.6991360  28.6251985  53.1954063  44.9989493
  31.4801955  42.7920152  57.7954608  31.6943924  42.1531066  57.2417962
  30.8635854  43.2365976  57.3662470  31.4207284  42.7630296  57.6505039
  32.8906623  55.7138900  49.2408829  32.4986414  55.4105615  48.5231695
  33.0459695  56.5507990  49.0513783  32.8560212  55.7922737  49.1065326
  20.3667802  45.7060914  49.1899712  20.7466767  46.1245459  48.5259979
  19.7923167  46.2874370  49.4968555  20.3379127  45.8538773  49.1376453
  33.6441043  44.4009217  58.7337915  32.8317724  44.0935107  58.8151088
  34.1030977  43.9208217  59.2980627  33.5921427  44.2845709  58.8292509
  33.0546297  52.2788889  49.1814859  32.6960952  52.4503532  49.9578892
  32.5685008  52.7402095  48.6242858  32.9304994  52.3727860  49.2140129
  30.7394550  45.8069288  63.5166617  31.2094181  46.4311405  63.9034492
  30.7856430  45.1386264  64.0759832  30.8162426  45.8003969  63.6566689
  29.9658057  38.4519276  56.0708274  29.5789810  38.4768307  56.8521804
  29.4790995  37.8860955  55.6182790  29.8370566  38.3715027  56.1196177
  34.2151037  53.1692785  60.1282060  34.8530757  52.6752981  59.7944516
  33.5725128  53.0970185  59.5434287  34.2145263  53.0851793  59.9924415
  29.6315199  35.3386261  58.3618534  30.2608317  35.8746561  58.0839604
  29.8001062  35.2463620  59.2132099  29.7492994  35.4047624  58.4467062
  29.4329114  40.1257456  60.6344945  30.2602543  39.8542605  60.6903560
  29.4536960  40.9218298  60.9908763  29.5581964  40.2037210  60.6960128
  34.2705293  53.8612593  56.7687417  35.0597671  53.5101658  56.8889499
  34.4448891  54.6748982  56.5064051  34.4125575  53.9298450  56.7475285
  24.0098604  47.2721319  53.8215206  23.1686610  47.1725193  54.0294100
  24.2188612  48.0416799  54.1729527  23.9163296  47.3713362  53.9042521
  21.4874171  44.8940856  51.6499957  21.0930868  44.9683868  50.8750066
  20.9314288  45.2798802  52.2008318  21.3476983  44.9622631  51.6167616
  27.8215269  45.2002718  53.0712804  27.5178406  44.6458706  53.6723211
  27.1194689  45.3794928  52.5840838  27.6731478  45.1447500  53.0882509
  25.8833620  52.4152439  57.7784901  25.7753975  52.4254501  58.6446959
  26.0929401  53.2407219  57.5889855  25.8983731  52.5393514  57.8788993
  23.9007412  49.6665081  55.2406839  23.3095345  50.3074579  55.2109854
  24.6628435  50.0902699  55.2138138  23.9255672  49.8240920  55.2321986
  24.2968034  40.8267079  55.9074856  24.7569516  40.9006008  56.6449980
  24.3424141  41.6248333  55.5574678  24.3718590  40.9561226  55.9647613
  25.9451384  41.4933774  60.4746884  25.5536949  40.8467121  60.9102661
  26.1137247  42.0845209  61.0941139  25.9122294  41.4848042  60.6309590
  33.6596928  55.1174393  52.6738863  33.4616616  55.6065207  51.9795075
  33.0384639  55.3215634  53.2522997  33.5384492  55.2190931  52.6562087
  27.7204906  46.8859290  47.0149108  28.4646951  47.2733566  47.2532057
  27.8665602  46.0416715  47.1789595  27.8515491  46.8189762  47.0743077
  21.0855812  44.4556270  58.2826573  21.9481425  44.3551979  58.1963903
  20.7547595  43.8750979  57.7212145  21.1641009  44.3547896  58.1871979
  24.4457598  43.2798719  54.9436991  23.8210668  43.2917111  54.3362944
  24.1103193  43.7558894  55.5928231  24.3043090  43.3517236  54.9493559
  21.1583274  51.3399179  56.3840755  20.6283198  50.6491618  56.4335730
  21.4308367  51.3309364  55.5553464  21.1207996  51.2366311  56.2688171
  32.1903364  51.9224881  45.1078438  32.9137563  52.3882994  44.9643011
  31.7503955  51.9898491  44.3576035  32.2319056  52.0008718  44.9763219
  31.3589519  48.7822423  56.3579127  30.7446512  48.2380474  56.6527762
  31.8756804  48.2686660  55.8784943  31.3445182  48.6258832  56.3303355
  30.5985816  49.8526693  54.0923425  30.1713424  49.2276412  53.6588861
  30.5910761  49.5701615  54.9182433  30.5344958  49.7179474  54.1503253
  23.7148344  44.8891866  57.1611859  23.8741830  44.1335191  57.5663581
  23.5341237  45.4382806  57.8152597  23.7113703  44.8585680  57.3174565
  31.6568647  37.0553102  57.7162649  31.1609208  37.2516776  57.0254216
  32.4137709  37.4545770  57.5451450  31.6955471  37.1430836  57.5882786
  28.9271526  40.7295448  54.3065959  28.9514013  40.1955560  53.6178739
  29.1783000  40.2212757  54.9691550  28.9681445  40.5756352  54.3030604
  16.4379116  48.0126943  53.7409103  16.3322565  47.9673787  52.8761188
  15.6879336  48.3580723  54.0223388  16.3114719  48.0567851  53.6546433
  25.2072848  39.4566266  53.6871704  25.2471220  39.9575473  54.4006411
  24.3822513  39.5476660  53.4177627  25.0912374  39.5448083  53.7522242
  27.3902461  49.0227006  61.7891998  26.5398092  49.1598720  61.9249643
  27.5530589  48.2890784  62.2339700  27.2886325  48.9341107  61.8747597
  26.6287212  45.9726776  55.9845603  25.7979141  46.1400594  55.7780851
  26.5738729  45.5962727  56.7694488  26.4976627  45.9416507  56.0694131
  24.4370995  39.4635669  61.6202013  25.0623698  38.9197802  61.8931446
  23.9821475  38.9830587  61.0509804  24.4619256  39.3125150  61.5763607
  29.8399434  52.0682328  57.3372555  29.3324525  52.6218175  57.7813186
  29.5426080  52.1290618  56.5191330  29.7204319  52.1588640  57.2821012
  32.0061616  40.4335648  56.1797218  32.4316687  39.9808174  55.5680745
  31.3918609  39.8795719  56.4562006  31.9790261  40.2849624  56.1302244
  21.5376466  47.3117319  47.1117843  22.0468695  47.9081827  47.4929149
  22.0110738  47.0443293  46.4294263  21.6819842  47.3603135  47.0672366
  32.4507214  55.9845586  45.2676499  31.7336524  55.8106448  44.8023736
  33.1013951  55.7498158  44.7351985  32.4409064  55.9241379  45.1205717
  29.0841919  57.0006887  54.2429562  28.8607573  56.2425716  54.6113589
  28.5951762  57.0304908  53.5210002  28.9785368  56.8929111  54.1906303
  23.8966998  43.9473578  49.9791024  23.1778987  44.3637710  50.2463887
  24.2679360  44.5127817  49.4282662  23.8458929  44.0922859  49.9373831
  33.1966578  44.5801427  55.8693019  33.1764506  44.3984722  56.7227798
  33.2445779  45.4513445  55.8452603  33.2001219  44.6817965  55.9916314
  31.1412908  51.1688619  61.7941496  31.1008763  50.5238296  61.2086652
  31.9536226  51.1125236  62.1066908  31.2556062  51.0647586  61.7538445
  27.7320376  57.2207345  51.6966647  27.3180774  56.5581475  51.3070489
  28.4167750  57.3685203  51.1762341  27.7718747  57.1448003  51.5623144
  31.0985670  56.3797430  52.4490263  30.7001953  56.4899700  51.6811084
  30.4836889  56.5879496  53.0316823  30.9484559  56.4270998  52.4221563
  26.8290617  44.7985555  58.3491254  26.3169520  44.1906738  58.7076285
  26.6570113  45.5142148  58.8165229  26.7280254  44.8148855  58.4707477
  21.6756332  43.2423131  60.9993615  21.5058922  43.9024505  60.4541822
  21.2322282  43.4529692  61.7206104  21.5855665  43.3709113  61.0255245
  30.7059687  42.7209800  60.7893509  31.2631117  42.4923610  60.1571975
  30.3820752  43.4815466  60.5128722  30.7406097  42.7993637  60.6550006
  18.5758396  46.1469996  56.2582105  18.0285116  45.4770642  56.3762974
  19.3650774  45.7799844  56.3225572  18.6110580  45.9934983  56.2850806
  28.4242805  45.8077453  61.7545516  29.1754132  46.1229130  62.0685070
  28.6165381  45.6056624  60.9279438  28.5634219  45.8244835  61.6788912
  17.3345366  45.3590804  53.4128128  17.1567127  44.9067413  54.1383044
  17.0464388  46.1616965  53.5966606  17.2658319  45.4113362  53.5471631
  32.9968947  46.6148521  52.6505519  33.4922612  45.8971516  52.6109539
  32.1868722  46.3119319  52.5360006  32.9512840  46.4646168  52.6279244
  28.4427558  50.4646335  44.8002523  27.6338881  50.1413008  44.7535832
  28.9502467  49.7579557  44.7330772  28.3977225  50.3127651  44.7832817
  19.0717836  47.8918528  50.5249887  18.2063355  47.8804218  50.4132659
  19.1716651  47.7048751  51.3721027  18.9592002  47.8624589  50.6338832
  35.0620766  49.3652209  55.3382647  35.4875837  48.8426631  54.7853072
  34.6977685  49.9633046  54.8171270  35.0707368  49.3762436  55.1791657
  24.6974845  57.6616426  54.0979993  25.0121404  58.4752815  54.1057775
  25.1068259  57.2766645  54.7662152  24.8042943  57.7245129  54.1984084
  31.6499365  53.0786473  51.6683805  32.1210543  53.7926736  51.8373790
  31.9859544  52.4785223  52.2043674  31.7694480  53.0957937  51.7716181
  33.7376350  54.6887787  63.8475877  33.8473315  53.8996347  64.2032624
  34.0667246  54.5993723  63.0450215  33.8028755  54.5593639  63.7818268
  28.5668860  37.8513944  58.6241900  28.6996766  37.0544937  58.9522875
  28.9514013  38.3780347  59.2040175  28.6425189  37.8113860  58.7585402
  32.2873311  52.8704407  58.4311497  31.7394257  52.2462291  58.1631563
  32.7486340  53.0598679  57.7155577  32.2740521  52.8063457  58.2861929
  35.0967176  40.9389762  55.8162690  34.5130165  41.4398968  55.4040257
  35.4171470  40.4319318  55.1827013  35.0580351  40.9381597  55.6621197
  26.2257307  37.8473119  56.8719793  26.7701720  37.5064246  57.4624135
  26.2794243  38.7058580  57.0141078  26.3146426  37.9228378  56.9801667
  22.0387866  51.6089535  53.7458601  22.6432723  51.5685369  53.1172422
  21.8315178  52.4560687  53.7762657  22.0976763  51.7277537  53.6574718
  31.8531638  53.8755480  54.9620839  32.6730011  53.7318446  55.2237134
  31.5725715  54.5001679  55.5037277  31.9328381  53.9465832  55.0808778
  17.2739148  50.5924152  53.6157524  17.1763426  49.7820424  53.9247581
  18.0568018  50.5715946  53.2303792  17.3755284  50.4691243  53.6044387
  48.3245288  61.5320332  47.9263715  48.2939292  62.3864968  48.0981984
  48.9226637  61.2315624  48.4849859  48.4082446  61.6136828  48.0338517
  41.5244973  60.6195983  52.6816645  40.6682868  60.7804481  52.7325762
  41.5712627  59.7488047  52.7021706  41.4044084  60.5146785  52.6922711
  35.9086113  70.1558701  48.4453877  35.1569012  69.7774239  48.2169922
  36.3572124  70.1877134  47.6972687  35.8635779  70.1044308  48.3011379
  44.8338689  66.8882508  62.2877102  45.5405457  66.3934539  62.4164036
  45.0226625  67.3291590  61.5579760  44.9666595  66.8800859  62.1986147
  41.3611072  70.5784070  43.8739424  41.0262441  71.2560992  43.4383646
  41.8737943  70.1889381  43.2856296  41.3876654  70.6208648  43.7226216
  40.9015364  72.5298339  49.8150536  41.2854743  73.0985237  49.2755311
  40.8374505  71.8047849  49.3356352  40.9488791  72.5073802  49.6644398
  44.3696794  62.6788027  55.3248297  44.9152754  63.3573113  55.3842267
  44.3113670  62.5375488  54.4649879  44.4412708  62.7580028  55.2060358
  37.4870869  70.1677093  50.7116649  37.5881232  69.3577447  51.0213777
  36.8912614  70.0734039  50.0816328  37.4143407  70.0342121  50.6642888
  46.1461863  64.1072634  46.1982025  46.0301388  64.8580320  46.6274163
  46.9417749  63.8496587  46.4478112  46.2466452  64.1807481  46.2986116
  37.3271608  75.0854682  52.1131506  37.9709064  75.5267846  52.5027664
  37.6527864  74.2808108  52.0261764  37.4703437  75.0319877  52.1576983
  30.6835913  66.1897379  50.3368983  30.4486098  65.3565032  50.2301252
  30.8221554  66.4702045  49.5230184  30.6691576  66.1080883  50.2011338
  32.9826001  58.3583110  53.2353291  32.3631032  57.7675757  53.0663306
  32.8809864  58.9494545  52.6017614  32.8763676  58.3587192  53.1158280
  38.0292188  68.0966657  47.4851367  38.3508029  68.6371864  46.8812675
  38.6764285  67.5263428  47.6173657  38.1718243  68.0925832  47.4158403
  40.0793896  60.0982652  47.5685754  40.7774061  60.2770779  48.0607217
  40.3946229  59.5752991  46.9456143  40.2289233  60.0476424  47.5487764
  32.7095134  61.9035392  55.4796860  32.5853830  62.4897837  56.1146679
  33.3613418  61.4095587  55.7809135  32.7868783  61.9174196  55.6182789
  40.2681832  66.4853097  47.5565545  40.7075467  65.8770197  48.0020318
  40.1186494  66.1060470  46.7851010  40.3103297  66.3391568  47.5084713
  37.7353475  65.0797109  54.7584371  38.3802477  64.5869552  54.4395319
  37.9755252  65.2221895  55.5850449  37.8664060  65.0274551  54.8333904
  40.2739566  67.9252014  54.4091263  40.5562809  67.1303420  54.1878019
  41.0025726  68.4032602  54.4296324  40.4229130  67.8786611  54.3794279
  38.2520760  55.4675048  51.6507029  37.9224090  55.9186192  50.9810727
  37.5765762  55.3891212  52.1980035  38.1031196  55.5226184  51.6330252
  43.8691168  64.8380278  44.5096315  43.7842463  65.6941245  44.6545883
  44.3575551  64.5624602  45.1778474  43.9280065  64.9237599  44.6298396
  44.8009601  61.4565072  46.0094050  44.2721073  61.6724706  46.6691356
  45.3234621  62.1501211  45.9295019  44.7998054  61.5908209  46.0949649
  50.2557654  67.0311377  51.3827094  49.4255357  67.2422020  51.5460511
  50.2066907  66.2048431  51.1069378  50.1264390  66.9400983  51.3664460
  36.6909209  65.3528289  44.8101518  36.1066424  65.8578320  45.2167382
  36.2879304  65.1270676  44.0698110  36.5448513  65.3936537  44.7606543
  32.2453238  71.0683050  51.6125189  31.7620816  71.7933540  51.5884773
  33.0576556  71.3659180  51.7235347  32.2943985  71.2185404  51.6252469
  38.3167392  69.8615231  54.2175004  37.7994333  69.5022646  53.6136312
  39.0141783  69.3377405  54.2281070  38.3432973  69.7312919  54.1305262
  41.9730984  70.3110045  60.1791177  42.0614330  70.1236185  61.0269387
  42.4020696  69.6647474  59.7796024  42.0493086  70.1873053  60.2462928
  39.5401444  69.5941205  59.1608839  38.9772278  69.1813815  59.6848500
  40.3022467  69.5194110  59.5801982  39.5695892  69.5218605  59.3001839
  41.1486424  61.5993941  43.2870438  41.3882427  61.8071925  42.4745781
  41.4702265  60.7951450  43.3959383  41.2323581  61.5108042  43.1830991
  36.4576714  53.5287337  47.1329976  37.2122682  53.8965654  46.8947026
  36.2804248  53.9026891  47.9009156  36.5431192  53.6385525  47.2114865
  35.0997435  71.5839226  51.7645469  35.8018014  71.0691215  51.8218226
  35.0194918  71.9113377  52.5692344  35.1921195  71.5553452  51.8918261
  49.7511613  59.6781777  55.1777516  48.9140034  59.7483964  55.4125110
  49.7199843  59.6806272  54.3051818  49.6229895  59.6892004  55.0837064
  36.1476342  61.8214813  60.8925884  36.3196845  61.7120708  61.7411166
  36.6845699  62.4669218  60.6557077  36.2521346  61.9006815  60.9830981
  34.8133778  55.9357656  43.8308089  34.6309352  56.1529537  43.0049082
  35.6759391  56.0496668  43.8866704  34.9138368  55.9847554  43.7162576
  34.4248210  67.7745578  51.2731077  35.2637110  68.0068511  51.3204839
  34.4559980  66.9049889  51.2038113  34.5529928  67.6802524  51.2695722
  35.0500913  68.1946453  55.5744383  35.5899138  68.0517584  56.2447755
  34.3670860  68.5943204  55.9428409  35.0293067  68.2326124  55.7278804
  44.4741798  63.8737454  50.7689407  45.2299313  64.3068968  50.8078316
  44.5804123  63.2242224  51.3424043  44.6011969  63.8414938  50.8587433
  47.5121969  67.7010731  51.5191810  47.0757201  67.7047473  52.2750781
  47.1784885  68.3816230  51.0871388  47.3984589  67.8023187  51.5672643
  42.0851043  69.7419064  62.8434960  42.8691460  69.8549912  63.2090702
  41.8847638  68.9160201  63.0393646  42.1717068  69.6365783  62.9269346
  30.4538059  64.4146744  55.7278804  30.1876474  63.5985861  55.8869795
  30.4676623  64.4599900  54.8574320  30.4162781  64.3003649  55.6232286
  47.4319452  54.7424559  53.7621238  48.0745361  54.8122664  54.3483153
  47.6842473  54.0753782  53.2600780  47.5641584  54.6550908  53.7748517
  34.3595805  59.2131828  42.3430562  33.6453983  58.9270008  42.7552995
  34.8439774  59.5528454  42.9836950  34.3255169  59.2213478  42.4986197
  35.2036665  57.9525122  58.3745812  34.5108462  57.4822102  58.6206543
  35.8196992  57.7263427  58.9487519  35.1921195  57.8492254  58.4954965
  42.2421436  71.6529166  56.4901416  41.4436682  71.4128666  56.7475285
  42.6907448  71.7043559  57.2368464  42.1896048  71.6251557  56.6386340
  50.6466316  64.4191651  50.4111447  51.3082750  63.8582319  50.3107356
  50.0057728  63.9243682  50.7364138  50.6495183  64.2628060  50.4443787
  41.5343123  67.7161782  42.7192371  41.9494272  67.3846806  42.0276866
  40.7035053  67.4830685  42.5912507  41.4731132  67.6333038  42.5983218
  30.8631472  65.2005523  53.0090548  30.6807045  65.1752409  52.1562841
  31.5981141  65.6704461  53.0479457  30.9445536  65.2666886  52.8888467
  46.9331146  65.4357033  50.1523436  47.1686736  65.5802232  49.3250287
  47.0820710  66.1999441  50.5454950  46.9896950  65.5696088  50.0887040
  33.9277224  61.9190526  59.5172657  34.6517196  61.9043557  60.0037552
  34.0293360  62.6285882  59.0194625  34.0495433  62.0215229  59.5151444
  48.7621603  64.2758699  47.9893040  49.0929820  64.8086339  47.3833135
  49.3354691  64.3297587  48.6454991  48.8955282  64.3628268  47.9970822
  41.3022173  65.3989611  64.3821604  40.5095154  65.7133123  64.5674224
  41.4171100  65.6141079  63.5442389  41.2017584  65.4773448  64.2859939
  43.9753492  62.1223602  48.6716620  44.0700347  62.8612896  49.1256245
  43.3512336  61.6941077  49.1051185  43.8962522  62.1684923  48.8024768
  42.2305966  65.3009815  59.3206901  42.8044828  64.6637059  59.4755465
  42.1520770  65.3013897  58.4516558  42.3039201  65.2074926  59.2153312
  30.8302383  62.0799024  53.1589615  31.4075885  61.9435475  53.7981860
  30.1316444  61.6234808  53.4135199  30.8123404  61.9921290  53.2911905
  44.2276514  63.9672342  41.9053572  44.1456676  64.0374529  42.7708559
  44.8656234  64.5302086  41.7137313  44.3096351  64.0611313  42.0043521
  37.5869685  63.7333080  51.3728098  37.3288929  62.9004815  51.3459398
  37.6418168  63.9590693  50.5320599  37.5569463  63.6430851  51.2448235
  36.5604397  61.2870842  51.8592993  35.9853988  61.4463011  52.4956954
  36.1840073  60.6506251  51.3961444  36.4207209  61.2168655  51.8847551
  40.2277685  59.7594192  56.7185371  39.8392118  59.3348409  56.0637563
  39.5632384  60.0076341  57.2262398  40.0724613  59.7332913  56.6973239
  49.8700955  59.5169196  49.4933202  49.6137519  58.7049138  49.3031084
  50.7130269  59.5246763  49.2663389  49.9566980  59.3981194  49.4318019
  26.3061216  60.9310917  49.8737434  26.3921468  60.5542785  50.6550964
  26.9337013  60.5571363  49.3957392  26.4117767  60.8196399  49.9182911
  44.0504047  53.4568820  54.2309356  44.4314559  52.7746991  54.6177230
  43.2467331  53.1678422  54.0485020  43.9880509  53.3135869  54.2613412
  41.3316624  63.9892796  44.9162178  42.1457263  64.2807689  44.8044950
  41.2675765  63.3352658  44.3420471  41.4419363  63.9357991  44.8151016
  47.5526114  66.6718792  59.3291754  47.3164751  65.8406857  59.2103815
  48.1969343  66.6204399  59.9146598  47.6120785  66.5416480  59.3977648
  37.2024532  67.4614314  50.0434491  37.8398479  67.2226061  50.5886284
  37.6279604  67.6651472  49.3087651  37.3600698  67.4565324  50.0151648
  31.8937174  69.7002650  53.9268794  31.9341320  69.9717501  53.0988574
  32.4531698  70.2244558  54.3426582  31.9820520  69.8178405  53.8660682
  37.8427347  62.6816603  44.3809380  38.2272500  62.4624310  45.1325925
  37.5938967  63.5079549  44.5110456  37.8629420  62.7714750  44.5110456
  38.0095887  55.9623018  64.0971964  37.6949329  56.7322581  63.8341527
  37.6885820  55.3993275  63.5124191  37.9154807  55.9933287  63.9713314
  48.5762535  66.4563241  55.3920049  48.2708352  67.1891298  55.7533364
  47.8568750  66.0501170  55.1112835  48.4249877  66.5044974  55.4033186
  39.5846004  67.9386736  51.7228277  39.6585012  67.7761908  52.5770127
  40.4015510  68.1276926  51.4788758  39.7162363  67.9423479  51.8126302
  54.2764327  63.0956242  54.7188393  54.2088827  63.1152201  53.8490979
  54.2619989  63.9386569  54.9444063  54.2643083  63.2229976  54.6240870
  33.3451761  68.2844599  48.7522720  32.5189878  68.5306336  48.6256999
  33.4063752  68.2056680  49.6184778  33.2325928  68.3089548  48.8611665
  35.5627784  54.3513540  49.7118160  34.6950210  54.4236139  49.7775770
  35.8502989  55.1535619  49.9006136  35.4767532  54.4807687  49.7492927
  44.6860673  54.4991399  58.0429482  45.4314265  54.3101210  57.6292908
  44.2697978  55.0249637  57.4843339  44.7345647  54.5493545  57.8994055
  38.1250590  70.9021479  46.4541750  38.4148888  70.5110461  45.7300977
  38.8554071  71.0838184  46.8947025  38.2757474  70.8715293  46.4124557
  52.0622944  61.8700628  52.9934987  52.6130866  61.2368697  53.2332079
  52.0467059  62.4016021  53.6850492  52.1408140  61.8549576  53.1313845
  38.7145335  65.7039225  57.5394881  38.2157029  66.4154993  57.6179769
  39.5245559  66.0239892  57.5013043  38.7601442  65.8566074  57.5451449
  36.0656505  72.8788862  49.5201900  35.8456801  72.5886216  50.3128567
  35.8451027  72.2203817  48.9919812  36.0004099  72.7388570  49.5590809
  34.9773452  64.9662178  51.7857602  34.6886701  64.3399649  52.3203329
  35.8456801  64.9082466  51.8522282  35.0633704  64.8649722  51.8748556
  45.7651350  60.1096962  52.1039583  45.4216116  59.3887297  52.4546833
  45.8644393  59.9010813  51.2617942  45.7293393  59.9721165  52.0311263
  38.2324461  74.2518252  48.3032592  38.8848519  73.7194694  48.5323618
  37.5350070  73.8986904  48.6900466  38.2255179  74.1207775  48.3944760
  35.1805726  66.6057429  47.7099967  35.9351694  66.9870468  47.9235429
  34.5876339  67.0568573  48.1646663  35.2042439  66.7286257  47.8082845
  46.2264379  66.5722666  47.6463572  46.7922412  67.2315875  47.5622114
  45.5792283  66.9172364  48.1179974  46.2143136  66.7204607  47.7036328
  37.6412393  58.5620270  62.8357179  36.8312169  58.8678049  62.7247021
  38.1187080  59.2825852  62.9509763  37.5915872  58.7134871  62.8364250
  36.5003952  67.7765991  53.0840082  35.9784706  67.9166282  53.7691947
  36.8877973  67.0176655  53.2742199  36.4807653  67.6851514  53.2141159
  33.4895136  57.8271799  47.1535037  33.2019932  57.4573070  46.4166984
  34.1765605  58.2966655  46.8918742  33.5484034  57.8418769  47.0050112
  42.6970957  69.5161450  47.0700651  42.4557633  68.7829310  46.6627716
  42.8772290  70.0648307  46.4166984  42.6878581  69.4883841  46.9130874
  37.9270278  64.8070010  48.4821573  37.7313061  65.4144744  47.8881876
  38.1504624  64.1137954  48.0013247  37.9304919  64.7947535  48.3237654
  36.3248808  61.6924748  48.6002441  37.0471460  61.8565906  48.1406247
  35.8456801  62.4134412  48.4941781  36.3612539  61.8222977  48.5168055
  44.2842316  58.0288546  53.9799126  43.4453416  58.0549825  53.7437390
  44.3546683  58.6759282  54.5604473  44.1710709  58.1284672  54.0308243
  33.9756425  64.0982820  57.7056581  34.4877522  64.3767073  57.0565341
  33.6892767  64.8372114  58.0719394  34.0091288  64.2485174  57.6646459
  48.1599839  63.2356533  51.2660368  48.0733814  63.3911959  52.1195147
  47.7050319  63.8794609  50.8919773  48.0803096  63.3532288  51.3367475
  31.0623331  58.6053012  48.0020318  31.1639468  59.4079173  48.3301293
  31.8579218  58.4040348  47.7043398  31.1951237  58.6938911  48.0055673
  37.4940150  56.1909209  57.7657623  37.3023347  56.2064343  58.6157046
  38.3438746  56.3872883  57.7424278  37.5915872  56.2223560  57.8880918
  31.8787063  58.7200190  55.7441439  31.7372555  57.8684131  55.8685947
  32.1627627  58.7628851  54.9203645  31.8994909  58.5999940  55.6409063
  42.0325656  60.5567280  49.8885928  41.7860370  60.4763031  50.7222717
  42.3610779  59.7720748  49.6948455  42.0446899  60.4293545  49.9833451
  45.9273704  67.2650639  53.6772709  45.7888064  67.9631685  54.1821451
  45.1473702  67.1099296  53.3208891  45.7916931  67.3450806  53.6998983
  44.2651790  63.5647015  59.9295091  44.2599828  62.6926831  59.9337517
  44.9712783  63.7635184  59.4564546  44.3696794  63.4650889  59.8602126
  37.9922683  63.2923999  59.3008911  38.1366059  63.8725207  58.6652021
  38.3398331  63.6700295  60.0058765  38.0650144  63.4344703  59.3107906
  40.1642600  62.4914167  57.0834042  39.4165914  62.6845182  56.6782320
  40.3184125  61.6659387  56.8458164  40.0765028  62.3979279  56.9879448
  37.0650438  71.4826771  56.1669937  37.2140002  70.9229686  55.5143342
  37.8450440  71.5618772  56.5502456  37.2024531  71.4112336  56.1266887
  47.4227077  66.6228893  44.4389208  47.0433886  65.8366031  44.4318497
  46.7593323  67.1715750  44.2960852  47.2685552  66.5873717  44.4170005
  39.5903738  71.6541413  57.4454428  39.5147410  70.9850224  58.0005217
  39.5193598  72.3559202  57.9595095  39.5684345  71.6586321  57.6031276
  40.4044377  56.3864718  57.9729446  40.8616991  57.1188692  58.1002238
  40.4800706  55.9631183  58.7316702  40.4835347  56.4321956  58.1030522
  32.6477368  56.6330538  59.0618890  32.1119558  56.0210896  59.3779657
  32.7095133  57.2078674  59.7152556  32.5773001  56.6277465  59.2054316
  40.2473985  70.1742412  48.2778034  41.0123876  69.9052056  47.9560699
  40.1452075  69.6892423  48.9948097  40.3455481  70.0631977  48.3357862
  38.2826755  58.3766822  54.8171270  37.4922830  58.1958282  55.1388606
  38.6787378  57.5993774  54.8001564  38.2243631  58.2354283  54.8623818
  42.7692646  67.2054596  40.2577984  43.5365631  67.2654721  39.8483835
  42.3223955  66.6335038  39.7734302  42.8166073  67.1291172  40.1255694
  43.6670441  66.0109252  52.5430716  42.9915443  65.7794484  53.0444103
  43.6762818  65.4030435  51.9172821  43.5688946  65.8868177  52.5246868
  40.7964585  60.8527081  59.2994769  40.7323727  61.7137037  59.1714906
  40.9361773  60.5359074  58.4990320  40.8080055  60.9327248  59.1622982
  45.6687176  68.8674384  44.7740894  45.7507013  69.6741371  44.4502345
  46.1536918  68.8870344  45.4981667  45.7524334  68.9895047  44.8327793
  39.4783679  63.5459220  53.4410972  39.0545928  63.7463719  52.7049990
  39.3028534  62.6988068  53.5535272  39.3894560  63.4508002  53.3484662
  38.9795373  75.0609733  55.9032429  39.4691303  74.3620522  55.7208094
  38.4079605  74.7633603  56.4908486  38.9679903  74.9135957  55.9633470
  34.7666124  64.0411272  48.8738944  34.9230743  63.9758074  49.7294936
  35.1066717  64.8159824  48.6617624  34.8399359  64.1460470  48.9693539
  41.3045269  63.4169155  47.7432308  41.8460814  62.9139536  48.2070928
  41.6191828  63.3634350  46.9321793  41.4309666  63.3348576  47.6916120
  45.1762376  67.6271803  64.8559220  45.9897242  67.3556951  65.0164352
  45.0157343  67.3279343  64.0519416  45.2732325  67.5426729  64.7604626
  39.4731719  68.8086507  45.0272336  39.5424539  67.9501045  45.1665336
  40.2520174  69.0258388  44.6991360  39.5984569  68.7139371  44.9989493
  42.4534538  58.3105460  57.7954608  42.6676508  57.6716374  57.2417962
  41.8368437  58.7551284  57.3662470  42.3939867  58.2815603  57.6505039
  43.8639206  71.2324208  49.2408829  43.4718998  70.9290923  48.5231695
  44.0192278  72.0693298  49.0513783  43.8292796  71.3108045  49.1065326
  31.3400386  61.2246222  49.1899712  31.7199351  61.6430767  48.5259979
  30.7655751  61.8059678  49.4968555  31.3111711  61.3724081  49.1376453
  44.0278881  67.7974197  49.1814859  43.6693536  67.9688840  49.9578892
  43.5417592  68.2587403  48.6242858  43.9037578  67.8913168  49.2140129
  38.8167246  63.4773362  41.7215094  39.1059771  64.2538245  41.9958668
  38.9039045  62.9662094  42.4229593  38.8721503  63.5165281  41.8657592
  41.7127134  61.3254596  63.5166617  42.1826765  61.9496713  63.9034492
  41.7589014  60.6571572  64.0759832  41.7895010  61.3189277  63.6566689
  40.9390641  53.9704584  56.0708274  40.5522394  53.9953615  56.8521804
  40.4523578  53.4046263  55.6182790  40.8103150  53.8900335  56.1196177
  45.1883620  68.6878093  60.1282060  45.8263341  68.1938289  59.7944516
  44.5457712  68.6155493  59.5434287  45.1877847  68.6037101  59.9924415
  46.9140620  60.5367239  54.6947976  46.4868228  60.4493587  53.9396076
  46.2766673  60.6445014  55.2802820  46.7570228  60.5399899  54.6693418
  40.6047783  50.8571569  58.3618534  41.2340901  51.3931869  58.0839604
  40.7733645  50.7648928  59.2132099  40.7225577  50.9232932  58.4467062
  40.4061697  55.6442764  60.6344945  41.2335127  55.3727913  60.6903560
  40.4269544  56.4403606  60.9908763  40.5314548  55.7222518  60.6960128
  45.2437877  69.3797901  56.7687417  46.0330255  69.0286966  56.8889499
  45.4181475  70.1934290  56.5064051  45.3858159  69.4483758  56.7475285
  34.9831187  62.7906627  53.8215206  34.1419194  62.6910501  54.0294100
  35.1921195  63.5602107  54.1729527  34.8895880  62.8898670  53.9042521
  32.4606754  60.4126164  51.6499957  32.0663452  60.4869176  50.8750066
  31.9046871  60.7984110  52.2008318  32.3209567  60.4807938  51.6167616
  38.7947852  60.7188026  53.0712804  38.4910990  60.1644014  53.6723211
  38.0927273  60.8980236  52.5840838  38.6464062  60.6632808  53.0882509
  37.8513949  58.0288546  47.6357505  38.1273684  57.3107458  47.2235073
  38.4512619  58.6273466  47.4278611  37.9807214  58.0108917  47.5438267
  36.8566203  67.9337747  57.7784901  36.7486558  67.9439809  58.6446959
  37.0661985  68.7592527  57.5889855  36.8716314  68.0578822  57.8788993
  41.3524470  55.7002063  45.9104100  41.8068216  55.8712624  46.6351945
  41.8264516  55.0870174  45.5101876  41.4892790  55.6352948  45.9577862
  34.8739995  65.1850389  55.2406839  34.2827928  65.8259887  55.2109854
  35.6361019  65.6088006  55.2138138  34.8988256  65.3426228  55.2321986
  35.2700618  56.3452387  55.9074856  35.7302100  56.4191316  56.6449980
  35.3156725  57.1433641  55.5574678  35.3451173  56.4746534  55.9647613
  36.9183968  57.0119082  60.4746884  36.5269533  56.3652429  60.9102661
  37.0869830  57.6030517  61.0941139  36.8854878  57.0033350  60.6309590
  50.9930417  65.0156159  56.2384117  51.0513540  65.4642808  56.9844094
  50.3596884  65.4254972  55.8014197  50.9081712  65.1429894  56.2836665
  44.6329511  70.6359701  52.6738863  44.4349200  71.1250515  51.9795075
  44.0117222  70.8400942  53.2522997  44.5117076  70.7376239  52.6562087
  38.6937490  62.4044598  47.0149108  39.4379535  62.7918874  47.2532057
  38.8398186  61.5602023  47.1789595  38.8248075  62.3375070  47.0743077
  41.6815366  57.9770071  52.9143027  41.2075320  57.4511833  53.4248338
  42.0533501  57.4299544  52.3457888  41.6665255  57.8186068  52.9058174
  32.0588396  59.9741578  58.2826573  32.9214009  59.8737287  58.1963903
  31.7280179  59.3936287  57.7212145  32.1373592  59.8733204  58.1871979
  47.9452096  63.0372447  54.3249807  47.7050319  62.1978862  54.3292234
  48.4244103  63.1172613  55.0490581  47.9804280  62.9253846  54.4324610
  43.6098865  58.8706625  45.9768781  43.0821884  58.9535369  45.2874490
  44.0694573  59.6124497  45.9733425  43.6000716  58.9927288  45.8743476
  49.9457283  59.8173904  52.2779067  49.7067053  59.7769738  51.4399851
  50.1091184  60.6645056  52.4044788  49.9347587  59.9365989  52.1732548
  46.5503313  64.2023853  58.2084112  47.2737512  63.7496379  58.0295132
  46.2853276  64.4828519  57.4256440  46.6184587  64.1774822  58.0662827
  35.4190182  58.7984027  54.9436991  34.7943252  58.8102419  54.3362944
  35.0835777  59.2744202  55.5928231  35.2775674  58.8702544  54.9493559
  35.6031930  57.1409145  41.0009676  35.2544735  57.7928870  41.4641225
  35.1228376  57.1266258  40.2733547  35.4802174  57.2352199  40.9620767
  32.1315857  66.8584487  56.3840755  31.6015782  66.1676926  56.4335730
  32.4040951  66.8494672  55.5553464  32.0940580  66.7551619  56.2688171
  43.1635948  67.4410189  45.1078438  43.8870147  67.9068302  44.9643011
  42.7236539  67.5083799  44.3576035  43.2051640  67.5194026  44.9763219
  42.3322103  64.3007731  56.3579127  41.7179096  63.7565782  56.6527762
  42.8489388  63.7871968  55.8784943  42.3177765  64.1444140  56.3303355
  41.5718400  65.3712001  54.0923425  41.1446008  64.7461720  53.6588861
  41.5643344  65.0886923  54.9182433  41.5077541  65.2364782  54.1503253
  34.6880927  60.4077174  57.1611859  34.8474414  59.6520499  57.5663581
  34.5073821  60.9568114  57.8152597  34.6846286  60.3770988  57.3174565
  42.6301230  52.5738410  57.7162649  42.1341791  52.7702084  57.0254216
  43.3870292  52.9731078  57.5451450  42.6688055  52.6616144  57.5882786
  39.9004110  56.2480756  54.3065959  39.9246597  55.7140868  53.6178739
  40.1515583  55.7398065  54.9691550  39.9414028  56.0941660  54.3030604
  27.4111700  63.5312251  53.7409103  27.3055149  63.4859095  52.8761188
  26.6611919  63.8766031  54.0223388  27.2847302  63.5753159  53.6546433
  36.1805432  54.9751574  53.6871704  36.2203804  55.4760781  54.4006411
  35.3555097  55.0661968  53.4177627  36.0644958  55.0633390  53.7522242
  38.3635045  64.5412314  61.7891998  37.5130675  64.6784028  61.9249643
  38.5263173  63.8076092  62.2339700  38.2618908  64.4526415  61.8747597
  37.6019795  61.4912084  55.9845603  36.7711725  61.6585902  55.7780851
  37.5471312  61.1148035  56.7694488  37.4709210  61.4601815  56.0694131
  35.4103579  54.9820977  61.6202013  36.0356282  54.4383110  61.8931446
  34.9554058  54.5015894  61.0509804  35.4351839  54.8310458  61.5763607
  35.9755839  59.7667676  46.5135720  36.1158800  60.2640140  47.2164362
  36.4738372  59.0653970  46.6549934  36.0696920  59.7369654  46.6387299
  36.0056062  60.6334787  43.8428297  36.6401141  61.2295212  43.7777759
  36.0881672  60.3338244  44.6574167  36.1112613  60.6775695  43.9531384
  48.9838627  63.1650264  56.7114661  49.5756468  63.8047515  56.7432859
  49.4197622  62.4673301  57.0006728  49.1357059  63.1568614  56.7595494
  37.5835044  56.5648762  43.8173739  37.9050885  56.0851844  43.1633002
  37.8461988  57.3748408  43.6264551  37.6701070  56.6138660  43.6929231
  40.8132017  67.5867636  57.3372555  40.3057108  68.1403483  57.7813186
  40.5158663  67.6475926  56.5191330  40.6936902  67.6773947  57.2821012
  42.9794199  55.9520956  56.1797218  43.4049271  55.4993482  55.5680745
  42.3651192  55.3981027  56.4562006  42.9522845  55.8034932  56.1302244
  32.5109049  62.8302627  47.1117843  33.0201279  63.4267135  47.4929149
  32.9843322  62.5628601  46.4294263  32.6552425  62.8788443  47.0672366
  43.4239797  71.5030894  45.2676499  42.7069107  71.3291756  44.8023736
  44.0746535  71.2683466  44.7351985  43.4141648  71.4426686  45.1205717
  46.0087769  60.3795483  49.0117804  45.3378959  60.9225185  48.8830869
  46.7027519  60.8490338  48.7699499  46.0116636  60.5293754  48.9573332
  40.0574502  72.5192195  54.2429562  39.8340157  71.7611024  54.6113589
  39.5684346  72.5490216  53.5210002  39.9517951  72.4114419  54.1906303
  46.1715896  56.8351366  51.9208177  46.5243506  56.4081089  52.5953976
  45.3130698  56.7502210  52.0509254  46.0965341  56.7596107  52.0403188
  34.8699581  59.4658886  49.9791024  34.1511570  59.8823018  50.2463887
  35.2411943  60.0313125  49.4282662  34.8191513  59.6108167  49.9373831
  44.1699162  60.0986735  55.8693019  44.1497089  59.9170030  56.7227798
  44.2178363  60.9698753  55.8452603  44.1733803  60.2003273  55.9916314
  38.7052959  72.7392653  51.6966647  38.2913358  72.0766783  51.3070489
  39.3900334  72.8870511  51.1762341  38.7451331  72.6633311  51.5623144
  42.0718253  71.8982738  52.4490263  41.6734537  72.0085008  51.6811084
  41.4569473  72.1064804  53.0316823  41.9217143  71.9456306  52.4221563
  40.6446156  58.5056886  45.3164403  40.0510995  58.8273882  44.7648970
  40.6821433  57.6597981  45.1085509  40.5620545  58.4281214  45.2047174
  43.5203972  58.4636390  48.7466153  43.2917665  58.4869092  47.9044512
  43.7802048  57.6393857  48.8661164  43.5250160  58.3452470  48.6391351
  37.8023201  60.3170863  58.3491254  37.2902104  59.7092046  58.7076285
  37.6302697  61.0327456  58.8165229  37.7012838  60.3334163  58.4707477
  32.6488915  58.7608439  60.9993615  32.4791506  59.4209813  60.4541822
  32.2054865  58.9715000  61.7206104  32.5588249  58.8894421  61.0255245
  36.5748735  57.0012937  50.0420349  37.0506101  57.3630016  49.4070530
  36.0737334  57.6569404  50.3220492  36.5714094  57.1507125  49.9897090
  49.8060096  66.4734705  45.8333354  50.1893702  67.2226061  46.0631451
  49.0104209  66.7200524  45.5745343  49.7453878  66.6204398  45.8290928
  41.6792271  58.2395108  60.7893509  42.2363701  58.0108917  60.1571975
  41.3553336  59.0000774  60.5128722  41.7138681  58.3178945  60.6550006
  29.5490980  61.6655304  56.2582105  29.0017699  60.9955950  56.3762974
  30.3383358  61.2985152  56.3225572  29.5843163  61.5120291  56.2850806
  39.3975388  61.3262761  61.7545516  40.1486715  61.6414438  62.0685070
  39.5897965  61.1241932  60.9279438  39.5366802  61.3430143  61.6788912
  38.6175388  59.1454136  43.4093733  38.9974353  59.1633766  42.6244848
  37.8767984  59.5908125  43.2884580  38.5644226  59.2135911  43.2757301
  28.3077949  60.8776112  53.4128128  28.1299710  60.4252721  54.1383044
  28.0196971  61.6802273  53.5966606  28.2390902  60.9298670  53.5471631
  43.9701530  62.1333829  52.6505519  44.4655196  61.4156824  52.6109539
  43.1601306  61.8304627  52.5360006  43.9245424  61.9831476  52.6279244
  39.4160142  65.9831643  44.8002523  38.6071465  65.6598316  44.7535832
  39.9235051  65.2764865  44.7330772  39.3709809  65.8312959  44.7832817
  30.0450419  63.4103836  50.5249887  29.1795939  63.3989526  50.4132659
  30.1449235  63.2234059  51.3721027  29.9324586  63.3809897  50.6338832
  46.0353349  64.8837517  55.3382647  46.4608421  64.3611939  54.7853072
  45.6710269  65.4818354  54.8171270  46.0439952  64.8947744  55.1791657
  35.6707429  73.1801734  54.0979993  35.9853988  73.9938123  54.1057775
  36.0800842  72.7951953  54.7662152  35.7775527  73.2430437  54.1984084
  42.6231949  68.5971781  51.6683805  43.0943127  69.3112044  51.8373790
  42.9592127  67.9970531  52.2043674  42.7427064  68.6143245  51.7716181
  44.7108933  70.2073094  63.8475877  44.8205899  69.4181655  64.2032624
  45.0399830  70.1179031  63.0450215  44.7761339  70.0778947  63.7818268
  39.5401444  53.3699252  58.6241900  39.6729349  52.5730245  58.9522875
  39.9246596  53.8965655  59.2040175  39.6157772  53.3299168  58.7585402
  43.2605895  68.3889715  58.4311497  42.7126841  67.7647599  58.1631563
  43.7218924  68.5783987  57.7155577  43.2473104  68.3248765  58.2861929
  46.0699759  56.4575070  55.8162690  45.4862748  56.9584276  55.4040257
  46.3904053  55.9504626  55.1827013  46.0312935  56.4566905  55.6621197
  38.6094558  55.3715665  46.0921365  39.4310253  55.5413977  45.8503059
  38.1464209  55.5262926  45.3687662  38.6625721  55.4197398  45.9493009
  37.1989890  53.3658427  56.8719793  37.7434303  53.0249554  57.4624135
  37.2526826  54.2243888  57.0141078  37.2879010  53.4413686  56.9801667
  33.0120449  67.1274843  53.7458601  33.6165307  67.0870677  53.1172422
  32.8047762  67.9745995  53.7762657  33.0709346  67.2462845  53.6574718
  42.8264221  69.3940788  54.9620839  43.6462595  69.2503754  55.2237134
  42.5458299  70.0186987  55.5037277  42.9060965  69.4651140  55.0808778
  28.2471731  66.1109460  53.6157524  28.1496009  65.3005732  53.9247581
  29.0300601  66.0901254  53.2303792  28.3487868  65.9876550  53.6044387
  59.2977872  77.0505640  47.9263715  59.2671876  77.9050276  48.0981984
  59.8959220  76.7500932  48.4849859  59.3815030  77.1322136  48.0338517
  52.4977556  76.1381291  52.6816645  51.6415452  76.2989789  52.7325762
  52.5445210  75.2673355  52.7021706  52.3776668  76.0332093  52.6922711
  55.3429378  78.1973335  55.3248297  55.8885338  78.8758421  55.3842267
  55.2846254  78.0560795  54.4649879  55.4145292  78.2765336  55.2060358
  57.1194446  79.6257942  46.1982025  57.0033972  80.3765628  46.6274163
  57.9150333  79.3681895  46.4478112  57.2199036  79.6992789  46.2986116
  43.9558584  73.8768418  53.2353291  43.3363616  73.2861065  53.0663306
  43.8542448  74.4679853  52.6017614  43.8496260  73.8772500  53.1158280
  49.0024772  83.6151965  47.4851367  49.3240613  84.1557172  46.8812675
  49.6496868  83.0448736  47.6173657  49.1450827  83.6111140  47.4158403
  51.0526480  75.6167960  47.5685754  51.7506644  75.7956087  48.0607217
  51.3678812  75.0938299  46.9456143  51.2021817  75.5661732  47.5487764
  43.6827717  77.4220700  55.4796860  43.5586414  78.0083145  56.1146679
  44.3346002  76.9280895  55.7809135  43.7601366  77.4359504  55.6182789
  51.2414415  82.0038405  47.5565545  51.6808051  81.3955505  48.0020318
  51.0919078  81.6245778  46.7851010  51.2835881  81.8576876  47.5084713
  48.7086058  80.5982417  54.7584371  49.3535061  80.1054860  54.4395319
  48.9487835  80.7407203  55.5850449  48.8396643  80.5459859  54.8333904
  51.2472149  83.4437322  54.4091263  51.5295392  82.6488728  54.1878019
  51.9758310  83.9217910  54.4296324  51.3961713  83.3971919  54.3794279
  49.2253343  70.9860356  51.6507029  48.8956673  71.4371500  50.9810727
  48.5498345  70.9076520  52.1980035  49.0763780  71.0411492  51.6330252
  54.8423752  80.3565586  44.5096315  54.7575047  81.2126553  44.6545883
  55.3308135  80.0809910  45.1778474  54.9012649  80.4422907  44.6298396
  56.4329751  66.9745879  49.8956639  56.1183192  67.6649358  50.3277062
  55.9156693  66.9190661  49.1942140  56.3094222  67.0680768  49.8553588
  55.7742185  76.9750380  46.0094050  55.2453656  77.1910014  46.6691356
  56.2967205  77.6686519  45.9295019  55.7730638  77.1093517  46.0949649
  47.6641793  80.8713597  44.8101518  47.0799008  81.3763628  45.2167382
  47.2611888  80.6455984  44.0698110  47.5181097  80.9121845  44.7606543
  52.1219007  77.1179249  43.2870438  52.3615011  77.3257233  42.4745781
  52.4434848  76.3136758  43.3959383  52.2056165  77.0293350  43.1830991
  47.4309297  69.0472645  47.1329976  48.1855265  69.4150962  46.8947026
  47.2536832  69.4212199  47.9009156  47.5163776  69.1570833  47.2114865
  60.7244196  75.1967085  55.1777516  59.8872617  75.2669272  55.4125110
  60.6932427  75.1991580  54.3051818  60.5962479  75.2077312  55.0837064
  47.1208925  77.3400121  60.8925884  47.2929429  77.2306015  61.7411166
  47.6578283  77.9854526  60.6557077  47.2253929  77.4192123  60.9830981
  45.7866362  71.4542964  43.8308089  45.6041935  71.6714845  43.0049082
  46.6491975  71.5681976  43.8866704  45.8870952  71.5032862  43.7162576
  51.4666081  68.4569374  46.8657113  52.1952242  68.2785329  46.4195269
  51.5560974  69.2987454  47.0764291  51.5872743  68.5553253  46.8310631
  55.4474382  79.3922762  50.7689407  56.2031897  79.8254276  50.8078316
  55.5536706  78.7427531  51.3424043  55.5744553  79.3600246  50.8587433
  41.4270642  79.9332052  55.7278804  41.1609057  79.1171169  55.8869795
  41.4409206  79.9785207  54.8574320  41.3895364  79.8188957  55.6232286
  58.4052036  70.2609867  53.7621238  59.0477944  70.3307971  54.3483153
  58.6575057  69.5939090  53.2600780  58.5374168  70.1736215  53.7748517
  45.3328389  74.7317136  42.3430562  44.6186566  74.4455316  42.7552995
  45.8172358  75.0713762  42.9836950  45.2987752  74.7398786  42.4986197
  46.1769248  73.4710430  58.3745812  45.4841045  73.0007410  58.6206543
  46.7929576  73.2448735  58.9487519  46.1653778  73.3677562  58.4954965
  52.5075707  83.2347090  42.7192371  52.9226855  82.9032114  42.0276866
  51.6767637  83.0015993  42.5912507  52.4463716  83.1518346  42.5983218
  41.8364056  80.7190831  53.0090548  41.6539629  80.6937717  52.1562841
  42.5713725  81.1889769  53.0479457  41.9178120  80.7852194  52.8888467
  57.9063730  80.9542341  50.1523436  58.1419319  81.0987540  49.3250287
  58.0553294  81.7184749  50.5454950  57.9629533  81.0881396  50.0887040
  44.9009807  77.4375834  59.5172657  45.6249780  77.4228865  60.0037552
  45.0025944  78.1471189  59.0194625  45.0228016  77.5400537  59.5151444
  59.7354187  79.7944007  47.9893040  60.0662404  80.3271647  47.3833135
  60.3087275  79.8482895  48.6454991  59.8687866  79.8813576  47.9970822
  54.9486076  77.6408910  48.6716620  55.0432930  78.3798204  49.1256245
  54.3244919  77.2126385  49.1051185  54.8695106  77.6870231  48.8024768
  41.8034966  77.5984332  53.1589615  42.3808469  77.4620783  53.7981860
  41.1049028  77.1420116  53.4135199  41.7855987  77.5106598  53.2911905
  55.2009097  79.4857650  41.9053572  55.1189260  79.5559837  42.7708559
  55.8388818  80.0487394  41.7137313  55.2828934  79.5796621  42.0043521
  48.5602268  79.2518388  51.3728098  48.3021513  78.4190123  51.3459398
  48.6150751  79.4776001  50.5320599  48.5302046  79.1616159  51.2448235
  53.6403318  71.3546838  51.4732191  52.9359645  70.8656024  51.6316110
  53.6888293  71.3669313  50.6020635  53.5433370  71.2836486  51.3671531
  47.5336980  76.8056150  51.8592993  46.9586572  76.9648319  52.4956954
  47.1572657  76.1691559  51.3961444  47.3939793  76.7353963  51.8847551
  51.2010269  75.2779499  56.7185371  50.8124702  74.8533717  56.0637563
  50.5364967  75.5261649  57.2262398  51.0457197  75.2518221  56.6973239
  60.8433538  75.0354504  49.4933202  60.5870103  74.2234446  49.3031084
  61.6862852  75.0432071  49.2663389  60.9299564  74.9166502  49.4318019
  37.2793799  76.4496225  49.8737434  37.3654051  76.0728093  50.6550964
  37.9069597  76.0756671  49.3957392  37.3850350  76.3381707  49.9182911
  55.0236631  68.9754128  54.2309356  55.4047142  68.2932299  54.6177230
  54.2199915  68.6863730  54.0485020  54.9613092  68.8321177  54.2613412
  52.3049207  79.5078104  44.9162178  53.1189846  79.7992997  44.8044950
  52.2408349  78.8537966  44.3420471  52.4151946  79.4543299  44.8151016
  48.1757116  82.9799621  50.0434491  48.8131063  82.7411369  50.5886284
  48.6012187  83.1836780  49.3087651  48.3333282  82.9750632  50.0151648
  48.8159931  78.2001911  44.3809380  49.2005083  77.9809618  45.1325925
  48.5671551  79.0264857  44.5110456  48.8362003  78.2900057  44.5110456
  48.9828471  71.4808326  64.0971964  48.6681912  72.2507889  63.8341527
  48.6618404  70.9178582  63.5124191  48.8887390  71.5118595  63.9713314
  50.5578588  83.4572044  51.7228277  50.6317596  83.2947216  52.5770127
  51.3748094  83.6462234  51.4788758  50.6894946  83.4608786  51.8126302
  46.5360368  69.8698848  49.7118160  45.6682793  69.9421447  49.7775770
  46.8235572  70.6720927  49.9006136  46.4500116  69.9992995  49.7492927
  55.6593257  70.0176707  58.0429482  56.4046849  69.8286518  57.6292908
  55.2430561  70.5434945  57.4843339  55.7078231  70.0678853  57.8994055
  63.0355528  77.3885936  52.9934987  63.5863449  76.7554005  53.2332079
  63.0199643  77.9201329  53.6850492  63.1140724  77.3734884  53.1313845
  49.6877918  81.2224533  57.5394881  49.1889612  81.9340301  57.6179769
  50.4978143  81.5425200  57.5013043  49.7334025  81.3751382  57.5451449
  45.9506036  80.4847486  51.7857602  45.6619285  79.8584957  52.3203329
  46.8189384  80.4267773  51.8522282  46.0366288  80.3835030  51.8748556
  56.7383934  75.6282269  52.1039583  56.3948700  74.9072605  52.4546833
  56.8376976  75.4196121  51.2617942  56.7025977  75.4906473  52.0311263
  46.1538309  82.1242737  47.7099967  46.9084277  82.5055776  47.9235429
  45.5608922  82.5753881  48.1646663  46.1775023  82.2471564  47.8082845
  48.6144976  74.0805577  62.8357179  47.8044752  74.3863357  62.7247021
  49.0919663  74.8011160  62.9509763  48.5648455  74.2320179  62.8364250
  47.4736536  83.2951298  53.0840082  46.9517290  83.4351590  53.7691947
  47.8610556  82.5361963  53.2742199  47.4540237  83.2036822  53.2141159
  44.4627720  73.3457107  47.1535037  44.1752516  72.9758378  46.4166984
  45.1498188  73.8151963  46.8918742  44.5216617  73.3604077  47.0050112
  48.9002862  80.3255318  48.4821573  48.7045644  80.9330052  47.8881876
  49.1237207  79.6323262  48.0013247  48.9037503  80.3132843  48.3237654
  47.2981392  77.2110055  48.6002441  48.0204044  77.3751214  48.1406247
  46.8189384  77.9319720  48.4941781  47.3345122  77.3408285  48.5168055
  55.2574899  73.5473854  53.9799126  54.4186000  73.5735133  53.7437390
  55.3279267  74.1944590  54.5604473  55.1443293  73.6469980  54.0308243
  44.9489008  79.6168128  57.7056581  45.4610105  79.8952381  57.0565341
  44.6625351  80.3557422  58.0719394  44.9823871  79.7670482  57.6646459
  53.7044177  70.4459231  48.7126742  54.4070530  70.2466980  48.2346701
  53.4388366  69.6735174  49.0195586  53.7690810  70.3022197  48.6872184
  59.1332423  78.7541841  51.2660368  59.0466398  78.9097267  52.1195147
  58.6782903  79.3979917  50.8919773  59.0535680  78.8717596  51.3367475
  42.0355915  74.1238320  48.0020318  42.1372051  74.9264481  48.3301293
  42.8311801  73.9225656  47.7043398  42.1683820  74.2124218  48.0055673
  48.4672734  71.7094516  57.7657623  48.2755931  71.7249651  58.6157046
  49.3171330  71.9058191  57.7424278  48.5648456  71.7408868  57.8880918
  42.8519647  74.2385498  55.7441439  42.7105139  73.3869439  55.8685947
  43.1360210  74.2814159  54.9203645  42.8727493  74.1185248  55.6409063
  53.0058239  76.0752588  49.8885928  52.7592953  75.9948339  50.7222717
  53.3343362  75.2906056  49.6948455  53.0179483  75.9478853  49.9833451
  48.9655266  78.8109307  59.3008911  49.1098642  79.3910515  58.6652021
  49.3130915  79.1885603  60.0058765  49.0382728  78.9530011  59.3107906
  51.1375184  78.0099475  57.0834042  50.3898498  78.2030489  56.6782320
  51.2916709  77.1844695  56.8458164  51.0497611  77.9164586  56.9879448
  51.3776961  71.9050026  57.9729446  51.8349575  72.6374000  58.1002238
  51.4533290  71.4816491  58.7316702  51.4567931  71.9507264  58.1030522
  43.6209952  72.1515846  59.0618890  43.0852141  71.5396204  59.3779657
  43.6827717  72.7263981  59.7152556  43.5505585  72.1462773  59.2054316
  55.8504287  65.0839901  51.8423289  55.9687855  65.5416364  51.1090592
  55.6766462  64.2785162  51.5559507  55.8423458  65.0333673  51.6924223
  49.2559339  73.8952130  54.8171270  48.4655413  73.7143590  55.1388606
  49.6519962  73.1179082  54.8001564  49.1976215  73.7539591  54.8623818
  53.7425229  82.7239904  40.2577984  54.5098215  82.7840029  39.8483835
  53.2956538  82.1520345  39.7734302  53.7898657  82.6476480  40.1255694
  54.6403025  81.5294560  52.5430716  53.9648027  81.2979792  53.0444103
  54.6495401  80.9215743  51.9172821  54.5421530  81.4053485  52.5246868
  51.7697169  76.3712389  59.2994769  51.7056310  77.2322345  59.1714906
  51.9094357  76.0544382  58.4990320  51.7812639  76.4512555  59.1622982
  50.4516263  79.0644528  53.4410972  50.0278512  79.2649027  52.7049990
  50.2761118  78.2173376  53.5535272  50.3627143  78.9693310  53.3484662
  45.7398708  79.5596580  48.8738944  45.8963327  79.4943382  49.7294936
  46.0799301  80.3345132  48.6617624  45.8131943  79.6645778  48.9693539
  52.2777852  78.9354463  47.7432308  52.8193398  78.4324844  48.2070928
  52.5924411  78.8819658  46.9321793  52.4042250  78.8533884  47.6916120
  50.4464302  84.3271815  45.0272336  50.5157122  83.4686353  45.1665336
  51.2252757  84.5443696  44.6991360  50.5717152  84.2324679  44.9989493
  53.4267122  73.8290768  57.7954608  53.6409091  73.1901682  57.2417962
  52.8101021  74.2736592  57.3662470  53.3672451  73.8000911  57.6505039
  42.3132969  76.7431530  49.1899712  42.6931934  77.1616075  48.5259979
  41.7388334  77.3244986  49.4968555  42.2844294  76.8909389  49.1376453
  55.5906210  75.4379833  58.7337915  54.7782892  75.1305723  58.8151088
  56.0496144  74.9578833  59.2980627  55.5386595  75.3216325  58.8292509
  55.0011464  83.3159505  49.1814859  54.6426119  83.4874148  49.9578892
  54.5150175  83.7772710  48.6242858  54.8770161  83.4098476  49.2140129
  52.8181850  66.9390703  52.7841951  51.9475408  66.9129424  52.7375260
  53.0722192  66.7667896  51.9667797  52.7275411  66.9100847  52.6562088
  49.7899830  78.9958670  41.7215094  50.0792355  79.7723553  41.9958668
  49.8771629  78.4847402  42.4229593  49.8454086  79.0350589  41.8657592
  49.8430991  68.9496932  54.2415421  49.3269480  68.2577123  54.3667000
  49.2824920  69.6167709  54.1878020  49.6837504  68.9460189  54.2521487
  51.9123224  69.4889892  56.0708274  51.5254978  69.5138923  56.8521804
  51.4256162  68.9231570  55.6182790  51.7835733  69.4085643  56.1196177
  57.8873204  76.0552547  54.6947976  57.4600812  75.9678895  53.9396076
  57.2499257  76.1630322  55.2802820  57.7302811  76.0585207  54.6693418
  51.5780366  66.3756877  58.3618534  52.2073484  66.9117177  58.0839604
  51.7466229  66.2834236  59.2132099  51.6958161  66.4418240  58.4467062
  51.3794281  71.1628072  60.6344945  52.2067710  70.8913221  60.6903560
  51.4002127  71.9588914  60.9908763  51.5047131  71.2407826  60.6960128
  45.9563771  78.3091935  53.8215206  45.1151777  78.2095809  54.0294100
  46.1653779  79.0787415  54.1729527  45.8628463  78.4083978  53.9042521
  43.4339338  75.9311472  51.6499957  43.0396036  76.0054484  50.8750066
  42.8779455  76.3169418  52.2008318  43.2942150  75.9993246  51.6167616
  55.0704285  68.9092766  51.3303836  55.2753878  68.8415074  52.1760833
  54.7430709  69.7151587  51.2625013  55.0519533  69.0178706  51.4463491
  49.7680436  76.2373334  53.0712804  49.4643573  75.6829322  53.6723211
  49.0659857  76.4165544  52.5840838  49.6196646  76.1818116  53.0882509
  48.8246533  73.5473854  47.6357505  49.1006267  72.8292766  47.2235073
  49.4245202  74.1458774  47.4278611  48.9539797  73.5294225  47.5438267
  58.3237972  69.4624530  50.8106601  57.7112286  69.9494932  51.1960333
  58.4202147  68.7868021  51.3544252  58.2475870  69.4342839  50.9485459
  52.3257053  71.2187371  45.9104100  52.7800800  71.3897932  46.6351945
  52.7997099  70.6055482  45.5101876  52.4625373  71.1538256  45.9577862
  45.8472579  80.7035697  55.2406839  45.2560512  81.3445195  55.2109854
  46.6093602  81.1273314  55.2138138  45.8720839  80.8611536  55.2321986
  46.2433202  71.8637695  55.9074856  46.7034683  71.9376624  56.6449980
  46.2889308  72.6618949  55.5574678  46.3183757  71.9931842  55.9647613
  47.8916551  72.5304390  60.4746884  47.5002116  71.8837737  60.9102661
  48.0602414  73.1215825  61.0941139  47.8587462  72.5218658  60.6309590
  49.6670073  77.9229906  47.0149108  50.4112118  78.3104182  47.2532057
  49.8130769  77.0787331  47.1789595  49.7980658  77.8560378  47.0743077
  51.5849649  69.7180164  52.0480969  50.7385694  69.8902972  51.9222319
  51.5820781  68.9129508  52.3846797  51.4596799  69.6241193  52.0792096
  52.6547949  73.4955379  52.9143027  52.1807903  72.9697141  53.4248338
  53.0266085  72.9484852  52.3457888  52.6397838  73.3371375  52.9058174
  43.0320979  75.4926886  58.2826573  43.8946592  75.3922595  58.1963903
  42.7012762  74.9121595  57.7212145  43.1106176  75.3918512  58.1871979
  58.9184680  78.5557755  54.3249807  58.6782903  77.7164170  54.3292234
  59.3976687  78.6357921  55.0490581  58.9536863  78.4439154  54.4324610
  54.5831449  74.3891933  45.9768781  54.0554467  74.4720677  45.2874490
  55.0427157  75.1309805  45.9733425  54.5733299  74.5112596  45.8743476
  60.9189867  75.3359212  52.2779067  60.6799637  75.2955046  51.4399851
  61.0823768  76.1830364  52.4044788  60.9080170  75.4551297  52.1732548
  46.3922765  74.3169335  54.9436991  45.7675835  74.3287727  54.3362944
  46.0568360  74.7929510  55.5928231  46.2508257  74.3887852  54.9493559
  46.5764514  72.6594453  41.0009676  46.2277318  73.3114178  41.4641225
  46.0960960  72.6451566  40.2733547  46.4534758  72.7537507  40.9620767
  54.1368531  82.9595497  45.1078438  54.8602730  83.4253610  44.9643011
  53.6969122  83.0269107  44.3576035  54.1784224  83.0379334  44.9763219
  53.3054686  79.8193039  56.3579127  52.6911680  79.2751090  56.6527762
  53.8221971  79.3057276  55.8784943  53.2910349  79.6629448  56.3303355
  52.5450984  80.8897309  54.0923425  52.1178592  80.2647028  53.6588861
  52.5375928  80.6072231  54.9182433  52.4810125  80.7550090  54.1503253
  45.6613511  75.9262482  57.1611859  45.8206997  75.1705806  57.5663581
  45.4806404  76.4753422  57.8152597  45.6578870  75.8956296  57.3174565
  53.6033814  68.0923718  57.7162649  53.1074375  68.2887392  57.0254216
  54.3602876  68.4916386  57.5451450  53.6420638  68.1801452  57.5882786
  50.8736693  71.7666064  54.3065959  50.8979180  71.2326176  53.6178739
  51.1248167  71.2583373  54.9691550  50.9146612  71.6126968  54.3030604
  38.3844283  79.0497559  53.7409103  38.2787732  79.0044403  52.8761188
  37.6344503  79.3951339  54.0223388  38.2579886  79.0938467  53.6546433
  47.1538015  70.4936882  53.6871704  47.1936387  70.9946089  54.4006411
  46.3287680  70.5847276  53.4177627  47.0377541  70.5818698  53.7522242
  48.5752379  77.0097392  55.9845603  47.7444309  77.1771210  55.7780851
  48.5203896  76.6333343  56.7694488  48.4441794  76.9787123  56.0694131
  46.3836162  70.5006285  61.6202013  47.0088866  69.9568418  61.8931446
  45.9286642  70.0201202  61.0509804  46.4084423  70.3495766  61.5763607
  46.9488423  75.2852983  46.5135720  47.0891384  75.7825448  47.2164362
  47.4470956  74.5839278  46.6549934  47.0429504  75.2554962  46.6387299
  46.9788645  76.1520094  43.8428297  47.6133725  76.7480520  43.7777759
  47.0614256  75.8523552  44.6574167  47.0845196  76.1961003  43.9531384
  48.5567628  72.0834070  43.8173739  48.8783469  71.6037152  43.1633002
  48.8194572  72.8933716  43.6264551  48.6433653  72.1323968  43.6929231
  53.9526783  71.4706264  56.1797218  54.3781854  71.0178790  55.5680745
  53.3383776  70.9166335  56.4562006  53.9255428  71.3220240  56.1302244
  43.4841633  78.3487935  47.1117843  43.9933862  78.9452443  47.4929149
  43.9575905  78.0813909  46.4294263  43.6285009  78.3973751  47.0672366
  52.3921006  67.9421364  49.5887795  51.7489324  67.7919010  50.1572934
  52.0520413  67.6963709  48.8236900  52.2466083  67.8833486  49.5590810
  56.9820352  75.8980790  49.0117804  56.3111542  76.4410493  48.8830869
  57.6760103  76.3675646  48.7699499  56.9849220  76.0479062  48.9573332
  57.1448480  72.3536674  51.9208177  57.4976090  71.9266397  52.5953976
  56.2863281  72.2687518  52.0509254  57.0697924  72.2781415  52.0403188
  45.8432165  74.9844194  49.9791024  45.1244154  75.4008326  50.2463887
  46.2144527  75.5498433  49.4282662  45.7924096  75.1293475  49.9373831
  55.1431746  75.6172043  55.8693019  55.1229673  75.4355338  56.7227798
  55.1910946  76.4884061  55.8452603  55.1466387  75.7188581  55.9916314
  51.6178739  74.0242194  45.3164403  51.0243578  74.3459190  44.7648970
  51.6554017  73.1783289  45.1085509  51.5353128  73.9466522  45.2047174
  58.5772540  67.4755086  52.8492490  58.0703404  66.7684226  52.7813667
  59.3739974  67.1448275  52.9793566  58.6199779  67.3228237  52.8591485
  54.4936556  73.9821698  48.7466153  54.2650249  74.0054400  47.9044512
  54.7534632  73.1579165  48.8661164  54.4982744  73.8637778  48.6391351
  48.7755784  75.8356171  58.3491254  48.2634687  75.2277354  58.7076285
  48.6035280  76.5512764  58.8165229  48.6745421  75.8519471  58.4707477
  43.6221499  74.2793747  60.9993615  43.4524089  74.9395121  60.4541822
  43.1787449  74.4900308  61.7206104  43.5320832  74.4079729  61.0255245
  47.5481318  72.5198244  50.0420349  48.0238684  72.8815324  49.4070530
  47.0469918  73.1754712  50.3220492  47.5446677  72.6692433  49.9897090
  52.6524854  73.7580416  60.7893509  53.2096285  73.5294225  60.1571975
  52.3285919  74.5186081  60.5128722  52.6871265  73.8364253  60.6550006
  40.5223563  77.1840612  56.2582105  39.9750283  76.5141258  56.3762974
  41.3115941  76.8170460  56.3225572  40.5575747  77.0305599  56.2850806
  49.5907971  74.6639444  43.4093733  49.9706936  74.6819073  42.6244848
  48.8500567  75.1093433  43.2884580  49.5376809  74.7321219  43.2757301
  57.2193262  72.9721635  48.9969312  57.2187488  72.8170292  49.8553588
  57.0149442  73.8184623  48.9410697  57.1893040  73.0742256  49.1157251
  39.2810533  76.3961420  53.4128128  39.1032294  75.9438029  54.1383044
  38.9929555  77.1987581  53.5966606  39.2123486  76.4483978  53.5471631
  54.9434114  77.6519137  52.6505519  55.4387779  76.9342132  52.6109539
  54.1333890  77.3489935  52.5360006  54.8978007  77.5016784  52.6279244
  50.3892725  81.5016951  44.8002523  49.5804048  81.1783624  44.7535832
  50.8967634  80.7950173  44.7330772  50.3442392  81.3498267  44.7832817
  41.0183003  78.9289144  50.5249887  40.1528522  78.9174834  50.4132659
  41.1181819  78.7419367  51.3721027  40.9057170  78.8995205  50.6338832
  57.0085933  80.4022825  55.3382647  57.4341004  79.8797247  54.7853072
  56.6442853  81.0003662  54.8171270  57.0172535  80.4133052  55.1791657
  53.5964532  84.1157089  51.6683805  54.0675710  84.8297352  51.8373790
  53.9324711  83.5155839  52.2043674  53.7159647  84.1328553  51.7716181
  50.5134027  68.8884560  58.6241900  50.6461933  68.0915553  58.9522875
  50.8979180  69.4150963  59.2040175  50.5890356  68.8484476  58.7585402
  53.5866382  65.8114886  55.2222993  52.7812346  65.7012615  55.5390831
  53.4573118  65.9127341  54.3652859  53.4486515  65.8098556  55.1431033
  57.0432343  71.9760378  55.8162690  56.4595332  72.4769584  55.4040257
  57.3636637  71.4689934  55.1827013  57.0045518  71.9752213  55.6621197
  49.5827142  70.8900972  46.0921365  50.4042836  71.0599285  45.8503059
  49.1196793  71.0448233  45.3687662  49.6358304  70.9382705  45.9493009
  48.1722474  68.8843735  56.8719793  48.7166887  68.5434861  57.4624135
  48.2259410  69.7429196  57.0141078  48.2611593  68.9598994  56.9801667
  26.0730945   7.4327847  34.8603762  26.0424949   8.2872484  35.0322031
  26.6712294   7.1323140  35.4189905  26.1568103   7.5144344  34.9678564
  19.2730630   6.5203498  39.6156692  18.4168525   6.6811996  39.6665809
  19.3198283   5.6495562  39.6361753  19.1529741   6.4154300  39.6262758
  13.6571769  16.0566216  35.3793924  12.9054669  15.6781754  35.1509969
  14.1057781  16.0884650  34.6312734  13.6121436  16.0051823  35.2351426
  22.5824346  12.7890024  49.2217148  23.2891114  12.2942054  49.3504083
  22.7712282  13.2299105  48.4919806  22.7152252  12.7808374  49.1326194
  19.1096729  16.4791585  30.8079471  18.7748098  17.1568507  30.3723693
  19.6223600  16.0896897  30.2196343  19.1362310  16.5216164  30.6566262
  18.6501021  18.4305854  36.7490582  19.0340400  18.9992753  36.2095358
  18.5860162  17.7055364  36.2696399  18.6974448  18.4081318  36.5984445
  22.1182451   8.5795542  42.2588344  22.6638411   9.2580629  42.3182314
  22.0599327   8.4383003  41.3989925  22.1898365   8.6587544  42.1400404
  15.2356526  16.0684608  37.6456696  15.3366889  15.2584962  37.9553824
  14.6398271  15.9741554  37.0156375  15.1629064  15.9349636  37.5982935
  23.8947519  10.0080149  33.1322072  23.7787045  10.7587835  33.5614210
  24.6903406   9.7504102  33.3818159  23.9952109  10.0814996  33.2326163
  15.0757265  20.9862197  39.0471552  15.7194721  21.4275361  39.4367711
  15.4013521  20.1815623  38.9601811  15.2189094  20.9327392  39.0917030
   8.4321570  12.0904895  37.2709030   8.1971754  11.2572547  37.1641299
   8.5707211  12.3709560  36.4570231   8.4177232  12.0088398  37.1351385
  15.7777845  13.9974172  34.4191414  16.0993686  14.5379379  33.8152722
  16.4249941  13.4270943  34.5513704  15.9203900  13.9933347  34.3498449
  17.8279553   5.9990167  34.5025801  18.5259718   6.1778295  34.9947264
  18.1431885   5.4760506  33.8796190  17.9774890   5.9483939  34.4827811
  10.4580790   7.8042907  42.4136907  10.3339487   8.3905352  43.0486725
  11.1099075   7.3103103  42.7149182  10.5354440   7.8181711  42.5522836
  18.0167488  12.3860612  34.4905592  18.4561124  11.7777713  34.9360365
  17.8672151  12.0067985  33.7191057  18.0588954  12.2399083  34.4424760
  15.4839131  10.9804624  41.6924418  16.1288134  10.4877067  41.3735366
  15.7240908  11.1229410  42.5190496  15.6149716  10.9282066  41.7673951
  18.0225223  13.8259530  41.3431310  18.3048466  13.0310935  41.1218066
  18.7511383  14.3040117  41.3636371  18.1714786  13.7794127  41.3134325
  21.6176825  10.7387793  31.4436361  21.5328120  11.5948760  31.5885930
  22.1061208  10.4632117  32.1118521  21.6765722  10.8245115  31.5638443
  23.2082824  -2.6431913  36.8296686  22.8936265  -1.9528435  37.2617108
  22.6909766  -2.6987131  36.1282187  23.0847295  -2.5497025  36.7893635
  22.5495258   7.3572588  32.9434097  22.0206730   7.5732221  33.6031403
  23.0720278   8.0508726  32.8635066  22.5483711   7.4915724  33.0289696
  14.4394866  11.2535804  31.7441565  13.8552081  11.7585836  32.1507428
  14.0364961  11.0278191  31.0038157  14.2934170  11.2944053  31.6946590
   9.9938895  16.9690565  38.5465236   9.5106473  17.6941055  38.5224820
  10.8062213  17.2666695  38.6575394  10.0429642  17.1192919  38.5592515
  16.0653049  15.7622746  41.1515051  15.5479990  15.4030161  40.5476359
  16.7627440  15.2384921  41.1621117  16.0918630  15.6320434  41.0645309
  19.7216641  16.2117560  47.1131224  19.8099986  16.0243701  47.9609434
  20.1506353  15.5654990  46.7136070  19.7978743  16.0880568  47.1802975
  17.2887100  15.4948720  46.0948886  16.7257935  15.0821330  46.6188547
  18.0508124  15.4201626  46.5142029  17.3181549  15.4226121  46.2341886
  18.8972080   7.5001456  30.2210485  19.1368084   7.7079440  29.4085828
  19.2187921   6.6958965  30.3299430  18.9809238   7.4115558  30.1171038
  12.8483092  17.4846741  38.6985516  13.5503671  16.9698730  38.7558273
  12.7680575  17.8120893  39.5032391  12.9406852  17.4560968  38.8258308
  27.4997269   5.5789293  42.1117562  26.6625690   5.6491480  42.3465157
  27.4685500   5.5813787  41.2391865  27.3715552   5.5899520  42.0177110
  13.8961998   7.7222328  47.8265931  14.0682502   7.6128223  48.6751212
  14.4331356   8.3676734  47.5897123  14.0007002   7.8014330  47.9171028
  12.1733867  13.6753093  38.2071124  13.0122767  13.9076026  38.2544886
  12.2045636  12.8057405  38.1378159  12.3015585  13.5810040  38.2035769
  12.7986570  14.0953969  42.5084430  13.3384795  13.9525100  43.1787802
  12.1156517  14.4950719  42.8768456  12.7778724  14.1333639  42.6618851
  22.2227455   9.7744969  37.7029454  22.9784970  10.2076484  37.7418363
  22.3289780   9.1249739  38.2764090  22.3497626   9.7422453  37.7927479
  19.8336700  15.6426579  49.7775007  20.6177116  15.7557427  50.1430749
  19.6333294  14.8167716  49.9733693  19.9202725  15.5373299  49.8609393
   8.2023715  10.3154259  42.6618851   7.9362131   9.4993376  42.8209841
   8.2162279  10.3607415  41.7914367   8.1648438  10.2011164  42.5572333
  25.1805109   0.6432074  40.6961285  25.8231018   0.7130179  41.2823200
  25.4328130  -0.0238703  40.1940827  25.3127241   0.5558423  40.7088564
  12.1081462   5.1139344  29.2770609  11.3939639   4.8277523  29.6893042
  12.5925431   5.4535970  29.9176997  12.0740826   5.1220993  29.4326244
  19.9907093  17.5536681  43.4241463  19.1922339  17.3136181  43.6815331
  20.4393105  17.6051074  44.1708510  19.9381704  17.5259072  43.5726387
  28.3951972  10.3199166  37.3451494  29.0568407   9.7589835  37.2447403
  27.7543384   9.8251197  37.6704185  28.3980840  10.1635575  37.3783834
  19.2828780  13.6169298  29.6532417  19.6979929  13.2854322  28.9616913
  18.4520710  13.3838200  29.5252554  19.2216789  13.5340554  29.5323265
   8.6117129  11.1013039  39.9430595   8.4292702  11.0759925  39.0902887
   9.3466798  11.5711977  39.9819504   8.6931193  11.1674401  39.8228514
  24.6816803  11.3364549  37.0863483  24.9172392  11.4809748  36.2590334
  24.8306367  12.1006957  37.4794997  24.7382606  11.4703603  37.0227087
  11.6762881   7.8198042  46.4512704  12.4002853   7.8051072  46.9377599
  11.7779017   8.5293397  45.9534672  11.7981090   7.9222745  46.4491491
  26.5107260  10.1766215  34.9233087  26.8415477  10.7093855  34.3173182
  27.0840348  10.2305102  35.5795038  26.6440939  10.2635783  34.9310868
  19.0507830  11.2997126  51.3161651  18.2580811  11.6140638  51.5014271
  19.1656757  11.5148595  50.4782436  18.9503241  11.3780963  51.2199986
  21.7239149   8.0231117  35.6056667  21.8186003   8.7620411  36.0596292
  21.0997993   7.5948593  36.0391231  21.6448179   8.0692438  35.7364814
  19.9791623  11.2017330  46.2546948  20.5530485  10.5644574  46.4095512
  19.9006427  11.2021412  45.3856605  20.0524858  11.1082441  46.1493359
   8.5788039   7.9806539  40.0929662   9.1561542   7.8442990  40.7321907
   7.8802101   7.5242324  40.3475246   8.5609061   7.8928806  40.2251952
  21.9762170   9.8679857  28.8393619  21.8942333   9.9382044  29.7048606
  22.6141891  10.4309601  28.6477359  22.0582008   9.9618828  28.9383568
  15.3355341   9.6340595  38.3068145  15.0774586   8.8012330  38.2799445
  15.3903824   9.8598208  37.4660645  15.3055119   9.5438366  38.1788282
  20.4156392   1.7369046  38.4072238  19.7112718   1.2478231  38.5656157
  20.4641366   1.7491520  37.5360682  20.3186443   1.6658694  38.3011578
  14.3090054   7.1878358  38.7933040  13.7339645   7.3470526  39.4297001
  13.9325730   6.5513767  38.3301490  14.1692866   7.1176170  38.8187598
  17.9763342   5.6601707  43.6525418  17.5877775   5.2355925  42.9977609
  17.3118041   5.9083856  44.1602445  17.8210270   5.6340428  43.6313286
  27.6186611   5.4176711  36.4273248  27.3623176   4.6056653  36.2371131
  28.4615925   5.4254279  36.2003436  27.7052637   5.2988709  36.3658065
  21.7989704  -0.6423664  41.1649403  22.1800216  -1.3245493  41.5517277
  20.9952988  -0.9314062  40.9825067  21.7366166  -0.7856616  41.1953458
  19.0802281   9.8900311  31.8502225  19.8942919  10.1815204  31.7384997
  19.0161422   9.2360174  31.2760518  19.1905020   9.8365506  31.7491063
  25.3011771  12.5726308  46.2631801  25.0650408  11.7414372  46.1443862
  25.9455000  12.5211915  46.8486645  25.3606441  12.4423995  46.3317694
  14.9510189  13.3621829  36.9774537  15.5884136  13.1233576  37.5226331
  15.3765260  13.5658988  36.2427698  15.1086355  13.3572839  36.9491695
   9.6422831  15.6010165  40.8608841   9.6826976  15.8725016  40.0328621
  10.2017355  16.1252073  41.2766629   9.7306177  15.7185920  40.8000729
  15.5913004   8.5824119  31.3149427  15.9758157   8.3631825  32.0665972
  15.3424624   9.4087064  31.4450503  15.6115076   8.6722265  31.4450503
  26.3248191  12.3570756  42.3260095  26.0194008  13.0898813  42.6873411
  25.6054407  11.9508686  42.0452881  26.1735534  12.4052489  42.3373232
  17.3331661  13.8394251  38.6568324  17.4070669  13.6769423  39.5110174
  18.1501167  14.0284441  38.4128805  17.4648019  13.8430994  38.7466349
  32.0249983   8.9963757  41.6528440  31.9574484   9.0159716  40.7831026
  32.0105646   9.8394084  41.8784110  32.0128740   9.1237492  41.5580917
  11.0937417  14.1852114  35.6862767  10.2675535  14.4313851  35.5597046
  11.1549409  14.1064195  36.5524825  10.9811584  14.2097063  35.7951712
  22.4346330   0.3998915  44.9769529  23.1799922   0.2108725  44.5632954
  22.0183635   0.9257153  44.4183385  22.4831304   0.4501060  44.8334102
  15.8736246  16.8028995  33.3881797  16.1634545  16.4117976  32.6641024
  16.6039727  16.9845699  33.8287072  16.0243131  16.7722808  33.3464604
  29.8108601   7.7708143  39.9275034  30.3616522   7.1376212  40.1672126
  29.7952716   8.3023536  40.6190538  29.8893797   7.7557091  40.0653892
  16.4630992  11.6046740  44.4734927  15.9642685  12.3162508  44.5519816
  17.2731216  11.9247407  44.4353090  16.5087098  11.7573589  44.4791496
  13.8142162  18.7796377  36.4541947  13.5942457  18.4893732  37.2468614
  13.5936684  18.1211332  35.9259859  13.7489756  18.6396085  36.4930855
  12.7259109  10.8669693  38.7197648  12.4372358  10.2407165  39.2543376
  13.5942457  10.8089981  38.7862329  12.8119361  10.7657238  38.8088603
  23.5137007   6.0104477  39.0379630  23.1701773   5.2894812  39.3886880
  23.6130050   5.8018328  38.1957989  23.4779050   5.8728680  38.9651310
  15.9810118  20.1525767  35.2372639  16.6334176  19.6202209  35.4663665
  15.2835726  19.7994419  35.6240513  15.9740836  20.0215290  35.3284807
  12.9291383  12.5064945  34.6440013  13.6837351  12.8877984  34.8575476
  12.3361995  12.9576088  35.0986710  12.9528096  12.6293772  34.7422892
  23.9750036  12.4730181  34.5803618  24.5408069  13.1323391  34.4962161
  23.3277940  12.8179879  35.0520021  23.9628793  12.6212122  34.6376375
  15.3898050   4.4627785  49.7697226  14.5797825   4.7685565  49.6587068
  15.8672736   5.1833367  49.8849810  15.3401528   4.6142386  49.7704297
  14.2489609  13.6773506  40.0180129  13.7270363  13.8173798  40.7031993
  14.6363630  12.9184170  40.2082246  14.2293310  13.5859030  40.1481205
  20.4456614  15.4168965  34.0040698  20.2043290  14.6836826  33.5967763
  20.6257947  15.9655822  33.3507031  20.4364238  15.3891356  33.8470921
  15.6755935  10.7077525  35.4161620  15.4798717  11.3152259  34.8221923
  15.8990280  10.0145469  34.9353294  15.6790576  10.6955050  35.2577701
  14.0734465   7.5932263  35.5342488  14.7957117   7.7573421  35.0746294
  13.5942458   8.3141928  35.4281828  14.1098196   7.7230492  35.4508102
  22.0327972   3.9296062  40.9139173  21.1939073   3.9557340  40.6777436
  22.1032340   4.5766797  41.4944520  21.9196366   4.0292187  40.9648290
  11.7242082   9.9990335  44.6396628  12.2363178  10.2774588  43.9905388
  11.4378424  10.7379629  45.0059441  11.7576945  10.1492689  44.5986506
  20.4797251   0.8281439  35.6466789  21.1823604   0.6289187  35.1686747
  20.2141439   0.0557381  35.9535633  20.5443883   0.6844405  35.6212231
  25.9085496   9.1364048  38.2000415  25.8219471   9.2919474  39.0535194
  25.4535976   9.7802124  37.8259820  25.8288753   9.2539803  38.2707522
  15.2425807   2.0916724  44.6997670  15.0509004   2.1071858  45.5497093
  16.0924403   2.2880398  44.6764325  15.3401529   2.1231075  44.8220964
  19.7811312   6.4574795  36.8225974  19.5346027   6.3770546  37.6562763
  20.1096435   5.6728263  36.6288502  19.7932556   6.3301061  36.9173498
  23.6759361  13.1658155  40.6112756  23.5373720  13.8639201  41.1161498
  22.8959359  13.0106811  40.2548937  23.5402588  13.2458321  40.6339030
  22.0137446   9.4654530  46.8635137  22.0085485   8.5934347  46.8677564
  22.7198440   9.6642699  46.3904593  22.1182450   9.3658404  46.7942173
  15.7408340   9.1931514  46.2348957  15.8851715   9.7732722  45.5992067
  16.0883988   9.5707811  46.9398812  15.8135801   9.3352218  46.2447952
  17.9128257   8.3921682  44.0174089  17.1651571   8.5852697  43.6122367
  18.0669782   7.5666902  43.7798210  17.8250685   8.2986794  43.9219495
  14.8136095  17.3834286  43.1009984  14.9625658  16.8237202  42.4483389
  15.5936097  17.4626288  43.4842503  14.9510188  17.3119851  43.0606933
  17.3389395  17.5548929  44.3794475  17.2633066  16.8857739  44.9345263
  17.2679254  18.2566717  44.8935141  17.3170002  17.5593836  44.5371323
  18.1530034   2.2872233  44.9069493  18.6102648   3.0196207  45.0342285
  18.2286363   1.8638698  45.6656749  18.2321004   2.3329471  45.0370569
  17.9959642  16.0749928  35.2118081  18.7609533  15.8059571  34.8900745
  17.8937732  15.5899938  35.9288144  18.0941138  15.9639492  35.2697909
  16.0312412   4.2774337  41.7511317  15.2408487   4.0965797  42.0728653
  16.4273035   3.5001290  41.7341611  15.9729288   4.1361798  41.7963865
  20.5178303  13.1062111  27.1918030  21.2851288  13.1662236  26.7823882
  20.0709612  12.5342553  26.7074349  20.5651730  13.0298687  27.0595741
  21.4156098  11.9116767  39.4770763  20.7401100  11.6801999  39.9784150
  21.4248474  11.3037950  38.8512868  21.3174603  11.7875692  39.4586915
  18.5450242   6.7534596  46.2334816  18.4809383   7.6144553  46.1054952
  18.6847430   6.4366589  45.4330367  18.5565712   6.8334763  46.0963029
  23.4172833  14.7681900  31.7080941  23.4992670  15.5748886  31.3842392
  23.9022575  14.7877859  32.4321714  23.5009991  14.8902562  31.7667839
  17.2269336   9.4466736  40.3751019  16.8031585   9.6471235  39.6390037
  17.0514191   8.5995584  40.4875318  17.1380217   9.3515517  40.2824709
  16.7281030  20.9617249  42.8372476  17.2176960  20.2628038  42.6548141
  16.1565262  20.6641119  43.4248533  16.7165559  20.8143472  42.8973517
  12.5151781   9.9418787  35.8078991  12.6716400   9.8765590  36.6634983
  12.8552374  10.7167340  35.5957671  12.5885016  10.0467985  35.9033585
  19.0530926   9.3176671  34.6772354  19.5946471   8.8147052  35.1410975
  19.3677485   9.2641865  33.8661840  19.1795323   9.2356091  34.6256166
  22.9248033  13.5279318  51.7899267  23.7382898  13.2564467  51.9504399
  22.7642999  13.2286858  50.9859463  23.0217982  13.4434244  51.6944672
  17.2217375  14.7094022  31.9612382  17.2910196  13.8508561  32.1005383
  18.0005831  14.9265903  31.6331407  17.3470225  14.6146886  31.9329540
  20.2020195   4.2112975  44.7294655  20.4162165   3.5723889  44.1758009
  19.5854094   4.6558799  44.3002517  20.1425524   4.1823119  44.5845086
  21.6124863  17.1331723  36.1748876  21.2204655  16.8298439  35.4571742
  21.7677935  17.9700813  35.9853830  21.5778453  17.2115560  36.0405373
   9.0886043   7.1253737  36.1239758   9.4685007   7.5438282  35.4600026
   8.5141407   7.7067193  36.4308602   9.0597367   7.2731596  36.0716499
  22.3659283   5.8202040  45.6677962  21.5535965   5.5127931  45.7491135
  22.8249218   5.3401040  46.2320674  22.3139668   5.7038533  45.7632556
  21.7764538  13.6981712  36.1154906  21.4179192  13.8696355  36.8918939
  21.2903248  14.1594918  35.5582905  21.6523235  13.7920683  36.1480175
  16.5652903   9.3780878  28.6555141  16.8545428  10.1545760  28.9298715
  16.6524702   8.8669609  29.3569640  16.6207159   9.4172796  28.7997639
  19.4612791   7.2262112  50.4506664  19.9312422   7.8504228  50.8374538
  19.5074671   6.5579087  51.0099879  19.5380666   7.2196792  50.5906736
  22.9369277  14.5885608  47.0622107  23.5748998  14.0945804  46.7284563
  22.2943369  14.5163009  46.4774334  22.9363504  14.5044617  46.9264462
  24.6626277   6.4374754  41.6288023  24.2353885   6.3501103  40.8736122
  24.0252330   6.5452530  42.2142867  24.5055884   6.4407414  41.6033464
  18.1547354   1.5450279  47.5684992  18.9820784   1.2735428  47.6243607
  18.1755200   2.3411121  47.9248810  18.2800204   1.6230034  47.6300175
  22.9923534  15.2805416  43.7027464  23.7815912  14.9294481  43.8229546
  23.1667131  16.0941805  43.4404098  23.1343815  15.3491274  43.6815332
  12.7316844   8.6914142  40.7555253  11.8904851   8.5918016  40.9634147
  12.9406852   9.4609622  41.1069573  12.6381537   8.7906186  40.8382568
  10.2092411   6.3133679  38.5840003   9.8149109   6.3876691  37.8090113
   9.6532528   6.6991626  39.1348365  10.0695223   6.3815454  38.5507663
  21.8457358  -0.7085027  38.2643882  22.0506951  -0.7762719  39.1100879
  21.5183782   0.0973794  38.1965060  21.8272606  -0.5999086  38.3803537
  16.5433509   6.6195541  40.0052850  16.2396646   6.0651530  40.6063258
  15.8412930   6.7987751  39.5180885  16.3949719   6.5640324  40.0222556
  15.5999606   3.9296061  34.5697552  15.8759340   3.2114974  34.1575120
  16.1998275   4.5280981  34.3618658  15.7292871   3.9116432  34.4778313
  14.6051860  13.8345262  44.7124948  14.4972215  13.8447324  45.5787006
  14.8147641  14.6600043  44.5229902  14.6201971  13.9586337  44.8129040
  25.0991046  -0.1553263  37.7446648  24.4865359   0.3317140  38.1300380
  25.1955220  -0.8309772  38.2884299  25.0228943  -0.1834954  37.8825506
  19.1010127   1.6009579  32.8444147  19.5553873   1.7720139  33.5691992
  19.5750172   0.9877689  32.4441923  19.2378447   1.5360464  32.8917909
  12.6225652  11.0857905  42.1746886  12.0313585  11.7267403  42.1449901
  13.3846676  11.5095522  42.1478185  12.6473913  11.2433743  42.1662033
  22.3815168  16.5367216  39.6078910  22.1834857  17.0258031  38.9135121
  21.7602879  16.7408458  40.1863043  22.2602733  16.6383754  39.5902133
  16.4423147   8.3052113  33.9489154  17.1865191   8.6926389  34.1872104
  16.5883843   7.4609538  34.1129642  16.5733732   8.2382586  34.0083124
  19.4301022   3.8777586  39.8483074  18.9560977   3.3519348  40.3588385
  19.8019158   3.3307059  39.2797935  19.4150911   3.7193583  39.8398221
  25.6937753   8.9379962  41.2589854  25.4535976   8.0986377  41.2632281
  26.1729760   9.0180129  41.9830628  25.7289937   8.8261362  41.3664657
  21.3584522   4.7714141  32.9108828  20.8307541   4.8542885  32.2214536
  21.8180230   5.5132012  32.9073472  21.3486373   4.8934803  32.8083523
  27.6942940   5.7181419  39.2119113  27.4552710   5.6777253  38.3739898
  27.8576841   6.5652571  39.3384834  27.6833243   5.8373504  39.1072595
  24.2988970  10.1031368  45.1424158  25.0223169   9.6503895  44.9635178
  24.0338932  10.3836034  44.3596486  24.3670243  10.0782337  45.0002874
  13.1675839   4.6991542  41.8777038  12.5428909   4.7109934  41.2702990
  12.8321433   5.1751717  42.5268278  13.0261330   4.7710059  41.8833606
   9.8801514  12.7592002  43.3180802   9.3501439  12.0684441  43.3675777
  10.1526607  12.7502187  42.4893511   9.8426236  12.6559134  43.2028218
  20.9121605  13.3417704  32.0418485  21.6355803  13.8075817  31.8983058
  20.4722196  13.4091314  31.2916082  20.9537297  13.4201541  31.9103266
  20.0807760  10.2015247  43.2919174  19.4664753   9.6573297  43.5867809
  20.5975045   9.6879483  42.8124990  20.0663422  10.0451656  43.2643402
  19.3204057  11.2719517  41.0263472  18.8931665  10.6469235  40.5928908
  19.3129001  10.9894439  41.8522479  19.2563198  11.1372297  41.0843300
  12.4366584   6.3084690  44.0951906  12.5960071   5.5528014  44.5003628
  12.2559478   6.8575629  44.7492644  12.4331943   6.2778503  44.2514612
  20.3786887  -1.5254075  44.6502696  19.8827448  -1.3290400  43.9594262
  21.1355949  -1.1261406  44.4791497  20.4173712  -1.4376341  44.5222832
  17.6489766   2.1488271  41.2406006  17.6732254   1.6148384  40.5518786
  17.9001240   1.6405580  41.9031597  17.6899685   1.9949175  41.2370651
   5.1597356   9.4319766  40.6749150   5.0540805   9.3866611  39.8101234
   4.4097576   9.7773547  40.9563435   5.0332959   9.4760674  40.5886480
  16.1120702  10.4419829  48.7232045  15.2616332  10.5791544  48.8589690
  16.2748829   9.7083608  49.1679747  16.0104565  10.3533931  48.8087644
  15.3505452   7.3919599  42.9185650  14.5197382   7.5593417  42.7120898
  15.2956969   7.0155550  43.7034535  15.2194867   7.3609331  43.0034178
  13.7241496   5.6675191  33.4475767  13.8644457   6.1647655  34.1504409
  14.2224029   4.9661485  33.5889981  13.8182577   5.6377170  33.5727346
  13.7541718   6.5342302  30.7768344  14.3886798   7.1302727  30.7117806
  13.8367329   6.2345759  31.5914214  13.8598269   6.5783210  30.8871431
  26.7324284   9.0657779  43.6454708  27.3242124   9.7055030  43.6772906
  27.1683279   8.3680816  43.9346775  26.8842715   9.0576130  43.6935541
  15.3320701   2.4656277  30.7513786  15.6536542   1.9859360  30.0973048
  15.5947645   3.2755923  30.5604598  15.4186727   2.5146175  30.6269278
  18.5617674  13.4875152  44.2712602  18.0542765  14.0410998  44.7153233
  18.2644320  13.5483441  43.4531377  18.4422559  13.5781463  44.2161059
  20.7279856   1.8528471  43.1137265  21.1534928   1.4000998  42.5020792
  20.1136849   1.2988542  43.3902053  20.7008502   1.7042447  43.0642290
  10.2594706   8.7310143  34.0457890  10.7686936   9.3274650  34.4269196
  10.7328978   8.4636116  33.3634310  10.4038082   8.7795958  34.0012413
  21.1725454  17.4038409  32.2016546  20.4554764  17.2299272  31.7363783
  21.8232192  17.1690982  31.6692032  21.1627305  17.3434202  32.0545764
  23.7573425   6.2802998  35.9457851  23.0864615   6.8232700  35.8170916
  24.4513176   6.7497853  35.7039546  23.7602293   6.4301269  35.8913378
  17.8060159  18.4199710  41.1769609  17.5825814  17.6618539  41.5453635
  17.3170003  18.4497731  40.4550049  17.7003608  18.3121934  41.1246350
  23.9201553   2.7358881  38.8548224  24.2729163   2.3088604  39.5294023
  23.0616354   2.6509725  38.9849300  23.8450998   2.6603622  38.9743234
  12.6185238   5.3666401  36.9131070  11.8997227   5.7830534  37.1803934
  12.9897600   5.9320640  36.3622709  12.5677170   5.5115683  36.8713877
  21.9184819   5.9994250  42.8033066  21.8982746   5.8177545  43.6567845
  21.9664019   6.8706269  42.7792650  21.9219460   6.1010788  42.9256361
  19.8631149  12.5881442  48.7281543  19.8227003  11.9431119  48.1426699
  20.6754467  12.5318059  49.0406955  19.9774302  12.4840409  48.6878492
  16.4538616  18.6400168  38.6306694  16.0399015  17.9774298  38.2410535
  17.1385990  18.7878027  38.1102388  16.4936988  18.5640826  38.4963191
  19.8203910  17.7990253  39.3830310  19.4220193  17.9092524  38.6151131
  19.2055130  18.0072320  39.9656870  19.6702800  17.8463821  39.3561610
  18.3931812   4.4064401  32.2504450  17.7996652   4.7281398  31.6989017
  18.4307090   3.5605496  32.0425556  18.3106201   4.3288729  32.1387221
  25.3525613  -2.1422707  39.7832536  24.8456478  -2.8493567  39.7153714
  26.1493047  -2.4729518  39.9133613  25.3952852  -2.2949555  39.7931531
  21.2689629   4.3643906  35.6806200  21.0403322   4.3876607  34.8384558
  21.5287705   3.5401373  35.8001211  21.2735817   4.2459985  35.5731398
  15.5508857   6.2178379  45.2831300  15.0387760   5.6099562  45.6416332
  15.3788353   6.9334971  45.7505276  15.4498494   6.2341678  45.4047524
  14.3234391   2.9020452  36.9760396  14.7991758   3.2637532  36.3410577
  13.8222991   3.5576919  37.2560539  14.3199750   3.0514641  36.9237137
  19.4277928   4.1402623  47.7233556  19.9849358   3.9116433  47.0912021
  19.1038993   4.9008289  47.4468768  19.4624338   4.2186460  47.5890053
  17.1461045   7.2270277  48.6885563  17.8972372   7.5421953  49.0025117
  17.3383621   7.0249447  47.8619485  17.2852459   7.2437658  48.6128959
  16.3661045   5.0461652  30.3433780  16.7460009   5.0641281  29.5584895
  15.6253641   5.4915640  30.2224627  16.3129882   5.1143426  30.2097348
  23.9946335   3.3543843  35.9309359  23.9940561   3.1992499  36.7893635
  23.7902515   4.2006830  35.8750744  23.9646113   3.4564464  36.0497298
  21.7187187   8.0341345  39.5845565  22.2140852   7.3164340  39.5449586
  20.9086963   7.7312142  39.4700052  21.6731080   7.8838991  39.5619291
  17.1645799  11.8839158  31.7342570  16.3557121  11.5605831  31.6875879
  17.6720707  11.1772380  31.6670818  17.1195465  11.7320474  31.7172864
   7.7936076   9.3111351  37.4589934   6.9281595   9.2997041  37.3472705
   7.8934892   9.1241574  38.3061073   7.6810243   9.2817412  37.5678879
  23.7839006  10.7845032  42.2722694  24.2094078  10.2619454  41.7193119
  23.4195926  11.3825870  41.7511317  23.7925609  10.7955259  42.1131704
  13.4193086  19.0809250  41.0320040  13.7339645  19.8945638  41.0397821
  13.8286499  18.6959468  41.7002199  13.5261184  19.1437952  41.1324131
  20.3717605  14.4979296  38.6023852  20.8428784  15.2119559  38.7713837
  20.7077784  13.8978047  39.1383721  20.4912720  14.5150761  38.7056228
  22.4594590  16.1080610  50.7815924  22.5691555  15.3189170  51.1372671
  22.7885487  16.0186546  49.9790262  22.5246996  15.9786463  50.7158314
  21.0091552  14.2897231  45.3651544  20.4612498  13.6655114  45.0971610
  21.4704580  14.4791503  44.6495624  20.9958761  14.2256281  45.2201975
  23.8185416   2.3582585  42.7502737  23.2348405   2.8591792  42.3380304
  24.1389710   1.8512141  42.1167060  23.7798591   2.3574420  42.5961244
  16.3580215   1.2723180  33.0261411  17.1795910   1.4421493  32.7843106
  15.8949866   1.4270441  32.3027709  16.4111377   1.3204913  32.8833056
  10.7606106  13.0282358  40.6798648  11.3650963  12.9878192  40.0512469
  10.5533418  13.8753510  40.7102704  10.8195003  13.1470361  40.5914765
  20.5749878  15.2948303  41.8960885  21.3948252  15.1511269  42.1577181
  20.2943956  15.9194502  42.4377323  20.6546621  15.3658655  42.0148825
   5.9957388  12.0116976  40.5497571   5.8981666  11.2013247  40.8587628
   6.7786258  11.9908769  40.1643839   6.0973525  11.8884066  40.5384434
  19.4054153  27.6090203  37.2709030  19.1704338  26.7757855  37.1641299
  19.5439794  27.8894868  36.4570231  19.3909816  27.5273706  37.1351385
  21.7044241  19.7775933  40.1693338  21.0849273  19.1868580  40.0003352
  21.6028104  20.3687368  39.5357661  21.5981916  19.7780016  40.0498327
  21.4313374  23.3228215  42.4136907  21.3072071  23.9090660  43.0486725
  22.0831658  22.8288411  42.7149182  21.5087023  23.3367019  42.5522836
  34.1815408  12.8753394  36.8296686  33.8668849  13.5656873  37.2617108
  33.6642350  12.8198177  36.1282187  34.0579878  12.9688283  36.7893635
  28.2619684  31.0134028  46.0948886  27.6990519  30.6006638  46.6188547
  29.0240707  30.9386934  46.5142029  28.2914133  30.9411429  46.2341886
  29.8704664  23.0186764  30.2210485  30.1100668  23.2264748  29.4085828
  30.1920505  22.2144273  30.3299430  29.9541822  22.9300866  30.1171038
  24.8694582  23.2407636  47.8265931  25.0415086  23.1313531  48.6751212
  25.4063939  23.8862042  47.5897123  24.9739586  23.3199638  47.9171028
  23.5352019  17.3550479  30.7648136  23.3527592  17.5722360  29.9389129
  24.3977632  17.4689492  30.8206751  23.6356608  17.4040377  30.6502623
  19.1756299  25.8339567  42.6618851  18.9094714  25.0178684  42.8209841
  19.1894863  25.8792723  41.7914367  19.1381021  25.7196472  42.5572333
  36.1537693  16.1617382  40.6961285  36.7963601  16.2315487  41.2823200
  36.4060713  15.4946605  40.1940827  36.2859825  16.0743731  40.7088564
  23.9254905  19.3717946  45.3085859  23.2326702  18.9014925  45.5546590
  24.5415233  19.1456250  45.8827566  23.9139435  19.2685077  45.4295011
  19.5849713  26.6198347  39.9430595  19.4025286  26.5945233  39.0902887
  20.3199381  27.0897284  39.9819504  19.6663776  26.6859709  39.8228514
  22.6495464  23.3383350  46.4512704  23.3735437  23.3236380  46.9377599
  22.7511601  24.0478705  45.9534672  22.7713673  23.4408053  46.4491491
  30.0240414  26.8182434  51.3161651  29.2313394  27.1325946  51.5014271
  30.1389341  27.0333903  50.4782436  29.9235824  26.8966271  51.2199986
  19.5520623  23.4991847  40.0929662  20.1294126  23.3628298  40.7321907
  18.8534685  23.0427631  40.3475246  19.5341644  23.4114114  40.2251952
  15.0279456  22.3503740  36.8077480  15.1139708  21.9735609  37.5891010
  15.6555254  21.9764186  36.3297439  15.1336007  22.2389222  36.8522958
  20.6155415  31.1195473  40.8608841  20.6559560  31.3910324  40.0328621
  21.1749939  31.6437381  41.2766629  20.7038761  31.2371228  40.8000729
  26.7314128  17.3815842  51.0312011  26.4167569  18.1515404  50.7681574
  26.4104060  16.8186098  50.4464238  26.6373047  17.4126110  50.9053361
  33.4078914  15.9184223  44.9769529  34.1532506  15.7294033  44.5632954
  32.9916218  16.4442461  44.4183385  33.4563888  15.9686368  44.8334102
  23.6991693  26.3855001  38.7197648  23.4104941  25.7592473  39.2543376
  24.5675041  26.3275289  38.7862329  23.7851945  26.2842546  38.8088603
  26.3630633  19.9813093  49.7697226  25.5530409  20.2870872  49.6587068
  26.8405320  20.7018675  49.8849810  26.3134112  20.1327694  49.7704297
  22.6974665  25.5175643  44.6396628  23.2095762  25.7959896  43.9905388
  22.4111008  26.2564937  45.0059441  22.7309528  25.6677997  44.5986506
  19.7841571  20.0245835  34.9360365  19.8857708  20.8271996  35.2641340
  20.5797458  19.8233171  34.6383445  19.9169477  20.1131734  34.9395720
  20.6005304  20.1393013  42.6781486  20.4590795  19.2876954  42.8025994
  20.8845867  20.1821674  41.8543692  20.6213150  20.0192763  42.5749110
  25.7868678  32.9019594  43.1009984  25.9358242  32.3422510  42.4483389
  26.5668680  32.9811596  43.4842503  25.9242772  32.8305159  43.0606933
  28.3121979  33.0734237  44.3794475  28.2365650  32.4043047  44.9345263
  28.2411838  33.7752025  44.8935141  28.2902586  33.0779144  44.5371323
  21.3695609  18.0523361  45.9958937  20.8337798  17.4403719  46.3119704
  21.4313374  18.6271497  46.6492603  21.2991241  18.0470289  46.1394363
  33.5989943  10.9847416  38.7763336  33.7173512  11.4423880  38.0430638
  33.4252119  10.1792678  38.4899553  33.5909114  10.9341188  38.6264269
  23.4884365  25.4604095  35.8078991  23.6448984  25.3950898  36.6634983
  23.8284958  26.2352647  35.5957671  23.5617599  25.5653293  35.9033585
  33.8980617  29.0464626  51.7899267  34.7115482  28.7749775  51.9504399
  33.7375583  28.7472166  50.9859463  33.9950565  28.9619552  51.6944672
  20.0618626  22.6439045  36.1239758  20.4417591  23.0623590  35.4600026
  19.4873991  23.2252501  36.4308602  20.0329951  22.7916904  36.0716499
  30.4345374  22.7447420  50.4506664  30.9045005  23.3689536  50.8374538
  30.4807254  22.0764395  51.0099879  30.5113250  22.7382100  50.5906736
  29.3266023  12.2764393  45.2958581  29.9559141  12.8124693  45.0179651
  29.4951886  12.1841752  46.1472146  29.4443817  12.3425755  45.3807109
  29.1279938  17.0635587  47.5684992  29.9553367  16.7920736  47.6243607
  29.1487784  17.8596429  47.9248810  29.2532788  17.1415342  47.6300175
  23.7049428  24.2099450  40.7555253  22.8637434  24.1103324  40.9634147
  23.9139436  24.9794930  41.1069573  23.6114120  24.3091493  40.8382568
  21.1824995  21.8318987  38.5840003  20.7881692  21.9061999  37.8090113
  20.6265111  22.2176933  39.1348365  21.0427807  21.9000762  38.5507663
  25.5784444  29.3530570  44.7124948  25.4704798  29.3632632  45.5787006
  25.7880225  30.1785350  44.5229902  25.5934555  29.4771645  44.8129040
  36.0723629  15.3632045  37.7446648  35.4597943  15.8502448  38.1300380
  36.1687804  14.6875536  38.2884299  35.9961527  15.3350354  37.8825506
  23.5958236  26.6043212  42.1746886  23.0046169  27.2452711  42.1449901
  24.3579259  27.0280830  42.1478185  23.6206496  26.7619051  42.1662033
  23.9918858  17.7645210  42.8414903  24.4520340  17.8384140  43.5790027
  24.0374965  18.5626464  42.4914725  24.0669414  17.8939357  42.8987660
  25.6402208  18.4311905  47.4086930  25.2487773  17.7845252  47.8442708
  25.8088071  19.0223340  48.0281186  25.6073118  18.4226173  47.5649636
  20.7806636  21.3934401  45.2166619  21.6432249  21.2930110  45.1303949
  20.4498419  20.8129110  44.6552192  20.8591832  21.2926028  45.1212025
  24.3250171  18.5601968  27.9349723  23.9762975  19.2121694  28.3981272
  23.8446617  18.5459081  27.2073594  24.2020415  18.6545022  27.8960814
  20.8534098  28.2777310  43.3180802  20.3234022  27.5869749  43.3675777
  21.1259191  28.2687495  42.4893511  20.8158820  28.1744442  43.2028218
  23.4099167  21.8269998  44.0951906  23.5692654  21.0713322  44.5003628
  23.2292061  22.3760937  44.7492644  23.4064526  21.7963811  44.2514612
  31.3519470  13.9931233  44.6502696  30.8560032  14.1894907  43.9594262
  32.1088533  14.3923901  44.4791497  31.3906295  14.0808967  44.5222832
  16.1329940  24.9505074  40.6749150  16.0273389  24.9051918  39.8101234
  15.3830160  25.2958855  40.9563435  16.0065543  24.9945982  40.5886480
  27.0853285  25.9605137  48.7232045  26.2348916  26.0976852  48.8589690
  27.2481413  25.2268916  49.1679747  26.9837149  25.8719239  48.8087644
  24.1321819  16.4013800  48.5542060  24.7574522  15.8575933  48.8271492
  23.6772299  15.9208718  47.9849851  24.1570080  16.2503281  48.5103654
  21.2327290  24.2495451  34.0457890  21.7419519  24.8459958  34.4269196
  21.7061562  23.9821424  33.3634310  21.3770665  24.2981266  34.0012413
  36.3258197  13.3762601  39.7832536  35.8189061  12.6691741  39.7153714
  37.1225630  13.0455790  39.9133613  36.3685436  13.2235753  39.7931531
  21.3707156  20.1801262  47.9333662  21.2009746  20.8402637  47.3881869
  20.9273105  20.3907823  48.6546151  21.2806489  20.3087244  47.9595292
  30.4010511  19.6587931  47.7233556  30.9581941  19.4301741  47.0912021
  30.0771576  20.4193597  47.4468768  30.4356921  19.7371768  47.5890053
  18.2709220  23.0848127  43.1922152  17.7235940  22.4148773  43.3103020
  19.0601598  22.7177975  43.2565619  18.3061404  22.9313114  43.2190853
  28.1193629  22.7455584  48.6885563  28.8704955  23.0607261  49.0025117
  28.3116205  22.5434755  47.8619485  28.2585043  22.7622966  48.6128959
  17.0296190  22.2968935  40.3468175  16.8517951  21.8445544  41.0723091
  16.7415212  23.0995097  40.5306653  16.9609143  22.3491493  40.4811678
  18.7668659  24.8296659  37.4589934  17.9014179  24.8182349  37.3472705
  18.8667475  24.6426882  38.3061073  18.6542826  24.8002720  37.5678879
  24.3925669  34.5994558  41.0320040  24.7072228  35.4130946  41.0397821
  24.8019083  34.2144776  41.7002199  24.4993767  34.6623260  41.1324131
  28.2619684  14.7892075  45.5581946  28.3947590  13.9923068  45.8862922
  28.6464837  15.3158478  46.1380222  28.3376013  14.7491992  45.6925449
  25.9208131  14.7851250  43.8059840  26.4652544  14.4442377  44.3964182
  25.9745066  15.6436712  43.9481125  26.0097250  14.8606509  43.9141714
  21.7338689  28.5467666  40.6798648  22.3383547  28.5063500  40.0512469
  21.5266002  29.3938818  40.7102704  21.7927587  28.6655669  40.5914765
  16.9689972  27.5302284  40.5497571  16.8714250  26.7198555  40.8587628
  17.7518841  27.5094077  40.1643839  17.0706108  27.4069374  40.5384434
  55.5022097  59.3445947  49.2217148  56.2088864  58.8497978  49.3504083
  55.6910032  59.7855029  48.4919806  55.6350003  59.3364298  49.1326194
  51.5698771  64.9861778  36.7490582  51.9538151  65.5548677  36.2095358
  51.5057913  64.2611288  36.2696399  51.6172199  64.9637241  36.5984445
  47.9955016  67.5418121  39.0471552  48.6392471  67.9831285  39.4367711
  48.3211271  66.7371547  38.9601811  48.1386845  67.4883316  39.0917030
  50.9422973  60.3815454  41.3431310  51.2246216  59.5866859  41.1218066
  51.6709134  60.8596041  41.3636371  51.0912537  60.3350050  41.3134325
  60.9241062  59.4874816  38.3167141  60.0938765  59.6985459  38.4800558
  60.8750314  58.6611870  38.0409425  60.7947797  59.3964422  38.3004506
  42.9136645  63.5246489  38.5465236  42.4304224  64.2496979  38.5224820
  43.7259964  63.8222619  38.6575394  42.9627393  63.6748843  38.5592515
  48.9850799  62.3178670  41.1515051  48.4677741  61.9586085  40.5476359
  49.6825191  61.7940844  41.1621117  49.0116380  62.1876358  41.0645309
  52.6414391  62.7673484  47.1131224  52.7297737  62.5799624  47.9609434
  53.0704104  62.1210914  46.7136070  52.7176494  62.6436492  47.1802975
  50.2084851  62.0504644  46.0948886  49.6455686  61.6377254  46.6188547
  50.9705875  61.9757550  46.5142029  50.2379300  61.9782044  46.2341886
  45.7680843  64.0402665  38.6985516  46.4701422  63.5254654  38.7558273
  45.6878326  64.3676816  39.5032391  45.8604603  64.0116891  38.8258308
  45.7184321  60.6509892  42.5084430  46.2582546  60.5081023  43.1787802
  45.0354267  61.0506643  42.8768456  45.6976475  60.6889563  42.6618851
  58.1805377  60.1574170  38.4531857  57.7440609  60.1610913  39.2090828
  57.8468292  60.8379669  38.0211434  58.0667997  60.2586626  38.5012689
  52.7534451  62.1982503  49.7775007  53.5374867  62.3113351  50.1430749
  52.5531045  61.3723640  49.9733693  52.8400476  62.0929222  49.8609393
  52.9104844  64.1092605  43.4241463  52.1120090  63.8692105  43.6815331
  53.3590855  64.1606998  44.1708510  52.8579455  64.0814996  43.5726387
  59.4305011  56.7322138  34.9233087  59.7613228  57.2649779  34.3173182
  60.0038099  56.7861026  35.5795038  59.5638690  56.8191707  34.9310868
  51.9705581  57.8553050  51.3161651  51.1778562  58.1696562  51.5014271
  52.0854508  58.0704518  50.4782436  51.8700991  57.9336887  51.2199986
  52.8989374  57.7573254  46.2546948  53.4728235  57.1200498  46.4095512
  52.8204177  57.7577336  45.3856605  52.9722608  57.6638365  46.1493359
  58.2209521  59.1282231  46.2631801  57.9848159  58.2970296  46.1443862
  58.8652750  59.0767839  46.8486645  58.2804192  58.9979919  46.3317694
  59.2445942  58.9126680  42.3260095  58.9391759  59.6454737  42.6873411
  58.5252158  58.5064610  42.0452881  59.0933284  58.9608413  42.3373232
  64.9447734  55.5519681  41.6528440  64.8772234  55.5715640  40.7831026
  64.9303397  56.3950008  41.8784110  64.9326491  55.6793415  41.5580917
  48.7933997  63.3584918  33.3881797  49.0832296  62.9673900  32.6641024
  49.5237478  63.5401623  33.8287072  48.9440881  63.3278732  33.3464604
  46.7339913  65.3352301  36.4541947  46.5140208  65.0449655  37.2468614
  46.5134435  64.6767256  35.9259859  46.6687507  65.1952009  36.4930855
  48.9007868  66.7081691  35.2372639  49.5531927  66.1758133  35.4663665
  48.2033477  66.3550343  35.6240513  48.8938586  66.5771214  35.3284807
  56.8947787  59.0286105  34.5803618  57.4605819  59.6879315  34.4962161
  56.2475690  59.3735803  35.0520021  56.8826543  59.1768046  34.6376375
  53.3654365  61.9724889  34.0040698  53.1241041  61.2392750  33.5967763
  53.5455698  62.5211746  33.3507031  53.3561989  61.9447280  33.8470921
  56.5957112  59.7214079  40.6112756  56.4571471  60.4195124  41.1161498
  55.8157110  59.5662735  40.2548937  56.4600339  59.8014245  40.6339030
  54.9335197  56.0210454  46.8635137  54.9283235  55.1490270  46.8677564
  55.6396191  56.2198623  46.3904593  55.0380201  55.9214328  46.7942173
  47.7333845  63.9390210  43.1009984  47.8823409  63.3793126  42.4483389
  48.5133847  64.0182211  43.4842503  47.8707939  63.8675775  43.0606933
  58.0910485  59.0792332  31.3729255  57.7117293  58.2929470  31.3658544
  57.4276730  59.6279189  31.2300899  57.9368959  59.0437156  31.3510052
  50.2587146  64.1104853  44.3794475  50.1830817  63.4413663  44.9345263
  50.1877005  64.8122641  44.8935141  50.2367753  64.1149760  44.5371323
  50.9157393  62.6305851  35.2118081  51.6807284  62.3615495  34.8900745
  50.8135483  62.1455862  35.9288144  51.0138888  62.5195416  35.2697909
  56.3370584  61.3237823  31.7080941  56.4190421  62.1304810  31.3842392
  56.8220326  61.3433783  32.4321714  56.4207741  61.4458486  31.7667839
  49.6478780  67.5173172  42.8372476  50.1374711  66.8183962  42.6548141
  49.0763013  67.2197042  43.4248533  49.6363310  67.3699396  42.8973517
  55.8445784  60.0835242  51.7899267  56.6580649  59.8120391  51.9504399
  55.6840750  59.7842782  50.9859463  55.9415732  59.9990168  51.6944672
  54.5322614  63.6887647  36.1748876  54.1402405  63.3854362  35.4571742
  54.6875686  64.5256737  35.9853830  54.4976204  63.7671484  36.0405373
  54.6962288  60.2537636  36.1154906  54.3376943  60.4252279  36.8918939
  54.2100999  60.7150842  35.5582905  54.5720985  60.3476607  36.1480175
  55.8567028  61.1441532  47.0622107  56.4946748  60.6501728  46.7284563
  55.2141119  61.0718932  46.4774334  55.8561254  61.0600540  46.9264462
  55.9121284  61.8361340  43.7027464  56.7013663  61.4850405  43.8229546
  56.0864882  62.6497729  43.4404098  56.0541566  61.9047197  43.6815332
  47.5249611  60.3901186  44.7124948  47.4169966  60.4003248  45.5787006
  47.7345392  61.2155966  44.5229902  47.5399722  60.5142261  44.8129040
  55.3012919  63.0923140  39.6078910  55.1032608  63.5813954  38.9135121
  54.6800630  63.2964381  40.1863043  55.1800483  63.1939678  39.5902133
  57.2186721  56.6587292  45.1424158  57.9420920  56.2059819  44.9635178
  56.9536683  56.9391958  44.3596486  57.2867994  56.6338261  45.0002874
  38.0795107  55.9875690  40.6749150  37.9738556  55.9422534  39.8101234
  37.3295327  56.3329471  40.9563435  37.9530710  56.0316598  40.5886480
  51.4815425  60.0431075  44.2712602  50.9740516  60.5966922  44.7153233
  51.1842071  60.1039365  43.4531377  51.3620310  60.1337387  44.2161059
  54.0923205  63.9594333  32.2016546  53.3752515  63.7855195  31.7363783
  54.7429943  63.7246905  31.6692032  54.0825055  63.8990126  32.0545764
  50.7257910  64.9755634  41.1769609  50.5023564  64.2174463  41.5453635
  50.2367753  65.0053655  40.4550049  50.6201359  64.8677858  41.1246350
  52.7828899  59.1437366  48.7281543  52.7424754  58.4987043  48.1426699
  53.5952218  59.0873983  49.0406955  52.8972053  59.0396333  48.6878492
  49.3736367  65.1956092  38.6306694  48.9596765  64.5330222  38.2410535
  50.0583741  65.3433951  38.1102388  49.4134739  65.1196750  38.4963191
  52.7401661  64.3546177  39.3830310  52.3417944  64.4648447  38.6151131
  52.1252881  64.5628243  39.9656870  52.5900550  64.4019745  39.3561610
  60.4743504  58.9298144  32.7673401  60.8577109  59.6789500  32.9971498
  59.6787617  59.1763963  32.5085390  60.4137286  59.0767838  32.7630974
  46.3390837  65.6365173  41.0320040  46.6537395  66.4501562  41.0397821
  46.7484250  65.2515392  41.7002199  46.4458934  65.6993876  41.1324131
  53.2915356  61.0535220  38.6023852  53.7626534  61.7675483  38.7713837
  53.6275535  60.4533970  39.1383721  53.4110471  61.0706684  38.7056228
  55.3792341  62.6636534  50.7815924  55.4889306  61.8745094  51.1372671
  55.7083237  62.5742470  49.9790262  55.4444747  62.5342386  50.7158314
  53.9289302  60.8453154  45.3651544  53.3810248  60.2211038  45.0971610
  54.3902331  61.0347426  44.6495624  53.9156512  60.7812205  45.2201975
  53.4947629  61.8504227  41.8960885  54.3146003  61.7067193  42.1577181
  53.2141706  62.4750426  42.4377323  53.5744372  61.9214579  42.0148825
  69.9661279  69.5069079  34.8603762  69.9355284  70.3613715  35.0322031
  70.5642628  69.2064371  35.4189905  70.0498437  69.5885575  34.9678564
  63.1660964  68.5944730  39.6156692  62.3098860  68.7553228  39.6665809
  63.2128618  67.7236794  39.6361753  63.0460075  68.4895532  39.6262758
  57.5502104  78.1307448  35.3793924  56.7985003  77.7522986  35.1509969
  57.9988115  78.1625881  34.6312734  57.5051771  78.0793055  35.2351426
  66.4754681  74.8631255  49.2217148  67.1821448  74.3683286  49.3504083
  66.6642616  75.3040337  48.4919806  66.6082586  74.8549606  49.1326194
  66.0112785  70.6536774  42.2588344  66.5568745  71.3321860  42.3182314
  65.9529661  70.5124235  41.3989925  66.0828699  70.7328775  42.1400404
  59.1286860  78.1425840  37.6456696  59.2297223  77.3326194  37.9553824
  58.5328605  78.0482786  37.0156375  59.0559399  78.0090868  37.5982935
  67.7877854  72.0821381  33.1322072  67.6717380  72.8329067  33.5614210
  68.5833740  71.8245334  33.3818159  67.8882443  72.1556228  33.2326163
  52.3251904  74.1646126  37.2709030  52.0902089  73.3313779  37.1641299
  52.4637545  74.4450792  36.4570231  52.3107567  74.0829630  37.1351385
  54.6241992  66.3331857  40.1693338  54.0047023  65.7424504  40.0003352
  54.5225855  66.9243292  39.5357661  54.5179667  66.3335939  40.0498327
  59.6708179  76.0715404  34.4191414  59.9924020  76.6120611  33.8152722
  60.3180276  75.5012175  34.5513704  59.8134234  76.0674579  34.3498449
  61.7209887  68.0731399  34.5025801  62.4190052  68.2519526  34.9947264
  62.0362220  67.5501738  33.8796190  61.8705224  68.0225171  34.4827811
  54.3511125  69.8784139  42.4136907  54.2269822  70.4646584  43.0486725
  55.0029409  69.3844334  42.7149182  54.4284774  69.8922943  42.5522836
  61.9097823  74.4601844  34.4905592  62.3491458  73.8518944  34.9360365
  61.7602486  74.0809217  33.7191057  61.9519288  74.3140315  34.4424760
  59.3769466  73.0545856  41.6924418  60.0218468  72.5618299  41.3735366
  59.6171243  73.1970642  42.5190496  59.5080051  73.0023298  41.7673951
  61.9155557  75.9000761  41.3431310  62.1978800  75.1052167  41.1218066
  62.6441717  76.3781349  41.3636371  62.0645121  75.8535358  41.3134325
  59.8936751  63.4423795  38.5847075  59.5640081  63.8934939  37.9150774
  59.2181753  63.3639959  39.1320082  59.7447187  63.4974931  38.5670299
  65.5107159  72.8129025  31.4436361  65.4258454  73.6689992  31.5885930
  65.9991542  72.5373349  32.1118521  65.5696056  72.8986346  31.5638443
  67.1013159  59.4309318  36.8296686  66.7866600  60.1212797  37.2617108
  66.5840100  59.3754101  36.1282187  66.9777629  59.5244207  36.7893635
  66.4425592  69.4313819  32.9434097  65.9137064  69.6473453  33.6031403
  66.9650612  70.1249958  32.8635066  66.4414045  69.5656956  33.0289696
  58.3325200  73.3277036  31.7441565  57.7482415  73.8327067  32.1507428
  57.9295295  73.1019423  31.0038157  58.1864504  73.3685284  31.6946590
  53.8869229  79.0431797  38.5465236  53.4036807  79.7682287  38.5224820
  54.6992547  79.3407927  38.6575394  53.9359977  79.1934151  38.5592515
  59.9583383  77.8363978  41.1515051  59.4410325  77.4771393  40.5476359
  60.6557774  77.3126152  41.1621117  59.9848964  77.7061666  41.0645309
  61.1817435  77.5689952  46.0948886  60.6188269  77.1562562  46.6188547
  61.9438458  77.4942858  46.5142029  61.2111883  77.4967352  46.2341886
  62.7902415  69.5742688  30.2210485  63.0298418  69.7820672  29.4085828
  63.1118256  68.7700197  30.3299430  62.8739573  69.4856789  30.1171038
  58.0992705  61.5036084  34.0670023  58.8538673  61.8714401  33.8287073
  57.9220240  61.8775638  34.8349203  58.1847183  61.6134272  34.1454912
  56.7413426  79.5587973  38.6985516  57.4434005  79.0439962  38.7558273
  56.6610909  79.8862124  39.5032391  56.8337187  79.5302199  38.8258308
  71.3927604  67.6530524  42.1117562  70.5556025  67.7232711  42.3465157
  71.3615835  67.6555019  41.2391865  71.2645886  67.6640751  42.0177110
  57.7892333  69.7963560  47.8265931  57.9612836  69.6869455  48.6751212
  58.3261690  70.4417965  47.5897123  57.8937337  69.8755562  47.9171028
  56.4549770  63.9106403  30.7648136  56.2725343  64.1278284  29.9389129
  57.3175383  64.0245416  30.8206751  56.5554359  63.9596301  30.6502623
  56.0664202  75.7494325  38.2071124  56.9053101  75.9817258  38.2544886
  56.0975971  74.8798636  38.1378159  56.1945919  75.6551271  38.2035769
  56.6916905  76.1695200  42.5084430  57.2315130  76.0266331  43.1787802
  56.0086851  76.5691951  42.8768456  56.6709058  76.2074871  42.6618851
  62.1349489  60.9132814  33.7997160  62.8635649  60.7348768  33.3535316
  62.2244382  61.7550893  34.0104338  62.2556151  61.0116692  33.7650678
  66.1157789  71.8486201  37.7029454  66.8715304  72.2817715  37.7418363
  66.2220114  71.1990971  38.2764090  66.2427960  71.8163685  37.7927479
  52.0954050  72.3895491  42.6618851  51.8292465  71.5734608  42.8209841
  52.1092614  72.4348647  41.7914367  52.0578772  72.2752396  42.5572333
  69.0735443  62.7173306  40.6961285  69.7161352  62.7871411  41.2823200
  69.3258464  62.0502529  40.1940827  69.2057576  62.6299655  40.7088564
  56.0011797  67.1880575  29.2770609  55.2869974  66.9018755  29.6893042
  56.4855765  67.5277201  29.9176997  55.9671160  67.1962225  29.4326244
  56.8452656  65.9273869  45.3085859  56.1524453  65.4570849  45.5546590
  57.4612983  65.7012174  45.8827566  56.8337186  65.8241001  45.4295011
  63.1759114  75.6910529  29.6532417  63.5910263  75.3595553  28.9616913
  62.3451044  75.4579432  29.5252554  63.1147123  75.6081785  29.5323265
  52.5047463  73.1754270  39.9430595  52.3223036  73.1501156  39.0902887
  53.2397132  73.6453208  39.9819504  52.5861527  73.2415633  39.8228514
  68.5747137  73.4105780  37.0863483  68.8102727  73.5550979  36.2590334
  68.7236701  74.1748188  37.4794997  68.6312941  73.5444835  37.0227087
  55.5693215  69.8939273  46.4512704  56.2933187  69.8792304  46.9377599
  55.6709351  70.6034629  45.9534672  55.6911424  69.9963976  46.4491491
  70.4037594  72.2507446  34.9233087  70.7345811  72.7835086  34.3173182
  70.9770682  72.3046334  35.5795038  70.5371273  72.3377015  34.9310868
  62.9438164  73.3738358  51.3161651  62.1511145  73.6881870  51.5014271
  63.0587091  73.5889826  50.4782436  62.8433575  73.4522195  51.2199986
  65.6169483  70.0972349  35.6056667  65.7116338  70.8361643  36.0596292
  64.9928327  69.6689825  36.0391231  65.5378513  70.1433670  35.7364814
  63.8721957  73.2758562  46.2546948  64.4460819  72.6385806  46.4095512
  63.7936761  73.2762644  45.3856605  63.9455192  73.1823673  46.1493359
  52.4718374  70.0547771  40.0929662  53.0491876  69.9184222  40.7321907
  51.7732435  69.5983555  40.3475246  52.4539395  69.9670037  40.2251952
  65.8692505  71.9421089  28.8393619  65.7872667  72.0123276  29.7048606
  66.5072225  72.5050833  28.6477359  65.9512342  72.0360060  28.9383568
  59.2285676  71.7081827  38.3068145  58.9704920  70.8753562  38.2799445
  59.2834159  71.9339440  37.4660645  59.1985454  71.6179598  38.1788282
  64.3086726  63.8110277  38.4072238  63.6043053  63.3219463  38.5656157
  64.3571700  63.8232752  37.5360682  64.2116778  63.7399925  38.3011578
  58.2020388  69.2619589  38.7933040  57.6269979  69.4211758  39.4297001
  57.8256064  68.6254998  38.3301490  58.0623200  69.1917402  38.8187598
  61.8693677  67.7342939  43.6525418  61.4808109  67.3097156  42.9977609
  61.2048375  67.9825088  44.1602445  61.7140604  67.7081660  43.6313286
  71.5116946  67.4917943  36.4273248  71.2553511  66.6797885  36.2371131
  72.3546260  67.4995510  36.2003436  71.5982971  67.3729941  36.3658065
  47.9477207  68.9059664  36.8077480  48.0337459  68.5291532  37.5891010
  48.5753004  68.5320110  36.3297439  48.0533758  68.7945146  36.8522958
  65.6920038  61.4317567  41.1649403  66.0730550  60.7495738  41.5517277
  64.8883322  61.1427169  40.9825067  65.6296500  61.2884616  41.1953458
  62.9732615  71.9641543  31.8502225  63.7873254  72.2556436  31.7384997
  62.9091756  71.3101405  31.2760518  63.0835354  71.9106738  31.7491063
  58.8440523  75.4363061  36.9774537  59.4814470  75.1974808  37.5226331
  59.2695595  75.6400219  36.2427698  59.0016689  75.4314071  36.9491695
  53.5353165  77.6751397  40.8608841  53.5757311  77.9466248  40.0328621
  54.0947690  78.1993305  41.2766629  53.6236511  77.7927152  40.8000729
  59.4843338  70.6565350  31.3149427  59.8688491  70.4373057  32.0665972
  59.2354958  71.4828296  31.4450503  59.5045411  70.7463497  31.4450503
  59.6511879  63.9371766  51.0312011  59.3365320  64.7071328  50.7681574
  59.3301811  63.3742022  50.4464238  59.5570798  63.9682034  50.9053361
  61.2261995  75.9135483  38.6568324  61.3001003  75.7510655  39.5110174
  62.0431501  76.1025673  38.4128805  61.3578354  75.9172226  38.7466349
  54.9867752  76.2593346  35.6862767  54.1605869  76.5055083  35.5597046
  55.0479743  76.1805427  36.5524825  54.8741919  76.2838295  35.7951712
  57.2043775  62.3262287  36.6458207  56.3366201  62.3984887  36.7115816
  57.4918980  63.1284366  36.8346182  57.1183524  62.4556434  36.6832974
  66.3276664  62.4740146  44.9769529  67.0730256  62.2849957  44.5632954
  65.9113969  62.9998384  44.4183385  66.3761638  62.5242292  44.8334102
  59.7666581  78.8770226  33.3881797  60.0564879  78.4859208  32.6641024
  60.4970062  79.0586931  33.8287072  59.9173465  78.8464040  33.3464604
  73.7038935  69.8449375  39.9275034  74.2546857  69.2117444  40.1672126
  73.6883050  70.3764768  40.6190538  73.7824131  69.8298323  40.0653892
  60.3561326  73.6787972  44.4734927  59.8573020  74.3903740  44.5519816
  61.1661550  73.9988639  44.4353090  60.4017433  73.8314821  44.4791496
  57.7072496  80.8537609  36.4541947  57.4872792  80.5634963  37.2468614
  57.4867018  80.1952564  35.9259859  57.6420091  80.7137317  36.4930855
  56.6189444  72.9410925  38.7197648  56.3302692  72.3148396  39.2543376
  57.4872792  72.8831213  38.7862329  56.7049695  72.8398469  38.8088603
  67.4067341  68.0845709  39.0379630  67.0632107  67.3636044  39.3886880
  67.5060384  67.8759560  38.1957989  67.3709384  67.9469912  38.9651310
  56.8221717  74.5806176  34.6440013  57.5767685  74.9619215  34.8575476
  56.2292330  75.0317320  35.0986710  56.8458431  74.7035004  34.7422892
  59.2828384  66.5369017  49.7697226  58.4728160  66.8426796  49.6587068
  59.7603071  67.2574599  49.8849810  59.2331863  66.6883618  49.7704297
  58.1419944  75.7514738  40.0180129  57.6200697  75.8915029  40.7031993
  58.5293964  74.9925402  40.2082246  58.1223644  75.6600261  40.1481205
  55.1311128  65.8020546  34.0875083  54.8435923  65.4321817  33.3507031
  55.8181596  66.2715402  33.8258788  55.1900025  65.8167516  33.9390159
  59.5686269  72.7818757  35.4161620  59.3729052  73.3893491  34.8221923
  59.7920615  72.0886701  34.9353294  59.5720910  72.7696282  35.2577701
  57.9664799  69.6673495  35.5342488  58.6887451  69.8314653  35.0746294
  57.4872792  70.3883159  35.4281828  58.0028530  69.7971724  35.4508102
  65.9258307  66.0037293  40.9139173  65.0869407  66.0298572  40.6777436
  65.9962674  66.6508029  41.4944520  65.8126700  66.1033419  40.9648290
  55.6172416  72.0731567  44.6396628  56.1293513  72.3515820  43.9905388
  55.3308758  72.8120861  45.0059441  55.6507279  72.2233921  44.5986506
  64.3727585  62.9022670  35.6466789  65.0753938  62.7030419  35.1686747
  64.1071774  62.1298613  35.9535633  64.4374217  62.7585636  35.6212231
  69.8015831  71.2105280  38.2000415  69.7149805  71.3660706  39.0535194
  69.3466310  71.8543356  37.8259820  69.7219087  71.3281035  38.2707522
  52.7039322  66.5801759  34.9360365  52.8055459  67.3827920  35.2641340
  53.4995209  66.3789095  34.6383445  52.8367228  66.6687658  34.9395720
  59.1356141  64.1657956  44.6997670  58.9439338  64.1813090  45.5497093
  59.9854737  64.3621630  44.6764325  59.2331863  64.1972307  44.8220964
  53.5203054  66.6948937  42.6781486  53.3788546  65.8432878  42.8025994
  53.8043618  66.7377598  41.8543692  53.5410900  66.5748687  42.5749110
  63.6741647  68.5316027  36.8225974  63.4276361  68.4511778  37.6562763
  64.0026770  67.7469495  36.6288502  63.6862890  68.4042293  36.9173498
  65.9067781  71.5395762  46.8635137  65.9015819  70.6675578  46.8677564
  66.6128774  71.7383931  46.3904593  66.0112785  71.4399636  46.7942173
  59.6338674  71.2672746  46.2348957  59.7782050  71.8473954  45.5992067
  59.9814322  71.6449042  46.9398812  59.7066135  71.4093450  46.2447952
  61.8058591  70.4662914  44.0174089  61.0581905  70.6593929  43.6122367
  61.9600116  69.6408134  43.7798210  61.7181019  70.3728026  43.9219495
  58.7066429  79.4575518  43.1009984  58.8555993  78.8978433  42.4483389
  59.4866431  79.5367519  43.4842503  58.8440523  79.3861083  43.0606933
  62.0460368  64.3613465  44.9069493  62.5032982  65.0937439  45.0342285
  62.1216697  63.9379930  45.6656749  62.1251338  64.4070703  45.0370569
  54.2893360  64.6079285  45.9958937  53.7535549  63.9959643  46.3119704
  54.3511124  65.1827421  46.6492603  54.2188992  64.6026212  46.1394363
  66.5187694  57.5403340  38.7763336  66.6371262  57.9979803  38.0430638
  66.3449870  56.7348601  38.4899553  66.5106865  57.4897112  38.6264269
  59.9242746  66.3515569  41.7511317  59.1338821  66.1707029  42.0728653
  60.3203369  65.5742521  41.7341611  59.8659622  66.2103030  41.7963865
  64.4108637  75.1803343  27.1918030  65.1781622  75.2403468  26.7823882
  63.9639946  74.6083785  26.7074349  64.4582064  75.1039919  27.0595741
  65.3086433  73.9857999  39.4770763  64.6331434  73.7543231  39.9784150
  65.3178809  73.3779182  38.8512868  65.2104937  73.8616924  39.4586915
  62.4380576  68.8275828  46.2334816  62.3739718  69.6885784  46.1054952
  62.5777764  68.5107821  45.4330367  62.4496047  68.9075995  46.0963029
  61.1199670  71.5207967  40.3751019  60.6961919  71.7212466  39.6390037
  60.9444526  70.6736815  40.4875318  61.0310551  71.4256749  40.2824709
  56.4082115  72.0160019  35.8078991  56.5646735  71.9506822  36.6634983
  56.7482708  72.7908571  35.5957671  56.4815350  72.1209217  35.9033585
  62.9461260  71.3917902  34.6772354  63.4876805  70.8888283  35.1410975
  63.2607819  71.3383097  33.8661840  63.0725657  71.3097323  34.6256166
  61.1147710  76.7835254  31.9612382  61.1840530  75.9249792  32.1005383
  61.8936165  77.0007135  31.6331407  61.2400560  76.6888118  31.9329540
  64.0950529  66.2854207  44.7294655  64.3092499  65.6465121  44.1758009
  63.4784429  66.7300031  44.3002517  64.0355859  66.2564350  44.5845086
  52.9816377  69.1994969  36.1239758  53.3615342  69.6179514  35.4600026
  52.4071742  69.7808425  36.4308602  52.9527702  69.3472828  36.0716499
  66.2589617  67.8943272  45.6677962  65.4466299  67.5869162  45.7491135
  66.7179552  67.4142272  46.2320674  66.2070002  67.7779764  45.7632556
  65.6694872  75.7722944  36.1154906  65.3109527  75.9437587  36.8918939
  65.1833583  76.2336150  35.5582905  65.5453569  75.8661915  36.1480175
  63.4865258  59.3954142  39.7181998  62.6158816  59.3692864  39.6715307
  63.7405599  59.2231335  38.9007843  63.3958818  59.3664286  39.5902134
  60.4583237  71.4522109  28.6555141  60.7475762  72.2286992  28.9298715
  60.5455036  70.9410841  29.3569640  60.5137494  71.4914028  28.7997639
  63.3543125  69.3003343  50.4506664  63.8242756  69.9245460  50.8374538
  63.4005005  68.6320319  51.0099879  63.4311001  69.2938024  50.5906736
  60.5114398  61.4060371  41.1755468  59.9952887  60.7140562  41.3007047
  59.9508327  62.0731148  41.1218067  60.3520912  61.4023629  41.1861534
  62.5806632  61.9453331  43.0048321  62.1938385  61.9702362  43.7861851
  62.0939569  61.3795010  42.5522837  62.4519141  61.8649082  43.0536224
  68.5556611  68.5115986  41.6288023  68.1284220  68.4242334  40.8736122
  67.9182664  68.6193761  42.2142867  68.3986219  68.5148646  41.6033464
  62.2463774  58.8320316  45.2958581  62.8756892  59.3680616  45.0179651
  62.4149636  58.7397675  46.1472146  62.3641568  58.8981679  45.3807109
  62.0477689  63.6191511  47.5684992  62.8751118  63.3476660  47.6243607
  62.0685535  64.4152353  47.9248810  62.1730539  63.6971265  47.6300175
  56.6247178  70.7655374  40.7555253  55.7835185  70.6659248  40.9634147
  56.8337186  71.5350854  41.1069573  56.5311871  70.8647417  40.8382568
  54.1022745  68.3874911  38.5840003  53.7079443  68.4617923  37.8090113
  53.5462862  68.7732857  39.1348365  53.9625558  68.4556685  38.5507663
  65.7387692  61.3656205  38.2643882  65.9437286  61.2978513  39.1100879
  65.4114116  62.1715026  38.1965060  65.7202940  61.4742145  38.3803537
  60.4363843  68.6936773  40.0052850  60.1326981  68.1392761  40.6063258
  59.7343264  68.8728983  39.5180885  60.2880053  68.6381555  40.0222556
  59.4929940  66.0037293  34.5697552  59.7689675  65.2856205  34.1575120
  60.0928610  66.6022213  34.3618658  59.6223205  65.9857664  34.4778313
  58.4982194  75.9086494  44.7124948  58.3902549  75.9188556  45.5787006
  58.7077976  76.7341274  44.5229902  58.5132305  76.0327569  44.8129040
  68.9921380  61.9187969  37.7446648  68.3795693  62.4058371  38.1300380
  69.0885555  61.2431460  38.2884299  68.9159277  61.8906278  37.8825506
  62.9940461  63.6750810  32.8444147  63.4484207  63.8461371  33.5691992
  63.4680507  63.0618921  32.4441923  63.1308781  63.6101696  32.8917909
  56.5155986  73.1599136  42.1746886  55.9243920  73.8008634  42.1449901
  57.2777010  73.5836753  42.1478185  56.5404247  73.3174975  42.1662033
  56.9116609  64.3201134  42.8414903  57.3718091  64.3940063  43.5790027
  56.9572716  65.1182388  42.4914725  56.9867164  64.4495281  42.8987660
  58.5599959  64.9867829  47.4086930  58.1685524  64.3401176  47.8442708
  58.7285822  65.5779264  48.0281186  58.5270869  64.9782097  47.5649636
  60.3353481  70.3793345  33.9489154  61.0795526  70.7667621  34.1872104
  60.4814177  69.5350770  34.1129642  60.4664066  70.3123817  34.0083124
  62.2533056  62.1743604  38.9821016  61.4069101  62.3466411  38.8562366
  62.2504189  61.3692947  39.3186844  62.1280206  62.0804632  39.0132143
  63.3231357  65.9518818  39.8483074  62.8491311  65.4260580  40.3588385
  63.6949493  65.4048291  39.2797935  63.3081246  65.7934815  39.8398221
  53.7004387  67.9490325  45.2166619  54.5630000  67.8486034  45.1303949
  53.3696170  67.3685034  44.6552192  53.7789583  67.8481951  45.1212025
  69.5868087  71.0121194  41.2589854  69.3466310  70.1727609  41.2632281
  70.0660094  71.0921360  41.9830628  69.6220271  70.9002593  41.3664657
  65.2514856  66.8455373  32.9108828  64.7237875  66.9284117  32.2214536
  65.7110565  67.5873244  32.9073472  65.2416707  66.9676035  32.8083523
  71.5873274  67.7922651  39.2119113  71.3483044  67.7518485  38.3739898
  71.7507176  68.6393803  39.3384834  71.5763578  67.9114736  39.1072595
  68.1919304  72.1772600  45.1424158  68.9153503  71.7245127  44.9635178
  67.9269267  72.4577266  44.3596486  68.2600578  72.1523569  45.0002874
  57.0606173  66.7732774  41.8777038  56.4359243  66.7851166  41.2702990
  56.7251768  67.2492949  42.5268278  56.9191665  66.8451291  41.8833606
  57.2447922  65.1157892  27.9349723  56.8960726  65.7677617  28.3981272
  56.7644367  65.1015005  27.2073594  57.1218165  65.2100946  27.8960814
  53.7731848  74.8333234  43.3180802  53.2431773  74.1425673  43.3675777
  54.0456942  74.8243419  42.4893511  53.7356571  74.7300366  43.2028218
  64.8051939  75.4158936  32.0418485  65.5286138  75.8817049  31.8983058
  64.3652530  75.4832546  31.2916082  64.8467631  75.4942773  31.9103266
  63.9738094  72.2756478  43.2919174  63.3595087  71.7314529  43.5867809
  64.4905379  71.7620715  42.8124990  63.9593756  72.1192887  43.2643402
  63.2134391  73.3460748  41.0263472  62.7861999  72.7210467  40.5928908
  63.2059335  73.0635670  41.8522479  63.1493532  73.2113529  41.0843300
  56.3296918  68.3825921  44.0951906  56.4890405  67.6269246  44.5003628
  56.1489812  68.9316861  44.7492644  56.3262277  68.3519735  44.2514612
  64.2717221  60.5487157  44.6502696  63.7757782  60.7450831  43.9594262
  65.0286283  60.9479825  44.4791497  64.3104046  60.6364891  44.5222832
  61.5420101  64.2229503  41.2406006  61.5662588  63.6889615  40.5518786
  61.7931574  63.7146812  41.9031597  61.5830019  64.0690407  41.2370651
  49.0527691  71.5060998  40.6749150  48.9471140  71.4607842  39.8101234
  48.3027911  71.8514778  40.9563435  48.9263294  71.5501906  40.5886480
  57.8221423  62.9500321  40.6211751  57.8619795  63.4509528  41.3346458
  56.9971088  63.0410715  40.3517674  57.7060949  63.0382137  40.6862289
  60.0051036  72.5161061  48.7232045  59.1546666  72.6532775  48.8589690
  60.1679164  71.7824839  49.1679747  59.9034899  72.4275162  48.8087644
  59.2435786  69.4660831  42.9185650  58.4127716  69.6334649  42.7120898
  59.1887304  69.0896782  43.7034535  59.1125201  69.4350562  43.0034178
  57.0519570  62.9569724  48.5542060  57.6772273  62.4131857  48.8271492
  56.5970050  62.4764641  47.9849851  57.0767830  62.8059205  48.5103654
  57.6171830  67.7416423  33.4475767  57.7574791  68.2388887  34.1504409
  58.1154363  67.0402717  33.5889981  57.7112911  67.7118401  33.5727346
  57.6472053  68.6083534  30.7768344  58.2817132  69.2043959  30.7117806
  57.7297663  68.3086991  31.5914214  57.7528604  68.6524442  30.8871431
  70.6254618  71.1399011  43.6454708  71.2172459  71.7796262  43.6772906
  71.0613613  70.4422048  43.9346775  70.7773050  71.1317361  43.6935541
  59.2251035  64.5397509  30.7513786  59.5466877  64.0600591  30.0973048
  59.4877979  65.3497155  30.5604598  59.3117061  64.5887407  30.6269278
  62.4548008  75.5616383  44.2712602  61.9473099  76.1152230  44.7153233
  62.1574654  75.6224673  43.4531377  62.3352893  75.6522695  44.2161059
  64.6210190  63.9269703  43.1137265  65.0465262  63.4742229  42.5020792
  64.0067184  63.3729774  43.3902053  64.5938836  63.7783679  43.0642290
  54.1525041  70.8051374  34.0457890  54.6617270  71.4015882  34.4269196
  54.6259313  70.5377348  33.3634310  54.2968416  70.8537190  34.0012413
  63.0604413  60.3984803  36.5227842  62.4172731  60.2482449  37.0912981
  62.7203820  60.1527148  35.7576947  62.9149491  60.3396925  36.4930857
  67.6503760  68.3544230  35.9457851  66.9794950  68.8973932  35.8170916
  68.3443510  68.8239085  35.7039546  67.6532627  68.5042501  35.8913378
  67.8131887  64.8100113  38.8548224  68.1659497  64.3829836  39.5294023
  66.9546689  64.7250957  38.9849300  67.7381332  64.7344854  38.9743234
  56.5115572  67.4407633  36.9131070  55.7927561  67.8571765  37.1803934
  56.8827935  68.0061872  36.3622709  56.4607504  67.5856914  36.8713877
  65.8115153  68.0735482  42.8033066  65.7913080  67.8918777  43.6567845
  65.8594354  68.9447500  42.7792650  65.8149794  68.1752020  42.9256361
  63.7561483  74.6622674  48.7281543  63.7157338  74.0172351  48.1426699
  64.5684801  74.6059291  49.0406955  63.8704636  74.5581641  48.6878492
  62.2862147  66.4805633  32.2504450  61.6926986  66.8022629  31.6989017
  62.3237424  65.6346728  32.0425556  62.2036536  66.4029961  32.1387221
  69.2455947  59.9318525  39.7832536  68.7386812  59.2247665  39.7153714
  70.0423381  59.6011714  39.9133613  69.2883187  59.7791676  39.7931531
  65.1619963  66.4385137  35.6806200  64.9333656  66.4617839  34.8384558
  65.4218039  65.6142604  35.8001211  65.1666151  66.3201217  35.5731398
  59.4439192  68.2919610  45.2831300  58.9318095  67.6840793  45.6416332
  59.2718688  69.0076203  45.7505276  59.3428829  68.3082910  45.4047524
  54.2904906  66.7357186  47.9333662  54.1207497  67.3958560  47.3881869
  53.8470856  66.9463747  48.6546151  54.2004240  66.8643168  47.9595292
  58.2164726  64.9761684  36.9760396  58.6922092  65.3378763  36.3410577
  57.7153325  65.6318151  37.2560539  58.2130085  65.1255872  36.9237137
  63.3208262  66.2143855  47.7233556  63.8779692  65.9857664  47.0912021
  62.9969327  66.9749521  47.4468768  63.3554672  66.2927692  47.5890053
  51.1906971  69.6404051  43.1922152  50.6433690  68.9704697  43.3103020
  51.9799349  69.2733899  43.2565619  51.2259154  69.4869038  43.2190853
  61.0391379  69.3011508  48.6885563  61.7902706  69.6163185  49.0025117
  61.2313956  69.0990679  47.8619485  61.1782793  69.3178890  48.6128959
  60.2591379  67.1202883  30.3433780  60.6390344  67.1382513  29.5584895
  59.5183975  67.5656872  30.2224627  60.2060217  67.1884658  30.2097348
  67.8876669  65.4285075  35.9309359  67.8870896  65.2733731  36.7893635
  67.6832849  66.2748062  35.8750744  67.8576447  65.5305695  36.0497298
  49.9493940  68.8524859  40.3468175  49.7715701  68.4001468  41.0723091
  49.6612962  69.6551020  40.5306653  49.8806893  68.9047417  40.4811678
  65.6117521  70.1082576  39.5845565  66.1071187  69.3905571  39.5449586
  64.8017297  69.8053374  39.4700052  65.5661415  69.9580223  39.5619291
  61.0576133  73.9580390  31.7342570  60.2487456  73.6347063  31.6875879
  61.5651042  73.2513612  31.6670818  61.0125800  73.8061706  31.7172864
  51.6866410  71.3852583  37.4589934  50.8211930  71.3738273  37.3472705
  51.7865226  71.1982806  38.3061073  51.5740577  71.3558644  37.5678879
  67.6769340  72.8586264  42.2722694  68.1024412  72.3360686  41.7193119
  67.3126260  73.4567101  41.7511317  67.6855943  72.8696491  42.1131704
  57.3123420  81.1550481  41.0320040  57.6269979  81.9686870  41.0397821
  57.7216833  80.7700700  41.7002199  57.4191518  81.2179184  41.1324131
  64.2647940  76.5720528  38.6023852  64.7359118  77.2860791  38.7713837
  64.6008118  75.9719278  39.1383721  64.3843055  76.5891992  38.7056228
  61.1817435  61.3447999  45.5581946  61.3145340  60.5478992  45.8862922
  61.5662587  61.8714402  46.1380222  61.2573764  61.3047915  45.6925449
  64.9021886  76.3638462  45.3651544  64.3542832  75.7396346  45.0971610
  65.3634915  76.5532734  44.6495624  64.8889096  76.2997512  45.2201975
  64.2549790  58.2678325  42.1563040  63.4495754  58.1576054  42.4730878
  64.1256525  58.3690781  41.2992905  64.1169923  58.2661995  42.0771080
  67.7115750  64.4323817  42.7502737  67.1278739  64.9333023  42.3380304
  68.0320044  63.9253373  42.1167060  67.6728926  64.4315652  42.5961244
  60.2510550  63.3464412  33.0261411  61.0726244  63.5162724  32.7843106
  59.7880200  63.5011673  32.3027709  60.3041712  63.3946145  32.8833056
  58.8405881  61.3407174  43.8059840  59.3850294  60.9998301  44.3964182
  58.8942817  62.1992635  43.9481125  58.9295001  61.4162433  43.9141714
  54.6536440  75.1023590  40.6798648  55.2581298  75.0619424  40.0512469
  54.4463753  75.9494742  40.7102704  54.7125338  75.2211592  40.5914765
  49.8887723  74.0858207  40.5497571  49.7912001  73.2754479  40.8587628
  50.6716592  74.0650001  40.1643839  49.9903859  73.9625298  40.5384434
  36.7414352  -0.1108714  21.7943809  36.7108357   0.7435923  21.9662078
  37.3395701  -0.4113421  22.3529952  36.8251510  -0.0292217  21.9018611
  29.9414037  -1.0233063  26.5496739  29.0851933  -0.8624565  26.6005856
  29.9881691  -1.8940999  26.5701800  29.8213149  -1.1282261  26.5602805
  24.3255177   8.5129655  22.3133971  23.5738076   8.1345193  22.0850016
  24.7741189   8.5448089  21.5652781  24.2804844   8.4615262  22.1691473
  33.2507754   5.2453463  36.1557195  33.9574521   4.7505494  36.2844130
  33.4395689   5.6862544  35.4259853  33.3835659   5.2371813  36.0666241
  29.7780137   8.9355025  17.7419518  29.4431505   9.6131946  17.3063740
  30.2907007   8.5460336  17.1536389  29.8045718   8.9779603  17.5906309
  29.3184428  10.8869293  23.6830629  29.7023807  11.4556192  23.1435405
  29.2543569  10.1618804  23.2036445  29.3657855  10.8644757  23.5324492
  32.7865858   1.0358981  29.1928391  33.3321818   1.7144068  29.2522360
  32.7282735   0.8946442  28.3329972  32.8581773   1.1150983  29.0740451
  25.9039933   8.5248047  24.5796743  26.0050296   7.7148401  24.8893871
  25.3081678   8.4304994  23.9496422  25.8312472   8.3913075  24.5322982
  34.5630927   2.4643588  20.0662118  34.4470453   3.2151274  20.4954257
  35.3586814   2.2067541  20.3158205  34.6635516   2.5378435  20.1666210
  25.7440673  13.4425636  25.9811599  26.3878128  13.8838800  26.3707758
  26.0696928  12.6379063  25.8941858  25.8872501  13.3890831  26.0257076
  19.1004977   4.5468334  24.2049077  18.8655162   3.7135986  24.0981346
  19.2390618   4.8272999  23.3910278  19.0860640   4.4651837  24.0691432
  26.4461252   6.4537611  21.3531461  26.7677093   6.9942819  20.7492769
  27.0933349   5.8834383  21.4853751  26.5887308   6.4496786  21.2838496
  28.4962960  -1.5446394  21.4365848  29.1943125  -1.3658266  21.9287311
  28.8115293  -2.0676055  20.8136237  28.6458298  -1.5952622  21.4167858
  21.1264198   0.2606346  29.3476953  21.0022895   0.8468792  29.9826772
  21.7782482  -0.2333458  29.6489228  21.2037847   0.2745150  29.4862883
  28.6850896   4.8424051  21.4245639  29.1244531   4.2341152  21.8700412
  28.5355559   4.4631424  20.6531104  28.7272362   4.6962522  21.3764806
  26.1522539   3.4368063  28.6264465  26.7971541   2.9440506  28.3075413
  26.3924316   3.5792850  29.4530543  26.2833124   3.3845505  28.7013998
  28.6908630   6.2822969  28.2771357  28.9731873   5.4874375  28.0558113
  29.4194791   6.7603556  28.2976418  28.8398194   6.2357566  28.2474372
  32.2860232   3.1951232  18.3776408  32.2011528   4.0512199  18.5225977
  32.7744616   2.9195557  19.0458567  32.3449130   3.2808554  18.4978490
  33.2178666  -0.1863973  19.8774143  32.6890137   0.0295660  20.5371450
  33.7403686   0.5072165  19.7975113  33.2167119  -0.0520836  19.9629743
  38.6726719   5.3882331  25.2507188  37.8424422   5.5992975  25.4140604
  38.6235971   4.5619386  24.9749471  38.5433454   5.2971937  25.2344553
  20.6622302   9.4254005  25.4805283  20.1789880  10.1504494  25.4564867
  21.4745620   9.7230135  25.5915441  20.7113050   9.5756358  25.4932562
  26.7336456   8.2186185  28.0855097  26.2163398   7.8593600  27.4816405
  27.4310847   7.6948360  28.0961164  26.7602037   8.0883873  27.9985356
  30.3900048   8.6680999  34.0471270  30.4783394   8.4807140  34.8949481
  30.8189761   8.0218429  33.6476117  30.4662150   8.5444007  34.1143022
  27.9570508   7.9512159  33.0288933  27.3941343   7.5384769  33.5528594
  28.7191531   7.8765065  33.4482076  27.9864956   7.8789560  33.1681933
  23.5166499   9.9410180  25.6325563  24.2187079   9.4262170  25.6898319
  23.4363982  10.2684332  26.4372438  23.6090260   9.9124407  25.7598355
  38.1680677  -1.9647268  29.0457609  37.3309098  -1.8945081  29.2805204
  38.1368908  -1.9622773  28.1731912  38.0398959  -1.9537041  28.9517157
  24.5645406   0.1785767  34.7605978  24.7365910   0.0691662  35.6091259
  25.1014763   0.8240173  34.5237170  24.6690410   0.2577769  34.8511075
  22.8417275   6.1316532  25.1411171  23.6806174   6.3639465  25.1884932
  22.8729044   5.2620844  25.0718206  22.9698992   6.0373479  25.1375815
  23.4669978   6.5517408  29.4424476  24.0068203   6.4088539  30.1127849
  22.7839924   6.9514158  29.8108503  23.4462132   6.5897079  29.5958898
  32.8910863   2.2308408  24.6369501  33.6468378   2.6639923  24.6758409
  32.9973187   1.5813178  25.2104137  33.0181033   2.1985892  24.7267526
  35.9291034   6.0581686  25.3871904  35.4926266   6.0618428  26.1430875
  35.5953949   6.7387184  24.9551481  35.8153654   6.1594141  25.4352736
  30.5020107   8.0990018  36.7115054  31.2860524   8.2120866  37.0770796
  30.3016702   7.2731155  36.9073740  30.5886133   7.9936738  36.7949440
  18.8707123   2.7717698  29.5958898  18.6045538   1.9556815  29.7549888
  18.8845687   2.8170854  28.7254413  18.8331845   2.6574603  29.4912380
  30.6590501  10.0100120  30.3581510  29.8605746   9.7699620  30.6155378
  31.1076512  10.0614513  31.1048557  30.6065112   9.9822512  30.5066434
  39.0635380   2.7762605  24.2791541  39.7251814   2.2153274  24.1787449
  38.4226792   2.2814636  24.6044232  39.0664247   2.6199014  24.3123881
  29.9512188   6.0732737  16.5872464  30.3663336   5.7417761  15.8956960
  29.1204117   5.8401639  16.4592601  29.8900196   5.9903993  16.4663312
  19.2800536   3.5576478  26.8770642  19.0976110   3.5323364  26.0242934
  20.0150205   4.0275416  26.9159551  19.3614600   3.6237840  26.7568561
  35.3500211   3.7927988  24.0203530  35.5855800   3.9373187  23.1930380
  35.4989774   4.5570396  24.4135043  35.4066014   3.9267042  23.9567134
  22.3446288   0.2761481  33.3852751  23.0686260   0.2614511  33.8717645
  22.4462425   0.9856836  32.8874719  22.4664497   0.3786184  33.3831538
  37.1790667   2.6329654  21.8573133  37.5098885   3.1657294  21.2513228
  37.7523756   2.6868542  22.5135084  37.3124347   2.7199223  21.8650915
  29.7191238   3.7560565  38.2501698  28.9264218   4.0704077  38.4354317
  29.8340165   3.9712034  37.4122482  29.6186648   3.8344402  38.1540033
  32.3922557   0.4794556  22.5396714  32.4869411   1.2183851  22.9936339
  31.7681400   0.0512032  22.9731278  32.3131587   0.5255877  22.6704861
  30.6475030   3.6580769  33.1886994  31.2213892   3.0208013  33.3435558
  30.5689834   3.6584851  32.3196652  30.7208265   3.5645880  33.0833405
  19.2471447   0.4369979  27.0269709  19.8244949   0.3006429  27.6661954
  18.5485509  -0.0194237  27.2815293  19.2292468   0.3492245  27.1591998
  26.0038749   2.0904034  25.2408192  25.7457993   1.2575769  25.2139491
  26.0587232   2.3161647  24.4000692  25.9738527   2.0001805  25.1128329
  24.9773461  -0.3558203  25.7273087  24.4023052  -0.1966035  26.3637048
  24.6009137  -0.9922794  25.2641537  24.8376273  -0.4260390  25.7527645
  28.6446750  -1.8834854  30.5865465  28.2561183  -2.3080636  29.9317656
  27.9801448  -1.6352704  31.0942492  28.4893678  -1.9096133  30.5653333
  29.7485688   2.3463751  18.7842272  30.5626327   2.6378643  18.6725043
  29.6844829   1.6923613  18.2100565  29.8588427   2.2928945  18.6831109
  35.9695178   5.0289747  33.1971848  35.7333816   4.1977811  33.0783908
  36.6138407   4.9775354  33.7826692  36.0289849   4.8987435  33.2657741
  25.6193596   5.8185268  23.9114584  26.2567543   5.5797015  24.4566378
  26.0448668   6.0222427  23.1767745  25.7769763   5.8136278  23.8831741
  20.3106239   8.0573604  27.7948888  20.3510384   8.3288456  26.9668668
  20.8700763   8.5815513  28.2106676  20.3989585   8.1749360  27.7340776
  36.9931599   4.8134195  29.2600142  36.6877416   5.5462252  29.6213458
  36.2737815   4.4072125  28.9792928  36.8418941   4.8615928  29.2713279
  28.0015068   6.2957691  25.5908370  28.0754077   6.1332862  26.4450220
  28.8184575   6.4847880  25.3468852  28.1331427   6.2994433  25.6806396
  42.6933391   1.4527196  28.5868486  42.6257891   1.4723155  27.7171073
  42.6789053   2.2957523  28.8124157  42.6812147   1.5800931  28.4920963
  21.7620825   6.6415553  22.6202814  20.9358943   6.8877291  22.4937093
  21.8232816   6.5627634  23.4864872  21.6494992   6.6660502  22.7291758
  26.5419654   9.2592434  20.3221844  26.8317952   8.8681415  19.5981070
  27.2723135   9.4409139  20.7627119  26.6926538   9.2286247  20.2804651
  40.4792008   0.2271582  26.8615081  41.0299930  -0.4060349  27.1012173
  40.4636124   0.7586975  27.5530585  40.5577205   0.2120530  26.9993939
  27.1314399   4.0610180  31.4074974  26.6326093   4.7725947  31.4859863
  27.9414623   4.3810846  31.3693137  27.1770506   4.2137028  31.4131543
  24.4825570  11.2359816  23.3881994  24.2625865  10.9457171  24.1808661
  24.2620092  10.5774771  22.8599906  24.4173164  11.0959524  23.4270902
  23.3942517   3.3233133  25.6537695  23.1055765   2.6970604  26.1883422
  24.2625865   3.2653420  25.7202376  23.4802769   3.2220677  25.7428650
  34.1820415  -1.5332084  25.9719677  33.8385180  -2.2541749  26.3226927
  34.2813457  -1.7418233  25.1298035  34.1462457  -1.6707881  25.8991357
  26.6493525  12.6089206  22.1712686  27.3017583  12.0765648  22.4003712
  25.9519134  12.2557858  22.5580560  26.6424243  12.4778729  22.2624854
  23.5974790   4.9628384  21.5780060  24.3520758   5.3441423  21.7915523
  23.0045403   5.4139527  22.0326757  23.6211504   5.0857211  21.6762939
  34.6433444   4.9293620  21.5143665  35.2091476   5.5886830  21.4302208
  33.9961347   5.2743318  21.9860067  34.6312200   5.0775561  21.5716422
  26.0581457  -3.0808776  36.7037273  25.2481233  -2.7750996  36.5927115
  26.5356144  -2.3603194  36.8189857  26.0084936  -2.9294175  36.7044344
  24.9173017   6.1336945  26.9520176  24.3953770   6.2737237  27.6372040
  25.3047037   5.3747609  27.1422293  24.8976718   6.0422469  27.0821252
  31.1140022   7.8732404  20.9380744  30.8726698   7.1400265  20.5307809
  31.2941355   8.4219261  20.2847078  31.1047646   7.8454795  20.7810967
  26.3439342   3.1640964  22.3501667  26.1482125   3.7715699  21.7561970
  26.5673688   2.4708908  21.8693341  26.3473983   3.1518490  22.1917747
  24.7417872   0.0495702  22.4682535  25.4640524   0.2136860  22.0086341
  24.2625865   0.7705367  22.3621875  24.7781603   0.1793931  22.3848149
  32.7011380  -3.6140499  27.8479220  31.8622481  -3.5879220  27.6117483
  32.7715747  -2.9669764  28.4284567  32.5879773  -3.5144373  27.8988337
  22.3925489   2.4553774  31.5736675  22.9046586   2.7338028  30.9245435
  22.1061832   3.1943068  31.9399488  22.4260352   2.6056128  31.5326553
  36.5768904   1.5927487  25.1340462  36.4902878   1.7482914  25.9875241
  36.1219384   2.2365563  24.7599867  36.4972160   1.7103243  25.2047568
  25.9109214  -5.4519837  31.6337717  25.7192411  -5.4364703  32.4837140
  26.7607810  -5.2556163  31.6104371  26.0084936  -5.4205486  31.7561011
  30.4494720  -1.0861765  23.7566021  30.2029434  -1.1666014  24.5902810
  30.7779843  -1.8708298  23.5628549  30.4615963  -1.2135500  23.8513544
  34.3442769   5.6221594  27.5452802  34.2057128   6.3202640  28.0501545
  33.5642767   5.4670250  27.1888984  34.2085996   5.7021761  27.5679077
  32.6820854   1.9217969  33.7975184  32.6768892   1.0497786  33.8017611
  33.3881848   2.1206138  33.3244640  32.7865858   1.8221843  33.7282220
  26.4091747   1.6494953  33.1689004  26.5535123   2.2296161  32.5332114
  26.7567396   2.0271250  33.8738859  26.4819208   1.7915657  33.1787999
  28.5811664   0.8485122  30.9514136  27.8334979   1.0416136  30.5462414
  28.7353190   0.0230341  30.7138257  28.4934092   0.7550233  30.8559542
  25.4819502   9.8397725  30.0350031  25.6309066   9.2800641  29.3823436
  26.2619504   9.9189727  30.4182550  25.6193596   9.7683290  29.9946980
  35.8396142   4.9799848  18.3069302  35.4602950   4.1936986  18.2998591
  35.1762387   5.5286705  18.1640946  35.6854616   4.9444672  18.2850099
  28.0072803  10.0112368  31.3134522  27.9316474   9.3421178  31.8685310
  27.9362662  10.7130156  31.8275188  27.9853410  10.0157275  31.4711370
  28.8213441  -5.2564328  31.8409540  29.2786056  -4.5240353  31.9682332
  28.8969770  -5.6797862  32.5996795  28.9004411  -5.2107090  31.9710616
  28.6643050   8.5313367  22.1458128  29.4292941   8.2623010  21.8240792
  28.5621140   8.0463377  22.8628191  28.7624545   8.4202931  22.2037956
  26.6995819  -3.2662224  28.6851364  25.9091894  -3.4470764  29.0068699
  27.0956442  -4.0435271  28.6681658  26.6412696  -3.4074763  28.7303912
  32.0839506   4.3680206  26.4110810  31.4084508   4.1365439  26.9124197
  32.0931882   3.7601389  25.7852915  31.9858010   4.2439132  26.3926962
  29.2133650  -0.7901965  33.1674863  29.1492791   0.0707992  33.0394999
  29.3530837  -1.1069971  32.3670414  29.2249120  -0.7101798  33.0303075
  34.0856240   7.2245339  18.6420988  34.1676078   8.0312325  18.3182438
  34.5705982   7.2441298  19.3661761  34.1693398   7.3466001  18.7007886
  27.8952744   1.9030175  27.3091065  27.4714993   2.1034674  26.5730084
  27.7197599   1.0559023  27.4215365  27.8063624   1.8078956  27.2164756
  23.1835189   2.3982226  22.7419038  23.3399808   2.3329029  23.5975030
  23.5235782   3.1730779  22.5297718  23.2568423   2.5031424  22.8373632
  29.7214333   1.7740110  21.6112401  30.2629879   1.2710491  22.0751022
  30.0360892   1.7205304  20.8001886  29.8478730   1.6919531  21.5596213
  33.5931441   5.9842757  38.7239313  34.4066306   5.7127906  38.8844446
  33.4326407   5.6850297  37.9199509  33.6901389   5.8997683  38.6284719
  27.8900783   7.1657461  18.8952429  27.9593603   6.3072000  19.0345430
  28.6689238   7.3829342  18.5671454  28.0153633   7.0710325  18.8669587
  30.8703603  -3.3323586  31.6634702  31.0845572  -3.9712672  31.1098056
  30.2537502  -2.8877762  31.2342563  30.8108932  -3.3613442  31.5185133
  32.2808270   9.5895162  23.1088923  31.8888062   9.2861878  22.3911789
  32.4361343  10.4264252  22.9193876  32.2461860   9.6678999  22.9745420
  33.0342691  -1.7234521  32.6018009  32.2219372  -2.0308630  32.6831182
  33.4932625  -2.2035520  33.1660721  32.9823075  -1.8398028  32.6972603
  32.4447945   6.1545151  23.0494953  32.0862600   6.3259794  23.8258986
  31.9586656   6.6158357  22.4922952  32.3206642   6.2484122  23.0820222
  30.1296198  -0.3174449  37.3846711  30.5995829   0.3067667  37.7714585
  30.1758078  -0.9857474  37.9439926  30.2064074  -0.3239769  37.5246783
  33.6052685   7.0449047  33.9962154  34.2432405   6.5509243  33.6624610
  32.9626776   6.9726448  33.4114381  33.6046911   6.9608056  33.8604509
  35.3309685  -1.1061807  28.5628070  34.9037293  -1.1935458  27.8076169
  34.6935738  -0.9984031  29.1482914  35.1739292  -1.1029147  28.5373511
  33.6606941   7.7368856  30.6367511  34.4499319   7.3857920  30.7569592
  33.8350539   8.5505244  30.3744145  33.8027223   7.8054713  30.6155379
  23.4000252   1.1477581  27.6895300  22.5588258   1.0481455  27.8974193
  23.6090260   1.9173062  28.0409620  23.3064944   1.2469625  27.7722614
  20.8775819  -1.2302882  25.5180050  20.4832516  -1.1559870  24.7430160
  20.3215935  -0.8444935  26.0688412  20.7378631  -1.1621107  25.4847710
  27.2116916  -0.9241019  26.9392897  26.9080054  -1.4785031  27.5403305
  26.5096337  -0.7448810  26.4520931  27.0633126  -0.9796237  26.9562603
  25.2735267   6.2908701  31.6464995  25.1655622   6.3010763  32.5127053
  25.4831049   7.1163482  31.4569949  25.2885379   6.4149776  31.7469087
  23.2909059   3.5421344  29.1086933  22.6996993   4.1830842  29.0789948
  24.0530083   3.9658961  29.0818232  23.3157320   3.6997182  29.1002080
  39.4099481   3.3727113  30.1064211  39.4682605   3.8213762  30.8524187
  38.7765949   3.7825926  29.6694291  39.3250776   3.5000848  30.1516759
  33.0498576   8.9930655  26.5418957  32.8518264   9.4821470  25.8475168
  32.4286287   9.1971897  27.1203090  32.9286140   9.0947193  26.5242180
  27.1106554   0.7615552  20.8829201  27.8548599   1.1489828  21.1212151
  27.2567250  -0.0827023  21.0469689  27.2417139   0.6946025  20.9423171
  30.0984430  -3.6658975  26.7823121  29.6244384  -4.1917213  27.2928431
  30.4702566  -4.2129502  26.2137982  30.0834319  -3.8242978  26.7738268
  36.3621161   1.3943401  28.1929901  36.1219383   0.5549816  28.1972328
  36.8413168   1.4743568  28.9170675  36.3973344   1.2824801  28.3004703
  38.3626348  -1.8255142  26.1459160  38.1236117  -1.8659308  25.3079945
  38.5260249  -0.9783990  26.2724881  38.3516651  -1.7063057  26.0412642
  34.9672378   2.5594807  32.0764205  35.6906577   2.1067334  31.8975225
  34.7022340   2.8399473  31.2936533  35.0353651   2.5345776  31.9342921
  23.8359246  -2.8445019  28.8117085  23.2112316  -2.8326627  28.2043037
  23.5004841  -2.3684844  29.4608325  23.6944738  -2.7726502  28.8173653
  20.5484922   5.2155441  30.2520849  20.0184846   4.5247880  30.3015824
  20.8210015   5.2065626  29.4233557  20.5109644   5.1122573  30.1368265
  31.5805012   5.7981143  18.9758531  32.3039211   6.2639256  18.8323105
  31.1405603   5.8654753  18.2256128  31.6220704   5.8764980  18.8443313
  30.7491167   2.6578686  30.2259220  30.1348160   2.1136736  30.5207856
  31.2658452   2.1442922  29.7465037  30.7346830   2.5015095  30.1983449
  29.9887464   3.7282956  27.9603519  29.5615072   3.1032674  27.5268954
  29.9812409   3.4457878  28.7862526  29.9246606   3.5935736  28.0183347
  23.1049991  -1.2351871  31.0291953  23.2643478  -1.9908547  31.4343675
  22.9242885  -0.6860932  31.6832691  23.1015350  -1.2658057  31.1854659
  15.8280764   1.8883205  27.6089197  15.7224213   1.8430050  26.7441281
  15.0780984   2.2336986  27.8903482  15.7016367   1.9324113  27.5226527
  26.7804109   2.8983269  35.6572092  25.9299740   3.0354983  35.7929737
  26.9432237   2.1647047  36.1019794  26.6787973   2.8097370  35.7427691
  26.0188860  -0.1516962  29.8525696  25.1880789   0.0156856  29.6460944
  25.9640377  -0.5281011  30.6374582  25.8878274  -0.1827230  29.9374224
  37.4007692   1.5221218  30.5794755  37.9925532   2.1618469  30.6112953
  37.8366686   0.8244255  30.8686822  37.5526123   1.5139569  30.6275588
  29.2301081   5.9438591  31.2052649  28.7226173   6.4974438  31.6493279
  28.9327728   6.0046881  30.3871423  29.1105966   6.0344902  31.1501106
  31.8408862   9.8601848  19.1356592  31.1238171   9.6862711  18.6703830
  32.4915599   9.6254421  18.6032078  31.8310712   9.7997641  18.9885810
  34.4256833  -1.2633563  22.8797898  33.7548023  -0.7203861  22.7510963
  35.1196583  -0.7938708  22.6379592  34.4285700  -1.1135292  22.8253425
  28.4743567  10.8763149  28.1109656  28.2509221  10.1181978  28.4793682
  27.9853410  10.9061170  27.3890096  28.3687016  10.7685373  28.0586397
  23.2868645  -2.1770160  23.8471117  22.5680635  -1.7606027  24.1143981
  23.6581008  -1.6115921  23.2962755  23.2360577  -2.0320878  23.8053924
  32.5868226  -1.5442311  29.7373113  32.5666154  -1.7259016  30.5907892
  32.6347427  -0.6730292  29.7132697  32.5902867  -1.4425773  29.8596408
  30.5314556   5.0444881  35.6621590  30.4910411   4.3994558  35.0766745
  31.3437874   4.9881499  35.9747002  30.6457710   4.9403848  35.6218539
  27.1222024  11.0963607  25.5646740  26.7082422  10.4337737  25.1750582
  27.8069398  11.2441466  25.0442435  27.1620395  11.0204265  25.4303238
  30.4887318  10.2553692  26.3170357  30.0903601  10.3655963  25.5491177
  29.8738537  10.4635759  26.8996917  30.3386207  10.3027260  26.2901656
  31.9373036  -3.1792655  22.6146247  31.7086729  -3.1559954  21.7724605
  32.1971113  -4.0035188  22.7341258  31.9419224  -3.2976575  22.5071445
  26.2192265  -1.3258182  32.2171347  25.7071168  -1.9336999  32.5756379
  26.0471761  -0.6101590  32.6845323  26.1181902  -1.3094883  32.3387571
  24.9917799  -4.6416109  23.9100443  25.4675165  -4.2799029  23.2750624
  24.4906399  -3.9859641  24.1900585  24.9883158  -4.4921920  23.8577184
  38.2229160   4.8305659  19.7013448  38.6062766   5.5797015  19.9311545
  37.4273274   5.0771479  19.4425437  38.1622943   4.9775353  19.6971021
  30.0961335  -3.4033938  34.6573603  30.6532765  -3.6320128  34.0252068
  29.7722400  -2.6428272  34.3808815  30.1307745  -3.3250101  34.5230100
  27.8144452  -0.3166284  35.6225610  28.5655779  -0.0014608  35.9365164
  28.0067029  -0.5187113  34.7959532  27.9535867  -0.2998903  35.5469006
  32.3870595   0.4904784  26.5185612  32.8824260  -0.2272221  26.4789632
  31.5770370   0.1875581  26.4040099  32.3414488   0.3402430  26.4959338
  27.8329206   4.3402597  18.6682617  27.0240529   4.0169271  18.6215926
  28.3404115   3.6335819  18.6010865  27.7878873   4.1883913  18.6512911
  18.4619483   1.7674790  24.3929981  17.5965003   1.7560481  24.2812752
  18.5618299   1.5805013  25.2401120  18.3493650   1.7380851  24.5018925
  34.4522414   3.2408471  29.2062741  34.8777485   2.7182893  28.6533166
  34.0879333   3.8389309  28.6851364  34.4609016   3.2518698  29.0471751
  24.0876493  11.5372689  27.9660086  24.4023052  12.3509077  27.9737868
  24.4969907  11.1522907  28.6342246  24.1944591  11.6001391  28.0664178
  31.0401013   6.9542736  25.5363898  31.5112191   7.6682998  25.7053884
  31.3761191   6.3541486  26.0723768  31.1596128   6.9714200  25.6396274
  33.1277998   8.5644049  37.7155971  33.2374963   7.7752609  38.0712718
  33.4568894   8.4749985  36.9130309  33.1930403   8.4349902  37.6498361
  31.6774959   6.7460670  32.2991591  31.1295905   6.1218553  32.0311656
  32.1387988   6.9354942  31.5835670  31.6642169   6.6819720  32.1542022
  21.4289513   5.4845797  27.6138695  22.0334371   5.4441631  26.9852516
  21.2216826   6.3316949  27.6442751  21.4878411   5.6033800  27.5254811
  31.2433286   7.7511742  28.8300932  32.0631659   7.6074708  29.0917227
  30.9627363   8.3757941  29.3717370  31.3230029   7.8222094  28.9488872
  16.6640796   4.4680415  27.4837618  16.5665074   3.6576686  27.7927675
  17.4469665   4.4472208  27.0983886  16.7656932   4.3447505  27.4724481
  47.7146936  15.4076594  21.7943809  47.6840940  16.2621231  21.9662078
  48.3128285  15.1071887  22.3529952  47.7984094  15.4893091  21.9018611
  40.9146621  14.4952245  26.5496739  40.0584516  14.6560743  26.6005856
  40.9614275  13.6244309  26.5701800  40.7945732  14.3903047  26.5602805
  40.7512720  24.4540332  17.7419518  40.4164089  25.1317254  17.3063740
  41.2639591  24.0645644  17.1536389  40.7778302  24.4964911  17.5906309
  43.7598442  16.5544289  29.1928391  44.3054402  17.2329376  29.2522360
  43.7015318  16.4131750  28.3329972  43.8314356  16.6336291  29.0740451
  45.5363510  17.9828896  20.0662118  45.4203036  18.7336582  20.4954257
  46.3319397  17.7252849  20.3158205  45.6368100  18.0563743  20.1666210
  30.0737561  20.0653642  24.2049077  29.8387745  19.2321294  24.0981346
  30.2123202  20.3458307  23.3910278  30.0593223  19.9837145  24.0691432
  32.3727648  12.2339372  27.1033384  31.7532680  11.6432020  26.9343399
  32.2711512  12.8250807  26.4697708  32.2665324  12.2343455  26.9838374
  37.4193836  21.9722919  21.3531461  37.7409677  22.5128126  20.7492769
  38.0665932  21.4019691  21.4853751  37.5619891  21.9682094  21.2838496
  39.4695544  13.9738914  21.4365848  40.1675709  14.1527042  21.9287311
  39.7847877  13.4509253  20.8136237  39.6190881  13.9232686  21.4167858
  32.0996781  15.7791654  29.3476953  31.9755478  16.3654099  29.9826772
  32.7515066  15.2851850  29.6489228  32.1770431  15.7930458  29.4862883
  39.6583479  20.3609359  21.4245639  40.0977115  19.7526460  21.8700412
  39.5088142  19.9816732  20.6531104  39.7004945  20.2147830  21.3764806
  37.1255122  18.9553371  28.6264465  37.7704125  18.4625814  28.3075413
  37.3656899  19.0978158  29.4530543  37.2565708  18.9030813  28.7013998
  39.6641214  21.8008277  28.2771357  39.9464457  21.0059683  28.0558113
  40.3927374  22.2788864  28.2976418  39.8130778  21.7542874  28.2474372
  37.6422408   9.3431311  25.5187122  37.3125738   9.7942454  24.8490821
  36.9667409   9.2647474  26.0660129  37.4932844   9.3982446  25.5010345
  43.2592816  18.7136540  18.3776408  43.1744111  19.5697507  18.5225977
  43.7477199  18.4380864  19.0458567  43.3181713  18.7993862  18.4978490
  44.8498815   5.3316834  23.7636733  44.5352256   6.0220312  24.1957155
  44.3325757   5.2761616  23.0622234  44.7263286   5.4251722  23.7233682
  44.1911249  15.3321335  19.8774143  43.6622721  15.5480968  20.5371450
  44.7136269  16.0257473  19.7975113  44.1899702  15.4664471  19.9629743
  49.6459302  20.9067639  25.2507188  48.8157005  21.1178283  25.4140604
  49.5968554  20.0804694  24.9749471  49.5166038  20.8157245  25.2344553
  36.0810857  19.2284551  18.6781611  35.4968072  19.7334583  19.0847475
  35.6780952  19.0026938  17.9378203  35.9350161  19.2692800  18.6286637
  31.6354886  24.9439312  25.4805283  31.1522464  25.6689802  25.4564867
  32.4478204  25.2415442  25.5915441  31.6845633  25.0941666  25.4932562
  40.5388071  15.4750203  17.1550532  40.7784075  15.6828187  16.3425875
  40.8603912  14.6707712  17.2639477  40.6225229  15.3864305  17.0511085
  35.8478362   7.4043599  21.0010070  36.6024330   7.7721916  20.7627120
  35.6705896   7.7783154  21.7689250  35.9332840   7.5141787  21.0794958
  49.1413260  13.5538040  29.0457609  48.3041681  13.6240227  29.2805204
  49.1101491  13.5562534  28.1731912  49.0131543  13.5648267  28.9517157
  35.5377989  15.6971075  34.7605978  35.7098493  15.5876970  35.6091259
  36.0747347  16.3425481  34.5237170  35.6422993  15.7763077  34.8511075
  34.2035426   9.8113918  17.6988183  34.0211000  10.0285799  16.8729176
  35.0661039   9.9252931  17.7546797  34.3040016   9.8603816  17.5842670
  33.8149858  21.6501840  25.1411171  34.6538758  21.8824773  25.1884932
  33.8461627  20.7806152  25.0718206  33.9431576  21.5558787  25.1375815
  39.8835146   6.8140329  20.7337207  40.6121306   6.6356284  20.2875363
  39.9730038   7.6558409  20.9444385  40.0041808   6.9124207  20.6990724
  43.8643446  17.7493716  24.6369501  44.6200961  18.1825231  24.6758409
  43.9705771  17.0998486  25.2104137  43.9913617  17.7171200  24.7267526
  46.9023617  21.5766993  25.3871904  46.4658849  21.5803736  26.1430875
  46.5686533  22.2572492  24.9551481  46.7886237  21.6779449  25.4352736
  29.8439706  18.2903006  29.5958898  29.5778122  17.4742123  29.7549888
  29.8578271  18.3356162  28.7254413  29.8064429  18.1759911  29.4912380
  46.8221100   8.6180821  27.6301332  47.4647009   8.6878926  28.2163247
  47.0744121   7.9510044  27.1280874  46.9543232   8.5307170  27.6428611
  33.7497453  13.0888091  16.2110656  33.0355631  12.8026270  16.6233088
  34.2341422  13.4284717  16.8517043  33.7156817  13.0969740  16.3666291
  34.5938313  11.8281385  32.2425906  33.9010110  11.3578364  32.4886637
  35.2098640  11.6019689  32.8167613  34.5822843  11.7248516  32.3635058
  50.0367964  18.2947913  24.2791541  50.6984398  17.7338582  24.1787449
  49.3959376  17.7999944  24.6044232  50.0396831  18.1384322  24.3123881
  40.9244771  21.5918045  16.5872464  41.3395920  21.2603069  15.8956960
  40.0936701  21.3586947  16.4592601  40.8632780  21.5089301  16.4663312
  30.2533120  19.0761786  26.8770642  30.0708693  19.0508672  26.0242934
  30.9882789  19.5460724  26.9159551  30.3347184  19.1423148  26.7568561
  46.3232794  19.3113296  24.0203530  46.5588383  19.4558495  23.1930380
  46.4722358  20.0755704  24.4135043  46.3798598  19.4452350  23.9567134
  48.1523251  18.1514962  21.8573133  48.4831468  18.6842602  21.2513228
  48.7256339  18.2053849  22.5135084  48.2856930  18.2384531  21.8650915
  43.3655140  15.9979864  22.5396714  43.4601995  16.7369158  22.9936339
  42.7413984  15.5697340  22.9731278  43.2864170  16.0441185  22.6704861
  41.6207614  19.1766077  33.1886994  42.1946476  18.5393321  33.3435558
  41.5422418  19.1770159  32.3196652  41.6940849  19.0831188  33.0833405
  30.2204030  15.9555286  27.0269709  30.7977533  15.8191737  27.6661954
  29.5218092  15.4991071  27.2815293  30.2025052  15.8677553  27.1591998
  43.6178161  17.8428604  15.7733666  43.5358324  17.9130791  16.6388653
  44.2557882  18.4058348  15.5817406  43.6997999  17.9367575  15.8723615
  36.9771333  17.6089342  25.2408192  36.7190577  16.7761077  25.2139491
  37.0319815  17.8346955  24.4000692  36.9471110  17.5187113  25.1128329
  42.0572383   9.7117793  25.3412285  41.3528709   9.2226978  25.4996204
  42.1057357   9.7240267  24.4700729  41.9602434   9.6407441  25.2351624
  35.9506045  15.1627105  25.7273087  35.3755636  15.3219273  26.3637048
  35.5741721  14.5262514  25.2641537  35.8108857  15.0924917  25.7527645
  39.6179333  13.6350454  30.5865465  39.2293766  13.2104672  29.9317656
  38.9534032  13.8832603  31.0942492  39.4626261  13.6089175  30.5653333
  49.2602603  13.3925459  23.3613295  49.0039167  12.5805400  23.1711178
  50.1031916  13.4003026  23.1343482  49.3468628  13.2737456  23.2998112
  25.6962864  14.8067179  23.7417527  25.7823115  14.4299048  24.5231057
  26.3238661  14.4327625  23.2637486  25.8019415  14.6952662  23.7863005
  43.4405695   7.3325083  28.0989449  43.8216207   6.6503254  28.4857323
  42.6368979   7.0434685  27.9165114  43.3782157   7.1892131  28.1293505
  40.7218272  17.8649058  18.7842272  41.5358910  18.1563951  18.6725043
  40.6577413  17.2108921  18.2100565  40.8321011  17.8114253  18.6831109
  46.9427762  20.5475055  33.1971848  46.7066399  19.7163119  33.0783908
  47.5870991  20.4960662  33.7826692  47.0022433  20.4172743  33.2657741
  36.5926180  21.3370576  23.9114584  37.2300127  21.0982323  24.4566378
  37.0181251  21.5407735  23.1767745  36.7502346  21.3321586  23.8831741
  31.2838822  23.5758912  27.7948888  31.3242968  23.8473763  26.9668668
  31.8433346  24.1000820  28.2106676  31.3722168  23.6934667  27.7340776
  37.2328995  16.5572866  18.2489473  37.6174148  16.3380572  19.0006019
  36.9840615  17.3835811  18.3790550  37.2531067  16.6471012  18.3790550
  37.3997535   9.8379281  37.9652058  37.0850976  10.6078844  37.7021620
  37.0787468   9.2749537  37.3804285  37.3056454   9.8689550  37.8393408
  47.9664182  20.3319503  29.2600142  47.6609999  21.0647560  29.6213458
  47.2470398  19.9257433  28.9792928  47.8151525  20.3801236  29.2713279
  38.9747652  21.8142999  25.5908370  39.0486660  21.6518170  26.4450220
  39.7917158  22.0033188  25.3468852  39.1064010  21.8179741  25.6806396
  53.6665975  16.9712504  28.5868486  53.5990475  16.9908463  27.7171073
  53.6521637  17.8142831  28.8124157  53.6544731  17.0986239  28.4920963
  32.7353409  22.1600861  22.6202814  31.9091526  22.4062599  22.4937093
  32.7965400  22.0812942  23.4864872  32.6227575  22.1845810  22.7291758
  34.9529432   8.2269802  23.5798254  34.0851858   8.2992402  23.6455863
  35.2404637   9.0291881  23.7686229  34.8669180   8.3563949  23.6173021
  44.0762321   8.3747662  31.9109576  44.8215913   8.1857472  31.4973001
  43.6599626   8.9005900  31.3523432  44.1247295   8.4249807  31.7674149
  37.5152238  24.7777742  20.3221844  37.8050536  24.3866723  19.5981070
  38.2455718  24.9594446  20.7627119  37.6659122  24.7471555  20.2804651
  51.4524592  15.7456890  26.8615081  52.0032513  15.1124959  27.1012173
  51.4368707  16.2772283  27.5530585  51.5309788  15.7305838  26.9993939
  38.1046983  19.5795487  31.4074974  37.6058676  20.2911255  31.4859863
  38.9147207  19.8996154  31.3693137  38.1503089  19.7322336  31.4131543
  34.3675100  18.8418440  25.6537695  34.0788349  18.2155912  26.1883422
  35.2358448  18.7838728  25.7202376  34.4535352  18.7405985  25.7428650
  45.1552998  13.9853224  25.9719677  44.8117764  13.2643559  26.3226927
  45.2546041  13.7767075  25.1298035  45.1195041  13.8477427  25.8991357
  34.5707374  20.4813692  21.5780060  35.3253342  20.8626731  21.7915523
  33.9777986  20.9324835  22.0326757  34.5944087  20.6042519  21.6762939
  45.6166027  20.4478928  21.5143665  46.1824060  21.1072138  21.4302208
  44.9693931  20.7928626  21.9860067  45.6044784  20.5960869  21.5716422
  37.0314041  12.4376532  36.7037273  36.2213816  12.7434312  36.5927115
  37.5088727  13.1582114  36.8189857  36.9817519  12.5891133  36.7044344
  35.8905600  21.6522253  26.9520176  35.3686354  21.7922545  27.6372040
  36.2779621  20.8932917  27.1422293  35.8709301  21.5607777  27.0821252
  32.8796784  11.7028062  21.0215130  32.5921580  11.3329332  20.2847078
  33.5667253  12.1722917  20.7598835  32.9385682  11.7175031  20.8730206
  42.0872605  23.3917712  20.9380744  41.8459281  22.6585573  20.5307809
  42.2673938  23.9404569  20.2847078  42.0780229  23.3640103  20.7810967
  37.3171926  18.6826272  22.3501667  37.1214709  19.2901006  21.7561970
  37.5406272  17.9894216  21.8693341  37.3206567  18.6703797  22.1917747
  35.7150456  15.5681010  22.4682535  36.4373108  15.7322168  22.0086341
  35.2358449  16.2890675  22.3621875  35.7514187  15.6979239  22.3848149
  43.6743964  11.9044809  27.8479220  42.8355064  11.9306088  27.6117483
  43.7448331  12.5515544  28.4284567  43.5612357  12.0040934  27.8988337
  42.1213242   8.8030186  22.5806836  42.8239595   8.6037934  22.1026794
  41.8557431   8.0306128  22.8875679  42.1859874   8.6593152  22.5552277
  47.5501487  17.1112795  25.1340462  47.4635462  17.2668221  25.9875241
  47.0951967  17.7550871  24.7599867  47.4704744  17.2288551  25.2047568
  30.4524979  12.4809274  21.8700411  30.5541115  13.2835436  22.1981387
  31.2480866  12.2796610  21.5723492  30.5852885  12.5695173  21.8735767
  36.8841798  10.0665471  31.6337717  36.6924995  10.0820605  32.4837140
  37.7340394  10.2629145  31.6104371  36.9817520  10.0979822  31.7561011
  31.2688711  12.5956452  29.6121533  31.1274203  11.7440393  29.7366041
  31.5529274  12.6385113  28.7883739  31.2896557  12.4756202  29.5089157
  41.4227303  14.4323543  23.7566021  41.1762018  14.3519293  24.5902810
  41.7512426  13.6477010  23.5628549  41.4348547  14.3049808  23.8513544
  45.3175352  21.1406902  27.5452802  45.1789712  21.8387948  28.0501545
  44.5375350  20.9855558  27.1888984  45.1818579  21.2207069  27.5679077
  43.6553437  17.4403277  33.7975184  43.6501476  16.5683094  33.8017611
  44.3614431  17.6391446  33.3244640  43.7598441  17.3407151  33.7282220
  37.3824331  17.1680261  33.1689004  37.5267706  17.7481469  32.5332114
  37.7299979  17.5456558  33.8738859  37.4551792  17.3100965  33.1787999
  39.5544248  16.3670429  30.9514136  38.8067562  16.5601444  30.5462414
  39.7085773  15.5415649  30.7138257  39.4666676  16.2735541  30.8559542
  46.8128725  20.4985156  18.3069302  46.4335534  19.7122294  18.2998591
  46.1494970  21.0472013  18.1640946  46.6587200  20.4629980  18.2850099
  39.7946025  10.2620980  31.8409540  40.2518639  10.9944955  31.9682332
  39.8702354   9.8387445  32.5996795  39.8736995  10.3078218  31.9710616
  32.0379016  10.5086800  32.9298983  31.5021206   9.8967158  33.2459751
  32.0996781  11.0834936  33.5832650  31.9674649  10.5033728  33.0734410
  44.2673351   3.4410855  25.7103383  44.3856919   3.8987319  24.9770685
  44.0935527   2.6356117  25.4239600  44.2592522   3.3904628  25.5604316
  39.6375633  24.0498675  22.1458128  40.4025524  23.7808318  21.8240792
  39.5353723  23.5648685  22.8628191  39.7357129  23.9388239  22.2037956
  37.6728403  12.2523084  28.6851364  36.8824478  12.0714544  29.0068699
  38.0689026  11.4750037  28.6681658  37.6145279  12.1110545  28.7303912
  42.1594294  21.0810858  14.1258077  42.9267279  21.1410983  13.7163929
  41.7125603  20.5091300  13.6414396  42.2067721  21.0047434  13.9935788
  43.0572089  19.8865514  26.4110810  42.3817091  19.6550747  26.9124197
  43.0664465  19.2786697  25.7852915  42.9590594  19.7624439  26.3926962
  40.1866233  14.7283343  33.1674863  40.1225374  15.5893300  33.0394999
  40.3263421  14.4115336  32.3670414  40.1981703  14.8083510  33.0303075
  45.0588824  22.7430647  18.6420988  45.1408661  23.5497633  18.3182438
  45.5438566  22.7626606  19.3661761  45.1425982  22.8651309  18.7007886
  38.8685327  17.4215483  27.3091065  38.4447576  17.6219982  26.5730084
  38.6930182  16.5744331  27.4215365  38.7796208  17.3264264  27.2164756
  34.1567772  17.9167534  22.7419038  34.3132391  17.8514337  23.5975030
  34.4968365  18.6916087  22.5297718  34.2301007  18.0216732  22.8373632
  40.6946917  17.2925418  21.6112401  41.2362462  16.7895799  22.0751022
  41.0093476  17.2390612  20.8001886  40.8211314  17.2104839  21.5596213
  38.8633366  22.6842769  18.8952429  38.9326187  21.8257308  19.0345430
  39.6421822  22.9014650  18.5671454  38.9886217  22.5895633  18.8669587
  41.8436186  12.1861722  31.6634702  42.0578156  11.5472636  31.1098056
  41.2270085  12.6307546  31.2342563  41.7841515  12.1571866  31.5185133
  43.2540854  25.1080470  23.1088923  42.8620646  24.8047186  22.3911789
  43.4093926  25.9449560  22.9193876  43.2194444  25.1864307  22.9745420
  30.7302034  15.1002484  23.0579805  31.1100998  15.5187029  22.3940072
  30.1557398  15.6815940  23.3648649  30.7013359  15.2480343  23.0056546
  44.0075274  13.7950787  32.6018009  43.1951956  13.4876678  32.6831182
  44.4665209  13.3149787  33.1660721  43.9555659  13.6787280  32.6972603
  43.4180529  21.6730459  23.0494953  43.0595184  21.8445102  23.8258986
  42.9319240  22.1343665  22.4922952  43.2939226  21.7669430  23.0820222
  41.2350915   5.2961658  26.6522045  40.3644473   5.2700379  26.6055354
  41.4891256   5.1238850  25.8347890  41.1444475   5.2671801  26.5242181
  38.2068894  17.3529625  15.5895187  38.4961419  18.1294507  15.8638762
  38.2940693  16.8418356  16.2909687  38.2623150  17.3921543  15.7337685
  41.1028782  15.2010859  37.3846711  41.5728413  15.8252975  37.7714585
  41.1490662  14.5327834  37.9439926  41.1796657  15.1945539  37.5246783
  38.2600055   7.3067886  28.1095515  37.7438544   6.6148078  28.2347094
  37.6993984   7.9738663  28.0558114  38.1006569   7.3031144  28.1201581
  40.3292289   7.8460846  29.9388367  39.9424042   7.8709878  30.7201897
  39.8425226   7.2802525  29.4862884  40.2004798   7.7656597  29.9876271
  46.3042268  14.4123501  28.5628070  45.8769876  14.3249850  27.8076169
  45.6668321  14.5201277  29.1482914  46.1471876  14.4156161  28.5373511
  39.9949430   4.7327832  32.2298627  40.6242548   5.2688132  31.9519698
  40.1635293   4.6405191  33.0812193  40.1127225   4.7989194  32.3147155
  39.7963345   9.5199026  34.5025039  40.6236775   9.2484175  34.5583653
  39.8171191  10.3159868  34.8588857  39.9216195   9.5978781  34.5640222
  44.6339525  23.2554164  30.6367511  45.4231903  22.9043228  30.7569592
  44.8083123  24.0690552  30.3744145  44.7759806  23.3240021  30.6155379
  34.3732835  16.6662889  27.6895300  33.5320842  16.5666763  27.8974193
  34.5822843  17.4358370  28.0409620  34.2797528  16.7654933  27.7722614
  31.8508402  14.2882426  25.5180050  31.4565100  14.3625438  24.7430160
  31.2948519  14.6740373  26.0688412  31.7111214  14.3564201  25.4847710
  43.4873349   7.2663720  25.1983929  43.6922942   7.1986028  26.0440926
  43.1599773   8.0722541  25.1305107  43.4688597   7.3749661  25.3143584
  38.1849500  14.5944288  26.9392897  37.8812638  14.0400277  27.5403305
  37.4828921  14.7736498  26.4520931  38.0365710  14.5389071  26.9562603
  37.2415597  11.9044808  21.5037599  37.5175331  11.1863721  21.0915166
  37.8414266  12.5029728  21.2958705  37.3708862  11.8865179  21.4118360
  46.7407037   7.8195484  24.6786695  46.1281350   8.3065887  25.0640426
  46.8371212   7.1438975  25.2224346  46.6644934   7.7913793  24.8165553
  40.7426118   9.5758326  19.7784194  41.1969864   9.7468886  20.5032039
  41.2166163   8.9626436  19.3781970  40.8794438   9.5109211  19.8257956
  34.2641643  19.0606652  29.1086933  33.6729576  19.7016150  29.0789948
  35.0262667  19.4844269  29.0818232  34.2889904  19.2182490  29.1002080
  34.6602266  10.2208649  29.7754950  35.1203747  10.2947579  30.5130074
  34.7058373  11.0189903  29.4254771  34.7352821  10.3502796  29.8327707
  36.3085616  10.8875344  34.3426977  35.9171181  10.2408691  34.7782755
  36.4771478  11.4786779  34.9621233  36.2756526  10.8789612  34.4989683
  50.3832065  18.8912421  30.1064211  50.4415188  19.3399070  30.8524187
  49.7498532  19.3011234  29.6694291  50.2983360  19.0186156  30.1516759
  44.0231159  24.5115963  26.5418957  43.8250848  25.0006778  25.8475168
  43.4018870  24.7157205  27.1203090  43.9018724  24.6132501  26.5242180
  38.0839138  16.2800860  20.8829201  38.8281183  16.6675136  21.1212151
  38.2299834  15.4358285  21.0469689  38.2149723  16.2131333  20.9423171
  40.0018713   8.0751119  25.9161063  39.1554758   8.2473927  25.7902412
  39.9989846   7.2700463  26.2526891  39.8765863   7.9812148  25.9472190
  41.0717014  11.8526333  26.7823121  40.5976968  11.3268095  27.2928431
  41.4435149  11.3055806  26.2137982  41.0566902  11.6942330  26.7738268
  47.3353744  16.9128709  28.1929901  47.0951967  16.0735124  28.1972328
  47.8145751  16.9928876  28.9170675  47.3705928  16.8010109  28.3004703
  43.0000513  12.7462888  19.8448874  42.4723532  12.8291632  19.1554583
  43.4596221  13.4880759  19.8413519  42.9902364  12.8683550  19.7423570
  49.3358931  13.6930166  26.1459160  49.0968701  13.6526000  25.3079945
  49.4992832  14.5401318  26.2724881  49.3249235  13.8122251  26.0412642
  45.9404961  18.0780115  32.0764205  46.6639160  17.6252642  31.8975225
  45.6754924  18.3584781  31.2936533  46.0086235  18.0531084  31.9342921
  34.8091830  12.6740289  28.8117085  34.1844900  12.6858681  28.2043037
  34.4737424  13.1500464  29.4608325  34.6677321  12.7458806  28.8173653
  34.9933578  11.0165407  14.8689770  34.6446383  11.6685133  15.3321319
  34.5130024  11.0022521  14.1413641  34.8703822  11.1108461  14.8300861
  42.5537596  21.3166451  18.9758531  43.2771795  21.7824564  18.8323105
  42.1138187  21.3840061  18.2256128  42.5953288  21.3950288  18.8443313
  41.7223751  18.1763994  30.2259220  41.1080744  17.6322044  30.5207856
  42.2391036  17.6628230  29.7465037  41.7079413  18.0200403  30.1983449
  40.9620048  19.2468264  27.9603519  40.5347656  18.6217982  27.5268954
  40.9544992  18.9643186  28.7862526  40.8979189  19.1121044  28.0183347
  34.0782575  14.2833437  31.0291953  34.2376062  13.5276761  31.4343675
  33.8975469  14.8324376  31.6832691  34.0747934  14.2527251  31.1854659
  42.0202878   6.4494672  31.5842742  41.5243439   6.6458347  30.8934309
  42.7771940   6.8487341  31.4131544  42.0589703   6.5372406  31.4562879
  39.2905758  10.1237018  28.1746053  39.3148245   9.5897131  27.4858833
  39.5417231   9.6154327  28.8371644  39.3315676   9.9697922  28.1710698
  26.8013347  17.4068513  27.6089197  26.6956796  17.3615358  26.7441281
  26.0513567  17.7522294  27.8903482  26.6748950  17.4509421  27.5226527
  35.5707080   8.8507836  27.5551797  35.6105451   9.3517043  28.2686505
  34.7456744   8.9418230  27.2857720  35.4546606   8.9389653  27.6202336
  37.7536693  18.4168576  35.6572092  36.9032323  18.5540291  35.7929737
  37.9164820  17.6832355  36.1019794  37.6520556  18.3282678  35.7427691
  36.9921443  15.3668346  29.8525696  36.1613373  15.5342164  29.6460944
  36.9372960  14.9904297  30.6374582  36.8610858  15.3358078  29.9374224
  34.8005226   8.8577239  35.4882107  35.4257930   8.3139372  35.7611539
  34.3455706   8.3772157  34.9189897  34.8253487   8.7066721  35.4443701
  35.3657487  13.6423938  20.3815814  35.5060448  14.1396402  21.0844455
  35.8640020  12.9410232  20.5230028  35.4598568  13.6125917  20.5067393
  35.3957709  14.5091049  17.7108391  36.0302789  15.1051474  17.6457853
  35.4783320  14.2094506  18.5254261  35.5014260  14.5531957  17.8211477
  48.3740275  17.0406526  30.5794755  48.9658115  17.6803777  30.6112953
  48.8099270  16.3429563  30.8686822  48.5258706  17.0324877  30.6275588
  36.9736692  10.4405024  17.6853833  37.2952533   9.9608107  17.0313095
  37.2363636  11.2504670  17.4944644  37.0602718  10.4894922  17.5609325
  42.3695847   9.8277218  30.0477312  42.7950919   9.3749745  29.4360838
  41.7552840   9.2737289  30.3242099  42.3424493   9.6791194  29.9982337
  31.9010697  16.7058890  20.9797937  32.4102927  17.3023397  21.3609242
  32.3744970  16.4384863  20.2974356  32.0454073  16.7544705  20.9352460
  42.8141445  25.3787156  19.1356592  42.0970755  25.2048019  18.6703830
  43.4648183  25.1439729  18.6032078  42.8043296  25.3182949  18.9885810
  40.8090070   6.2992318  23.4567889  40.1658388   6.1489964  24.0253027
  40.4689477   6.0534663  22.6916994  40.6635147   6.2404441  23.4270904
  45.3989417  14.2551745  22.8797898  44.7280606  14.7981447  22.7510963
  46.0929167  14.7246600  22.6379592  45.4018284  14.4050016  22.8253425
  45.5617544  10.7107628  25.7888271  45.9145154  10.2837351  26.4634070
  44.7032346  10.6258472  25.9189347  45.4866989  10.6352369  25.9083281
  34.2601229  13.3415148  23.8471117  33.5413218  13.7579281  24.1143981
  34.6313591  13.9069387  23.2962755  34.2093161  13.4864430  23.8053924
  43.5600810  13.9742997  29.7373113  43.5398737  13.7926292  30.5907892
  43.6080011  14.8455016  29.7132697  43.5635451  14.0759535  29.8596408
  41.4619901  25.7739000  26.3170357  41.0636185  25.8841271  25.5491177
  40.8471121  25.9821067  26.8996917  41.3118791  25.8212568  26.2901656
  40.0347803  12.3813148  19.1844497  39.4412643  12.7030145  18.6329064
  40.0723081  11.5354243  18.9765603  39.9522193  12.3037476  19.0727268
  46.9941604   5.8326040  26.7172583  46.4872469   5.1255180  26.6493761
  47.7909038   5.5019229  26.8473660  47.0368843   5.6799192  26.7271578
  42.9105620  12.3392653  22.6146247  42.6819313  12.3625354  21.7724605
  43.1703696  11.5150120  22.7341258  42.9151808  12.2208733  22.5071445
  37.1924848  14.1927126  32.2171347  36.6803751  13.5848309  32.5756379
  37.0204345  14.9083718  32.6845323  37.0914485  14.2090425  32.3387571
  32.0390563  12.6364701  34.8673709  31.8693153  13.2966076  34.3221916
  31.5956513  12.8471262  35.5886198  31.9489897  12.7650683  34.8935338
  35.9650382  10.8769199  23.9100443  36.4407749  11.2386279  23.2750624
  35.4638982  11.5325666  24.1900585  35.9615741  11.0263388  23.8577184
  49.1961744  20.3490967  19.7013448  49.5795350  21.0982323  19.9311545
  48.4005857  20.5956787  19.4425437  49.1355526  20.4960661  19.6971021
  41.0693919  12.1151370  34.6573603  41.6265349  11.8865180  34.0252068
  40.7454984  12.8757036  34.3808815  41.1040329  12.1935207  34.5230100
  38.7877036  15.2019024  35.6225610  39.5388363  15.5170700  35.9365164
  38.9799612  14.9998194  34.7959532  38.9268450  15.2186405  35.5469006
  38.0077036  13.0210399  17.2773827  38.3876000  13.0390028  16.4924941
  37.2669632  13.4664388  17.1564674  37.9545873  13.0892173  17.1437395
  45.6362326  11.3292590  22.8649405  45.6356553  11.1741246  23.7233682
  45.4318506  12.1755577  22.8090791  45.6062104  11.4313211  22.9837345
  27.6979597  14.7532374  27.2808222  27.5201358  14.3008983  28.0063137
  27.4098619  15.5558536  27.4646699  27.6292550  14.8054932  27.4151725
  43.3603178  16.0090092  26.5185612  43.8556844  15.2913087  26.4789632
  42.5502954  15.7060889  26.4040099  43.3147071  15.8587738  26.4959338
  38.8061790  19.8587905  18.6682617  37.9973112  19.5354578  18.6215926
  39.3136699  19.1521127  18.6010865  38.7611457  19.7069221  18.6512911
  29.4352067  17.2860098  24.3929981  28.5697586  17.2745789  24.2812752
  29.5350883  17.0990321  25.2401120  29.3226234  17.2566159  24.5018925
  45.4254997  18.7593779  29.2062741  45.8510069  18.2368201  28.6533166
  45.0611917  19.3574617  28.6851364  45.4341600  18.7704006  29.0471751
  42.0133597  22.4728043  25.5363898  42.4844775  23.1868306  25.7053884
  42.3493775  21.8726794  26.0723768  42.1328712  22.4899508  25.6396274
  38.9303091   7.2455514  32.4921993  39.0630997   6.4486507  32.8202969
  39.3148244   7.7721917  33.0720269  39.0059420   7.2055431  32.6265496
  42.0035447   4.1685840  29.0903086  41.1981410   4.0583570  29.4070925
  41.8742182   4.2698296  28.2332952  41.8655579   4.1669510  29.0111127
  45.4601407  10.3331332  29.6842783  44.8764396  10.8340539  29.2720351
  45.7805701   9.8260888  29.0507107  45.4214583  10.3323167  29.5301291
  37.9996206   9.2471927  19.9601458  38.8211901   9.4170240  19.7183153
  37.5365857   9.4019188  19.2367756  38.0527369   9.2953660  19.8173102
  36.5891538   7.2414689  30.7399887  37.1335951   6.9005816  31.3304229
  36.6428474   8.1000151  30.8821172  36.6780658   7.3169948  30.8481760
  32.4022097  21.0031105  27.6138695  33.0066954  20.9626939  26.9852516
  32.1949410  21.8502257  27.6442751  32.4610994  21.1219108  27.5254811
  42.2165869  23.2697050  28.8300932  43.0364243  23.1260016  29.0917227
  41.9359947  23.8943249  29.3717370  42.2962613  23.3407402  28.9488872
  27.6373379  19.9865723  27.4837618  27.5397657  19.1761994  27.7927675
  28.4202249  19.9657516  27.0983886  27.7389516  19.8632813  27.4724481
  58.6879520  30.9261902  21.7943809  58.6573524  31.7806539  21.9662078
  59.2860868  30.6257195  22.3529952  58.7716677  31.0078399  21.9018611
  51.8879204  30.0137553  26.5496739  51.0317100  30.1746051  26.6005856
  51.9346858  29.1429617  26.5701800  51.7678316  29.9088355  26.5602805
  51.7245304  39.9725640  17.7419518  51.3896672  40.6502562  17.3063740
  52.2372174  39.5830952  17.1536389  51.7510885  40.0150219  17.5906309
  54.7331025  32.0729597  29.1928391  55.2786985  32.7514684  29.2522360
  54.6747902  31.9317058  28.3329972  54.8046940  32.1521599  29.0740451
  56.5096094  33.5014204  20.0662118  56.3935620  34.2521890  20.4954257
  57.3051981  33.2438157  20.3158205  56.6100683  33.5749051  20.1666210
  41.0470145  35.5838950  24.2049077  40.8120329  34.7506602  24.0981346
  41.1855785  35.8643615  23.3910278  41.0325807  35.5022453  24.0691432
  43.3460232  27.7524680  27.1033384  42.7265264  27.1617327  26.9343399
  43.2444096  28.3436115  26.4697708  43.2397908  27.7528763  26.9838374
  48.3926420  37.4908227  21.3531461  48.7142261  38.0313434  20.7492769
  49.0398516  36.9204998  21.4853751  48.5352475  37.4867402  21.2838496
  50.4428128  29.4924222  21.4365848  51.1408292  29.6712350  21.9287311
  50.7580460  28.9694561  20.8136237  50.5923465  29.4417994  21.4167858
  50.6316063  35.8794667  21.4245639  51.0709699  35.2711768  21.8700412
  50.4820726  35.5002040  20.6531104  50.6737529  35.7333138  21.3764806
  48.6154991  24.8616619  25.5187122  48.2858321  25.3127762  24.8490821
  47.9399993  24.7832782  26.0660129  48.4665428  24.9167754  25.5010345
  54.2325400  34.2321848  18.3776408  54.1476695  35.0882815  18.5225977
  54.7209783  33.9566172  19.0458567  54.2914297  34.3179170  18.4978490
  55.8231399  20.8502142  23.7636733  55.5084840  21.5405620  24.1957155
  55.3058341  20.7946924  23.0622234  55.6995869  20.9437030  23.7233682
  55.1643833  30.8506642  19.8774143  54.6355304  31.0666276  20.5371450
  55.6868853  31.5442781  19.7975113  55.1632286  30.9849779  19.9629743
  60.6191886  36.4252947  25.2507188  59.7889589  36.6363591  25.4140604
  60.5701138  35.5990002  24.9749471  60.4898621  36.3342553  25.2344553
  47.0543441  34.7469859  18.6781611  46.4700656  35.2519891  19.0847475
  46.6513536  34.5212246  17.9378203  46.9082744  34.7878108  18.6286637
  51.5120655  30.9935511  17.1550532  51.7516659  31.2013495  16.3425875
  51.8336496  30.1893020  17.2639477  51.5957813  30.9049613  17.0511085
  46.8210945  22.9228907  21.0010070  47.5756913  23.2907224  20.7627120
  46.6438480  23.2968461  21.7689250  46.9065424  23.0327095  21.0794958
  60.1145844  29.0723348  29.0457609  59.2774265  29.1425535  29.2805204
  60.0834075  29.0747842  28.1731912  59.9864126  29.0833575  28.9517157
  45.1768010  25.3299226  17.6988183  44.9943583  25.5471107  16.8729176
  46.0393623  25.4438239  17.7546797  45.2772599  25.3789124  17.5842670
  50.8567729  22.3325637  20.7337207  51.5853890  22.1541592  20.2875363
  50.9462622  23.1743717  20.9444385  50.9774391  22.4309515  20.6990724
  54.8376030  33.2679024  24.6369501  55.5933545  33.7010538  24.6758409
  54.9438354  32.6183794  25.2104137  54.9646200  33.2356508  24.7267526
  57.8756201  37.0952301  25.3871904  57.4391433  37.0989044  26.1430875
  57.5419116  37.7757800  24.9551481  57.7618821  37.1964757  25.4352736
  57.7953684  24.1366129  27.6301332  58.4379592  24.2064234  28.2163247
  58.0476705  23.4695352  27.1280874  57.9275816  24.0492478  27.6428611
  44.7230037  28.6073399  16.2110656  44.0088214  28.3211578  16.6233088
  45.2074006  28.9470025  16.8517043  44.6889400  28.6155048  16.3666291
  61.0100547  33.8133221  24.2791541  61.6716981  33.2523890  24.1787449
  60.3691959  33.3185252  24.6044232  61.0129415  33.6569630  24.3123881
  51.8977355  37.1103353  16.5872464  52.3128503  36.7788376  15.8956960
  51.0669285  36.8772255  16.4592601  51.8365364  37.0274609  16.4663312
  57.2965378  34.8298604  24.0203530  57.5320967  34.9743803  23.1930380
  57.4454941  35.5941012  24.4135043  57.3531181  34.9637658  23.9567134
  59.1255835  33.6700270  21.8573133  59.4564052  34.2027910  21.2513228
  59.6988923  33.7239157  22.5135084  59.2589514  33.7569838  21.8650915
  54.3387724  31.5165172  22.5396714  54.4334578  32.2554466  22.9936339
  53.7146567  31.0882648  22.9731278  54.2596754  31.5626493  22.6704861
  54.5910745  33.3613912  15.7733666  54.5090908  33.4316099  16.6388653
  55.2290465  33.9243656  15.5817406  54.6730582  33.4552883  15.8723615
  47.9503916  33.1274650  25.2408192  47.6923160  32.2946385  25.2139491
  48.0052399  33.3532263  24.4000692  47.9203694  33.0372421  25.1128329
  53.0304966  25.2303101  25.3412285  52.3261293  24.7412286  25.4996204
  53.0789941  25.2425575  24.4700729  52.9335018  25.1592749  25.2351624
  46.9238628  30.6812412  25.7273087  46.3488220  30.8404581  26.3637048
  46.5474305  30.0447822  25.2641537  46.7841441  30.6110225  25.7527645
  60.2335186  28.9110766  23.3613295  59.9771751  28.0990708  23.1711178
  61.0764500  28.9188334  23.1343482  60.3201211  28.7922764  23.2998112
  54.4138279  22.8510391  28.0989449  54.7948790  22.1688562  28.4857323
  53.6101563  22.5619993  27.9165114  54.3514740  22.7077439  28.1293505
  51.6950855  33.3834366  18.7842272  52.5091494  33.6749259  18.6725043
  51.6309996  32.7294229  18.2100565  51.8053594  33.3299561  18.6831109
  47.5658763  36.8555884  23.9114584  48.2032710  36.6167631  24.4566378
  47.9913835  37.0593043  23.1767745  47.7234930  36.8506894  23.8831741
  48.2061578  32.0758174  18.2489473  48.5906731  31.8565880  19.0006019
  47.9573199  32.9021119  18.3790550  48.2263651  32.1656320  18.3790550
  58.9396766  35.8504811  29.2600142  58.6342583  36.5832868  29.6213458
  58.2202982  35.4442741  28.9792928  58.7884108  35.8986544  29.2713279
  64.6398558  32.4897812  28.5868486  64.5723058  32.5093771  27.7171073
  64.6254221  33.3328139  28.8124157  64.6277315  32.6171547  28.4920963
  45.9262016  23.7455110  23.5798254  45.0584441  23.8177710  23.6455863
  46.2137220  24.5477189  23.7686229  45.8401764  23.8749257  23.6173021
  55.0494905  23.8932970  31.9109576  55.7948497  23.7042780  31.4973001
  54.6332209  24.4191208  31.3523432  55.0979879  23.9435115  31.7674149
  48.4884821  40.2963049  20.3221844  48.7783120  39.9052031  19.5981070
  49.2188302  40.4779754  20.7627119  48.6391705  40.2656863  20.2804651
  62.4257175  31.2642198  26.8615081  62.9765097  30.6310267  27.1012173
  62.4101291  31.7957591  27.5530585  62.5042372  31.2491146  26.9993939
  56.1285582  29.5038532  25.9719677  55.7850348  28.7828867  26.3226927
  56.2278624  29.2952383  25.1298035  56.0927625  29.3662735  25.8991357
  48.5958692  43.6459822  22.1712686  49.2482750  43.1136264  22.4003712
  47.8984301  43.2928474  22.5580560  48.5889410  43.5149345  22.2624854
  45.5439957  35.9998999  21.5780060  46.2985925  36.3812039  21.7915523
  44.9510570  36.4510143  22.0326757  45.5676671  36.1227827  21.6762939
  56.5898611  35.9664236  21.5143665  57.1556643  36.6257446  21.4302208
  55.9426514  36.3113934  21.9860067  56.5777367  36.1146177  21.5716422
  43.8529368  27.2213370  21.0215130  43.5654164  26.8514640  20.2847078
  44.5399836  27.6908225  20.7598835  43.9118265  27.2360339  20.8730206
  53.0605189  38.9103020  20.9380744  52.8191865  38.1770881  20.5307809
  53.2406522  39.4589877  20.2847078  53.0512813  38.8825411  20.7810967
  48.2904509  34.2011580  22.3501667  48.0947292  34.8086314  21.7561970
  48.5138855  33.5079524  21.8693341  48.2939151  34.1889105  22.1917747
  46.6883040  31.0866318  22.4682535  47.4105691  31.2507476  22.0086341
  46.2091032  31.8075983  22.3621875  46.7246770  31.2164547  22.3848149
  54.6476547  27.4230117  27.8479220  53.8087648  27.4491395  27.6117483
  54.7180914  28.0700852  28.4284567  54.5344941  27.5226242  27.8988337
  53.0945825  24.3215494  22.5806836  53.7972178  24.1223242  22.1026794
  52.8290014  23.5491436  22.8875679  53.1592458  24.1778460  22.5552277
  58.5234071  32.6298103  25.1340462  58.4368045  32.7853529  25.9875241
  58.0684551  33.2736179  24.7599867  58.4437328  32.7473858  25.2047568
  41.4257563  27.9994582  21.8700411  41.5273699  28.8020743  22.1981387
  42.2213449  27.7981918  21.5723492  41.5585468  28.0880481  21.8735767
  52.3959887  29.9508850  23.7566021  52.1494601  29.8704601  24.5902810
  52.7245010  29.1662318  23.5628549  52.4081131  29.8235116  23.8513544
  56.2907936  36.6592210  27.5452802  56.1522295  37.3573256  28.0501545
  55.5107934  36.5040866  27.1888984  56.1551163  36.7392376  27.5679077
  50.5276832  31.8855737  30.9514136  49.7800146  32.0786752  30.5462414
  50.6818357  31.0600957  30.7138257  50.4399259  31.7920849  30.8559542
  55.2405935  18.9596163  25.7103383  55.3589503  19.4172627  24.9770685
  55.0668110  18.1541425  25.4239600  55.2325106  18.9089935  25.5604316
  50.6108217  39.5683983  22.1458128  51.3758108  39.2993626  21.8240792
  50.5086307  39.0833993  22.8628191  50.7089712  39.4573547  22.2037956
  53.1326877  36.5996166  14.1258077  53.8999862  36.6596291  13.7163929
  52.6858186  36.0276608  13.6414396  53.1800305  36.5232742  13.9935788
  54.0304673  35.4050822  26.4110810  53.3549675  35.1736054  26.9124197
  54.0397049  34.7972005  25.7852915  53.9323177  35.2809747  26.3926962
  56.0321407  38.2615955  18.6420988  56.1141245  39.0682941  18.3182438
  56.5171150  38.2811914  19.3661761  56.1158565  38.3836617  18.7007886
  45.1300356  33.4352842  22.7419038  45.2864975  33.3699645  23.5975030
  45.4700949  34.2101394  22.5297718  45.2033591  33.5402040  22.8373632
  51.6679500  32.8110726  21.6112401  52.2095046  32.3081107  22.0751022
  51.9826059  32.7575920  20.8001886  51.7943897  32.7290146  21.5596213
  49.8365950  38.2028077  18.8952429  49.9058770  37.3442616  19.0345430
  50.6154405  38.4199958  18.5671454  49.9618800  38.1080941  18.8669587
  54.2273438  40.6265778  23.1088923  53.8353229  40.3232494  22.3911789
  54.3826510  41.4634868  22.9193876  54.1927027  40.7049615  22.9745420
  54.9807858  29.3136095  32.6018009  54.1684539  29.0061986  32.6831182
  55.4397792  28.8335095  33.1660721  54.9288242  29.1972588  32.6972603
  54.3913112  37.1915767  23.0494953  54.0327767  37.3630410  23.8258986
  53.9051823  37.6528973  22.4922952  54.2671809  37.2854738  23.0820222
  52.2083498  20.8146966  26.6522045  51.3377056  20.7885687  26.6055354
  52.4623840  20.6424158  25.8347890  52.1177058  20.7857109  26.5242181
  49.1801478  32.8714933  15.5895187  49.4694003  33.6479815  15.8638762
  49.2673277  32.3603664  16.2909687  49.2355734  32.9106851  15.7337685
  49.2332639  22.8253194  28.1095515  48.7171127  22.1333386  28.2347094
  48.6726568  23.4923971  28.0558114  49.0739152  22.8216452  28.1201581
  51.3024872  23.3646154  29.9388367  50.9156625  23.3895186  30.7201897
  50.8157810  22.7987833  29.4862884  51.1737381  23.2841905  29.9876271
  57.2774852  29.9308809  28.5628070  56.8502460  29.8435158  27.8076169
  56.6400905  30.0386585  29.1482914  57.1204459  29.9341469  28.5373511
  50.9682014  20.2513140  32.2298627  51.5975132  20.7873440  31.9519698
  51.1367877  20.1590499  33.0812193  51.0859809  20.3174502  32.3147155
  42.8240986  29.8067734  25.5180050  42.4297683  29.8810746  24.7430160
  42.2681103  30.1925680  26.0688412  42.6843798  29.8749509  25.4847710
  54.4605932  22.7849028  25.1983929  54.6655526  22.7171336  26.0440926
  54.1332356  23.5907849  25.1305107  54.4421180  22.8934969  25.3143584
  49.1582084  30.1129596  26.9392897  48.8545221  29.5585585  27.5403305
  48.4561504  30.2921806  26.4520931  49.0098293  30.0574379  26.9562603
  48.2148181  27.4230116  21.5037599  48.4907915  26.7049029  21.0915166
  48.8146850  28.0215036  21.2958705  48.3441445  27.4050487  21.4118360
  57.7139620  23.3380792  24.6786695  57.1013934  23.8251195  25.0640426
  57.8103795  22.6624283  25.2224346  57.6377518  23.3099101  24.8165553
  51.7158701  25.0943634  19.7784194  52.1702448  25.2654194  20.5032039
  52.1898747  24.4811744  19.3781970  51.8527021  25.0294519  19.8257956
  45.6334849  25.7393957  29.7754950  46.0936331  25.8132887  30.5130074
  45.6790956  26.5375211  29.4254771  45.7085405  25.8688104  29.8327707
  61.3564648  34.4097729  30.1064211  61.4147772  34.8584378  30.8524187
  60.7231116  34.8196542  29.6694291  61.2715943  34.5371464  30.1516759
  54.9963743  40.0301271  26.5418957  54.7983432  40.5192086  25.8475168
  54.3751454  40.2342513  27.1203090  54.8751307  40.1317809  26.5242180
  49.0571721  31.7986168  20.8829201  49.8013766  32.1860444  21.1212151
  49.2032417  30.9543593  21.0469689  49.1882306  31.7316641  20.9423171
  50.9751297  23.5936427  25.9161063  50.1287342  23.7659235  25.7902412
  50.9722429  22.7885771  26.2526891  50.8498447  23.4997456  25.9472190
  52.0449597  27.3711641  26.7823121  51.5709551  26.8453403  27.2928431
  52.4167733  26.8241114  26.2137982  52.0299486  27.2127638  26.7738268
  58.3086328  32.4314017  28.1929901  58.0684551  31.5920432  28.1972328
  58.7878335  32.5114184  28.9170675  58.3438511  32.3195417  28.3004703
  53.9733097  28.2648196  19.8448874  53.4456115  28.3476940  19.1554583
  54.4328805  29.0066067  19.8413519  53.9634947  28.3868858  19.7423570
  60.3091515  29.2115474  26.1459160  60.0701285  29.1711308  25.3079945
  60.4725416  30.0586626  26.2724881  60.2981818  29.3307559  26.0412642
  56.9137545  33.5965423  32.0764205  57.6371744  33.1437950  31.8975225
  56.6487507  33.8770089  31.2936533  56.9818818  33.5716392  31.9342921
  45.7824413  28.1925597  28.8117085  45.1577483  28.2043989  28.2043037
  45.4470008  28.6685772  29.4608325  45.6409905  28.2644114  28.8173653
  45.9666162  26.5350715  14.8689770  45.6178966  27.1870441  15.3321319
  45.4862608  26.5207828  14.1413641  45.8436406  26.6293769  14.8300861
  53.5270179  36.8351759  18.9758531  54.2504378  37.3009872  18.8323105
  53.0870770  36.9025369  18.2256128  53.5685871  36.9135596  18.8443313
  52.9935462  21.9679980  31.5842742  52.4976023  22.1643654  30.8934309
  53.7504524  22.3672649  31.4131544  53.0322286  22.0557714  31.4562879
  50.2638341  25.6422326  28.1746053  50.2880828  25.1082438  27.4858833
  50.5149815  25.1339635  28.8371644  50.3048260  25.4883230  28.1710698
  46.5439663  24.3693144  27.5551797  46.5838035  24.8702351  28.2686505
  45.7189328  24.4603538  27.2857720  46.4279189  24.4574961  27.6202336
  46.3390071  29.1609246  20.3815814  46.4793032  29.6581710  21.0844455
  46.8372603  28.4595540  20.5230028  46.4331152  29.1311225  20.5067393
  46.3690293  30.0276357  17.7108391  47.0035372  30.6236782  17.6457853
  46.4515904  29.7279814  18.5254261  46.4746844  30.0717265  17.8211477
  59.3472859  32.5591834  30.5794755  59.9390699  33.1989085  30.6112953
  59.7831853  31.8614871  30.8686822  59.4991290  32.5510185  30.6275588
  47.9469276  25.9590332  17.6853833  48.2685117  25.4793415  17.0313095
  48.2096220  26.7689978  17.4944644  48.0335301  26.0080230  17.5609325
  53.3428431  25.3462526  30.0477312  53.7683502  24.8935053  29.4360838
  52.7285424  24.7922597  30.3242099  53.3157076  25.1976502  29.9982337
  42.8743281  32.2244198  20.9797937  43.3835510  32.8208705  21.3609242
  43.3477553  31.9570171  20.2974356  43.0186657  32.2730013  20.9352460
  53.7874029  40.8972464  19.1356592  53.0703339  40.7233327  18.6703830
  54.4380767  40.6625037  18.6032078  53.7775879  40.8368257  18.9885810
  51.7822654  21.8177626  23.4567889  51.1390972  21.6675272  24.0253027
  51.4422061  21.5719971  22.6916994  51.6367731  21.7589748  23.4270904
  56.3722000  29.7737053  22.8797898  55.7013190  30.3166755  22.7510963
  57.0661750  30.2431908  22.6379592  56.3750868  29.9235324  22.8253425
  56.5350128  26.2292936  25.7888271  56.8877738  25.8022659  26.4634070
  55.6764929  26.1443780  25.9189347  56.4599572  26.1537677  25.9083281
  45.2333813  28.8600456  23.8471117  44.5145802  29.2764589  24.1143981
  45.6046175  29.4254695  23.2962755  45.1825744  29.0049738  23.8053924
  54.5333393  29.4928305  29.7373113  54.5131321  29.3111600  30.5907892
  54.5812594  30.3640324  29.7132697  54.5368034  29.5944843  29.8596408
  51.0080387  27.8998456  19.1844497  50.4145226  28.2215453  18.6329064
  51.0455665  27.0539551  18.9765603  50.9254776  27.8222784  19.0727268
  57.9674188  21.3511348  26.7172583  57.4605052  20.6440488  26.6493761
  58.7641621  21.0204537  26.8473660  58.0101427  21.1984500  26.7271578
  53.8838204  27.8577961  22.6146247  53.6551897  27.8810662  21.7724605
  54.1436280  27.0335428  22.7341258  53.8884392  27.7394040  22.5071445
  46.9382966  26.3954507  23.9100443  47.4140332  26.7571587  23.2750624
  46.4371566  27.0510974  24.1900585  46.9348325  26.5448696  23.8577184
  60.1694328  35.8676275  19.7013448  60.5527933  36.6167631  19.9311545
  59.3738441  36.1142095  19.4425437  60.1088110  36.0145969  19.6971021
  48.9809619  28.5395707  17.2773827  49.3608584  28.5575336  16.4924941
  48.2402215  28.9849695  17.1564674  48.9278457  28.6077481  17.1437395
  56.6094910  26.8477898  22.8649405  56.6089136  26.6926554  23.7233682
  56.4051090  27.6940885  22.8090791  56.5794688  26.9498519  22.9837345
  54.3335762  31.5275400  26.5185612  54.8289427  30.8098395  26.4789632
  53.5235538  31.2246197  26.4040099  54.2879655  31.3773046  26.4959338
  49.7794373  35.3773213  18.6682617  48.9705696  35.0539886  18.6215926
  50.2869282  34.6706435  18.6010865  49.7344040  35.2254529  18.6512911
  56.3987581  34.2779087  29.2062741  56.8242652  33.7553509  28.6533166
  56.0344501  34.8759925  28.6851364  56.4074183  34.2889314  29.0471751
  52.9866180  37.9913351  25.5363898  53.4577358  38.7053614  25.7053884
  53.3226359  37.3912102  26.0723768  53.1061295  38.0084816  25.6396274
  49.9035675  22.7640822  32.4921993  50.0363581  21.9671815  32.8202969
  50.2880828  23.2907225  33.0720269  49.9792004  22.7240739  32.6265496
  52.9768030  19.6871148  29.0903086  52.1713994  19.5768878  29.4070925
  52.8474766  19.7883604  28.2332952  52.8388163  19.6854818  29.0111127
  56.4333991  25.8516640  29.6842783  55.8496980  26.3525846  29.2720351
  56.7538285  25.3446196  29.0507107  56.3947166  25.8508475  29.5301291
  48.9728790  24.7657235  19.9601458  49.7944484  24.9355548  19.7183153
  48.5098441  24.9204496  19.2367756  49.0259952  24.8138968  19.8173102
  47.5624122  22.7599997  30.7399887  48.1068535  22.4191124  31.3304229
  47.6161058  23.6185459  30.8821172  47.6513241  22.8355256  30.8481760
  69.6612103  46.4447210  21.7943809  69.6306107  47.2991847  21.9662078
  70.2593452  46.1442503  22.3529952  69.7449261  46.5263706  21.9018611
  62.8611788  45.5322861  26.5496739  62.0049683  45.6931359  26.6005856
  62.9079442  44.6614925  26.5701800  62.7410899  45.4273663  26.5602805
  57.2452928  55.0685579  22.3133971  56.4935827  54.6901117  22.0850016
  57.6938939  55.1004012  21.5652781  57.2002594  55.0171186  22.1691473
  66.1705504  51.8009387  36.1557195  66.8772272  51.3061417  36.2844130
  66.3593440  52.2418468  35.4259853  66.3033410  51.7927737  36.0666241
  62.6977888  55.4910948  17.7419518  62.3629256  56.1687870  17.3063740
  63.2104758  55.1016260  17.1536389  62.7243469  55.5335527  17.5906309
  62.2382179  57.4425217  23.6830629  62.6221558  58.0112116  23.1435405
  62.1741320  56.7174727  23.2036445  62.2855606  57.4200680  23.5324492
  65.7063609  47.5914905  29.1928391  66.2519569  48.2699991  29.2522360
  65.6480485  47.4502366  28.3329972  65.7779523  47.6706907  29.0740451
  58.8237684  55.0803971  24.5796743  58.9248047  54.2704325  24.8893871
  58.2279429  54.9860917  23.9496422  58.7510222  54.9468999  24.5322982
  67.4828678  49.0199512  20.0662118  67.3668204  49.7707198  20.4954257
  68.2784564  48.7623465  20.3158205  67.5833267  49.0934359  20.1666210
  58.6638423  59.9981560  25.9811599  59.3075879  60.4394724  26.3707758
  58.9894679  59.1934986  25.8941858  58.8070252  59.9446755  26.0257076
  52.0202728  51.1024258  24.2049077  51.7852913  50.2691910  24.0981346
  52.1588369  51.3828923  23.3910278  52.0058391  51.0207761  24.0691432
  54.3192816  43.2709988  27.1033384  53.6997847  42.6802635  26.9343399
  54.2176679  43.8621423  26.4697708  54.2130491  43.2714071  26.9838374
  59.3659003  53.0093535  21.3531461  59.6874844  53.5498742  20.7492769
  60.0131100  52.4390306  21.4853751  59.5085058  53.0052710  21.2838496
  61.4160711  45.0109530  21.4365848  62.1140876  45.1897657  21.9287311
  61.7313044  44.4879869  20.8136237  61.5656048  44.9603302  21.4167858
  61.6048647  51.3979975  21.4245639  62.0442282  50.7897075  21.8700412
  61.4553309  51.0187348  20.6531104  61.6470112  51.2518446  21.3764806
  61.6106381  52.8378893  28.2771357  61.8929624  52.0430298  28.0558113
  62.3392541  53.3159480  28.2976418  61.7595945  52.7913490  28.2474372
  59.5887575  40.3801927  25.5187122  59.2590905  40.8313070  24.8490821
  58.9132577  40.3018090  26.0660129  59.4398011  40.4353062  25.5010345
  65.2057983  49.7507156  18.3776408  65.1209278  50.6068123  18.5225977
  65.6942366  49.4751480  19.0458567  65.2646880  49.8364478  18.4978490
  66.7963983  36.3687449  23.7636733  66.4817424  37.0590928  24.1957155
  66.2790924  36.3132232  23.0622234  66.6728453  36.4622338  23.7233682
  66.1376416  46.3691950  19.8774143  65.6087888  46.5851584  20.5371450
  66.6601436  47.0628089  19.7975113  66.1364869  46.5035087  19.9629743
  71.5924469  51.9438255  25.2507188  70.7622172  52.1548899  25.4140604
  71.5433722  51.1175309  24.9749471  71.4631205  51.8527861  25.2344553
  58.0276024  50.2655167  18.6781611  57.4433239  50.7705199  19.0847475
  57.6246119  50.0397554  17.9378203  57.8815328  50.3063415  18.6286637
  59.6534207  54.7742109  28.0855097  59.1361148  54.4149524  27.4816405
  60.3508598  54.2504283  28.0961164  59.6799788  54.6439797  27.9985356
  63.3097799  55.2236923  34.0471270  63.3981145  55.0363063  34.8949481
  63.7387511  54.5774353  33.6476117  63.3859901  55.0999931  34.1143022
  60.8768259  54.5068083  33.0288933  60.3139093  54.0940693  33.5528594
  61.6389282  54.4320989  33.4482076  60.9062707  54.4345484  33.1681933
  62.4853239  46.5120819  17.1550532  62.7249242  46.7198803  16.3425875
  62.8069080  45.7078328  17.2639477  62.5690396  46.4234920  17.0511085
  57.7943529  38.4414215  21.0010070  58.5489497  38.8092532  20.7627120
  57.6171063  38.8153769  21.7689250  57.8798007  38.5512403  21.0794958
  56.4364250  56.4966104  25.6325563  57.1384829  55.9818093  25.6898319
  56.3561733  56.8240256  26.4372438  56.5288010  56.4680330  25.7598355
  71.0878428  44.5908656  29.0457609  70.2506849  44.6610843  29.2805204
  71.0566659  44.5933150  28.1731912  70.9596710  44.6018883  28.9517157
  56.1500593  40.8484534  17.6988183  55.9676167  41.0656415  16.8729176
  57.0126207  40.9623547  17.7546797  56.2505183  40.8974432  17.5842670
  55.7615025  52.6872456  25.1411171  56.6003925  52.9195389  25.1884932
  55.7926795  51.8176768  25.0718206  55.8896743  52.5929403  25.1375815
  61.8300313  37.8510945  20.7337207  62.5586473  37.6726900  20.2875363
  61.9195206  38.6929024  20.9444385  61.9506975  37.9494823  20.6990724
  65.8108613  48.7864332  24.6369501  66.5666128  49.2195846  24.6758409
  65.9170938  48.1369102  25.2104137  65.9378784  48.7541816  24.7267526
  68.8488784  52.6137609  25.3871904  68.4124016  52.6174352  26.1430875
  68.5151700  53.2943108  24.9551481  68.7351404  52.7150065  25.4352736
  68.7686267  39.6551437  27.6301332  69.4112176  39.7249542  28.2163247
  69.0209288  38.9880660  27.1280874  68.9008400  39.5677786  27.6428611
  55.6962621  44.1258707  16.2110656  54.9820798  43.8396886  16.6233088
  56.1806589  44.4655332  16.8517043  55.6621984  44.1340356  16.3666291
  63.5788251  56.5656044  30.3581510  62.7803497  56.3255544  30.6155378
  64.0274263  56.6170437  31.1048557  63.5262863  56.5378435  30.5066434
  71.9833131  49.3318529  24.2791541  72.6449565  48.7709198  24.1787449
  71.3424543  48.8370560  24.6044232  71.9861998  49.1754938  24.3123881
  62.8709938  52.6288661  16.5872464  63.2861087  52.2973684  15.8956960
  62.0401868  52.3957563  16.4592601  62.8097947  52.5459917  16.4663312
  68.2697961  50.3483912  24.0203530  68.5053551  50.4929110  23.1930380
  68.4187525  51.1126320  24.4135043  68.3263765  50.4822966  23.9567134
  70.0988418  49.1885577  21.8573133  70.4296635  49.7213218  21.2513228
  70.6721506  49.2424465  22.5135084  70.2322097  49.2755146  21.8650915
  65.3120307  47.0350480  22.5396714  65.4067162  47.7739774  22.9936339
  64.6879151  46.6067956  22.9731278  65.2329337  47.0811801  22.6704861
  65.5643329  48.8799220  15.7733666  65.4823491  48.9501407  16.6388653
  66.2023049  49.4428964  15.5817406  65.6463166  48.9738191  15.8723615
  58.9236500  48.6459958  25.2408192  58.6655744  47.8131693  25.2139491
  58.9784983  48.8717571  24.4000692  58.8936278  48.5557729  25.1128329
  64.0037550  40.7488409  25.3412285  63.2993877  40.2597594  25.4996204
  64.0522524  40.7610883  24.4700729  63.9067601  40.6778057  25.2351624
  57.8971212  46.1997720  25.7273087  57.3220803  46.3589889  26.3637048
  57.5206888  45.5633130  25.2641537  57.7574024  46.1295533  25.7527645
  71.2067770  44.4296074  23.3613295  70.9504334  43.6176016  23.1711178
  72.0497084  44.4373642  23.1343482  71.2933795  44.3108072  23.2998112
  65.3870862  38.3695698  28.0989449  65.7681374  37.6873870  28.4857323
  64.5834146  38.0805301  27.9165114  65.3247324  38.2262747  28.1293505
  62.6683439  48.9019674  18.7842272  63.4824078  49.1934567  18.6725043
  62.6042580  48.2479537  18.2100565  62.7786178  48.8484869  18.6831109
  68.8892929  51.5845670  33.1971848  68.6531566  50.7533735  33.0783908
  69.5336158  51.5331278  33.7826692  68.9487600  51.4543358  33.2657741
  58.5391347  52.3741192  23.9114584  59.1765294  52.1352939  24.4566378
  58.9646419  52.5778351  23.1767745  58.6967513  52.3692202  23.8831741
  59.1794162  47.5943482  18.2489473  59.5639315  47.3751188  19.0006019
  58.9305782  48.4206427  18.3790550  59.1996235  47.6841628  18.3790550
  69.9129350  51.3690119  29.2600142  69.6075167  52.1018176  29.6213458
  69.1935565  50.9628049  28.9792928  69.7616692  51.4171852  29.2713279
  60.9212819  52.8513614  25.5908370  60.9951827  52.6888786  26.4450220
  61.7382325  53.0403804  25.3468852  61.0529178  52.8550357  25.6806396
  75.6131142  48.0083120  28.5868486  75.5455642  48.0279079  27.7171073
  75.5986804  48.8513447  28.8124157  75.6009898  48.1356855  28.4920963
  54.6818576  53.1971477  22.6202814  53.8556693  53.4433214  22.4937093
  54.7430567  53.1183558  23.4864872  54.5692743  53.2216426  22.7291758
  56.8994599  39.2640418  23.5798254  56.0317025  39.3363018  23.6455863
  57.1869804  40.0662497  23.7686229  56.8134348  39.3934565  23.6173021
  66.0227488  39.4118278  31.9109576  66.7681080  39.2228088  31.4973001
  65.6064793  39.9376516  31.3523432  66.0712462  39.4620423  31.7674149
  59.4617405  55.8148357  20.3221844  59.7515703  55.4237339  19.5981070
  60.1920886  55.9965062  20.7627119  59.6124289  55.7842171  20.2804651
  73.3989759  46.7827506  26.8615081  73.9497681  46.1495575  27.1012173
  73.3833874  47.3142899  27.5530585  73.4774955  46.7676454  26.9993939
  57.4023320  57.7915740  23.3881994  57.1823616  57.5013095  24.1808661
  57.1817842  57.1330695  22.8599906  57.3370914  57.6515448  23.4270902
  56.3140268  49.8789056  25.6537695  56.0253516  49.2526528  26.1883422
  57.1823616  49.8209344  25.7202376  56.4000519  49.7776601  25.7428650
  67.1018165  45.0223840  25.9719677  66.7582931  44.3014175  26.3226927
  67.2011208  44.8137691  25.1298035  67.0660208  44.8848043  25.8991357
  59.5691276  59.1645130  22.1712686  60.2215334  58.6321572  22.4003712
  58.8716885  58.8113782  22.5580560  59.5621994  59.0334653  22.2624854
  56.5172541  51.5184307  21.5780060  57.2718509  51.8997346  21.7915523
  55.9243154  51.9695451  22.0326757  56.5409254  51.6413135  21.6762939
  67.5631194  51.4849544  21.5143665  68.1289227  52.1442754  21.4302208
  66.9159098  51.8299242  21.9860067  67.5509951  51.6331485  21.5716422
  54.8261952  42.7398677  21.0215130  54.5386747  42.3699948  20.2847078
  55.5132420  43.2093533  20.7598835  54.8850849  42.7545647  20.8730206
  64.0337772  54.4288328  20.9380744  63.7924448  53.6956189  20.5307809
  64.2139105  54.9775185  20.2847078  64.0245396  54.4010719  20.7810967
  59.2637093  49.7196888  22.3501667  59.0679876  50.3271622  21.7561970
  59.4871439  49.0264832  21.8693341  59.2671734  49.7074413  22.1917747
  57.6615623  46.6051626  22.4682535  58.3838275  46.7692784  22.0086341
  57.1823616  47.3261291  22.3621875  57.6979354  46.7349855  22.3848149
  65.6209131  42.9415424  27.8479220  64.7820231  42.9676703  27.6117483
  65.6913498  43.5886160  28.4284567  65.5077524  43.0411550  27.8988337
  64.0678409  39.8400802  22.5806836  64.7704762  39.6408550  22.1026794
  63.8022598  39.0676744  22.8875679  64.1325041  39.6963768  22.5552277
  69.4966655  48.1483411  25.1340462  69.4100629  48.3038837  25.9875241
  69.0417134  48.7921487  24.7599867  69.4169911  48.2659166  25.2047568
  52.3990146  43.5179890  21.8700411  52.5006283  44.3206051  22.1981387
  53.1946033  43.3167226  21.5723492  52.5318052  43.6065789  21.8735767
  63.3692471  45.4694158  23.7566021  63.1227185  45.3889909  24.5902810
  63.6977594  44.6847626  23.5628549  63.3813714  45.3420424  23.8513544
  67.2640519  52.1777518  27.5452802  67.1254879  52.8758564  28.0501545
  66.4840517  52.0226174  27.1888984  67.1283746  52.2577684  27.5679077
  65.6018605  48.4773893  33.7975184  65.5966643  47.6053710  33.8017611
  66.3079598  48.6762062  33.3244640  65.7063609  48.3777767  33.7282220
  58.4017253  56.3953649  30.0350031  58.5506817  55.8356565  29.3823436
  59.1817255  56.4745650  30.4182550  58.5391346  56.3239214  29.9946980
  68.7593892  51.5355771  18.3069302  68.3800701  50.7492909  18.2998591
  68.0960138  52.0842628  18.1640946  68.6052367  51.5000595  18.2850099
  60.9270553  56.5668292  31.3134522  60.8514225  55.8977102  31.8685310
  60.8560413  57.2686080  31.8275188  60.9051160  56.5713199  31.4711370
  66.2138518  34.4781471  25.7103383  66.3322086  34.9357935  24.9770685
  66.0400694  33.6726732  25.4239600  66.2057689  34.4275243  25.5604316
  61.5840800  55.0869291  22.1458128  62.3490692  54.8178934  21.8240792
  61.4818890  54.6019301  22.8628191  61.6822296  54.9758855  22.2037956
  64.1059461  52.1181474  14.1258077  64.8732446  52.1781599  13.7163929
  63.6590770  51.5461916  13.6414396  64.1532888  52.0418050  13.9935788
  65.0037256  50.9236130  26.4110810  64.3282258  50.6921362  26.9124197
  65.0129633  50.3157313  25.7852915  64.9055761  50.7995055  26.3926962
  67.0053991  53.7801263  18.6420988  67.0873828  54.5868249  18.3182438
  67.4903733  53.7997222  19.3661761  67.0891149  53.9021925  18.7007886
  60.3162188  59.9736611  29.7712523  60.8058118  59.2747401  29.5888187
  59.7446420  59.6760481  30.3588580  60.3046718  59.8262835  29.8313564
  56.1032939  48.9538150  22.7419038  56.2597558  48.8884953  23.5975030
  56.4433532  49.7286702  22.5297718  56.1766174  49.0587348  22.8373632
  62.6412084  48.3296033  21.6112401  63.1827629  47.8266415  22.0751022
  62.9558643  48.2761228  20.8001886  62.7676481  48.2475454  21.5596213
  66.5129191  52.5398681  38.7239313  67.3264057  52.2683830  38.8844446
  66.3524158  52.2406221  37.9199509  66.6099140  52.4553607  38.6284719
  60.8098534  53.7213385  18.8952429  60.8791354  52.8627923  19.0345430
  61.5886989  53.9385266  18.5671454  60.9351384  53.6266249  18.8669587
  65.2006021  56.1451086  23.1088923  64.8085813  55.8417801  22.3911789
  65.3559093  56.9820176  22.9193876  65.1659611  56.2234923  22.9745420
  52.6767201  46.1373100  23.0579805  53.0566166  46.5557645  22.3940072
  52.1022566  46.7186556  23.3648649  52.6478526  46.2850959  23.0056546
  65.3645696  52.7101075  23.0494953  65.0060351  52.8815718  23.8258986
  64.8784407  53.1714281  22.4922952  65.2404393  52.8040046  23.0820222
  63.1816082  36.3332274  26.6522045  62.3109640  36.3070995  26.6055354
  63.4356423  36.1609466  25.8347890  63.0909642  36.3042417  26.5242181
  60.1534061  48.3900241  15.5895187  60.4426586  49.1665123  15.8638762
  60.2405860  47.8788972  16.2909687  60.2088318  48.4292159  15.7337685
  60.2065222  38.3438502  28.1095515  59.6903711  37.6518694  28.2347094
  59.6459151  39.0109279  28.0558114  60.0471736  38.3401760  28.1201581
  62.2757456  38.8831462  29.9388367  61.8889209  38.9080494  30.7201897
  61.7890393  38.3173141  29.4862884  62.1469965  38.8027213  29.9876271
  66.5250435  53.6004971  33.9962154  67.1630156  53.1065167  33.6624610
  65.8824527  53.5282372  33.4114381  66.5244662  53.5163980  33.8604509
  68.2507435  45.4494117  28.5628070  67.8235043  45.3620466  27.8076169
  67.6133488  45.5571893  29.1482914  68.0937043  45.4526777  28.5373511
  61.9414598  35.7698448  32.2298627  62.5707716  36.3058748  31.9519698
  62.1100460  35.6775807  33.0812193  62.0592392  35.8359810  32.3147155
  66.5804692  54.2924779  30.6367511  67.3697070  53.9413844  30.7569592
  66.7548290  55.1061168  30.3744145  66.7224974  54.3610636  30.6155379
  53.7973569  45.3253042  25.5180050  53.4030267  45.3996054  24.7430160
  53.2413686  45.7110988  26.0688412  53.6576382  45.3934817  25.4847710
  65.4338516  38.3034336  25.1983929  65.6388109  38.2356644  26.0440926
  65.1064940  39.1093157  25.1305107  65.4153764  38.4120276  25.3143584
  59.1880764  42.9415424  21.5037599  59.4640499  42.2234337  21.0915166
  59.7879434  43.5400344  21.2958705  59.3174029  42.9235795  21.4118360
  68.6872204  38.8566100  24.6786695  68.0746517  39.3436502  25.0640426
  68.7836379  38.1809591  25.2224346  68.6110101  38.8284409  24.8165553
  62.6891285  40.6128941  19.7784194  63.1435031  40.7839502  20.5032039
  63.1631331  39.9997052  19.3781970  62.8259605  40.5479827  19.8257956
  72.3297232  49.9283037  30.1064211  72.3880355  50.3769686  30.8524187
  71.6963699  50.3381850  29.6694291  72.2448527  50.0556772  30.1516759
  65.9696326  55.5486579  26.5418957  65.7716015  56.0377393  25.8475168
  65.3484037  55.7527820  27.1203090  65.8483891  55.6503117  26.5242180
  60.0304305  47.3171476  20.8829201  60.7746350  47.7045752  21.1212151
  60.1765001  46.4728901  21.0469689  60.1614890  47.2501949  20.9423171
  61.9483880  39.1121735  25.9161063  61.1019925  39.2844542  25.7902412
  61.9455013  38.3071078  26.2526891  61.8231030  39.0182764  25.9472190
  63.0182181  42.8896949  26.7823121  62.5442135  42.3638711  27.2928431
  63.3900316  42.3426422  26.2137982  63.0032070  42.7312946  26.7738268
  69.2818911  47.9499325  28.1929901  69.0417134  47.1105740  28.1972328
  69.7610918  48.0299491  28.9170675  69.3171095  47.8380724  28.3004703
  64.9465680  43.7833504  19.8448874  64.4188699  43.8662248  19.1554583
  65.4061388  44.5251375  19.8413519  64.9367531  43.9054166  19.7423570
  71.2824098  44.7300782  26.1459160  71.0433868  44.6896616  25.3079945
  71.4458000  45.5771934  26.2724881  71.2714402  44.8492867  26.0412642
  67.8870128  49.1150731  32.0764205  68.6104327  48.6623258  31.8975225
  67.6220091  49.3955397  31.2936533  67.9551402  49.0901700  31.9342921
  56.9398745  42.0536023  14.8689770  56.5911550  42.7055749  15.3321319
  56.4595191  42.0393136  14.1413641  56.8168989  42.1479077  14.8300861
  64.5002763  52.3537067  18.9758531  65.2236962  52.8195180  18.8323105
  64.0603354  52.4210677  18.2256128  64.5418455  52.4320904  18.8443313
  63.6688918  49.2134610  30.2259220  63.0545911  48.6692660  30.5207856
  64.1856203  48.6998846  29.7465037  63.6544580  49.0571019  30.1983449
  62.9085215  50.2838880  27.9603519  62.4812823  49.6588598  27.5268954
  62.9010159  50.0013801  28.7862526  62.8444356  50.1491660  28.0183347
  63.9668045  37.4865288  31.5842742  63.4708606  37.6828962  30.8934309
  64.7237107  37.8857956  31.4131544  64.0054870  37.5743022  31.4562879
  61.2370925  41.1607634  28.1746053  61.2613412  40.6267746  27.4858833
  61.4882398  40.6524943  28.8371644  61.2780843  41.0068538  28.1710698
  57.5172247  39.8878452  27.5551797  57.5570619  40.3887659  28.2686505
  56.6921912  39.9788846  27.2857720  57.4011773  39.9760269  27.6202336
  57.3122654  44.6794554  20.3815814  57.4525615  45.1767018  21.0844455
  57.8105187  43.9780848  20.5230028  57.4063735  44.6496532  20.5067393
  57.3422877  45.5461665  17.7108391  57.9767956  46.1422090  17.6457853
  57.4248487  45.2465122  18.5254261  57.4479428  45.5902573  17.8211477
  70.3205442  48.0777142  30.5794755  70.9123283  48.7174393  30.6112953
  70.7564437  47.3800179  30.8686822  70.4723874  48.0695492  30.6275588
  58.9201859  41.4775640  17.6853833  59.2417700  40.9978723  17.0313095
  59.1828803  42.2875286  17.4944644  59.0067885  41.5265538  17.5609325
  62.1498832  52.4994514  31.2052649  61.6423923  53.0530361  31.6493279
  61.8525478  52.5602804  30.3871423  62.0303717  52.5900826  31.1501106
  53.8475864  47.7429505  20.9797937  54.3568094  48.3394013  21.3609242
  54.3210137  47.4755479  20.2974356  53.9919240  47.7915321  20.9352460
  64.7606613  56.4157772  19.1356592  64.0435922  56.2418634  18.6703830
  65.4113350  56.1810344  18.6032078  64.7508463  56.3553565  18.9885810
  62.7555237  37.3362934  23.4567889  62.1123555  37.1860580  24.0253027
  62.4154644  37.0905279  22.6916994  62.6100315  37.2775056  23.4270904
  67.3454584  45.2922361  22.8797898  66.6745774  45.8352063  22.7510963
  68.0394334  45.7617216  22.6379592  67.3483451  45.4420632  22.8253425
  61.3941317  57.4319073  28.1109656  61.1706972  56.6737902  28.4793682
  60.9051161  57.4617094  27.3890096  61.2884766  57.3241297  28.0586397
  67.5082711  41.7478244  25.7888271  67.8610321  41.3207967  26.4634070
  66.6497513  41.6629088  25.9189347  67.4332156  41.6722985  25.9083281
  56.2066396  44.3785764  23.8471117  55.4878385  44.7949897  24.1143981
  56.5778758  44.9440003  23.2962755  56.1558328  44.5235045  23.8053924
  60.0419774  57.6519531  25.5646740  59.6280173  56.9893661  25.1750582
  60.7267149  57.7997390  25.0442435  60.0818146  57.5760189  25.4303238
  63.4085069  56.8109616  26.3170357  63.0101352  56.9211886  25.5491177
  62.7936288  57.0191682  26.8996917  63.2583958  56.8583184  26.2901656
  61.9812971  43.4183764  19.1844497  61.3877810  43.7400760  18.6329064
  62.0188248  42.5724859  18.9765603  61.8987360  43.3408092  19.0727268
  68.9406771  36.8696656  26.7172583  68.4337636  36.1625796  26.6493761
  69.7374205  36.5389845  26.8473660  68.9834010  36.7169808  26.7271578
  64.8570787  43.3763268  22.6146247  64.6284480  43.3995970  21.7724605
  65.1168863  42.5520735  22.7341258  64.8616975  43.2579348  22.5071445
  57.9115550  41.9139815  23.9100443  58.3872916  42.2756895  23.2750624
  57.4104149  42.5696282  24.1900585  57.9080909  42.0634003  23.8577184
  71.1426911  51.3861583  19.7013448  71.5260517  52.1352939  19.9311545
  70.3471025  51.6327402  19.4425437  71.0820693  51.5331277  19.6971021
  59.9542203  44.0581015  17.2773827  60.3341168  44.0760644  16.4924941
  59.2134799  44.5035003  17.1564674  59.9011041  44.1262789  17.1437395
  67.5827493  42.3663206  22.8649405  67.5821720  42.2111862  23.7233682
  67.3783673  43.2126193  22.8090791  67.5527271  42.4683826  22.9837345
  65.3068345  47.0460708  26.5185612  65.8022011  46.3283703  26.4789632
  64.4968121  46.7431505  26.4040099  65.2612239  46.8958354  26.4959338
  60.7526957  50.8958521  18.6682617  59.9438280  50.5725194  18.6215926
  61.2601866  50.1891743  18.6010865  60.7076624  50.7439837  18.6512911
  67.3720164  49.7964395  29.2062741  67.7975236  49.2738817  28.6533166
  67.0077084  50.3945232  28.6851364  67.3806767  49.8074622  29.0471751
  57.0074244  58.0928613  27.9660086  57.3220803  58.9065001  27.9737868
  57.4167657  57.7078831  28.6342246  57.1142342  58.1557315  28.0664178
  63.9598764  53.5098659  25.5363898  64.4309942  54.2238922  25.7053884
  64.2958942  52.9097409  26.0723768  64.0793879  53.5270124  25.6396274
  66.0475748  55.1199973  37.7155971  66.1572714  54.3308533  38.0712718
  66.3766645  55.0305909  36.9130309  66.1128154  54.9905826  37.6498361
  64.5972710  53.3016593  32.2991591  64.0493656  52.6774477  32.0311656
  65.0585739  53.4910865  31.5835670  64.5839919  53.2375644  32.1542022
  63.9500614  35.2056456  29.0903086  63.1446578  35.0954186  29.4070925
  63.8207349  35.3068912  28.2332952  63.8120747  35.2040126  29.0111127
  67.4066574  41.3701948  29.6842783  66.8229563  41.8711154  29.2720351
  67.7270868  40.8631504  29.0507107  67.3679750  41.3693783  29.5301291
  59.9461373  40.2842543  19.9601458  60.7677068  40.4540856  19.7183153
  59.4831024  40.4389804  19.2367756  59.9992536  40.3324276  19.8173102
  64.1631036  54.3067666  28.8300932  64.9829410  54.1630632  29.0917227
  63.8825114  54.9313865  29.3717370  64.2427780  54.3778018  28.9488872
  73.8344372  61.0508169  26.5496739  72.9782267  61.2116667  26.6005856
  73.8812025  60.1800233  26.5701800  73.7143483  60.9458971  26.5602805
  68.2185511  70.5870887  22.3133971  67.4668411  70.2086425  22.0850016
  68.6671523  70.6189320  21.5652781  68.1735178  70.5356494  22.1691473
  77.1438088  67.3194694  36.1557195  77.8504855  66.8246725  36.2844130
  77.3326023  67.7603776  35.4259853  77.2765994  67.3113045  36.0666241
  76.6796193  63.1100213  29.1928391  77.2252153  63.7885299  29.2522360
  76.6213069  62.9687674  28.3329972  76.7512107  63.1892214  29.0740451
  69.7970267  70.5989279  24.5796743  69.8980630  69.7889633  24.8893871
  69.2012013  70.5046225  23.9496422  69.7242806  70.4654307  24.5322982
  62.9935312  66.6209565  24.2049077  62.7585496  65.7877218  24.0981346
  63.1320952  66.9014231  23.3910278  62.9790974  66.5393069  24.0691432
  65.2925399  58.7895296  27.1033384  64.6730431  58.1987943  26.9343399
  65.1909263  59.3806731  26.4697708  65.1863075  58.7899379  26.9838374
  72.3893295  60.5294838  21.4365848  73.0873459  60.7082965  21.9287311
  72.7045627  60.0065177  20.8136237  72.5388632  60.4788610  21.4167858
  65.0194532  62.3347578  29.3476953  64.8953229  62.9210023  29.9826772
  65.6712817  61.8407773  29.6489228  65.0968182  62.3486382  29.4862883
  72.5781230  66.9165283  21.4245639  73.0174866  66.3082383  21.8700412
  72.4285893  66.5372656  20.6531104  72.6202696  66.7703754  21.3764806
  70.0452873  65.5109295  28.6264465  70.6901876  65.0181738  28.3075413
  70.2854650  65.6534081  29.4530543  70.1763458  65.4586737  28.7013998
  72.5838965  68.3564201  28.2771357  72.8662207  67.5615606  28.0558113
  73.3125125  68.8344788  28.2976418  72.7328528  68.3098797  28.2474372
  70.5620158  55.8987235  25.5187122  70.2323488  56.3498378  24.8490821
  69.8865160  55.8203398  26.0660129  70.4130595  55.9538370  25.5010345
  77.7696566  51.8872757  23.7636733  77.4550007  52.5776236  24.1957155
  77.2523508  51.8317540  23.0622234  77.6461037  51.9807646  23.7233682
  64.5552636  71.4995236  25.4805283  64.0720215  72.2245726  25.4564867
  65.3675955  71.7971366  25.5915441  64.6043384  71.6497590  25.4932562
  70.6266790  70.2927417  28.0855097  70.1093732  69.9334832  27.4816405
  71.3241182  69.7689591  28.0961164  70.6532372  70.1625105  27.9985356
  71.8500842  70.0253391  33.0288933  71.2871677  69.6126001  33.5528594
  72.6121866  69.9506297  33.4482076  71.8795291  69.9530792  33.1681933
  68.7676112  53.9599523  21.0010070  69.5222080  54.3277840  20.7627120
  68.5903647  54.3339077  21.7689250  68.8530591  54.0697711  21.0794958
  67.4096834  72.0151412  25.6325563  68.1117413  71.5003401  25.6898319
  67.3294317  72.3425563  26.4372438  67.5020594  71.9865638  25.7598355
  68.4575740  62.2526999  34.7605978  68.6296244  62.1432894  35.6091259
  68.9945098  62.8981405  34.5237170  68.5620744  62.3319001  34.8511075
  67.1233177  56.3669842  17.6988183  66.9408750  56.5841723  16.8729176
  67.9858790  56.4808855  17.7546797  67.2237767  56.4159740  17.5842670
  66.7347609  68.2057764  25.1411171  67.5736508  68.4380697  25.1884932
  66.7659378  67.3362076  25.0718206  66.8629327  68.1114711  25.1375815
  67.3600312  68.6258639  29.4424476  67.8998537  68.4829770  30.1127849
  66.6770258  69.0255390  29.8108503  67.3392466  68.6638310  29.5958898
  72.8032896  53.3696253  20.7337207  73.5319057  53.1912208  20.2875363
  72.8927789  54.2114332  20.9444385  72.9239558  53.4680131  20.6990724
  76.7841197  64.3049640  24.6369501  77.5398712  64.7381154  24.6758409
  76.8903521  63.6554410  25.2104137  76.9111368  64.2727124  24.7267526
  62.7637457  64.8458930  29.5958898  62.4975872  64.0298047  29.7549888
  62.7776021  64.8912086  28.7254413  62.7262179  64.7315835  29.4912380
  66.6695204  59.6444015  16.2110656  65.9553381  59.3582194  16.6233088
  67.1539173  59.9840640  16.8517043  66.6354567  59.6525664  16.3666291
  67.5136064  58.3837308  32.2425906  66.8207860  57.9134288  32.4886637
  68.1296391  58.1575613  32.8167613  67.5020593  58.2804440  32.3635058
  63.1730871  65.6317710  26.8770642  62.9906444  65.6064596  26.0242934
  63.9080540  66.1016647  26.9159551  63.2544935  65.6979072  26.7568561
  66.2376622  62.3502712  33.3852751  66.9616595  62.3355743  33.8717645
  66.3392759  63.0598068  32.8874719  66.3594832  62.4527416  33.3831538
  73.6121572  65.8301797  38.2501698  72.8194553  66.1445309  38.4354317
  73.7270499  66.0453265  37.4122482  73.5116982  65.9085634  38.1540033
  76.2852891  62.5535788  22.5396714  76.3799745  63.2925082  22.9936339
  75.6611734  62.1253264  22.9731278  76.2061921  62.5997109  22.6704861
  74.5405365  65.7322001  33.1886994  75.1144226  65.0949245  33.3435558
  74.4620168  65.7326083  32.3196652  74.6138600  65.6387112  33.0833405
  63.1401781  62.5111210  27.0269709  63.7175284  62.3747661  27.6661954
  62.4415843  62.0546994  27.2815293  63.1222803  62.4233476  27.1591998
  69.8969083  64.1645266  25.2408192  69.6388328  63.3317001  25.2139491
  69.9517566  64.3902879  24.4000692  69.8668861  64.0743037  25.1128329
  74.9770133  56.2673717  25.3412285  74.2726460  55.7782902  25.4996204
  75.0255108  56.2796191  24.4700729  74.8800185  56.1963365  25.2351624
  68.8703795  61.7183028  25.7273087  68.2953387  61.8775197  26.3637048
  68.4939472  61.0818437  25.2641537  68.7306608  61.6480841  25.7527645
  72.5377084  60.1906378  30.5865465  72.1491517  59.7660595  29.9317656
  71.8731782  60.4388527  31.0942492  72.3824012  60.1645099  30.5653333
  58.6160614  61.3623103  23.7417527  58.7020866  60.9854971  24.5231057
  59.2436412  60.9883549  23.2637486  58.7217165  61.2508585  23.7863005
  76.3603446  53.8881006  28.0989449  76.7413957  53.2059177  28.4857323
  75.5566730  53.5990608  27.9165114  76.2979907  53.7448055  28.1293505
  69.5123931  67.8926500  23.9114584  70.1497878  67.6538247  24.4566378
  69.9379002  68.0963659  23.1767745  69.6700097  67.8877510  23.8831741
  64.2036573  70.1314836  27.7948888  64.2440718  70.4029687  26.9668668
  64.7631097  70.6556744  28.2106676  64.2919919  70.2490591  27.7340776
  70.1526746  63.1128789  18.2489473  70.5371898  62.8936496  19.0006019
  69.9038366  63.9391735  18.3790550  70.1728818  63.2026936  18.3790550
  70.3195286  56.3935205  37.9652058  70.0048727  57.1634767  37.7021620
  69.9985219  55.8305461  37.3804285  70.2254205  56.4245473  37.8393408
  71.8945403  68.3698922  25.5908370  71.9684411  68.2074094  26.4450220
  72.7114909  68.5589112  25.3468852  72.0261761  68.3735665  25.6806396
  65.6551159  68.7156785  22.6202814  64.8289277  68.9618522  22.4937093
  65.7163150  68.6368866  23.4864872  65.5425326  68.7401734  22.7291758
  67.8727183  54.7825726  23.5798254  67.0049608  54.8548326  23.6455863
  68.1602387  55.5847805  23.7686229  67.7866931  54.9119873  23.6173021
  76.9960072  54.9303586  31.9109576  77.7413664  54.7413396  31.4973001
  76.5797376  55.4561823  31.3523432  77.0445046  54.9805731  31.7674149
  71.0244733  66.1351411  31.4074974  70.5256427  66.8467179  31.4859863
  71.8344958  66.4552078  31.3693137  71.0700840  66.2878260  31.4131543
  68.3755904  73.3101048  23.3881994  68.1556199  73.0198402  24.1808661
  68.1550426  72.6516003  22.8599906  68.3103498  73.1700756  23.4270902
  67.2872851  65.3974364  25.6537695  66.9986100  64.7711836  26.1883422
  68.1556199  65.3394652  25.7202376  67.3733103  65.2961909  25.7428650
  78.0750749  60.5409148  25.9719677  77.7315515  59.8199483  26.3226927
  78.1743791  60.3322999  25.1298035  78.0392792  60.4033351  25.8991357
  67.4905124  67.0369615  21.5780060  68.2451092  67.4182654  21.7915523
  66.8975737  67.4880759  22.0326757  67.5141838  67.1598443  21.6762939
  69.9511791  58.9932456  36.7037273  69.1411567  59.2990235  36.5927115
  70.4286478  59.7138038  36.8189857  69.9015270  59.1447057  36.7044344
  68.8103351  68.2078177  26.9520176  68.2884105  68.3478468  27.6372040
  69.1977371  67.4488841  27.1422293  68.7907052  68.1163701  27.0821252
  65.7994535  58.2583985  21.0215130  65.5119331  57.8885256  20.2847078
  66.4865003  58.7278841  20.7598835  65.8583432  58.2730955  20.8730206
  70.2369677  65.2382196  22.3501667  70.0412459  65.8456930  21.7561970
  70.4604022  64.5450140  21.8693341  70.2404318  65.2259721  22.1917747
  68.6348207  62.1236934  22.4682535  69.3570859  62.2878092  22.0086341
  68.1556199  62.8446598  22.3621875  68.6711937  62.2535163  22.3848149
  76.5941714  58.4600732  27.8479220  75.7552815  58.4862011  27.6117483
  76.6646082  59.1071468  28.4284567  76.4810108  58.5596858  27.8988337
  66.2855823  64.5295006  31.5736675  66.7976920  64.8079259  30.9245435
  65.9992166  65.2684300  31.9399488  66.3190687  64.6797360  31.5326553
  75.0410993  55.3586109  22.5806836  75.7437345  55.1593858  22.1026794
  74.7755181  54.5862052  22.8875679  75.1057625  55.2149075  22.5552277
  63.3722730  59.0365198  21.8700411  63.4738866  59.8391359  22.1981387
  64.1678616  58.8352534  21.5723492  63.5050635  59.1251097  21.8735767
  69.8039549  56.6221395  31.6337717  69.6122746  56.6376529  32.4837140
  70.6538145  56.8185069  31.6104371  69.9015271  56.6535746  31.7561011
  64.1886462  59.1512376  29.6121533  64.0471954  58.2996317  29.7366041
  64.4727025  59.1941037  28.7883739  64.2094308  59.0312126  29.5089157
  74.3425054  60.9879466  23.7566021  74.0959768  60.9075217  24.5902810
  74.6710177  60.2032934  23.5628549  74.3546298  60.8605732  23.8513544
  76.5751188  63.9959201  33.7975184  76.5699227  63.1239018  33.8017611
  77.2812182  64.1947370  33.3244640  76.6796192  63.8963075  33.7282220
  70.3022081  63.7236185  33.1689004  70.4465457  64.3037393  32.5332114
  70.6497730  64.1012482  33.8738859  70.3749543  63.8656889  33.1787999
  72.4741999  62.9226353  30.9514136  71.7265313  63.1157368  30.5462414
  72.6283524  62.0971573  30.7138257  72.3864426  62.8291465  30.8559542
  69.3749836  71.9138957  30.0350031  69.5239400  71.3541873  29.3823436
  70.1549839  71.9930958  30.4182550  69.5123930  71.8424522  29.9946980
  72.7143776  56.8176904  31.8409540  73.1716390  57.5500878  31.9682332
  72.7900105  56.3943369  32.5996795  72.7934746  56.8634142  31.9710616
  64.9576767  57.0642724  32.9298983  64.4218957  56.4523082  33.2459751
  65.0194532  57.6390860  33.5832650  64.8872400  57.0589651  33.0734410
  77.1871102  49.9966779  25.7103383  77.3054670  50.4543242  24.9770685
  77.0133277  49.1912040  25.4239600  77.1790273  49.9460551  25.5604316
  70.5926154  58.8079008  28.6851364  69.8022228  58.6270468  29.0068699
  70.9886777  58.0305960  28.6681658  70.5343030  58.6666469  28.7303912
  75.9769840  66.4421438  26.4110810  75.3014842  66.2106670  26.9124197
  75.9862216  65.8342621  25.7852915  75.8788345  66.3180363  26.3926962
  73.1063984  61.2839267  33.1674863  73.0423125  62.1449223  33.0394999
  73.2461172  60.9671260  32.3670414  73.1179454  61.3639434  33.0303075
  71.7883078  63.9771406  27.3091065  71.3645327  64.1775905  26.5730084
  71.6127933  63.1300254  27.4215365  71.6993959  63.8820188  27.2164756
  67.0765523  64.4723458  22.7419038  67.2330142  64.4070261  23.5975030
  67.4166116  65.2472010  22.5297718  67.1498758  64.5772656  22.8373632
  73.6144667  63.8481341  21.6112401  74.1560213  63.3451722  22.0751022
  73.9291227  63.7946536  20.8001886  73.7409065  63.7660762  21.5596213
  74.7633937  58.7417646  31.6634702  74.9775906  58.1028560  31.1098056
  74.1467836  59.1863470  31.2342563  74.7039266  58.7127790  31.5185133
  63.6499784  61.6558408  23.0579805  64.0298749  62.0742953  22.3940072
  63.0755149  62.2371864  23.3648649  63.6211109  61.8036267  23.0056546
  76.9273025  60.3506711  32.6018009  76.1149707  60.0432601  32.6831182
  77.3862959  59.8705711  33.1660721  76.8753410  60.2343203  32.6972603
  74.1548666  51.8517582  26.6522045  73.2842223  51.8256303  26.6055354
  74.4089007  51.6794774  25.8347890  74.0642226  51.8227725  26.5242181
  74.0226532  61.7566783  37.3846711  74.4926164  62.3808899  37.7714585
  74.0688413  61.0883758  37.9439926  74.0994408  61.7501463  37.5246783
  71.1797806  53.8623810  28.1095515  70.6636295  53.1704001  28.2347094
  70.6191735  54.5294587  28.0558114  71.0204319  53.8587068  28.1201581
  73.2490039  54.4016770  29.9388367  72.8621793  54.4265802  30.7201897
  72.7622977  53.8358449  29.4862884  73.1202548  54.3212521  29.9876271
  72.9147181  51.2883756  32.2298627  73.5440299  51.8244056  31.9519698
  73.0833044  51.1961114  33.0812193  73.0324976  51.3545118  32.3147155
  72.7161096  56.0754950  34.5025039  73.5434525  55.8040099  34.5583653
  72.7368942  56.8715792  34.8588857  72.8413946  56.1534704  34.5640222
  67.2930586  63.2218813  27.6895300  66.4518592  63.1222687  27.8974193
  67.5020594  63.9914293  28.0409620  67.1995278  63.3210856  27.7722614
  64.7706153  60.8438350  25.5180050  64.3762851  60.9181362  24.7430160
  64.2146270  61.2296296  26.0688412  64.6308965  60.9120125  25.4847710
  76.4071100  53.8219644  25.1983929  76.6120693  53.7541952  26.0440926
  76.0797524  54.6278465  25.1305107  76.3886348  53.9305584  25.3143584
  71.1047251  61.1500212  26.9392897  70.8010388  60.5956200  27.5403305
  70.4026672  61.3292422  26.4520931  70.9563461  61.0944995  26.9562603
  70.1613348  58.4600732  21.5037599  70.4373082  57.7419645  21.0915166
  70.7612017  59.0585652  21.2958705  70.2906612  58.4421103  21.4118360
  69.1665602  68.3649933  31.6464995  69.0585957  68.3751995  32.5127053
  69.3761383  69.1904713  31.4569949  69.1815713  68.4891008  31.7469087
  73.6623868  56.1314249  19.7784194  74.1167615  56.3024810  20.5032039
  74.1363914  55.5182360  19.3781970  73.7992188  56.0665135  19.8257956
  67.1839394  65.6162575  29.1086933  66.5927327  66.2572073  29.0789948
  67.9460417  66.0400193  29.0818232  67.2087654  65.7738414  29.1002080
  67.5800017  56.7764573  29.7754950  68.0401498  56.8503503  30.5130074
  67.6256123  57.5745827  29.4254771  67.6550572  56.9058720  29.8327707
  69.2283366  57.4431268  34.3426977  68.8368931  56.7964615  34.7782755
  69.3969229  58.0342703  34.9621233  69.1954277  57.4345536  34.4989683
  71.0036888  62.8356784  20.8829201  71.7478933  63.2231060  21.1212151
  71.1497585  61.9914209  21.0469689  71.1347473  62.7687257  20.9423171
  72.9216464  54.6307043  25.9161063  72.0752509  54.8029850  25.7902412
  72.9187596  53.8256386  26.2526891  72.7963614  54.5368072  25.9472190
  73.9914764  58.4082257  26.7823121  73.5174718  57.8824019  27.2928431
  74.3632900  57.8611730  26.2137982  73.9764653  58.2498254  26.7738268
  64.3687794  60.4053764  32.1506666  65.2313407  60.3049473  32.0643996
  64.0379577  59.8248473  31.5892238  64.4472991  60.3045390  32.0552072
  75.9198264  59.3018812  19.8448874  75.3921282  59.3847556  19.1554583
  76.3793972  60.0436683  19.8413519  75.9100114  59.4239474  19.7423570
  67.7289580  59.2296213  28.8117085  67.1042650  59.2414605  28.2043037
  67.3935175  59.7056388  29.4608325  67.5875072  59.3014730  28.8173653
  67.9131329  57.5721331  14.8689770  67.5644133  58.2241056  15.3321319
  67.4327775  57.5578444  14.1413641  67.7901573  57.6664385  14.8300861
  64.4415256  67.2896673  30.2520849  63.9115180  66.5989112  30.3015824
  64.7140349  67.2806858  29.4233557  64.4039978  67.1863805  30.1368265
  74.6421501  64.7319917  30.2259220  74.0278495  64.1877968  30.5207856
  75.1588786  64.2184154  29.7465037  74.6277164  64.5756326  30.1983449
  73.8817799  65.8024187  27.9603519  73.4545407  65.1773906  27.5268954
  73.8742743  65.5199109  28.7862526  73.8176940  65.6676968  28.0183347
  66.9980326  60.8389361  31.0291953  67.1573812  60.0832685  31.4343675
  66.8173219  61.3880300  31.6832691  66.9945685  60.8083174  31.1854659
  74.9400629  53.0050596  31.5842742  74.4441190  53.2014270  30.8934309
  75.6969691  53.4043264  31.4131544  74.9787453  53.0928330  31.4562879
  72.2103508  56.6792942  28.1746053  72.2345995  56.1453054  27.4858833
  72.4614982  56.1710251  28.8371644  72.2513427  56.5253846  28.1710698
  59.7211098  63.9624437  27.6089197  59.6154547  63.9171281  26.7441281
  58.9711318  64.3078218  27.8903482  59.5946701  64.0065345  27.5226527
  68.4904831  55.4063760  27.5551797  68.5303202  55.9072967  28.2686505
  67.6654495  55.4974154  27.2857720  68.3744356  55.4945577  27.6202336
  70.6734443  64.9724500  35.6572092  69.8230074  65.1096215  35.7929737
  70.8362571  64.2388278  36.1019794  70.5718307  64.8838601  35.7427691
  69.9119194  61.9224270  29.8525696  69.0811124  62.0898088  29.6460944
  69.8570711  61.5460221  30.6374582  69.7808609  61.8914001  29.9374224
  67.7202977  55.4133163  35.4882107  68.3455681  54.8695296  35.7611539
  67.2653457  54.9328081  34.9189897  67.7451238  55.2622644  35.4443701
  68.2855238  60.1979862  20.3815814  68.4258199  60.6952326  21.0844455
  68.7837771  59.4966156  20.5230028  68.3796319  60.1681840  20.5067393
  68.3155460  61.0646973  17.7108391  68.9500540  61.6607398  17.6457853
  68.3981071  60.7650430  18.5254261  68.4212011  61.1087881  17.8211477
  69.8934443  56.9960948  17.6853833  70.2150284  56.5164031  17.0313095
  70.1561387  57.8060594  17.4944644  69.9800468  57.0450846  17.5609325
  73.1231416  68.0179822  31.2052649  72.6156507  68.5715669  31.6493279
  72.8258062  68.0788112  30.3871423  73.0036301  68.1086134  31.1501106
  75.2893598  56.3833142  30.0477312  75.7148670  55.9305668  29.4360838
  74.6750591  55.8293213  30.3242099  75.2622243  56.2347118  29.9982337
  64.8208448  63.2614813  20.9797937  65.3300677  63.8579321  21.3609242
  65.2942720  62.9940787  20.2974356  64.9651824  63.3100629  20.9352460
  73.7287821  52.8548242  23.4567889  73.0856139  52.7045888  24.0253027
  73.3887228  52.6090587  22.6916994  73.5832898  52.7960364  23.4270904
  78.4815295  57.2663552  25.7888271  78.8342905  56.8393275  26.4634070
  77.6230096  57.1814396  25.9189347  78.4064739  57.1908293  25.9083281
  67.1798980  59.8971072  23.8471117  66.4610969  60.3135205  24.1143981
  67.5511342  60.4625311  23.2962755  67.1290912  60.0420353  23.8053924
  76.4798561  60.5298921  29.7373113  76.4596488  60.3482216  30.5907892
  76.5277761  61.4010939  29.7132697  76.4833202  60.6315459  29.8596408
  74.4244890  67.1186113  35.6621590  74.3840745  66.4735790  35.0766745
  75.2368209  67.0622730  35.9747002  74.5388044  67.0145080  35.6218539
  72.9545554  58.9369072  19.1844497  72.3610393  59.2586068  18.6329064
  72.9920832  58.0910167  18.9765603  72.8719943  58.8593400  19.0727268
  75.8303371  58.8948576  22.6146247  75.6017064  58.9181278  21.7724605
  76.0901447  58.0706043  22.7341258  75.8349559  58.7764656  22.5071445
  70.1122599  60.7483049  32.2171347  69.6001502  60.1404232  32.5756379
  69.9402095  61.4639642  32.6845323  70.0112236  60.7646349  32.3387571
  64.9588314  59.1920625  34.8673709  64.7890904  59.8522000  34.3221916
  64.5154264  59.4027186  35.5886198  64.8687647  59.3206607  34.8935338
  68.8848133  57.4325123  23.9100443  69.3605499  57.7942202  23.2750624
  68.3836733  58.0881590  24.1900585  68.8813492  57.5819311  23.8577184
  73.9891669  58.6707294  34.6573603  74.5463100  58.4421104  34.0252068
  73.6652734  59.4312960  34.3808815  74.0238080  58.7491131  34.5230100
  61.8590378  62.0967490  30.1262199  61.3117098  61.4268136  30.2443067
  62.6482757  61.7297338  30.1905666  61.8942562  61.9432477  30.1530899
  71.7074787  61.7574947  35.6225610  72.4586114  62.0726624  35.9365164
  71.8997363  61.5554118  34.7959532  71.8466201  61.7742329  35.5469006
  70.9274786  59.5766322  17.2773827  71.3073751  59.5945952  16.4924941
  70.1867382  60.0220311  17.1564674  70.8743624  59.6448097  17.1437395
  78.5560077  57.8848514  22.8649405  78.5554303  57.7297170  23.7233682
  78.3516257  58.7311501  22.8090791  78.5259855  57.9869134  22.9837345
  60.6177348  61.3088298  27.2808222  60.4399109  60.8564907  28.0063137
  60.3296370  62.1114459  27.4646699  60.5490301  61.3610856  27.4151725
  76.2800929  62.5646015  26.5185612  76.7754594  61.8469011  26.4789632
  75.4700705  62.2616813  26.4040099  76.2344822  62.4143662  26.4959338
  62.3549818  63.8416022  24.3929981  61.4895337  63.8301712  24.2812752
  62.4548634  63.6546245  25.2401120  62.2423985  63.8122083  24.5018925
  78.3452748  65.3149703  29.2062741  78.7707819  64.7924125  28.6533166
  77.9809668  65.9130540  28.6851364  78.3539350  65.3259930  29.0471751
  67.9806828  73.6113920  27.9660086  68.2953387  74.4250309  27.9737868
  68.3900241  73.2264139  28.6342246  68.0874926  73.6742623  28.0664178
  74.9331347  69.0283967  25.5363898  75.4042525  69.7424230  25.7053884
  75.2691526  68.4282717  26.0723768  75.0526462  69.0455432  25.6396274
  71.8500842  53.8011438  32.4921993  71.9828748  53.0042431  32.8202969
  72.2345995  54.3277841  33.0720269  71.9257171  53.7611355  32.6265496
  75.5705294  68.8201901  32.2991591  75.0226240  68.1959785  32.0311656
  76.0318322  69.0096173  31.5835670  75.5572503  68.7560952  32.1542022
  74.9233197  50.7241764  29.0903086  74.1179161  50.6139494  29.4070925
  74.7939933  50.8254220  28.2332952  74.7853330  50.7225434  29.0111127
  78.3799158  56.8887256  29.6842783  77.7962147  57.3896462  29.2720351
  78.7003452  56.3816812  29.0507107  78.3412333  56.8879091  29.5301291
  70.9193957  55.8027851  19.9601458  71.7409651  55.9726164  19.7183153
  70.4563608  55.9575112  19.2367756  70.9725119  55.8509584  19.8173102
  69.5089289  53.7970613  30.7399887  70.0533702  53.4561740  31.3304229
  69.5626225  54.6556074  30.8821172  69.5978408  53.8725872  30.8481760
  65.3219848  67.5587029  27.6138695  65.9264705  67.5182863  26.9852516
  65.1147160  68.4058181  27.6442751  65.3808745  67.6775031  27.5254811
  60.5571130  66.5421646  27.4837618  60.4595408  65.7317918  27.7927675
  61.3400000  66.5213440  27.0983886  60.6587267  66.4188737  27.4724481
  41.0583456   1.1244438  20.9811317  41.1466801   0.9370579  21.8289528
  41.4873168   0.4781868  20.5816164  41.1345558   1.0007446  21.0483069
  38.6253915   0.4075598  19.9628979  38.0624750  -0.0051792  20.4868641
  39.3874939   0.3328504  20.3822123  38.6548364   0.3352999  20.1021980
  41.1703515   0.5553457  23.6455101  41.9543932   0.6684305  24.0110843
  40.9700109  -0.2705405  23.8413787  41.2569540   0.4500177  23.7289487
  41.3273908   2.4663559  17.2921556  40.5289154   2.2263060  17.5495425
  41.7759920   2.5177952  18.0388604  41.2748519   2.4385951  17.4406481
  36.1502910   2.2961164  16.9690078  36.2992473   1.7364080  16.3163482
  36.9302912   2.3753166  17.3522597  36.2877003   2.2246730  16.9287027
  38.6756210   2.4675807  18.2474569  38.5999881   1.7984618  18.8025357
  38.6046069   3.1693595  18.7615235  38.6536817   2.4720714  18.4051417
  38.0647845   5.8744127  16.7052570  38.5543775   5.1754916  16.5228234
  37.4932077   5.5767997  17.2928627  38.0532375   5.7270350  16.7653610
  35.9418675  -1.2527860  18.5805042  35.8339030  -1.2425798  19.4467100
  36.1514456  -0.4273079  18.3909995  35.9568786  -1.1286785  18.6809133
  43.7181983   1.4494094  13.4759004  43.5201672   1.9384909  12.7815215
  43.0969694   1.6535336  14.0543137  43.5969548   1.5510633  13.4582227
  39.8984489  -1.5997970  18.1392696  39.3909580  -1.0462123  18.5833326
  39.6011135  -1.5389680  17.3211470  39.7789374  -1.5091659  18.0841152
  39.1426974   3.3326588  15.0449703  38.9192629   2.5745417  15.4133729
  38.6536818   3.3624609  14.3230142  39.0370423   3.2248813  14.9926444
  34.7559901   3.9936128  14.9000133  35.0706460   4.8072516  14.9077915
  35.1653314   3.6086347  15.5682292  34.8627999   4.0564830  15.0004225
  43.7961405   1.0207488  24.6496017  43.9058371   0.2316049  25.0052764
  44.1252302   0.9313424  23.8470355  43.8613811   0.8913341  24.5838408
  41.9116693   0.2075181  15.7640979  42.7315067   0.0638147  16.0257274
  41.6310771   0.8321380  16.3057417  41.9913436   0.2785533  15.8828918
  51.5830028   6.9515684  13.4836786  50.7267924   7.1124182  13.5345903
  51.6297682   6.0807748  13.5041847  51.4629140   6.8466486  13.4942852
  45.9671168  16.4878402   9.2474017  45.2154068  16.1093940   9.0190062
  46.4157180  16.5196836   8.4992828  45.9220835  16.4364009   9.1031520
  54.8923745  13.2202210  23.0897242  55.5990512  12.7254241  23.2184176
  55.0811680  13.6611291  22.3599900  55.0251650  13.2120560  23.0006287
  51.4196128  16.9103772   4.6759564  51.0847496  17.5880693   4.2403787
  51.9322998  16.5209083   4.0876436  51.4461709  16.9528350   4.5246356
  50.9600419  18.8618040  10.6170676  51.3439799  19.4304939  10.0775451
  50.8959560  18.1367551  10.1376492  51.0073846  18.8393504  10.4664539
  54.4281849   9.0107728  16.1268437  54.9737809   9.6892815  16.1862407
  54.3698726   8.8695189  15.2670019  54.4997764   9.0899730  16.0080498
  47.5455924  16.4996794  11.5136790  47.6466287  15.6897148  11.8233918
  46.9497669  16.4053741  10.8836468  47.4728463  16.3661822  11.4663028
  56.2046918  10.4392335   7.0002165  56.0886444  11.1900021   7.4294303
  57.0002805  10.1816288   7.2498252  56.3051507  10.5127182   7.1006257
  47.3856664  21.4174383  12.9151646  48.0294119  21.8587547  13.3047804
  47.7112919  20.6127810  12.8281905  47.5288492  21.3639578  12.9597123
  40.7420968  12.5217081  11.1389124  40.5071153  11.6884733  11.0321392
  40.8806609  12.8021746  10.3250325  40.7276631  12.4400584  11.0031479
  43.0411056   4.6902811  14.0373431  42.4216088   4.0995459  13.8683446
  42.9394920   5.2814247  13.4037754  42.9348731   4.6906894  13.9178421
  48.0877244  14.4286358   8.2871508  48.4093085  14.9691566   7.6832816
  48.7349340  13.8583130   8.4193797  48.2303299  14.4245533   8.2178543
  50.1378952   6.4302353   8.3705894  50.8359116   6.6090481   8.8627358
  50.4531284   5.9072693   7.7476284  50.2874289   6.3796125   8.3507905
  42.7680189   8.2355093  16.2817000  42.6438886   8.8217539  16.9166819
  43.4198473   7.7415289  16.5829275  42.8453838   8.2493898  16.4202930
  50.3266887  12.8172798   8.3585686  50.7660522  12.2089899   8.8040459
  50.1771550  12.4380172   7.5871151  50.3688353  12.6711269   8.3104853
  47.7938530  11.4116810  15.5604511  48.4387532  10.9189253  15.2415460
  48.0340307  11.5541597  16.3870590  47.9249115  11.3594252  15.6354045
  50.3324621  14.2571716  15.2111404  50.6147864  13.4623122  14.9898160
  51.0610782  14.7352303  15.2316465  50.4814185  14.2106313  15.1814419
  48.3105815   1.7994750  12.4527169  47.9809145   2.2505893  11.7830868
  47.6350817   1.7210913  13.0000175  48.1616251   1.8545885  12.4350392
  53.9276224  11.1699979   5.3116455  53.8427519  12.0260946   5.4566024
  54.4160607  10.8944304   5.9798614  53.9865121  11.2557301   5.4318537
  54.8594657   7.7884774   6.8114190  54.3306128   8.0044407   7.4711496
  55.3819677   8.4820912   6.7315160  54.8583110   7.9227911   6.8969789
  60.3142710  13.3631078  12.1847235  59.4840413  13.5741722  12.3480651
  60.2651962  12.5368133  11.9089518  60.1849445  13.2720684  12.1684600
  42.3038293  17.4002752  12.4145330  41.8205871  18.1253241  12.3904913
  43.1161611  17.6978882  12.5255487  42.3529041  17.5505105  12.4272609
  48.3752447  16.1934932  15.0195144  47.8579389  15.8342347  14.4156452
  49.0726838  15.6697107  15.0301210  48.4018028  16.0632620  14.9325403
  52.0316039  16.6429746  20.9811317  52.1199385  16.4555887  21.8289528
  52.4605752  15.9967176  20.5816164  52.1078142  16.5192754  21.0483069
  49.5986499  15.9260906  19.9628979  49.0357334  15.5133516  20.4868641
  50.3607522  15.8513812  20.3822123  49.6280948  15.8538307  20.1021980
  45.1582490  17.9158927  12.5665610  45.8603070  17.4010917  12.6238366
  45.0779973  18.2433079  13.3712485  45.2506251  17.8873154  12.6938402
  59.8096668   6.0101479  15.9797656  58.9725089   6.0803666  16.2145250
  59.7784899   6.0125974  15.1071958  59.6814950   6.0211706  15.8857204
  46.2061397   8.1534514  21.6946025  46.3781901   8.0440409  22.5431306
  46.7430754   8.7988920  21.4577217  46.3106401   8.2326516  21.7851121
  44.4833266  14.1065279  12.0751218  45.3222165  14.3388212  12.1224979
  44.5145035  13.2369591  12.0058253  44.6114983  14.0122226  12.0715862
  45.1085969  14.5266155  16.3764523  45.6484194  14.3837286  17.0467895
  44.4255915  14.9262905  16.7448549  45.0878123  14.5645826  16.5298945
  54.5326854  10.2057155  11.5709547  55.2884369  10.6388670  11.6098456
  54.6389178   9.5561925  12.1444184  54.6597024  10.1734639  11.6607573
  57.5707025  14.0330433  12.3211950  57.1342257  14.0367175  13.0770922
  57.2369940  14.7135932  11.8891528  57.4569645  14.1342888  12.3692783
  52.1436098  16.0738765  23.6455101  52.9276515  16.1869613  24.0110843
  51.9432693  15.2479902  23.8413787  52.2302124  15.9685485  23.7289487
  40.5123114  10.7466445  16.5298945  40.2461529   9.9305562  16.6889935
  40.5261678  10.7919601  15.6594460  40.4747836  10.6323350  16.4252427
  52.3006492  17.9848867  17.2921556  51.5021738  17.7448367  17.5495425
  52.7492503  18.0363260  18.0388604  52.2481103  17.9571259  17.4406481
  60.7051371  10.7511352  11.2131588  61.3667805  10.1902021  11.1127496
  60.0642783  10.2563383  11.5384279  60.7080239  10.5947761  11.2463928
  51.5928179  14.0481484   3.5212511  52.0079327  13.7166508   2.8297007
  50.7620108  13.8150386   3.3932648  51.5316188  13.9652740   3.4003358
  40.9216528  11.5325225  13.8110689  40.7392101  11.5072111  12.9582981
  41.6566196  12.0024163  13.8499598  41.0030591  11.5986587  13.6908607
  56.9916202  11.7676735  10.9543576  57.2271791  11.9121934  10.1270427
  57.1405765  12.5319143  11.3475090  57.0482005  11.9015789  10.8907180
  43.9862279   8.2510228  20.3192798  44.7102252   8.2363258  20.8057692
  44.0878416   8.9605583  19.8214766  44.1080488   8.3534931  20.3171584
  58.8206659  10.6078401   8.7913180  59.1514876  11.1406041   8.1853275
  59.3939747  10.6617289   9.4475131  58.9540338  10.6947970   8.7990962
  51.3607229  11.7309312  25.1841745  50.5680209  12.0452824  25.3694364
  51.4756156  11.9460781  24.3462529  51.2602639  11.8093149  25.0880079
  54.0338548   8.4543303   9.4736760  54.1285402   9.1932598   9.9276386
  53.4097391   8.0260779   9.9071325  53.9547578   8.5004624   9.6044908
  52.2891021  11.6329516  20.1227041  52.8629883  10.9956760  20.2775605
  52.2105825  11.6333599  19.2536699  52.3624256  11.5394627  20.0173452
  40.8887438   8.4118726  13.9609756  41.4660941   8.2755176  14.6002001
  40.1901500   7.9554510  14.2155340  40.8708459   8.3240992  14.0932045
  47.6454740  10.0652781  12.1748239  47.3873984   9.2324516  12.1479538
  47.7003223  10.2910394  11.3340739  47.6154518   9.9750552  12.0468375
  46.6189452   7.6190544  12.6613133  46.0439044   7.7782712  13.2977094
  46.2425129   6.9825953  12.1981584  46.4792265   7.5488357  12.6867692
  50.2862741   6.0913893  17.5205512  49.8977174   5.6668111  16.8657703
  49.6217439   6.3396043  18.0282539  50.1309669   6.0652614  17.4993380
  51.3901679  10.3212498   5.7182319  52.2042318  10.6127390   5.6065090
  51.3260820   9.6672360   5.1440612  51.5004418  10.2677692   5.6171156
  57.6111169  13.0038494  20.1311895  57.3749807  12.1726558  20.0123955
  58.2554398  12.9524101  20.7166739  57.6705840  12.8736182  20.1997788
  47.2609587  13.7934015  10.8454631  47.8983534  13.5545763  11.3906424
  47.6864659  13.9971174  10.1107792  47.4185754  13.7885025  10.8171788
  41.9522230  16.0322351  14.7288935  41.9926375  16.3037203  13.9008714
  42.5116754  16.5564260  15.1446723  42.0405576  16.1498107  14.6680823
  48.0680943   2.2942720  24.8992105  47.7534384   3.0642283  24.6361667
  47.7470875   1.7312976  24.3144332  47.9739862   2.3252989  24.7733454
  58.6347590  12.7882942  16.1940189  58.3293407  13.5210999  16.5553505
  57.9153806  12.3820872  15.9132975  58.4834932  12.8364675  16.2053326
  49.6431059  14.2706438  12.5248417  49.7170068  14.1081609  13.3790267
  50.4600566  14.4596627  12.2808899  49.7747418  14.2743180  12.6146443
  64.3349382   9.4275943  15.5208533  64.2673882   9.4471902  14.6511120
  64.3205044  10.2706270  15.7464204  64.3228139   9.5549678  15.4261010
  43.4036816  14.6164300   9.5542861  42.5774934  14.8626038   9.4277139
  43.4648807  14.5376381  10.4204919  43.2910983  14.6409249   9.6631805
  48.1835645  17.2341181   7.2561891  48.4733943  16.8430162   6.5321117
  48.9139126  17.4157886   7.6967166  48.3342529  17.2034994   7.2144698
  62.1207999   8.2020329  13.7955128  62.6715921   7.5688398  14.0352220
  62.1052115   8.7335722  14.4870632  62.1993196   8.1869277  13.9333986
  48.7730390  12.0358927  18.3415021  48.2742084  12.7474694  18.4199910
  49.5830615  12.3559593  18.3033183  48.8186497  12.1885775  18.3471590
  46.1241561  19.2108563  10.3222040  45.9041856  18.9205918  11.1148707
  45.9036083  18.5523518   9.7939953  46.0589155  19.0708271  10.3610949
  45.0358508  11.2981880  12.5877742  44.7471756  10.6719351  13.1223469
  45.9041856  11.2402167  12.6542422  45.1218760  11.1969424  12.6768697
  55.8236406   6.4416663  12.9059724  55.4801172   5.7206998  13.2566974
  55.9229448   6.2330514  12.0638082  55.7878448   6.3040866  12.8331404
  48.2909516  20.5837953   9.1052733  48.9433574  20.0514395   9.3343759
  47.5935125  20.2306605   9.4920607  48.2840234  20.4527476   9.1964900
  45.2390781  12.9377131   8.5120107  45.9936749  13.3190170   8.7255570
  44.6461394  13.3888274   8.9666804  45.2627495  13.0605958   8.6102985
  56.2849435  12.9042367   8.4483712  56.8507467  13.5635577   8.3642255
  55.6377338  13.2492065   8.9200114  56.2728191  13.0524308   8.5056468
  47.6997448   4.8939971  23.6377319  46.8897224   5.1997751  23.5267162
  48.1772135   5.6145553  23.7529903  47.6500927   5.0454572  23.6384390
  46.5589008  14.1085692  13.8860222  46.0369761  14.2485984  14.5712087
  46.9463028  13.3496356  14.0762340  46.5392709  14.0171216  14.0161299
  52.7556013  15.8481151   7.8720791  52.5142689  15.1149012   7.4647856
  52.9357346  16.3968008   7.2187125  52.7463637  15.8203542   7.7151014
  47.9855333  11.1389711   9.2841713  47.7898116  11.7464446   8.6902016
  48.2089679  10.4457655   8.8033387  47.9889974  11.1267237   9.1257794
  46.3833863   8.0244449   9.4022582  47.1056515   8.1885607   8.9426388
  45.9041856   8.7454114   9.2961922  46.4197594   8.1542679   9.3188196
  54.3427371   4.3608248  14.7819267  53.5038472   4.3869527  14.5457530
  54.4131738   5.0078983  15.3624613  54.2295765   4.4604374  14.8328384
  44.0341480  10.4302521  18.5076722  44.5462577  10.7086775  17.8585481
  43.7477823  11.1691815  18.8739535  44.0676343  10.5804875  18.4666600
  58.2184895   9.5676235  12.0680509  58.1318869   9.7231661  12.9215287
  57.7635375  10.2114310  11.6939914  58.1388152   9.6851990  12.1387615
  47.5525206   2.5228910  18.5677763  47.3608403   2.5384044  19.4177187
  48.4023802   2.7192584  18.5444418  47.6500927   2.5543261  18.6901058
  41.9372119   5.0519891  16.5461580  41.7957610   4.2003832  16.6706088
  42.2212682   5.0948552  15.7223786  41.9579965   4.9319641  16.4429204
  52.0910711   6.8886982  10.6906068  51.8445425   6.8082733  11.5242857
  52.4195834   6.1040449  10.4968596  52.1031954   6.7613247  10.7853591
  55.9858760  13.5970341  14.4792849  55.8473119  14.2951387  14.9841592
  55.2058758  13.4418997  14.1229031  55.8501987  13.6770508  14.5019123
  54.3236845   9.8966716  20.7315231  54.3184883   9.0246533  20.7357657
  55.0297839  10.0954885  20.2584687  54.4281849   9.7970590  20.6622266
  48.0507738   9.6243700  20.1029051  48.1951114  10.2044908  19.4672161
  48.3983387  10.0019997  20.8078906  48.1235200   9.7664404  20.1128046
  50.2227656   8.8233869  17.8854183  49.4750970   9.0164883  17.4802461
  50.3769181   7.9979088  17.6478304  50.1350083   8.7298980  17.7899589
  47.1235493  17.8146472  16.9690078  47.2725057  17.2549388  16.3163482
  47.9035495  17.8938474  17.3522597  47.2609587  17.7432038  16.9287027
  49.6488794  17.9861115  18.2474569  49.5732465  17.3169925  18.8025357
  49.5778653  18.6878903  18.7615235  49.6269401  17.9906022  18.4051417
  50.4629433   2.7184419  18.7749586  50.9202047   3.4508394  18.9022379
  50.5385761   2.2950885  19.5336842  50.5420402   2.7641657  18.9050663
  42.7062424   2.9650239  19.8639030  42.1704613   2.3530597  20.1799797
  42.7680189   3.5398375  20.5172697  42.6358056   2.9597167  20.0074457
  50.3059041  16.5062114   9.0798175  51.0708932  16.2371758   8.7580839
  50.2037131  16.0212124   9.7968238  50.4040536  16.3951678   9.1378002
  48.3411810   4.7086523  15.6191410  47.5507885   4.5277983  15.9408746
  48.7372433   3.9313476  15.6021705  48.2828687   4.5673984  15.6643959
  53.7255497  12.3428953  13.3450856  53.0500499  12.1114186  13.8464243
  53.7347873  11.7350136  12.7192961  53.6274001  12.2187879  13.3267009
  50.8549641   7.1846782  20.1014909  50.7908782   8.0456739  19.9735046
  50.9946829   6.8678776  19.3010461  50.8665111   7.2646949  19.9643122
  55.7272231  15.1994086   5.5761034  55.8092069  16.0061072   5.2522485
  56.2121974  15.2190045   6.3001808  55.8109389  15.3214748   5.6347933
  49.5368735   9.8778922  14.2431112  49.1130984  10.0783421  13.5070131
  49.3613590   9.0307770  14.3555412  49.4479615   9.7827703  14.1504802
  49.0380428  21.3929435  16.7052570  49.5276358  20.6940224  16.5228234
  48.4664660  21.0953305  17.2928627  49.0264958  21.2455658  16.7653610
  44.8251180  10.3730973   9.6759085  44.9815799  10.3077776  10.5315077
  45.1651773  11.1479526   9.4637764  44.8984414  10.4780171   9.7713679
  51.3630324   9.7488857   8.5452448  51.9045870   9.2459238   9.0091069
  51.6776883   9.6954051   7.7341933  51.4894721   9.6668278   8.4936260
  55.2347432  13.9591504  25.6579360  56.0482297  13.6876653  25.8184493
  55.0742398  13.6599044  24.8539556  55.3317380  13.8746430  25.5624766
  49.5316774  15.1406208   5.8292476  49.6009594  14.2820747   5.9685476
  50.3105229  15.3578089   5.5011501  49.6569624  15.0459072   5.8009633
  52.5119594   4.6425161  18.5974748  52.7261563   4.0036075  18.0438102
  51.8953493   5.0870985  18.1682610  52.4524923   4.6135305  18.4525180
  53.9224262  17.5643910  10.0428969  53.5304053  17.2610625   9.3251836
  54.0777334  18.4012999   9.8533923  53.8877851  17.6427746   9.9085466
  41.3985441   7.5565924   9.9919852  41.7784406   7.9750469   9.3280119
  40.8240806   8.1379379  10.2988695  41.3696766   7.7043782   9.9396593
  54.6758682   6.2514226  19.5358056  53.8635363   5.9440117  19.6171228
  55.1348616   5.7713227  20.1000768  54.6239066   6.1350719  19.6312650
  54.0863936  14.1293898   9.9835000  53.7278591  14.3008541  10.7599032
  53.6002647  14.5907104   9.4262998  53.9622633  14.2232869  10.0160269
  51.7712189   7.6574298  24.3186758  52.2411820   8.2816414  24.7054632
  51.8174069   6.9891273  24.8779973  51.8480065   7.6508978  24.4586829
  55.2468676  15.0197794  20.9302201  55.8848396  14.5257990  20.5964657
  54.6042767  14.9475195  20.3454428  55.2462902  14.9356803  20.7944556
  56.9725676   6.8686940  15.4968116  56.5453284   6.7813289  14.7416216
  56.3351729   6.9764716  16.0822960  56.8155283   6.8719600  15.4713558
  55.3022932  15.7117603  17.5707558  56.0915310  15.3606667  17.6909639
  55.4766530  16.5253991  17.3084191  55.4443214  15.7803460  17.5495426
  45.0416243   9.1226328  14.6235346  44.2004249   9.0230203  14.8314240
  45.2506251   9.8921809  14.9749667  44.9480935   9.2218372  14.7062661
  42.5191810   6.7445865  12.4520097  42.1248507   6.8188877  11.6770207
  41.9631927   7.1303812  13.0028459  42.3794622   6.8127640  12.4187757
  48.8532908   7.0507728  13.8732944  48.5496045   6.4963716  14.4743352
  48.1512328   7.2299938  13.3860978  48.7049117   6.9952510  13.8902650
  46.9151259  14.2657448  18.5805042  46.8071613  14.2759510  19.4467100
  47.1247040  15.0912229  18.3909995  46.9301370  14.3898523  18.6809133
  44.9325051  11.5170091  16.0426979  44.3412984  12.1579589  16.0129994
  45.6946074  11.9407708  16.0158279  44.9573311  11.6745929  16.0342126
  45.3285673   2.6772088  16.7094997  45.7887155   2.7511018  17.4470121
  45.3741780   3.4753342  16.3594818  45.4036229   2.8066235  16.7667753
  46.9769023   3.3438783  21.2767024  46.5854588   2.6972130  21.7122802
  47.1454886   3.9350219  21.8961279  46.9439933   3.3353051  21.4329730
  61.0515472  11.3475860  17.0404258  61.1098596  11.7962509  17.7864234
  60.4181940  11.7574673  16.6034338  60.9666767  11.4749595  17.0856806
  54.6914567  16.9679402  13.4759004  54.4934255  17.4570217  12.7815215
  54.0702278  17.1720644  14.0543137  54.5702131  17.0695940  13.4582227
  48.7522545   8.7364299   7.8169248  49.4964590   9.1238575   8.0552198
  48.8983241   7.8921724   7.9809736  48.8833130   8.6694772   7.8763218
  51.7400421   4.3089772  13.7163167  51.2660375   3.7831534  14.2268478
  52.1118557   3.7619245  13.1478029  51.7250310   4.1505769  13.7078315
  42.1173451   6.3061279  19.0846713  42.9799064   6.2056988  18.9984043
  41.7865234   5.7255988  18.5232285  42.1958648   6.2052906  18.9892119
  58.0037152   9.3692148  15.1269948  57.7635374   8.5298563  15.1312374
  58.4829159   9.4492315  15.8510721  58.0389335   9.2573548  15.2344750
  60.0042339   6.1493605  13.0799207  59.7652109   6.1089439  12.2419992
  60.1676240   6.9964757  13.2064928  59.9932642   6.2685690  12.9752689
  56.6088369  10.5343555  19.0104252  57.3322568  10.0816081  18.8315272
  56.3438331  10.8148220  18.2276580  56.6769642  10.5094523  18.8682967
  45.4775237   5.1303728  15.7457131  44.8528307   5.1422120  15.1383084
  45.1420832   5.6063903  16.3948372  45.3360729   5.2022245  15.7513700
  42.1900913  13.1904188  17.1860896  41.6600837  12.4996627  17.2355870
  42.4626006  13.1814373  16.3573604  42.1525635  13.0871320  17.0708312
  53.2221003  13.7729891   5.9098578  53.9455202  14.2388003   5.7663151
  52.7821594  13.8403500   5.1596175  53.2636695  13.8513727   5.7783360
  52.3907158  10.6327433  17.1599267  51.7764151  10.0885483  17.4547902
  52.9074443  10.1191669  16.6805083  52.3762821  10.4763842  17.1323496
  51.6303455  11.7031703  14.8943566  51.2031063  11.0781421  14.4609001
  51.6228400  11.4206625  15.7202573  51.5662597  11.5684483  14.9523393
  44.7465983   6.7396876  17.9632000  44.9059469   5.9840200  18.3683722
  44.5658876   7.2887815  18.6172737  44.7431341   6.7090690  18.1194706
  49.9589165   2.5800457  15.1086100  49.9831652   2.0460570  14.4198880
  50.2100639   2.0717766  15.7711690  49.9999084   2.4261361  15.1050744
  37.4696755   9.8631952  14.5429244  37.3640204   9.8178797  13.6781328
  36.7196975  10.2085733  14.8243529  37.3432358   9.9072860  14.4566574
  46.2390487   1.3071276  14.4891844  46.2788859   1.8080482  15.2026552
  45.4140152   1.3981669  14.2197767  46.1230013   1.3953092  14.5542382
  48.4220100  10.8732016  22.5912139  47.5715731  11.0103730  22.7269784
  48.5848228  10.1395794  23.0359840  48.3203964  10.7846117  22.6767738
  47.6604851   7.8231785  16.7865743  46.8296780   7.9905603  16.5800991
  47.6056368   7.4467736  17.5714628  47.5294266   7.7921517  16.8714271
  45.4688634   1.3140678  22.4222154  46.0941337   0.7702811  22.6951586
  45.0139114   0.8335596  21.8529944  45.4936895   1.1630160  22.3783748
  59.0423683   9.4969965  17.5134802  59.6341523  10.1367216  17.5453000
  59.4782677   8.7993002  17.8026869  59.1942114   9.4888316  17.5615634
  50.8717073  13.9187338  18.1392696  50.3642164  14.4723185  18.5833326
  50.5743719  13.9795628  17.3211470  50.7521958  14.0093649  18.0841152
  53.4824853  17.8350595   6.0696639  52.7654163  17.6611458   5.6043877
  54.1331590  17.6003168   5.5372125  53.4726703  17.7746388   5.9225857
  56.0672824   6.7115184   9.8137944  55.3964014   7.2544886   9.6851010
  56.7612574   7.1810039   9.5719639  56.0701692   6.8613455   9.7593472
  50.1159558  18.8511896  15.0449703  49.8925212  18.0930725  15.4133729
  49.6269401  18.8809917  14.3230142  50.0103007  18.7434120  14.9926444
  44.9284637   5.7978587  10.7811164  44.2096626   6.2142720  11.0484028
  45.2996999   6.3632826  10.2302802  44.8776568   5.9427869  10.7393971
  54.2284217   6.4306436  16.6713160  54.2082145   6.2489731  17.5247939
  54.2763418   7.3018455  16.6472743  54.2318858   6.5322974  16.7936455
  52.1730547  13.0193628  22.5961636  52.1326402  12.3743305  22.0106792
  52.9853865  12.9630246  22.9087048  52.2873701  12.9152595  22.5558586
  48.7638015  19.0712354  12.4986787  48.3498413  18.4086484  12.1090629
  49.4485389  19.2190213  11.9782481  48.8036386  18.9953012  12.3643284
  52.1303309  18.2302439  13.2510404  51.7319592  18.3404710  12.4831224
  51.5154528  18.4384506  13.8336964  51.9802198  18.2776007  13.2241703
  53.5789027   4.7956092   9.5486294  53.3502721   4.8188793   8.7064652
  53.8387104   3.9713559   9.6681304  53.5835216   4.6772172   9.4411492
  47.8608256   6.6490565  19.1511394  47.3487159   6.0411748  19.5096425
  47.6887752   7.3647157  19.6185370  47.7597893   6.6653864  19.2727618
  42.7073971   5.0928140  21.8013756  42.5376561   5.7529515  21.2561962
  42.2639921   5.3034701  22.5226245  42.6173304   5.2214122  21.8275385
  46.6333790   3.3332638  10.8440489  47.1091156   3.6949718  10.2090671
  46.1322390   3.9889106  11.1240632  46.6299149   3.4826827  10.7917230
  51.7377326   4.5714809  21.5913650  52.2948756   4.3428619  20.9592115
  51.4138391   5.3320475  21.3148862  51.7723736   4.6498646  21.4570147
  39.6076035   7.9975006  17.0602246  39.0602755   7.3275651  17.1783114
  40.3968413   7.6304853  17.1245713  39.6428219   7.8439992  17.0870946
  49.4560444   7.6582463  22.5565657  50.2071771   7.9734140  22.8705211
  49.6483020   7.4561634  21.7299578  49.5951858   7.6749844  22.4809052
  38.3663005   7.2095813  14.2148269  38.1884766   6.7572422  14.9403184
  38.0782027   8.0121975  14.3986746  38.2975958   7.2618371  14.3491772
  54.0286586   8.4653531  13.4525659  54.5240251   7.7476526  13.4129679
  53.2186361   8.1624328  13.3380146  53.9830479   8.3151177  13.4299385
  49.4745197  12.3151344   5.6022663  48.6656520  11.9918018   5.5555973
  49.9820106  11.6084566   5.5350912  49.4294864  12.1632660   5.5852958
  40.1035474   9.7423537  11.3270028  39.2380994   9.7309228  11.2152799
  40.2034290   9.5553760  12.1741167  39.9909641   9.7129598  11.4358972
  56.0938405  11.2157218  16.1402788  56.5193476  10.6931640  15.5873213
  55.7295324  11.8138056  15.6191411  56.1025007  11.2267445  15.9811797
  45.7292484  19.5121436  14.9000133  46.0439043  20.3257824  14.9077915
  46.1385898  19.1271654  15.5682292  45.8360582  19.5750138  15.0004225
  52.6817004  14.9291483  12.4703945  53.1528182  15.6431745  12.6393930
  53.0177183  14.3290233  13.0063815  52.8012119  14.9462947  12.5736321
  54.7693989  16.5392796  24.6496017  54.8790954  15.7501357  25.0052764
  55.0984885  16.4498732  23.8470355  54.8346394  16.4098649  24.5838408
  53.3190950  14.7209417  19.2331638  52.7711896  14.0967300  18.9651703
  53.7803979  14.9103689  18.5175717  53.3058160  14.6568467  19.0882069
  43.0705505  13.4594544  14.5478742  43.6750362  13.4190378  13.9192562
  42.8632817  14.3065696  14.5782797  43.1294402  13.5782547  14.4594858
  52.8849277  15.7260489  15.7640979  53.7047650  15.5823455  16.0257274
  52.6043354  16.3506688  16.3057417  52.9646020  15.7970841  15.8828918
  38.3056787  12.4429162  14.4177665  38.2081065  11.6325433  14.7267721
  39.0885657  12.4220955  14.0323933  38.4072923  12.3196252  14.4064528
  62.5562612  22.4700992  13.4836786  61.7000507  22.6309490  13.5345903
  62.6030266  21.5993056  13.5041847  62.4361723  22.3651794  13.4942852
  56.9403752  32.0063710   9.2474017  56.1886651  31.6279248   9.0190062
  57.3889763  32.0382144   8.4992828  56.8953418  31.9549317   9.1031520
  65.8656328  28.7387518  23.0897242  66.5723096  28.2439548  23.2184176
  66.0544264  29.1796599  22.3599900  65.9984234  28.7305868  23.0006287
  62.3928711  32.4289079   4.6759564  62.0580080  33.1066001   4.2403787
  62.9055582  32.0394391   4.0876436  62.4194293  32.4713658   4.5246356
  61.9333003  34.3803348  10.6170676  62.3172382  34.9490247  10.0775451
  61.8692144  33.6552858  10.1376492  61.9806430  34.3578812  10.4664539
  65.4014433  24.5293036  16.1268437  65.9470393  25.2078123  16.1862407
  65.3431309  24.3880497  15.2670019  65.4730347  24.6085038  16.0080498
  58.5188508  32.0182102  11.5136790  58.6198871  31.2082456  11.8233918
  57.9230253  31.9239049  10.8836468  58.4461046  31.8847130  11.4663028
  67.1779502  25.9577643   7.0002165  67.0619027  26.7085329   7.4294303
  67.9735388  25.7001596   7.2498252  67.2784091  26.0312490   7.1006257
  58.3589247  36.9359691  12.9151646  59.0026703  37.3772855  13.3047804
  58.6845503  36.1313117  12.8281905  58.5021076  36.8824886  12.9597123
  51.7153552  28.0402389  11.1389124  51.4803736  27.2070041  11.0321392
  51.8539193  28.3207054  10.3250325  51.7009215  27.9585892  11.0031479
  54.0143640  20.2088119  14.0373431  53.3948671  19.6180767  13.8683446
  53.9127503  20.7999555  13.4037754  53.9081315  20.2092202  13.9178421
  59.0609827  29.9471666   8.2871508  59.3825668  30.4876873   7.6832816
  59.7081924  29.3768438   8.4193797  59.2035882  29.9430841   8.2178543
  61.1111535  21.9487661   8.3705894  61.8091700  22.1275789   8.8627358
  61.4263868  21.4258000   7.7476284  61.2606872  21.8981433   8.3507905
  53.7412773  23.7540401  16.2817000  53.6171469  24.3402847  16.9166819
  54.3931057  23.2600597  16.5829275  53.8186422  23.7679205  16.4202930
  61.2999471  28.3358106   8.3585686  61.7393106  27.7275207   8.8040459
  61.1504133  27.9565479   7.5871151  61.3420936  28.1896577   8.3104853
  58.7671114  26.9302118  15.5604511  59.4120116  26.4374561  15.2415460
  59.0072891  27.0726905  16.3870590  58.8981699  26.8779560  15.6354045
  61.3057205  29.7757024  15.2111404  61.5880448  28.9808430  14.9898160
  62.0343365  30.2537611  15.2316465  61.4546769  29.7291621  15.1814419
  59.2838399  17.3180058  12.4527169  58.9541729  17.7691201  11.7830868
  58.6083401  17.2396221  13.0000175  59.1348835  17.3731193  12.4350392
  64.9008807  26.6885287   5.3116455  64.8160102  27.5446254   5.4566024
  65.3893190  26.4129611   5.9798614  64.9597704  26.7742609   5.4318537
  65.8327240  23.3070082   6.8114190  65.3038712  23.5229715   7.4711496
  66.3552260  24.0006220   6.7315160  65.8315693  23.4413218   6.8969789
  71.2875293  28.8816386  12.1847235  70.4572996  29.0927030  12.3480651
  71.2384546  28.0553441  11.9089518  71.1582029  28.7905992  12.1684600
  57.7226848  27.2033298   5.6121658  57.1384063  27.7083330   6.0187522
  57.3196943  26.9775685   4.8718250  57.5766152  27.2441547   5.5626683
  53.2770877  32.9188059  12.4145330  52.7938455  33.6438549  12.3904913
  54.0894195  33.2164190  12.5255487  53.3261624  33.0690413  12.4272609
  59.3485031  31.7120240  15.0195144  58.8311972  31.3527655  14.4156452
  60.0459422  31.1882415  15.0301210  59.3750612  31.5817928  14.9325403
  63.0048623  32.1615054  20.9811317  63.0931969  31.9741195  21.8289528
  63.4338335  31.5152484  20.5816164  63.0810725  32.0378062  21.0483069
  60.5719083  31.4446214  19.9628979  60.0089917  31.0318824  20.4868641
  61.3340106  31.3699120  20.3822123  60.6013531  31.3723615  20.1021980
  57.4894353  15.3792346   7.9350117  58.2440321  15.7470663   7.6967167
  57.3121887  15.7531901   8.7029296  57.5748831  15.4890534   8.0135005
  56.1315074  33.4344235  12.5665610  56.8335653  32.9196224  12.6238366
  56.0512557  33.7618387  13.3712485  56.2238834  33.4058462  12.6938402
  70.7829252  21.5286787  15.9797656  69.9457673  21.5988974  16.2145250
  70.7517482  21.5311282  15.1071958  70.6547534  21.5397014  15.8857204
  57.1793981  23.6719822  21.6946025  57.3514484  23.5625717  22.5431306
  57.7163338  24.3174228  21.4577217  57.2838985  23.7511824  21.7851121
  55.8451417  17.7862665   4.6328230  55.6626991  18.0034546   3.8069222
  56.7077030  17.9001678   4.6886844  55.9456007  17.8352563   4.5182717
  55.4565849  29.6250587  12.0751218  56.2954749  29.8573520  12.1224979
  55.4877619  28.7554899  12.0058253  55.5847567  29.5307534  12.0715862
  56.0818552  30.0451463  16.3764523  56.6216777  29.9022594  17.0467895
  55.3988499  30.4448213  16.7448549  56.0610706  30.0831134  16.5298945
  65.5059437  25.7242463  11.5709547  66.2616952  26.1573978  11.6098456
  65.6121762  25.0747233  12.1444184  65.6329608  25.6919947  11.6607573
  68.5439608  29.5515740  12.3211950  68.1074840  29.5552483  13.0770922
  68.2102524  30.2321239  11.8891528  68.4302228  29.6528196  12.3692783
  63.1168682  31.5924073  23.6455101  63.9009099  31.7054921  24.0110843
  62.9165277  30.7665210  23.8413787  63.2034707  31.4870793  23.7289487
  51.4855697  26.2651753  16.5298945  51.2194113  25.4490870  16.6889935
  51.4994262  26.3104909  15.6594460  51.4480420  26.1508658  16.4252427
  68.4637091  16.5929568  14.5641378  69.1063000  16.6627673  15.1503294
  68.7160112  15.9258791  14.0620920  68.5959223  16.5055917  14.5768658
  55.3913444  21.0636838   3.1450703  54.6771622  20.7775017   3.5573135
  55.8757413  21.4033464   3.7857090  55.3572808  21.0718487   3.3006338
  56.2354304  19.8030132  19.1765952  55.5426101  19.3327111  19.4226684
  56.8514631  19.5768436  19.7507660  56.2238834  19.6997263  19.2975105
  63.2739075  33.5034175  17.2921556  62.4754321  33.2633675  17.5495425
  63.7225087  33.5548568  18.0388604  63.2213687  33.4756567  17.4406481
  71.6783955  26.2696660  11.2131588  72.3400389  25.7087329  11.1127496
  71.0375367  25.7748691  11.5384279  71.6812822  26.1133069  11.2463928
  62.5660762  29.5666792   3.5212511  62.9811911  29.2351816   2.8297007
  61.7352692  29.3335694   3.3932648  62.5048771  29.4838048   3.4003358
  51.8949111  27.0510533  13.8110689  51.7124684  27.0257419  12.9582981
  52.6298780  27.5209471  13.8499598  51.9763175  27.1171895  13.6908607
  67.9648785  27.2862043  10.9543576  68.2004375  27.4307242  10.1270427
  68.1138349  28.0504451  11.3475090  68.0214589  27.4201097  10.8907180
  69.7939242  26.1263709   8.7913180  70.1247459  26.6591349   8.1853275
  70.3672330  26.1802596   9.4475131  69.9272921  26.2133278   8.7990962
  62.3339812  27.2494620  25.1841745  61.5412793  27.5638132  25.3694364
  62.4488739  27.4646089  24.3462529  62.2335223  27.3278457  25.0880079
  65.0071131  23.9728611   9.4736760  65.1017986  24.7117905   9.9276386
  64.3829975  23.5446087   9.9071325  64.9280161  24.0189932   9.6044908
  63.2623605  27.1514824  20.1227041  63.8362467  26.5142068  20.2775605
  63.1838409  27.1518906  19.2536699  63.3356840  27.0579935  20.0173452
  51.8620021  23.9304033  13.9609756  52.4393524  23.7940484  14.6002001
  51.1634083  23.4739818  14.2155340  51.8441043  23.8426300  14.0932045
  58.6187324  25.5838089  12.1748239  58.3606568  24.7509824  12.1479538
  58.6735806  25.8095702  11.3340739  58.5887102  25.4935860  12.0468375
  63.6988374  17.6866540  12.2752331  62.9944701  17.1975725  12.4336251
  63.7473348  17.6989014  11.4040776  63.6018425  17.6156188  12.1691671
  57.5922036  23.1375852  12.6613133  57.0171627  23.2968020  13.2977094
  57.2157712  22.5011261  12.1981584  57.4524848  23.0673665  12.6867692
  61.2595324  21.6099201  17.5205512  60.8709757  21.1853419  16.8657703
  60.5950023  21.8581351  18.0282539  61.1042252  21.5837922  17.4993380
  65.0821686  15.3073830  15.0329496  65.4632198  14.6252001  15.4197370
  64.2784970  15.0183432  14.8505161  65.0198148  15.1640878  15.0633552
  62.3634263  25.8397805   5.7182319  63.1774902  26.1312698   5.6065090
  62.2993404  25.1857668   5.1440612  62.4737002  25.7863000   5.6171156
  68.5843753  28.5223802  20.1311895  68.3482390  27.6911866  20.0123955
  69.2286982  28.4709409  20.7166739  68.6438424  28.3921490  20.1997788
  58.2342171  29.3119323  10.8454631  58.8716118  29.0731070  11.3906424
  58.6597243  29.5156482  10.1107792  58.3918337  29.3070333  10.8171788
  52.9254813  31.5507659  14.7288935  52.9658959  31.8222511  13.9008714
  53.4849337  32.0749568  15.1446723  53.0138159  31.6683414  14.6680823
  58.8744986  24.5321613   5.1829520  59.2590139  24.3129319   5.9346065
  58.6256606  25.3584558   5.3130597  58.8947059  24.6219759   5.3130597
  59.0413526  17.8128028  24.8992105  58.7266967  18.5827591  24.6361667
  58.7203459  17.2498284  24.3144332  58.9472445  17.8438297  24.7733454
  69.6080174  28.3068250  16.1940189  69.3025991  29.0396307  16.5553505
  68.8886389  27.9006180  15.9132975  69.4567516  28.3549983  16.2053326
  60.6163643  29.7891746  12.5248417  60.6902651  29.6266917  13.3790267
  61.4333149  29.9781935  12.2808899  60.7480002  29.7928488  12.6146443
  75.3081966  24.9461251  15.5208533  75.2406466  24.9657210  14.6511120
  75.2937628  25.7891578  15.7464204  75.2960722  25.0734986  15.4261010
  54.3769400  30.1349608   9.5542861  53.5507517  30.3811346   9.4277139
  54.4381391  30.0561689  10.4204919  54.2643567  30.1594557   9.6631805
  56.5945423  16.2018549  10.5138301  55.7267849  16.2741149  10.5795910
  56.8820628  17.0040628  10.7026276  56.5085171  16.3312696  10.5513067
  65.7178312  16.3496409  18.8449623  66.4631904  16.1606219  18.4313048
  65.3015617  16.8754647  18.2863479  65.7663286  16.3998554  18.7014196
  59.1568229  32.7526489   7.2561891  59.4466527  32.3615470   6.5321117
  59.8871709  32.9343194   7.6967166  59.3075113  32.7220302   7.2144698
  73.0940583  23.7205637  13.7955128  73.6448505  23.0873706  14.0352220
  73.0784698  24.2521030  14.4870632  73.1725779  23.7054585  13.9333986
  59.7462974  27.5544235  18.3415021  59.2474667  28.2660002  18.4199910
  60.5563198  27.8744901  18.3033183  59.7919081  27.7071083  18.3471590
  57.0974144  34.7293871  10.3222040  56.8774440  34.4391226  11.1148707
  56.8768666  34.0708826   9.7939953  57.0321738  34.5893579  10.3610949
  56.0091091  26.8167188  12.5877742  55.7204340  26.1904659  13.1223469
  56.8774439  26.7587475  12.6542422  56.0951343  26.7154732  12.6768697
  66.7968989  21.9601971  12.9059724  66.4533755  21.2392306  13.2566974
  66.8962032  21.7515822  12.0638082  66.7611032  21.8226174  12.8331404
  59.2642100  36.1023261   9.1052733  59.9166158  35.5699703   9.3343759
  58.5667709  35.7491913   9.4920607  59.2572818  35.9712784   9.1964900
  56.2123365  28.4562439   8.5120107  56.9669333  28.8375478   8.7255570
  55.6193977  28.9073582   8.9666804  56.2360078  28.5791266   8.6102985
  67.2582018  28.4227675   8.4483712  67.8240051  29.0820885   8.3642255
  66.6109922  28.7677373   8.9200114  67.2460775  28.5709616   8.5056468
  58.6730032  20.4125279  23.6377319  57.8629808  20.7183059  23.5267162
  59.1504719  21.1330861  23.7529903  58.6233511  20.5639880  23.6384390
  57.5321591  29.6271000  13.8860222  57.0102345  29.7671292  14.5712087
  57.9195612  28.8681664  14.0762340  57.5125292  29.5356524  14.0161299
  54.5212775  19.6776809   7.9555177  54.2337571  19.3078079   7.2187124
  55.2083244  20.1471664   7.6938882  54.5801673  19.6923778   7.8070253
  63.7288596  31.3666459   7.8720791  63.4875272  30.6334320   7.4647856
  63.9089929  31.9153316   7.2187125  63.7196220  31.3388850   7.7151014
  58.9587917  26.6575019   9.2841713  58.7630700  27.2649753   8.6902016
  59.1822263  25.9642963   8.8033387  58.9622558  26.6452544   9.1257794
  57.3566447  23.5429757   9.4022582  58.0789099  23.7070915   8.9426388
  56.8774440  24.2639422   9.2961922  57.3930178  23.6727986   9.3188196
  65.3159955  19.8793556  14.7819267  64.4771055  19.9054835  14.5457530
  65.3864322  20.5264291  15.3624613  65.2028348  19.9789682  14.8328384
  55.0074064  25.9487829  18.5076722  55.5195161  26.2272083  17.8585481
  54.7210406  26.6877123  18.8739535  55.0408927  26.0990183  18.4666600
  69.1917478  25.0861542  12.0680509  69.1051453  25.2416968  12.9215287
  68.7367958  25.7299618  11.6939914  69.1120735  25.2037298  12.1387615
  52.0940970  20.4558021   8.8040458  52.1957106  21.2584183   9.1321434
  52.8896857  20.2545357   8.5063539  52.2268876  20.5443920   8.8075814
  58.5257789  18.0414218  18.5677763  58.3340986  18.0569352  19.4177187
  59.3756385  18.2377892  18.5444418  58.6233511  18.0728569  18.6901058
  52.9104702  20.5705199  16.5461580  52.7690194  19.7189140  16.6706088
  53.1945266  20.6133860  15.7223786  52.9312548  20.4504949  16.4429204
  63.0643295  22.4072290  10.6906068  62.8178009  22.3268040  11.5242857
  63.3928418  21.6225757  10.4968596  63.0764538  22.2798555  10.7853591
  66.9591343  29.1155649  14.4792849  66.8205703  29.8136695  14.9841592
  66.1791341  28.9604305  14.1229031  66.8234570  29.1955816  14.5019123
  65.2969428  25.4152024  20.7315231  65.2917467  24.5431841  20.7357657
  66.0030422  25.6140193  20.2584687  65.4014432  25.3155898  20.6622266
  59.0240322  25.1429008  20.1029051  59.1683698  25.7230216  19.4672161
  59.3715970  25.5205305  20.8078906  59.0967783  25.2849712  20.1128046
  61.1960239  24.3419177  17.8854183  60.4483553  24.5350191  17.4802461
  61.3501764  23.5164396  17.6478304  61.1082667  24.2484288  17.7899589
  58.0968077  33.3331780  16.9690078  58.2457641  32.7734696  16.3163482
  58.8768079  33.4123782  17.3522597  58.2342170  33.2617345  16.9287027
  60.6221377  33.5046423  18.2474569  60.5465049  32.8355233  18.8025357
  60.5511237  34.2064211  18.7615235  60.6001984  33.5091330  18.4051417
  61.4362016  18.2369727  18.7749586  61.8934630  18.9693702  18.9022379
  61.5118345  17.8136192  19.5336842  61.5152986  18.2826965  18.9050663
  53.6795007  18.4835547  19.8639030  53.1437197  17.8715905  20.1799797
  53.7412772  19.0583683  20.5172697  53.6090640  18.4782475  20.0074457
  61.2791624  32.0247422   9.0798175  62.0441515  31.7557065   8.7580839
  61.1769714  31.5397432   9.7968238  61.3773120  31.9136986   9.1378002
  59.3144394  20.2271831  15.6191410  58.5240469  20.0463291  15.9408746
  59.7105017  19.4498784  15.6021705  59.2561270  20.0859292  15.6643959
  64.6988080  27.8614261  13.3450856  64.0233082  27.6299494  13.8464243
  64.7080456  27.2535444  12.7192961  64.6006585  27.7373187  13.3267009
  61.8282224  22.7032090  20.1014909  61.7641366  23.5642047  19.9735046
  61.9679412  22.3864083  19.3010461  61.8397694  22.7832257  19.9643122
  66.7004815  30.7179394   5.5761034  66.7824652  31.5246380   5.2522485
  67.1854557  30.7375353   6.3001808  66.7841973  30.8400056   5.6347933
  60.5101318  25.3964230  14.2431112  60.0863567  25.5968729  13.5070131
  60.3346173  24.5493078  14.3555412  60.4212199  25.3013011  14.1504802
  60.0113012  36.9114743  16.7052570  60.5008942  36.2125532  16.5228234
  59.4397244  36.6138613  17.2928627  59.9997542  36.7640966  16.7653610
  55.7983763  25.8916281   9.6759085  55.9548382  25.8263084  10.5315077
  56.1384356  26.6664834   9.4637764  55.8716998  25.9965479   9.7713679
  62.3362908  25.2674165   8.5452448  62.8778453  24.7644546   9.0091069
  62.6509467  25.2139359   7.7341933  62.4627305  25.1853586   8.4936260
  66.2080015  29.4776812  25.6579360  67.0214881  29.2061961  25.8184493
  66.0474982  29.1784352  24.8539556  66.3049964  29.3931738  25.5624766
  60.5049358  30.6591516   5.8292476  60.5742178  29.8006055   5.9685476
  61.2837813  30.8763397   5.5011501  60.6302208  30.5644380   5.8009633
  63.4852177  20.1610469  18.5974748  63.6994147  19.5221383  18.0438102
  62.8686076  20.6056293  18.1682610  63.4257506  20.1320613  18.4525180
  64.8956845  33.0829217  10.0428969  64.5036637  32.7795933   9.3251836
  65.0509917  33.9198307   9.8533923  64.8610435  33.1613054   9.9085466
  52.3718025  23.0751232   9.9919852  52.7516990  23.4935776   9.3280119
  51.7973390  23.6564687  10.2988695  52.3429350  23.2229090   9.9396593
  65.6491265  21.7699534  19.5358056  64.8367947  21.4625425  19.6171228
  66.1081200  21.2898534  20.1000768  65.5971650  21.6536027  19.6312650
  65.0596520  29.6479206   9.9835000  64.7011175  29.8193849  10.7599032
  64.5735231  30.1092412   9.4262998  64.9355217  29.7418177  10.0160269
  62.8766906  13.2710405  13.5862091  62.0060464  13.2449126  13.5395401
  63.1307247  13.0987597  12.7687937  62.7860466  13.2420549  13.4582228
  59.8484885  25.3278372   2.5235234  60.1377410  26.1043254   2.7978809
  59.9356684  24.8167103   3.2249734  59.9039142  25.3670290   2.6677732
  62.7444773  23.1759606  24.3186758  63.2144404  23.8001722  24.7054632
  62.7906653  22.5076581  24.8779973  62.8212649  23.1694286  24.4586829
  59.9016046  15.2816633  15.0435562  59.3854535  14.5896825  15.1687141
  59.3409975  15.9487410  14.9898160  59.7422560  15.2779891  15.0541628
  61.9708280  15.8209593  16.8728414  61.5840033  15.8458625  17.6541944
  61.4841217  15.2551272  16.4202931  61.8420789  15.7405344  16.9216318
  66.2201259  30.5383102  20.9302201  66.8580980  30.0443298  20.5964657
  65.5775351  30.4660503  20.3454428  66.2195486  30.4542111  20.7944556
  67.9458259  22.3872248  15.4968116  67.5185867  22.2998597  14.7416216
  67.3084312  22.4950024  16.0822960  67.7887867  22.3904908  15.4713558
  61.6365422  12.7076579  19.1638674  62.2658540  13.2436879  18.8859745
  61.8051284  12.6153938  20.0152240  61.7543216  12.7737941  19.2487202
  61.4379336  17.4947773  21.4365086  62.2652766  17.2232922  21.4923700
  61.4587182  18.2908615  21.7928904  61.5632187  17.5727528  21.4980269
  66.2755516  31.2302911  17.5707558  67.0647894  30.8791975  17.6909639
  66.4499114  32.0439299  17.3084191  66.4175798  31.2988768  17.5495426
  56.0148826  24.6411636  14.6235346  55.1736833  24.5415510  14.8314240
  56.2238834  25.4107117  14.9749667  55.9213519  24.7403680  14.7062661
  53.4924393  22.2631173  12.4520097  53.0981091  22.3374185  11.6770207
  52.9364510  22.6489120  13.0028459  53.3527206  22.3312948  12.4187757
  65.1289340  15.2412467  12.1323976  65.3338933  15.1734775  12.9780973
  64.8015764  16.0471288  12.0645153  65.1104588  15.3498408  12.2483631
  59.8265491  22.5693035  13.8732944  59.5228629  22.0149024  14.4743352
  59.1244912  22.7485245  13.3860978  59.6781701  22.5137818  13.8902650
  58.8831588  19.8793555   8.4377646  59.1591323  19.1612468   8.0255213
  59.4830258  20.4778475   8.2298752  59.0124853  19.8613926   8.3458407
  57.8883842  29.7842756  18.5805042  57.7804197  29.7944818  19.4467100
  58.0979624  30.6097537  18.3909995  57.9033953  29.9083831  18.6809133
  55.9057634  27.0355399  16.0426979  55.3145567  27.6764897  16.0129994
  56.6678658  27.4593016  16.0158279  55.9305895  27.1931237  16.0342126
  56.3018257  18.1957396  16.7094997  56.7619738  18.2696326  17.4470121
  56.3474364  18.9938650  16.3594818  56.3768812  18.3251543  16.7667753
  57.9501607  18.8624091  21.2767024  57.5587172  18.2157438  21.7122802
  58.1187469  19.4535526  21.8961279  57.9172517  18.8538359  21.4329730
  72.0248056  26.8661168  17.0404258  72.0831179  27.3147817  17.7864234
  71.3914523  27.2759981  16.6034338  71.9399351  26.9934903  17.0856806
  65.6647150  32.4864710  13.4759004  65.4666839  32.9755525  12.7815215
  65.0434861  32.6905952  14.0543137  65.5434715  32.5881248  13.4582227
  59.7255129  24.2549607   7.8169248  60.4697174  24.6423883   8.0552198
  59.8715825  23.4107032   7.9809736  59.8565714  24.1880080   7.8763218
  61.6434704  16.0499866  12.8501109  60.7970749  16.2222674  12.7242459
  61.6405837  15.2449210  13.1866938  61.5181854  15.9560895  12.8812236
  62.7133005  19.8275080  13.7163167  62.2392959  19.3016842  14.2268478
  63.0851140  19.2804553  13.1478029  62.6982894  19.6691077  13.7078315
  53.0906035  21.8246587  19.0846713  53.9531648  21.7242296  18.9984043
  52.7597818  21.2441296  18.5232285  53.1691231  21.7238214  18.9892119
  68.9769735  24.8877456  15.1269948  68.7367958  24.0483871  15.1312374
  69.4561742  24.9677623  15.8510721  69.0121919  24.7758856  15.2344750
  70.9774922  21.6678913  13.0799207  70.7384692  21.6274747  12.2419992
  71.1408823  22.5150065  13.2064928  70.9665226  21.7870998  12.9752689
  67.5820952  26.0528862  19.0104252  68.3055151  25.6001389  18.8315272
  67.3170915  26.3333528  18.2276580  67.6502226  26.0279831  18.8682967
  56.4507821  20.6489036  15.7457131  55.8260891  20.6607428  15.1383084
  56.1153416  21.1249211  16.3948372  56.3093313  20.7207553  15.7513700
  56.6349569  18.9914154   1.8029816  56.2862374  19.6433880   2.2661366
  56.1546015  18.9771268   1.0753688  56.5119813  19.0857208   1.7640908
  53.1633496  28.7089496  17.1860896  52.6333421  28.0181935  17.2355870
  53.4358590  28.6999681  16.3573604  53.1258219  28.6056628  17.0708312
  64.1953587  29.2915198   5.9098578  64.9187786  29.7573311   5.7663151
  63.7554178  29.3588808   5.1596175  64.2369279  29.3699035   5.7783360
  63.3639742  26.1512741  17.1599267  62.7496735  25.6070791  17.4547902
  63.8807027  25.6376977  16.6805083  63.3495404  25.9949150  17.1323496
  62.6036039  27.2217011  14.8943566  62.1763647  26.5966729  14.4609001
  62.5960983  26.9391933  15.7202573  62.5395180  27.0869791  14.9523393
  55.7198566  22.2582184  17.9632000  55.8792053  21.5025508  18.3683722
  55.5391460  22.8073123  18.6172737  55.7163925  22.2275998  18.1194706
  63.6618869  14.4243419  18.5182789  63.1659430  14.6207094  17.8274356
  64.4187931  14.8236088  18.3471591  63.7005694  14.5121153  18.3902926
  60.9321749  18.0985765  15.1086100  60.9564236  17.5645878  14.4198880
  61.1833222  17.5903074  15.7711690  60.9731667  17.9446669  15.1050744
  48.4429338  25.3817260  14.5429244  48.3372788  25.3364105  13.6781328
  47.6929558  25.7271041  14.8243529  48.3164941  25.4258168  14.4566574
  57.2123071  16.8256584  14.4891844  57.2521442  17.3265790  15.2026552
  56.3872736  16.9166977  14.2197767  57.0962597  16.9138400  14.5542382
  59.3952684  26.3917323  22.5912139  58.5448314  26.5289038  22.7269784
  59.5580812  25.6581102  23.0359840  59.2936547  26.3031425  22.6767738
  58.6337434  23.3417093  16.7865743  57.8029364  23.5090911  16.5800991
  58.5788951  22.9653044  17.5714628  58.5026849  23.3106825  16.8714271
  56.4421218  16.8325986  22.4222154  57.0673921  16.2888119  22.6951586
  55.9871697  16.3520904  21.8529944  56.4669478  16.6815468  22.3783748
  57.0073478  21.6172685   7.3155861  57.1476439  22.1145149   8.0184502
  57.5056011  20.9158979   7.4570075  57.1014559  21.5874664   7.4407440
  57.0373700  22.4839796   4.6448438  57.6718780  23.0800221   4.5797899
  57.1199311  22.1843254   5.4594308  57.1430251  22.5280704   4.7551524
  70.0156266  25.0155273  17.5134802  70.6074107  25.6552524  17.5453000
  70.4515261  24.3178310  17.8026869  70.1674697  25.0073624  17.5615634
  58.6152683  18.4153771   4.6193880  58.9368524  17.9356854   3.9653142
  58.8779627  19.2253417   4.4284691  58.7018709  18.4643669   4.4949372
  61.8449656  29.4372646  18.1392696  61.3374747  29.9908493  18.5833326
  61.5476302  29.4980936  17.3211470  61.7254541  29.5278957  18.0841152
  64.0111838  17.8025965  16.9817359  64.4366910  17.3498492  16.3700885
  63.3968831  17.2486036  17.2582146  63.9840484  17.6539942  16.9322384
  53.5426688  24.6807637   7.9137984  54.0518918  25.2772144   8.2949289
  54.0160961  24.4133610   7.2314403  53.6870064  24.7293452   7.8692506
  64.4557436  33.3535903   6.0696639  63.7386746  33.1796766   5.6043877
  65.1064174  33.1188476   5.5372125  64.4459287  33.2931696   5.9225857
  62.4506061  14.2741065  10.3907936  61.8074379  14.1238711  10.9593074
  62.1105468  14.0283410   9.6257040  62.3051139  14.2153188  10.3610951
  67.0405408  22.2300492   9.8137944  66.3696598  22.7730194   9.6851010
  67.7345158  22.6995347   9.5719639  67.0434275  22.3798763   9.7593472
  61.0892141  34.3697204  15.0449703  60.8657796  33.6116033  15.4133729
  60.6001985  34.3995225  14.3230142  60.9835590  34.2619428  14.9926444
  67.2033535  18.6856376  12.7228318  67.5561145  18.2586098  13.3974116
  66.3448337  18.6007219  12.8529394  67.1282980  18.6101116  12.8423328
  55.9017220  21.3163895  10.7811164  55.1829209  21.7328028  11.0484028
  56.2729582  21.8818134  10.2302802  55.8509152  21.4613177  10.7393971
  65.2016801  21.9491744  16.6713160  65.1814728  21.7675039  17.5247939
  65.2496002  22.8203763  16.6472743  65.2051442  22.0508282  16.7936455
  63.1463131  28.5378936  22.5961636  63.1058986  27.8928613  22.0106792
  63.9586449  28.4815553  22.9087048  63.2606284  28.4337903  22.5558586
  59.7370598  34.5897662  12.4986787  59.3230997  33.9271792  12.1090629
  60.4217973  34.7375521  11.9782481  59.7768970  34.5138320  12.3643284
  63.1035892  33.7487747  13.2510404  62.7052176  33.8590018  12.4831224
  62.4887112  33.9569814  13.8336964  62.9534782  33.7961315  13.2241703
  61.6763794  20.3561895   6.1184544  61.0828634  20.6778892   5.5669111
  61.7139072  19.5102991   5.9105650  61.5938184  20.2786223   6.0067315
  64.5521611  20.3141400   9.5486294  64.3235304  20.3374101   8.7064652
  64.8119687  19.4898867   9.6681304  64.5567799  20.1957480   9.4411492
  58.8340839  22.1675873  19.1511394  58.3219743  21.5597056  19.5096425
  58.6620336  22.8832465  19.6185370  58.7330477  22.1839172  19.2727618
  53.6806554  20.6113448  21.8013756  53.5109144  21.2714823  21.2561962
  53.2372504  20.8220009  22.5226245  53.5905888  20.7399430  21.8275385
  57.6066374  18.8517946  10.8440489  58.0823740  19.2135026  10.2090671
  57.1054973  19.5074413  11.1240632  57.6031733  19.0012135  10.7917230
  62.7109910  20.0900117  21.5913650  63.2681340  19.8613927  20.9592115
  62.3870975  20.8505783  21.3148862  62.7456320  20.1683954  21.4570147
  50.5808619  23.5160314  17.0602246  50.0335338  22.8460959  17.1783114
  51.3700997  23.1490161  17.1245713  50.6160802  23.3625300  17.0870946
  60.4293027  23.1767771  22.5565657  61.1804354  23.4919447  22.8705211
  60.6215604  22.9746942  21.7299578  60.5684441  23.1935152  22.4809052
  59.6493027  20.9959146   4.2113873  60.0291992  21.0138775   3.4264988
  58.9085623  21.4413135   4.0904721  59.5961864  21.0640920   4.0777442
  49.3395588  22.7281121  14.2148269  49.1617349  22.2757730  14.9403184
  49.0514610  23.5307283  14.3986746  49.2708541  22.7803679  14.3491772
  65.0019169  23.9838839  13.4525659  65.4972835  23.2661834  13.4129679
  64.1918945  23.6809636  13.3380146  64.9563063  23.8336485  13.4299385
  60.4477781  27.8336652   5.6022663  59.6389104  27.5103326   5.5555973
  60.9552690  27.1269874   5.5350912  60.4027448  27.6817968   5.5852958
  51.0768058  25.2608845  11.3270028  50.2113578  25.2494536  11.2152799
  51.1766874  25.0739068  12.1741167  50.9642225  25.2314906  11.4358972
  67.0670988  26.7342526  16.1402788  67.4926060  26.2116948  15.5873213
  66.7027908  27.3323364  15.6191411  67.0757591  26.7452753  15.9811797
  56.7025068  35.0306744  14.9000133  57.0171627  35.8443132  14.9077915
  57.1118481  34.6456962  15.5682292  56.8093166  35.0935446  15.0004225
  63.6549588  30.4476790  12.4703945  64.1260766  31.1617053  12.6393930
  63.9909766  29.8475541  13.0063815  63.7744703  30.4648255  12.5736321
  65.7426572  32.0578104  24.6496017  65.8523538  31.2686664  25.0052764
  66.0717469  31.9684040  23.8470355  65.8078978  31.9283957  24.5838408
  60.5719083  15.2204261  19.4262040  60.7046988  14.4235254  19.7543016
  60.9564235  15.7470664  20.0060316  60.6475411  15.1804178  19.5605543
  64.2923534  30.2394725  19.2331638  63.7444480  29.6152608  18.9651703
  64.7536563  30.4288997  18.5175717  64.2790743  30.1753775  19.0882069
  63.6451438  12.1434587  16.0243133  62.8397401  12.0332317  16.3410972
  63.5158173  12.2447043  15.1672999  63.5071571  12.1418257  15.9451174
  67.1017398  18.3080079  16.6182830  66.5180387  18.8089286  16.2060398
  67.4221692  17.8009635  15.9847153  67.0630574  18.3071914  16.4641337
  59.6412197  17.2220674   6.8941505  60.4627892  17.3918987   6.6523200
  59.1781848  17.3767935   6.1707803  59.6943360  17.2702407   6.7513149
  58.2307529  15.2163436  17.6739934  58.7751942  14.8754563  18.2644275
  58.2844465  16.0748898  17.8161218  58.3196649  15.2918695  17.7821807
  54.0438088  28.9779852  14.5478742  54.6482945  28.9375686  13.9192562
  53.8365401  29.8251004  14.5782797  54.1026985  29.0967855  14.4594858
  63.8581860  31.2445797  15.7640979  64.6780234  31.1008763  16.0257274
  63.5775938  31.8691996  16.3057417  63.9378604  31.3156149  15.8828918
  49.2789370  27.9614470  14.4177665  49.1813648  27.1510741  14.7267721
  50.0618240  27.9406263  14.0323933  49.3805507  27.8381560  14.4064528
  73.5295195  37.9886300  13.4836786  72.6733091  38.1494798  13.5345903
  73.5762849  37.1178364  13.5041847  73.4094307  37.8837102  13.4942852
  67.9136335  47.5249018   9.2474017  67.1619235  47.1464556   9.0190062
  68.3622347  47.5567452   8.4992828  67.8686002  47.4734625   9.1031520
  76.8388912  44.2572826  23.0897242  77.5455679  43.7624856  23.2184176
  77.0276847  44.6981907  22.3599900  76.9716818  44.2491176  23.0006287
  76.3747016  40.0478344  16.1268437  76.9202977  40.7263431  16.1862407
  76.3163893  39.9065805  15.2670019  76.4462931  40.1270346  16.0080498
  69.4921091  47.5367410  11.5136790  69.5931454  46.7267764  11.8233918
  68.8962837  47.4424356  10.8836468  69.4193630  47.4032438  11.4663028
  69.3321831  52.4544999  12.9151646  69.9759286  52.8958163  13.3047804
  69.6578086  51.6498425  12.8281905  69.4753660  52.4010194  12.9597123
  62.6886136  43.5587697  11.1389124  62.4536320  42.7255349  11.0321392
  62.8271776  43.8392362  10.3250325  62.6741798  43.4771200  11.0031479
  64.9876223  35.7273427  14.0373431  64.3681255  35.1366074  13.8683446
  64.8860087  36.3184862  13.4037754  64.8813899  35.7277510  13.9178421
  72.0844119  37.4672969   8.3705894  72.7824283  37.6461097   8.8627358
  72.3996451  36.9443308   7.7476284  72.2339456  37.4166741   8.3507905
  64.7145356  39.2725709  16.2817000  64.5904053  39.8588154  16.9166819
  65.3663641  38.7785905  16.5829275  64.7919005  39.2864513  16.4202930
  72.2732054  43.8543414   8.3585686  72.7125690  43.2460515   8.8040459
  72.1236717  43.4750787   7.5871151  72.3153520  43.7081885   8.3104853
  69.7403697  42.4487426  15.5604511  70.3852700  41.9559869  15.2415460
  69.9805474  42.5912212  16.3870590  69.8714282  42.3964868  15.6354045
  72.2789788  45.2942332  15.2111404  72.5613031  44.4993737  14.9898160
  73.0075949  45.7722919  15.2316465  72.4279352  45.2476929  15.1814419
  70.2570982  32.8365366  12.4527169  69.9274312  33.2876509  11.7830868
  69.5815984  32.7581529  13.0000175  70.1081419  32.8916501  12.4350392
  64.2503460  48.4373367  12.4145330  63.7671039  49.1623857  12.3904913
  65.0626779  48.7349497  12.5255487  64.2994208  48.5875721  12.4272609
  70.3217614  47.2305548  15.0195144  69.8044556  46.8712963  14.4156452
  71.0192006  46.7067723  15.0301210  70.3483195  47.1003236  14.9325403
  73.9781206  47.6800362  20.9811317  74.0664552  47.4926503  21.8289528
  74.4070919  47.0337792  20.5816164  74.0543309  47.5563370  21.0483069
  71.5451666  46.9631522  19.9628979  70.9822501  46.5504132  20.4868641
  72.3072690  46.8884428  20.3822123  71.5746115  46.8908923  20.1021980
  68.4626936  30.8977654   7.9350117  69.2172904  31.2655971   7.6967167
  68.2854471  31.2717208   8.7029296  68.5481415  31.0075842   8.0135005
  67.1047658  48.9529543  12.5665610  67.8068237  48.4381532  12.6238366
  67.0245141  49.2803695  13.3712485  67.1971418  48.9243770  12.6938402
  68.1526564  39.1905130  21.6946025  68.3247068  39.0811025  22.5431306
  68.6895922  39.8359536  21.4577217  68.2571568  39.2697132  21.7851121
  66.8184001  33.3047973   4.6328230  66.6359574  33.5219854   3.8069222
  67.6809614  33.4186986   4.6886844  66.9188590  33.3537871   4.5182717
  66.4298433  45.1435895  12.0751218  67.2687332  45.3758828  12.1224979
  66.4610202  44.2740207  12.0058253  66.5580151  45.0492842  12.0715862
  67.0551136  45.5636771  16.3764523  67.5949361  45.4207902  17.0467895
  66.3721082  45.9633521  16.7448549  67.0343290  45.6016441  16.5298945
  76.4792021  41.2427771  11.5709547  77.2349536  41.6759285  11.6098456
  76.5854345  40.5932541  12.1444184  76.6062191  41.2105255  11.6607573
  74.0901266  47.1109381  23.6455101  74.8741682  47.2240229  24.0110843
  73.8897860  46.2850518  23.8413787  74.1767291  47.0056101  23.7289487
  62.4588281  41.7837061  16.5298945  62.1926696  40.9676178  16.6889935
  62.4726845  41.8290217  15.6594460  62.4213003  41.6693966  16.4252427
  66.3646028  36.5822146   3.1450703  65.6504205  36.2960325   3.5573135
  66.8489997  36.9218772   3.7857090  66.3305391  36.5903795   3.3006338
  67.2086887  35.3215440  19.1765952  66.5158684  34.8512419  19.4226684
  67.8247215  35.0953744  19.7507660  67.1971417  35.2182571  19.2975105
  74.2471659  49.0219483  17.2921556  73.4486905  48.7818983  17.5495425
  74.6957670  49.0733876  18.0388604  74.1946270  48.9941874  17.4406481
  62.8681695  42.5695841  13.8110689  62.6857268  42.5442727  12.9582981
  63.6031364  43.0394779  13.8499598  62.9495759  42.6357203  13.6908607
  65.9327446  39.2880844  20.3192798  66.6567419  39.2733874  20.8057692
  66.0343583  39.9976199  19.8214766  66.0545655  39.3905547  20.3171584
  73.3072396  42.7679928  25.1841745  72.5145377  43.0823440  25.3694364
  73.4221323  42.9831397  24.3462529  73.2067806  42.8463765  25.0880079
  75.9803715  39.4913919   9.4736760  76.0750569  40.2303213   9.9276386
  75.3562558  39.0631395   9.9071325  75.9012745  39.5375240   9.6044908
  74.2356189  42.6700132  20.1227041  74.8095050  42.0327376  20.2775605
  74.1570992  42.6704214  19.2536699  74.3089423  42.5765243  20.0173452
  62.8352605  39.4489341  13.9609756  63.4126108  39.3125792  14.6002001
  62.1366667  38.9925126  14.2155340  62.8173626  39.3611608  14.0932045
  69.5919907  41.1023397  12.1748239  69.3339152  40.2695132  12.1479538
  69.6468390  41.3281010  11.3340739  69.5619685  41.0121168  12.0468375
  74.6720957  33.2051848  12.2752331  73.9677284  32.7161033  12.4336251
  74.7205932  33.2174322  11.4040776  74.5751009  33.1341496  12.1691671
  68.5654619  38.6561160  12.6613133  67.9904211  38.8153328  13.2977094
  68.1890296  38.0196569  12.1981584  68.4257432  38.5858972  12.6867692
  72.2327908  37.1284509  17.5205512  71.8442341  36.7038727  16.8657703
  71.5682606  37.3766658  18.0282539  72.0774836  37.1023230  17.4993380
  58.3111438  38.3001234  10.6757574  58.3971690  37.9233103  11.4571104
  58.9387236  37.9261680  10.1977532  58.4167989  38.1886716  10.7203051
  76.0554270  30.8259138  15.0329496  76.4364781  30.1437309  15.4197370
  75.2517554  30.5368740  14.8505161  75.9930731  30.6826186  15.0633552
  69.2074755  44.8304631  10.8454631  69.8448701  44.5916378  11.3906424
  69.6329826  45.0341790  10.1107792  69.3650921  44.8255641  10.8171788
  63.8987397  47.0692967  14.7288935  63.9391542  47.3407818  13.9008714
  64.4581921  47.5934875  15.1446723  63.9870743  47.1868722  14.6680823
  69.8477570  40.0506921   5.1829520  70.2322722  39.8314627   5.9346065
  69.5989190  40.8769866   5.3130597  69.8679642  40.1405067   5.3130597
  70.0146110  33.3313336  24.8992105  69.6999551  34.1012899  24.6361667
  69.6936043  32.7683592  24.3144332  69.9205029  33.3623605  24.7733454
  71.5896227  45.3077053  12.5248417  71.6635235  45.1452225  13.3790267
  72.4065733  45.4967243  12.2808899  71.7212585  45.3113796  12.6146443
  65.3501983  45.6534916   9.5542861  64.5240101  45.8996653   9.4277139
  65.4113974  45.5746997  10.4204919  65.2376150  45.6779865   9.6631805
  67.5678007  31.7203857  10.5138301  66.7000432  31.7926457  10.5795910
  67.8553211  32.5225936  10.7026276  67.4817755  31.8498004  10.5513067
  76.6910896  31.8681717  18.8449623  77.4364488  31.6791527  18.4313048
  76.2748200  32.3939955  18.2863479  76.7395870  31.9183862  18.7014196
  70.7195557  43.0729542  18.3415021  70.2207251  43.7845310  18.4199910
  71.5295782  43.3930209  18.3033183  70.7651664  43.2256391  18.3471590
  68.0706728  50.2479179  10.3222040  67.8507023  49.9576534  11.1148707
  67.8501250  49.5894134   9.7939953  68.0054322  50.1078887  10.3610949
  66.9823675  42.3352495  12.5877742  66.6936924  41.7089967  13.1223469
  67.8507023  42.2772783  12.6542422  67.0683927  42.2340040  12.6768697
  77.7701573  37.4787279  12.9059724  77.4266339  36.7577614  13.2566974
  77.8694615  37.2701130  12.0638082  77.7343616  37.3411482  12.8331404
  67.1855948  43.9747747   8.5120107  67.9401916  44.3560786   8.7255570
  66.5926561  44.4258890   8.9666804  67.2092662  44.0976574   8.6102985
  69.6462615  35.9310587  23.6377319  68.8362391  36.2368367  23.5267162
  70.1237302  36.6516169  23.7529903  69.5966094  36.0825188  23.6384390
  68.5054175  45.1456308  13.8860222  67.9834929  45.2856600  14.5712087
  68.8928195  44.3866972  14.0762340  68.4857876  45.0541832  14.0161299
  65.4945359  35.1962117   7.9555177  65.2070155  34.8263387   7.2187124
  66.1815827  35.6656972   7.6938882  65.5534256  35.2109086   7.8070253
  69.9320501  42.1760327   9.2841713  69.7363283  42.7835061   8.6902016
  70.1554846  41.4828271   8.8033387  69.9355142  42.1637852   9.1257794
  68.3299031  39.0615065   9.4022582  69.0521683  39.2256223   8.9426388
  67.8507023  39.7824730   9.2961922  68.3662761  39.1913294   9.3188196
  76.2892538  35.3978864  14.7819267  75.4503639  35.4240142  14.5457530
  76.3596905  36.0449599  15.3624613  76.1760932  35.4974989  14.8328384
  65.9806647  41.4673137  18.5076722  66.4927744  41.7457390  17.8585481
  65.6942990  42.2062431  18.8739535  66.0141510  41.6175491  18.4666600
  63.0673554  35.9743329   8.8040458  63.1689690  36.7769490   9.1321434
  63.8629440  35.7730665   8.5063539  63.2001459  36.0629228   8.8075814
  69.4990373  33.5599526  18.5677763  69.3073570  33.5754660  19.4177187
  70.3488969  33.7563200  18.5444418  69.5966095  33.5913877  18.6901058
  63.8837286  36.0890507  16.5461580  63.7422778  35.2374448  16.6706088
  64.1677849  36.1319168  15.7223786  63.9045132  35.9690257  16.4429204
  74.0375878  37.9257597  10.6906068  73.7910592  37.8453348  11.5242857
  74.3661001  37.1411065  10.4968596  74.0497122  37.7983863  10.7853591
  77.9323927  44.6340957  14.4792849  77.7938286  45.3322003  14.9841592
  77.1523925  44.4789613  14.1229031  77.7967154  44.7141123  14.5019123
  76.2702012  40.9337332  20.7315231  76.2650051  40.0617149  20.7357657
  76.9763006  41.1325501  20.2584687  76.3747016  40.8341206  20.6622266
  69.9972905  40.6614316  20.1029051  70.1416281  41.2415524  19.4672161
  70.3448554  41.0390613  20.8078906  70.0700367  40.8035020  20.1128046
  72.1692823  39.8604484  17.8854183  71.4216137  40.0535499  17.4802461
  72.3234348  39.0349704  17.6478304  72.0815250  39.7669596  17.7899589
  69.0700660  48.8517088  16.9690078  69.2190224  48.2920004  16.3163482
  69.8500662  48.9309090  17.3522597  69.2074754  48.7802653  16.9287027
  71.5953961  49.0231731  18.2474569  71.5197632  48.3540541  18.8025357
  71.5243820  49.7249519  18.7615235  71.5734568  49.0276638  18.4051417
  72.4094600  33.7555035  18.7749586  72.8667214  34.4879009  18.9022379
  72.4850929  33.3321500  19.5336842  72.4885570  33.8012273  18.9050663
  64.6527591  34.0020855  19.8639030  64.1169780  33.3901213  20.1799797
  64.7145356  34.5768991  20.5172697  64.5823224  33.9967783  20.0074457
  70.2876978  35.7457139  15.6191410  69.4973052  35.5648599  15.9408746
  70.6837600  34.9684092  15.6021705  70.2293854  35.6044600  15.6643959
  75.6720664  43.3799569  13.3450856  74.9965666  43.1484801  13.8464243
  75.6813040  42.7720752  12.7192961  75.5739169  43.2558494  13.3267009
  72.8014808  38.2217398  20.1014909  72.7373949  39.0827355  19.9735046
  72.9411996  37.9049391  19.3010461  72.8130278  38.3017565  19.9643122
  71.4833902  40.9149538  14.2431112  71.0596151  41.1154037  13.5070131
  71.3078757  40.0678386  14.3555412  71.3944782  40.8198319  14.1504802
  70.9845595  52.4300051  16.7052570  71.4741526  51.7310840  16.5228234
  70.4129828  52.1323921  17.2928627  70.9730125  52.2826274  16.7653610
  66.7716347  41.4101589   9.6759085  66.9280966  41.3448392  10.5315077
  67.1116940  42.1850142   9.4637764  66.8449582  41.5150787   9.7713679
  73.3095491  40.7859473   8.5452448  73.8511037  40.2829854   9.0091069
  73.6242050  40.7324667   7.7341933  73.4359889  40.7038893   8.4936260
  77.1812599  44.9962120  25.6579360  77.9947464  44.7247269  25.8184493
  77.0207565  44.6969660  24.8539556  77.2782547  44.9117046  25.5624766
  74.4584761  35.6795777  18.5974748  74.6726730  35.0406691  18.0438102
  73.8418660  36.1241601  18.1682610  74.3990090  35.6505921  18.4525180
  63.3450608  38.5936539   9.9919852  63.7249573  39.0121084   9.3280119
  62.7705973  39.1749995  10.2988695  63.3161933  38.7414398   9.9396593
  76.6223849  37.2884842  19.5358056  75.8100531  36.9810733  19.6171228
  77.0813783  36.8083842  20.1000768  76.5704234  37.1721335  19.6312650
  73.8499489  28.7895713  13.5862091  72.9793047  28.7634434  13.5395401
  74.1039831  28.6172905  12.7687937  73.7593050  28.7605856  13.4582228
  73.7177356  38.6944914  24.3186758  74.1876987  39.3187030  24.7054632
  73.7639236  38.0261889  24.8779973  73.7945232  38.6879594  24.4586829
  70.8748630  30.8001941  15.0435562  70.3587119  30.1082133  15.1687141
  70.3142559  31.4672718  14.9898160  70.7155143  30.7965199  15.0541628
  72.9440863  31.3394901  16.8728414  72.5572617  31.3643933  17.6541944
  72.4573801  30.7736580  16.4202931  72.8153372  31.2590652  16.9216318
  77.1933843  46.0568410  20.9302201  77.8313563  45.5628606  20.5964657
  76.5507934  45.9845811  20.3454428  77.1928069  45.9727419  20.7944556
  78.9190843  37.9057556  15.4968116  78.4918451  37.8183905  14.7416216
  78.2816896  38.0135332  16.0822960  78.7620450  37.9090216  15.4713558
  72.6098005  28.2261887  19.1638674  73.2391123  28.7622187  18.8859745
  72.7783868  28.1339246  20.0152240  72.7275800  28.2923249  19.2487202
  72.4111920  33.0133081  21.4365086  73.2385349  32.7418230  21.4923700
  72.4319766  33.8093923  21.7928904  72.5364770  33.0912836  21.4980269
  77.2488099  46.7488218  17.5707558  78.0380478  46.3977283  17.6909639
  77.4231697  47.5624607  17.3084191  77.3908381  46.8174076  17.5495426
  66.9881410  40.1596944  14.6235346  66.1469416  40.0600818  14.8314240
  67.1971418  40.9292424  14.9749667  66.8946102  40.2588988  14.7062661
  64.4656977  37.7816481  12.4520097  64.0713675  37.8559493  11.6770207
  63.9097094  38.1674428  13.0028459  64.3259789  37.8498256  12.4187757
  76.1021924  30.7597775  12.1323976  76.3071517  30.6920083  12.9780973
  75.7748348  31.5656596  12.0645153  76.0837171  30.8683716  12.2483631
  70.7998075  38.0878343  13.8732944  70.4961212  37.5334332  14.4743352
  70.0977495  38.2670553  13.3860978  70.6514285  38.0323126  13.8902650
  69.8564172  35.3978863   8.4377646  70.1323906  34.6797776   8.0255213
  70.4562841  35.9963783   8.2298752  69.9857436  35.3799234   8.3458407
  68.8616426  45.3028064  18.5805042  68.7536781  45.3130126  19.4467100
  69.0712207  46.1282845  18.3909995  68.8766537  45.4269139  18.6809133
  66.8790218  42.5540707  16.0426979  66.2878151  43.1950205  16.0129994
  67.6411241  42.9778324  16.0158279  66.9038478  42.7116545  16.0342126
  67.2750840  33.7142704  16.7094997  67.7352322  33.7881634  17.4470121
  67.3206947  34.5123958  16.3594818  67.3501396  33.8436851  16.7667753
  68.9234190  34.3809399  21.2767024  68.5319755  33.7342746  21.7122802
  69.0920053  34.9720834  21.8961279  68.8905101  34.3723667  21.4329730
  76.6379734  48.0050018  13.4759004  76.4399423  48.4940833  12.7815215
  76.0167445  48.2091260  14.0543137  76.5167298  48.1066556  13.4582227
  70.6987712  39.7734915   7.8169248  71.4429757  40.1609191   8.0552198
  70.8448408  38.9292340   7.9809736  70.8298297  39.7065388   7.8763218
  72.6167288  31.5685174  12.8501109  71.7703333  31.7407982  12.7242459
  72.6138420  30.7634518  13.1866938  72.4914438  31.4746203  12.8812236
  73.6865588  35.3460388  13.7163167  73.2125542  34.8202150  14.2268478
  74.0583724  34.7989861  13.1478029  73.6715477  35.1876385  13.7078315
  64.0638618  37.3431895  19.0846713  64.9264231  37.2427604  18.9984043
  63.7330401  36.7626604  18.5232285  64.1423815  37.2423522  18.9892119
  67.4240404  36.1674344  15.7457131  66.7993474  36.1792736  15.1383084
  67.0885999  36.6434519  16.3948372  67.2825896  36.2392861  15.7513700
  67.6082153  34.5099462   1.8029816  67.2594957  35.1619188   2.2661366
  67.1278599  34.4956575   1.0753688  67.4852397  34.6042516   1.7640908
  64.1366080  44.2274804  17.1860896  63.6066004  43.5367243  17.2355870
  64.4091173  44.2184989  16.3573604  64.0990802  44.1241936  17.0708312
  74.3372325  41.6698049  17.1599267  73.7229318  41.1256099  17.4547902
  74.8539610  41.1562285  16.6805083  74.3227988  41.5134458  17.1323496
  73.5768623  42.7402319  14.8943566  73.1496231  42.1152037  14.4609001
  73.5693567  42.4577241  15.7202573  73.5127764  42.6055099  14.9523393
  66.6931150  37.7767492  17.9632000  66.8524636  37.0210816  18.3683722
  66.5124043  38.3258431  18.6172737  66.6896509  37.7461305  18.1194706
  74.6351453  29.9428727  18.5182789  74.1392014  30.1392402  17.8274356
  75.3920515  30.3421396  18.3471591  74.6738277  30.0306461  18.3902926
  71.9054332  33.6171073  15.1086100  71.9296819  33.0831186  14.4198880
  72.1565806  33.1088382  15.7711690  71.9464251  33.4631977  15.1050744
  59.4161922  40.9002568  14.5429244  59.3105371  40.8549413  13.6781328
  58.6662142  41.2456349  14.8243529  59.2897525  40.9443476  14.4566574
  68.1855654  32.3441891  14.4891844  68.2254026  32.8451098  15.2026552
  67.3605319  32.4352285  14.2197767  68.0695180  32.4323708  14.5542382
  70.3685267  41.9102631  22.5912139  69.5180898  42.0474346  22.7269784
  70.5313395  41.1766410  23.0359840  70.2669131  41.8216733  22.6767738
  69.6070018  38.8602401  16.7865743  68.7761948  39.0276219  16.5800991
  69.5521535  38.4838352  17.5714628  69.4759433  38.8292133  16.8714271
  67.4153801  32.3511294  22.4222154  68.0406505  31.8073427  22.6951586
  66.9604281  31.8706212  21.8529944  67.4402062  32.2000776  22.3783748
  67.9806062  37.1357993   7.3155861  68.1209023  37.6330457   8.0184502
  68.4788594  36.4344287   7.4570075  68.0747143  37.1059972   7.4407440
  68.0106284  38.0025104   4.6448438  68.6451364  38.5985529   4.5797899
  68.0931895  37.7028561   5.4594308  68.1162835  38.0466012   4.7551524
  69.5885267  33.9339079   4.6193880  69.9101108  33.4542162   3.9653142
  69.8512211  34.7438725   4.4284691  69.6751292  33.9828977   4.4949372
  72.8182240  44.9557954  18.1392696  72.3107331  45.5093800  18.5833326
  72.5208886  45.0166243  17.3211470  72.6987125  45.0464265  18.0841152
  74.9844422  33.3211273  16.9817359  75.4099493  32.8683800  16.3700885
  74.3701415  32.7671344  17.2582146  74.9573067  33.1725249  16.9322384
  64.5159272  40.1992945   7.9137984  65.0251501  40.7957452   8.2949289
  64.9893544  39.9318918   7.2314403  64.6602648  40.2478760   7.8692506
  73.4238645  29.7926373  10.3907936  72.7806963  29.6424019  10.9593074
  73.0838052  29.5468718   9.6257040  73.2783722  29.7338495  10.3610951
  78.0137991  37.7485800   9.8137944  77.3429181  38.2915502   9.6851010
  78.7077741  38.2180655   9.5719639  78.0166859  37.8984071   9.7593472
  72.0624725  49.8882512  15.0449703  71.8390379  49.1301341  15.4133729
  71.5734568  49.9180533  14.3230142  71.9568174  49.7804736  14.9926444
  78.1766119  34.2041683  12.7228318  78.5293729  33.7771406  13.3974116
  77.3180920  34.1192527  12.8529394  78.1015563  34.1286424  12.8423328
  66.8749804  36.8349203  10.7811164  66.1561793  37.2513336  11.0484028
  67.2462166  37.4003442  10.2302802  66.8241735  36.9798485  10.7393971
  76.1749384  37.4677052  16.6713160  76.1547312  37.2860347  17.5247939
  76.2228585  38.3389071  16.6472743  76.1784026  37.5693590  16.7936455
  74.1195714  44.0564244  22.5961636  74.0791569  43.4113921  22.0106792
  74.9319033  44.0000861  22.9087048  74.2338868  43.9523211  22.5558586
  70.7103182  50.1082970  12.4986787  70.2963581  49.4457100  12.1090629
  71.3950556  50.2560829  11.9782481  70.7501554  50.0323628  12.3643284
  74.0768476  49.2673055  13.2510404  73.6784759  49.3775326  12.4831224
  73.4619696  49.4755122  13.8336964  73.9267365  49.3146623  13.2241703
  72.6496378  35.8747203   6.1184544  72.0561217  36.1964200   5.5669111
  72.6871656  35.0288298   5.9105650  72.5670767  35.7971531   6.0067315
  75.5254195  35.8326708   9.5486294  75.2967888  35.8559409   8.7064652
  75.7852271  35.0084175   9.6681304  75.5300383  35.7142787   9.4411492
  69.8073423  37.6861181  19.1511394  69.2952326  37.0782364  19.5096425
  69.6352919  38.4017773  19.6185370  69.7063060  37.7024480  19.2727618
  64.6539138  36.1298756  21.8013756  64.4841728  36.7900131  21.2561962
  64.2105088  36.3405317  22.5226245  64.5638471  36.2584738  21.8275385
  68.5798957  34.3703254  10.8440489  69.0556323  34.7320334  10.2090671
  68.0787557  35.0259721  11.1240632  68.5764316  34.5197443  10.7917230
  73.6842493  35.6085425  21.5913650  74.2413924  35.3799235  20.9592115
  73.3603558  36.3691091  21.3148862  73.7188904  35.6869262  21.4570147
  61.5541202  39.0345621  17.0602246  61.0067922  38.3646267  17.1783114
  62.3433580  38.6675469  17.1245713  61.5893386  38.8810608  17.0870946
  71.4025611  38.6953079  22.5565657  72.1536938  39.0104755  22.8705211
  71.5948187  38.4932249  21.7299578  71.5417025  38.7120460  22.4809052
  70.6225610  36.5144454   4.2113873  71.0024575  36.5324083   3.4264988
  69.8818206  36.9598442   4.0904721  70.5694448  36.5826228   4.0777442
  60.3128172  38.2466429  14.2148269  60.1349933  37.7943038  14.9403184
  60.0247194  39.0492591  14.3986746  60.2441125  38.2988987  14.3491772
  75.9751753  39.5024147  13.4525659  76.4705418  38.7847142  13.4129679
  75.1651529  39.1994944  13.3380146  75.9295646  39.3521793  13.4299385
  62.0500642  40.7794153  11.3270028  61.1846161  40.7679843  11.2152799
  62.1499458  40.5924376  12.1741167  61.9374809  40.7500214  11.4358972
  78.0403572  42.2527834  16.1402788  78.4658643  41.7302256  15.5873213
  77.6760492  42.8508672  15.6191411  78.0490174  42.2638061  15.9811797
  67.6757652  50.5492052  14.9000133  67.9904211  51.3628440  14.9077915
  68.0851065  50.1642270  15.5682292  67.7825750  50.6120754  15.0004225
  74.6282171  45.9662098  12.4703945  75.0993349  46.6802361  12.6393930
  74.9642350  45.3660849  13.0063815  74.7477286  45.9833563  12.5736321
  76.7159156  47.5763412  24.6496017  76.8256121  46.7871972  25.0052764
  77.0450052  47.4869348  23.8470355  76.7811562  47.4469265  24.5838408
  75.2656118  45.7580033  19.2331638  74.7177063  45.1337916  18.9651703
  75.7269146  45.9474305  18.5175717  75.2523327  45.6939083  19.0882069
  74.6184021  27.6619895  16.0243133  73.8129985  27.5517625  16.3410972
  74.4890757  27.7632351  15.1672999  74.4804154  27.6603565  15.9451174
  78.0749982  33.8265387  16.6182830  77.4912971  34.3274594  16.2060398
  78.3954276  33.3194943  15.9847153  78.0363157  33.8257222  16.4641337
  70.6144781  32.7405982   6.8941505  71.4360475  32.9104295   6.6523200
  70.1514432  32.8953243   6.1707803  70.6675943  32.7887715   6.7513149
  69.2040113  30.7348744  17.6739934  69.7484526  30.3939871  18.2644275
  69.2577049  31.5934206  17.8161218  69.2929232  30.8104003  17.7821807
  65.0170672  44.4965160  14.5478742  65.6215529  44.4560994  13.9192562
  64.8097984  45.3436312  14.5782797  65.0759569  44.6153163  14.4594858
  74.8314444  46.7631105  15.7640979  75.6512818  46.6194071  16.0257274
  74.5508521  47.3877304  16.3057417  74.9111187  46.8341457  15.8828918
  60.2521954  43.4799778  14.4177665  60.1546232  42.6696049  14.7267721
  61.0350824  43.4591571  14.0323933  60.3538090  43.3566868  14.4064528
  75.6877940  54.7911017  16.2817000  75.5636637  55.3773462  16.9166819
  76.3396224  54.2971213  16.5829275  75.7651589  54.8049821  16.4202930
  73.4320865  57.3022369  16.5298945  73.1659280  56.4861486  16.6889935
  73.4459429  57.3475525  15.6594460  73.3945587  57.1879274  16.4252427
  78.1819471  50.8400748  19.1765952  77.4891268  50.3697727  19.4226684
  78.7979798  50.6139052  19.7507660  78.1704001  50.7367879  19.2975105
  76.9060030  54.8066151  20.3192798  77.6300002  54.7919182  20.8057692
  77.0076166  55.5161507  19.8214766  77.0278239  54.9090855  20.3171584
  76.9539231  56.9858445  18.5076722  77.4660328  57.2642698  17.8585481
  76.6675574  57.7247739  18.8739535  76.9874094  57.1360799  18.4666600
  74.8569869  51.6075815  16.5461580  74.7155361  50.7559756  16.6706088
  75.1410433  51.6504476  15.7223786  74.8777715  51.4875565  16.4429204
  75.6260175  49.5206163  19.8639030  75.0902364  48.9086521  20.1799797
  75.6877939  50.0954299  20.5172697  75.5555807  49.5153091  20.0074457
  78.2483424  49.2328012  16.7094997  78.7084906  49.3066942  17.4470121
  78.2939531  50.0309266  16.3594818  78.3233979  49.3622159  16.7667753
  75.0371202  52.8617203  19.0846713  75.8996815  52.7612912  18.9984043
  74.7062985  52.2811912  18.5232285  75.1156398  52.7608830  18.9892119
  78.3972988  51.6859652  15.7457131  77.7726058  51.6978044  15.1383084
  78.0618583  52.1619827  16.3948372  78.2558480  51.7578169  15.7513700
  77.6663733  53.2952800  17.9632000  77.8257220  52.5396124  18.3683722
  77.4856627  53.8443739  18.6172737  77.6629092  53.2646613  18.1194706
  75.6271721  51.6484064  21.8013756  75.4574312  52.3085439  21.2561962
  75.1837671  51.8590625  22.5226245  75.5371055  51.7770046  21.8275385
  72.5273786  54.5530929  17.0602246  71.9800505  53.8831575  17.1783114
  73.3166164  54.1860777  17.1245713  72.5625970  54.3995916  17.0870946
  71.2860755  53.7651737  14.2148269  71.1082516  53.3128346  14.9403184
  70.9979777  54.5677899  14.3986746  71.2173709  53.8174295  14.3491772
   4.8180487  45.7401679  47.6529075   4.7874491  46.5946316  47.8247345
   5.4161836  45.4396972  48.2115219   4.9017645  45.8218176  47.7603878
   1.3273888  51.0963856  62.0142462   2.0340656  50.6015886  62.1429396
   1.5161824  51.5372937  61.2845120   1.4601794  51.0882206  61.9251507
   0.8631993  46.8869374  55.0513657   1.4087953  47.5654461  55.1107627
   0.8048869  46.7456835  54.1915239   0.9347907  46.9661376  54.9325718
   2.6397062  48.3153981  45.9247385   2.5236587  49.0661667  46.3539523
   3.4352948  48.0577934  46.1743472   2.7401651  48.3888828  46.0251477
   1.9532367  35.6641919  49.6222000   1.6385807  36.3545397  50.0542422
   1.4359308  35.6086701  48.9207500   1.8296837  35.7576807  49.5818949
   1.2944800  45.6646419  45.7359410   0.7656272  45.8806053  46.3956716
   1.8169820  46.3582558  45.6560380   1.2933253  45.7989556  45.8215009
   6.7492853  51.2392724  51.1092455   5.9190556  51.4503368  51.2725871
   6.7002106  50.4129778  50.8334738   6.6199589  51.1482330  51.0929820
   6.2446812  43.8863125  54.9042876   5.4075233  43.9565312  55.1390471
   6.2135042  43.8887619  54.0317178   6.1165094  43.8973352  54.8102424
   0.9676997  48.0818801  50.4954767   1.7234512  48.5150315  50.5343676
   1.0739322  47.4323571  51.0689404   1.0947168  48.0496285  50.5852793
   4.0057168  51.9092078  51.2457170   3.5692400  51.9128821  52.0016142
   3.6720084  52.5897577  50.8136748   3.8919788  52.0104534  51.2938003
   3.9254651  38.9505906  53.4886598   4.5680560  39.0204011  54.0748514
   4.1777672  38.2835129  52.9866140   4.0576783  38.8632255  53.5013878
   7.1401515  48.6272998  50.1376808   7.8017949  48.0663667  50.0372716
   6.4992927  48.1325029  50.4629499   7.1430382  48.4709407  50.1709148
   3.4266345  49.6438381  49.8788796   3.6621935  49.7883580  49.0515647
   3.5755909  50.4080789  50.2720310   3.4832149  49.7777435  49.8152400
   5.2556802  48.4840047  47.7158400   5.5865019  49.0167687  47.1098495
   5.8289890  48.5378934  48.3720351   5.3890481  48.5709615  47.7236182
   6.3636154  43.7250543  49.2198562   6.1072718  42.9130485  49.0296445
   7.2065468  43.7328111  48.9928749   6.4502179  43.6062541  49.1583379
   4.0461313  50.8800139  59.0557115   3.8099950  50.0488204  58.9369175
   4.6904542  50.8285747  59.6411959   4.1055984  50.7497827  59.1243008
   5.0697734  50.6644588  55.1185409   4.7643551  51.3972645  55.4798725
   4.3503949  50.2582518  54.8378195   4.9185076  50.7126321  55.1298546
  10.7699526  47.3037589  54.4453753  10.7024026  47.3233548  53.5756340
  10.7555188  48.1467916  54.6709424  10.7578282  47.4311324  54.3506230
   1.1795872  38.7072747  57.7694843   1.9249464  38.5182557  57.3558268
   0.7633177  39.2330985  57.2108699   1.2280846  38.7574892  57.6259416
   8.5558143  46.0781975  52.7200348   9.1066065  45.4450044  52.9597440
   8.5402258  46.6097368  53.4115852   8.6343339  46.0630923  52.8579206
   2.2586549  44.3178309  51.8304944   1.9151315  43.5968644  52.1812194
   2.3579592  44.1092160  50.9883302   2.2228592  44.1802512  51.7576624
   2.7199578  50.7804013  47.3728932   3.2857611  51.4397223  47.2887475
   2.0727482  51.1253711  47.8445334   2.7078335  50.9285954  47.4301688
   4.6535038  47.4437880  50.9925729   4.5669013  47.5993306  51.8460507
   4.1985518  48.0875956  50.6185134   4.5738295  47.5613635  51.0632835
   2.4208903  51.4731987  53.4038069   2.2823263  52.1713033  53.9086812
   1.6408901  51.3180643  53.0474251   2.2852130  51.5532153  53.4264343
   0.7586988  47.7728362  59.6560451   0.7535027  46.9008179  59.6602877
   1.4647982  47.9716531  59.1829907   0.8631992  47.6732236  59.5867486
   3.9162276  50.8310241  44.1654569   3.5369085  50.0447378  44.1583858
   3.2528522  51.3797098  44.0226213   3.7620751  50.7955065  44.1435365
   1.3706902  33.7735940  51.5688649   1.4890470  34.2312404  50.8355952
   1.1969078  32.9681202  51.2824867   1.3626073  33.7229712  51.4189583
   2.1622375  53.0755732  44.5006254   2.2442212  53.8822718  44.1767705
   2.6472117  53.0951691  45.2247028   2.2459533  53.1976394  44.5593153
   1.6697575  51.8353150  64.5824580   2.4832441  51.5638299  64.7429713
   1.5092542  51.5360690  63.7784776   1.7667524  51.7508076  64.4869986
   1.6818819  52.8959440  59.8547421   2.3198540  52.4019636  59.5209877
   1.0392911  52.8236841  59.2699648   1.6813046  52.8118449  59.7189776
   3.4075819  44.7448586  54.4213336   2.9803427  44.6574935  53.6661436
   2.7701872  44.8526362  55.0068181   3.2505427  44.7481246  54.3958778
   1.7373076  53.5879248  56.4952778   2.5265454  53.2368313  56.6154859
   1.9116674  54.4015637  56.2329411   1.8793358  53.6565106  56.4740646
   3.8440588  38.1520569  50.5371961   3.2314901  38.6390972  50.9225693
   3.9404763  37.4764060  51.0809613   3.7678485  38.1238878  50.6750820
   7.4865616  49.2237506  55.9649478   7.5448739  49.6724155  56.7109454
   6.8532083  49.6336319  55.5279558   7.4016911  49.3511241  56.0102026
   4.4387295  47.2453794  54.0515168   4.1985518  46.4060209  54.0557594
   4.9179302  47.3253961  54.7755941   4.4739479  47.1335194  54.1589970
   6.4392482  44.0255251  52.0044427   6.2002252  43.9851085  51.1665212
   6.6026383  44.8726403  52.1310148   6.4282786  44.1447336  51.8997909
   3.0438512  48.4105200  57.9349472   3.7672711  47.9577727  57.7560492
   2.7788475  48.6909866  57.1521800   3.1119786  48.3856169  57.7928187
   5.4773826  47.3731611  56.4380022   6.0691667  48.0128862  56.4698220
   5.9132821  46.6754648  56.7272089   5.6292257  47.3649962  56.4860854
   2.5022968  44.5876830  48.7383164   1.8314158  45.1306532  48.6096230
   3.1962718  45.0571685  48.4964859   2.5051835  44.7375101  48.6838692
   2.6651095  41.0432713  51.6473538   3.0178705  40.6162436  52.3219336
   1.8065897  40.9583557  51.7774614   2.5900540  40.9677454  51.7668548
   4.0975155  36.1651125  52.5757850   3.5906020  35.4580265  52.5079028
   4.8942589  35.8344314  52.7058927   4.1402394  36.0124277  52.5856845
   6.2995295  50.6816052  45.5598714   6.6828901  51.4307408  45.7896812
   5.5039408  50.9281872  45.3010704   6.2389077  50.8285746  45.5556288
   2.7395877  41.6617675  48.7234672   2.7390104  41.5066331  49.5818948
   2.5352057  42.5080662  48.6676058   2.7095655  41.7638296  48.8422612
   2.5288548  49.0918864  55.0648008   2.9543620  48.5693286  54.5118433
   2.1645468  49.6899702  54.5436631   2.5375151  49.1029091  54.9057018
   2.5634958  40.6656417  55.5428050   1.9797947  41.1665623  55.1305618
   2.8839252  40.1585973  54.9092373   2.5248134  40.6648252  55.3886557
  15.7913071  61.2586987  47.6529075  15.7607075  62.1131624  47.8247345
  16.3894419  60.9582280  48.2115219  15.8750229  61.3403483  47.7603878
   8.9912755  60.3462638  52.4082006   8.1350651  60.5071136  52.4591123
   9.0380409  59.4754702  52.4287067   8.8711867  60.2413440  52.4188072
  12.3006472  66.6149164  62.0142462  13.0073239  66.1201194  62.1429396
  12.4894407  67.0558245  61.2845120  12.4334378  66.6067514  61.9251507
  11.8364576  62.4054682  55.0513657  12.3820537  63.0839768  55.1107627
  11.7781453  62.2642143  54.1915239  11.9080491  62.4846684  54.9325718
  13.6129645  63.8339289  45.9247385  13.4969171  64.5846975  46.3539523
  14.4085532  63.5763242  46.1743472  13.7134235  63.9074136  46.0251477
   5.4959971  67.8233312  47.2116728   5.8175812  68.3638519  46.6078036
   6.1432067  67.2530083  47.3439017   5.6386026  67.8192487  47.1423763
   7.5461679  59.8249307  47.2951114   8.2441843  60.0037434  47.7872578
   7.8614011  59.3019646  46.6721504   7.6957016  59.7743079  47.2753125
   7.7349614  66.2119752  47.2830906   8.1743250  65.6036852  47.7285679
   7.5854277  65.8327125  46.5116371   7.7771080  66.0658223  47.2350073
   5.2021257  64.8063764  54.4849731   5.8470260  64.3136207  54.1660680
   5.4423034  64.9488550  55.3115810   5.3331842  64.7541206  54.5599265
   7.7407348  67.6518670  54.1356624   8.0230591  66.8570075  53.9143380
   8.4693509  68.1299257  54.1561685   7.8896912  67.6053267  54.1059639
   5.7188542  55.1941704  51.3772389   5.3891872  55.6452847  50.7076088
   5.0433544  55.1157867  51.9245395   5.5698979  55.2492839  51.3595612
  11.3358951  64.5646933  44.2361675  11.2510246  65.4207900  44.3811244
  11.8243334  64.2891257  44.9043834  11.3947848  64.6504255  44.3563757
  12.9264950  51.1827226  49.6222000  12.6118391  51.8730705  50.0542422
  12.4091892  51.1272009  48.9207500  12.8029421  51.2762115  49.5818949
  12.2677384  61.1831727  45.7359410  11.7388855  61.3991361  46.3956716
  12.7902404  61.8767866  45.6560380  12.2665837  61.3174864  45.8215009
  17.7225437  66.7578032  51.1092455  16.8923140  66.9688676  51.2725871
  17.6734689  65.9315086  50.8334738  17.5932172  66.6667638  51.0929820
   4.1576992  65.0794944  44.5366878   3.5734207  65.5844976  44.9432742
   3.7547087  64.8537331  43.7963470   4.0116296  65.1203192  44.4871903
   9.4398766  70.0376700  59.9056537   9.5282112  69.8502840  60.7534748
   9.8688479  69.3914130  59.5061384   9.5160869  69.9139708  59.9728289
   8.6154206  61.3260596  43.0135799   8.8550210  61.5338580  42.2011142
   8.9370047  60.5218105  43.1224743   8.6991364  61.2374697  42.9096352
   3.9244496  53.2553992  46.8595337   4.6790464  53.6232309  46.6212387
   3.7472031  53.6293546  47.6274516   4.0098975  53.3652180  46.9380225
  17.2179395  59.4048433  54.9042876  16.3807816  59.4750620  55.1390471
  17.1867626  59.4072927  54.0317178  17.0897678  59.4158660  54.8102424
   3.6144124  61.5481468  60.6191245   3.7864628  61.4387363  61.4676526
   4.1513482  62.1935874  60.3822437   3.7189128  61.6273470  60.7096341
   2.2801561  55.6624311  43.5573450   2.0977134  55.8796192  42.7314442
   3.1427174  55.7763324  43.6132064   2.3806150  55.7114209  43.4427937
   1.8915993  67.5012233  50.9996438   2.7304892  67.7335166  51.0470199
   1.9227762  66.6316545  50.9303473   2.0197711  67.4069180  50.9961082
   7.9601280  52.6650722  46.5922474   8.6887441  52.4866677  46.1460630
   8.0496173  53.5068801  46.8029652   8.0807942  52.7634600  46.5575991
  11.9409581  63.6004109  50.4954767  12.6967096  64.0335623  50.5343676
  12.0471905  62.9508879  51.0689404  12.0679751  63.5681593  50.5852793
  14.9789752  67.4277386  51.2457170  14.5424984  67.4314129  52.0016142
  14.6452667  68.1082885  50.8136748  14.8652372  67.5289842  51.2938003
  14.8987235  54.4691214  53.4886598  15.5413143  54.5389319  54.0748514
  15.1510256  53.8020437  52.9866140  15.0309367  54.3817563  53.5013878
   1.8263588  58.9398484  42.0695923   1.1121765  58.6536663  42.4818355
   2.3107557  59.2795109  42.7102310   1.7922951  58.9480133  42.2251558
   2.6704447  57.6791777  58.1011172   1.9776244  57.2088757  58.3471904
   3.2864775  57.4530082  58.6752880   2.6588977  57.5758909  58.2220325
  18.1134098  64.1458306  50.1376808  18.7750532  63.5848975  50.0372716
  17.4725510  63.6510337  50.4629499  18.1162966  63.9894715  50.1709148
   9.0010906  67.4428438  42.4457731   9.4162054  67.1113461  41.7542227
   8.1702836  67.2097340  42.3177868   8.9398915  67.3599694  42.3248578
  14.3998929  65.1623689  49.8788796  14.6354518  65.3068887  49.0515647
  14.5488493  65.9266097  50.2720310  14.4564732  65.2962743  49.8152400
   1.3945006  61.6457181  59.2438018   2.1184979  61.6310212  59.7302912
   1.4961143  62.3552537  58.7459986   1.5163215  61.7481885  59.2416804
  16.2289386  64.0025354  47.7158400  16.5597603  64.5352995  47.1098495
  16.8022474  64.0564242  48.3720351  16.3623065  64.0894923  47.7236182
  11.4421275  61.8490257  48.3981980  11.5368129  62.5879551  48.8521606
  10.8180118  61.4207733  48.8316545  11.3630305  61.8951578  48.5290128
   9.6973749  65.0276470  59.0472261  10.2712610  64.3903714  59.2020825
   9.6188552  65.0280552  58.1781919   9.7706983  64.9341581  58.9418672
  11.6944296  63.6938997  41.6318932  11.6124459  63.7641184  42.4973919
  12.3324017  64.2568741  41.4402673  11.7764133  63.7877968  41.7308882
   5.0537467  63.4599735  51.0993459   4.7956712  62.6271470  51.0724758
   5.1085950  63.6857348  50.2585959   5.0237245  63.3697506  50.9713595
  10.1338517  55.5628186  51.1997551   9.4294844  55.0737371  51.3581471
  10.1823492  55.5750660  50.3285996  10.0368569  55.4917834  51.0936891
   4.0272179  61.0137497  51.5858353   3.4521771  61.1729666  52.2222314
   3.6507856  60.3772907  51.1226804   3.8874992  60.9435310  51.6112912
   7.6945468  59.4860847  56.4450732   7.3059901  59.0615064  55.7902923
   7.0300166  59.7342996  56.9527759   7.5392396  59.4599568  56.4238600
  17.3368737  59.2435851  49.2198562  17.0805302  58.4315793  49.0296445
  18.1798051  59.2513419  48.9928749  17.4234763  59.1247849  49.1583379
  11.5171830  53.1835475  53.9574716  11.8982341  52.5013647  54.3442590
  10.7135114  52.8945078  53.7750381  11.4548291  53.0402524  53.9878772
   8.7984406  63.7159451  44.6427539   9.6125045  64.0074344  44.5310310
   8.7343548  63.0619314  44.0685832   8.9087145  63.6624646  44.5416376
  15.0193896  66.3985447  59.0557115  14.7832534  65.5673512  58.9369175
  15.6637125  66.3471055  59.6411959  15.0788567  66.2683135  59.1243008
   4.6692315  67.1880969  49.7699851   5.3066261  66.9492716  50.3151644
   5.0947386  67.3918128  49.0353012   4.8268481  67.1831979  49.7417008
   5.3095130  62.4083259  44.1074740   5.6940282  62.1890965  44.8591285
   5.0606750  63.2346204  44.2375817   5.3297202  62.4981405  44.2375817
  16.0430317  66.1829896  55.1185409  15.7376134  66.9157953  55.4798725
  15.3236533  65.7767826  54.8378195  15.8917659  66.2311629  55.1298546
   7.0513787  67.6653391  51.4493637   7.1252795  67.5028563  52.3035487
   7.8683293  67.8543581  51.2054119   7.1830145  67.6690134  51.5391663
  21.7432109  62.8222897  54.4453753  21.6756610  62.8418856  53.5756340
  21.7287772  63.6653224  54.6709424  21.7310866  62.9496632  54.3506230
   3.0295567  54.0780195  49.4383521   2.1617992  54.1502795  49.5041130
   3.3170771  54.8802274  49.6271496   2.9435315  54.2074342  49.4758287
  12.1528456  54.2258055  57.7694843  12.8982048  54.0367865  57.3558268
  11.7365760  54.7516293  57.2108699  12.2013430  54.2760200  57.6259416
  19.5290727  61.5967283  52.7200348  20.0798648  60.9635352  52.9597440
  19.5134842  62.1282676  53.4115852  19.6075923  61.5816231  52.8579206
   6.1813117  65.4305880  57.2660241   5.6824811  66.1421648  57.3445130
   6.9913342  65.7506547  57.2278404   6.2269224  65.5832729  57.2716810
   2.4441235  64.6928833  51.5122962   2.1554484  64.0666305  52.0468689
   3.3124583  64.6349121  51.5787642   2.5301487  64.5916378  51.6013917
  13.2319133  59.8363617  51.8304944  12.8883899  59.1153952  52.1812194
  13.3312175  59.6277468  50.9883302  13.1961176  59.6987820  51.7576624
   2.6473508  66.3324084  47.4365327   3.4019476  66.7137123  47.6500790
   2.0544121  66.7835228  47.8912024   2.6710222  66.4552912  47.5348205
  13.6932162  66.2989321  47.3728932  14.2590195  66.9582531  47.2887475
  13.0460065  66.6439019  47.8445334  13.6810918  66.4471262  47.4301688
   3.9671735  67.5032646  52.8105442   3.4452489  67.6432937  53.4957307
   4.3545755  66.7443310  53.0007560   3.9475436  67.4118170  52.9406519
  10.1638740  69.2428105  46.7966011   9.9225416  68.5095966  46.3893076
  10.3440073  69.7914962  46.1432345  10.1546364  69.2150496  46.6396234
   5.3938061  64.5336665  48.2086934   5.1980843  65.1411399  47.6147236
   5.6172406  63.8404609  47.7278607   5.3972702  64.5214190  48.0503014
   3.7916591  61.4191403  48.3267802   4.5139243  61.5832561  47.8671608
   3.3124583  62.1401068  48.2207142   3.8280321  61.5489632  48.2433416
  11.7510098  57.7555201  53.7064487  10.9121199  57.7816480  53.4702750
  11.8214465  58.4025937  54.2869833  11.6378492  57.8551327  53.7573604
  10.1979376  54.6540579  48.4392103  10.9005729  54.4548327  47.9612061
   9.9323565  53.8816521  48.7460946  10.2626009  54.5103545  48.4137544
  15.6267622  62.9623188  50.9925729  15.5401597  63.1178614  51.8460507
  15.1718102  63.6061264  50.6185134  15.5470879  63.0798943  51.0632835
   4.9607933  55.9175864  57.4922983   4.7691130  55.9330998  58.3422407
   5.8106529  56.1139538  57.4689638   5.0583655  55.9490215  57.6146278
   9.4993438  60.2833935  49.6151288   9.2528152  60.2029686  50.4488077
   9.8278561  59.4987403  49.4213816   9.5114682  60.1560201  49.7098811
  13.3941487  66.9917295  53.4038069  13.2555846  67.6898341  53.9086812
  12.6141485  66.8365951  53.0474251  13.2584714  67.0717461  53.4264343
  11.7319572  63.2913670  59.6560451  11.7267611  62.4193487  59.6602877
  12.4380566  63.4901839  59.1829907  11.8364576  63.1917544  59.5867486
   5.4590465  63.0190654  59.0274271   5.6033841  63.5991862  58.3917381
   5.8066114  63.3966951  59.7324126   5.5317927  63.1611358  59.0373266
   7.6310383  62.2180822  56.8099403   6.8833697  62.4111837  56.4047681
   7.7851908  61.3926042  56.5723524   7.5432810  62.1245934  56.7144809
  14.8894860  66.3495548  44.1654569  14.5101668  65.5632686  44.1583858
  14.2261105  66.8982405  44.0226213  14.7353335  66.3140372  44.1435365
   7.8712160  56.1131373  57.6994806   8.3284774  56.8455347  57.8267599
   7.9468489  55.6897838  58.4582062   7.9503130  56.1588611  57.8295883
  12.3439486  49.2921248  51.5688649  12.4623054  49.7497712  50.8355952
  12.1701661  48.4866509  51.2824867  12.3358657  49.2415020  51.4189583
   5.7494538  58.1033477  54.5436630   4.9590612  57.9224937  54.8653966
   6.1455161  57.3260430  54.5266925   5.6911414  57.9620938  54.5889179
  10.2360428  66.9321251  39.9843344  11.0033414  66.9921376  39.5749196
   9.7891737  66.3601693  39.4999663  10.2833856  66.8557827  39.8521054
  11.1338224  65.7375907  52.2696076  10.4583226  65.5061139  52.7709463
  11.1430600  65.1297090  51.6438181  11.0356729  65.6134832  52.2512229
   8.2632368  60.5793736  59.0260129   8.1991509  61.4403693  58.8980266
   8.4029556  60.2625729  58.2255681   8.2747838  60.6593903  58.8888342
  13.1354959  68.5941040  44.5006254  13.2174796  69.4008026  44.1767705
  13.6204701  68.6136999  45.2247028  13.2192116  68.7161702  44.5593153
   6.9451462  63.2725875  53.1676332   6.5213711  63.4730374  52.4315351
   6.7696317  62.4254723  53.2800632   6.8562342  63.1774657  53.0750022
   2.2333907  63.7677927  48.6004305   2.3898526  63.7024730  49.4560297
   2.5734500  64.5426479  48.3882984   2.3067142  63.8727125  48.6958899
   8.7713051  63.1435810  47.4697668   9.3128597  62.6406192  47.9336289
   9.0859610  63.0901005  46.6587153   8.8977449  63.0615231  47.4181480
  12.6430159  67.3538458  64.5824580  13.4565024  67.0823607  64.7429713
  12.4825125  67.0545998  63.7784776  12.7400107  67.2693384  64.4869986
   6.9399501  68.5353162  44.7537696   7.0092321  67.6767700  44.8930696
   7.7187956  68.7525043  44.4256721   7.0652351  68.4406026  44.7254853
   9.9202321  58.0372115  57.5219969  10.1344290  57.3983029  56.9683322
   9.3036220  58.4817939  57.0927830   9.8607650  58.0082259  57.3770400
  12.0841409  59.6461180  58.4603276  11.2718091  59.3387071  58.5416448
  12.5431343  59.1660180  59.0245988  12.0321794  59.5297673  58.5557870
  11.4946663  67.5240852  48.9080220  11.1361318  67.6955495  49.6844252
  11.0085374  67.9854058  48.3508218  11.3705360  67.6179823  48.9405489
   9.3117049  51.1472051  52.5107311   8.4410607  51.1210772  52.4640621
   9.5657391  50.9749243  51.6933157   9.2210610  51.1182194  52.3827448
   6.2835029  63.2040018  41.4480454   6.5727554  63.9804900  41.7224029
   6.3706828  62.6928749  42.1494954   6.3389285  63.2431936  41.5922952
   9.1794916  61.0521252  63.2431978   9.6494547  61.6763368  63.6299852
   9.2256796  60.3838227  63.8025193   9.2562792  61.0455932  63.3832049
   6.3366190  53.1578279  53.9680782   5.8204679  52.4658471  54.0932361
   5.7760119  53.8249056  53.9143380   6.1772703  53.1541537  53.9786848
   8.4058423  53.6971239  55.7973634   8.0190177  53.7220271  56.5787164
   7.9191361  53.1312918  55.3448151   8.2770932  53.6166990  55.8461538
  12.6551403  68.4144748  59.8547421  13.2931123  67.9204944  59.5209877
  12.0125494  68.3422149  59.2699648  12.6545629  68.3303757  59.7189776
  14.3808403  60.2633894  54.4213336  13.9536011  60.1760243  53.6661436
  13.7434456  60.3711670  55.0068181  14.2238010  60.2666554  54.3958778
   8.0715565  50.5838225  58.0883894   8.7008683  51.1198525  57.8104965
   8.2401428  50.4915584  58.9397460   8.1893360  50.6499587  58.1732422
   7.8729480  55.3709419  60.3610306   8.7002909  55.0994568  60.4168920
   7.8937326  56.1670261  60.7174124   7.9982330  55.4489174  60.4225489
  12.7105659  69.1064556  56.4952778  13.4998038  68.7553621  56.6154859
  12.8849257  69.9200945  56.2329411  12.8525941  69.1750413  56.4740646
   2.4498970  62.5173282  53.5480566   1.6086976  62.4177156  53.7559460
   2.6588978  63.2868762  53.8994887   2.3563662  62.6165325  53.6307881
  11.5639484  53.1174113  51.0569196  11.7689077  53.0496421  51.9026193
  11.2365908  53.9232934  50.9890373  11.5454731  53.2260053  51.1728851
   6.2615635  60.4454681  52.7978164   5.9578772  59.8910670  53.3988572
   5.5595055  60.6246891  52.3106198   6.1131845  60.3899464  52.8147870
   5.3181732  57.7555201  47.3622866   5.5941466  57.0374114  46.9500433
   5.9180401  58.3540121  47.1543972   5.4474996  57.7375572  47.2703627
  14.8173171  53.6705877  50.5371961  14.2047485  54.1576279  50.9225693
  14.9137346  52.9949368  51.0809613  14.7411069  53.6424186  50.6750820
   8.8192252  55.4268718  45.6369461   9.2735999  55.5979279  46.3617305
   9.2932298  54.8136829  45.2367237   8.9560572  55.3619604  45.6843222
   2.3407778  64.9117044  54.9672199   1.7495711  65.5526543  54.9375214
   3.1028801  65.3354662  54.9403499   2.3656038  65.0692883  54.9587347
   2.7368401  56.0719042  55.6340217   3.1969882  56.1457972  56.3715341
   2.7824507  56.8700296  55.2840038   2.8118956  56.2013189  55.6912973
   4.3851750  56.7385737  60.2012244   3.9937315  56.0919084  60.6368022
   4.5537613  57.3297172  60.8206499   4.3522661  56.7300005  60.3574950
  18.4598199  64.7422814  55.9649478  18.5181323  65.1909463  56.7109454
  17.8264667  65.1521627  55.5279558  18.3749494  64.8696549  56.0102026
  12.0997294  70.3626356  52.4004224  11.9016983  70.8517170  51.7060435
  11.4785005  70.5667597  52.9788357  11.9784858  70.4642894  52.3827447
   6.1605272  62.1311253  46.7414468   6.9047317  62.5185529  46.9797418
   6.3065968  61.2868678  46.9054956   6.2915857  62.0641726  46.8008438
   8.0784848  53.9261512  51.7746329   7.2320893  54.0984319  51.6487679
   8.0755980  53.1210855  52.1112158   7.9531998  53.8322541  51.8057456
   9.1483148  57.7036726  52.6408387   8.6743102  57.1778488  53.1513698
   9.5201284  57.1566199  52.0723249   9.1333037  57.5452723  52.6323535
  15.4119879  62.7639102  54.0515168  15.1718102  61.9245517  54.0557594
  15.8911886  62.8439268  54.7755941  15.4472062  62.6520501  54.1589970
  11.0766648  58.5973281  45.7034141  10.5489666  58.6802025  45.0139850
  11.5362356  59.3391152  45.6998786  11.0668498  58.7193943  45.6008836
  17.4125066  59.5440559  52.0044427  17.1734836  59.5036393  51.1665212
  17.5758967  60.3911711  52.1310148  17.4015369  59.6632644  51.8997909
  14.0171096  63.9290508  57.9349472  14.7405295  63.4763035  57.7560492
  13.7521058  64.2095174  57.1521800  14.0852369  63.9041477  57.7928187
   2.8857964  58.5250682  54.6702351   2.2611034  58.5369074  54.0628304
   2.5503559  59.0010857  55.3193592   2.7443456  58.5969199  54.6758920
   3.0699713  56.8675800  40.7275036   2.7212517  57.5195526  41.1906586
   2.5896159  56.8532913  39.9998908   2.9469957  56.9618854  40.6886128
  10.6303730  67.1676844  44.8343798  11.3537929  67.6334957  44.6908371
  10.1904321  67.2350454  44.0841395  10.6719423  67.2460681  44.7028580
   9.7989885  64.0274387  56.0844487   9.1846878  63.4832437  56.3793122
  10.3157170  63.5138623  55.6050303   9.7845548  63.8710796  56.0568716
   9.0386183  65.0978657  53.8188786   8.6113791  64.4728375  53.3854221
   9.0311127  64.8153578  54.6447793   8.9745324  64.9631437  53.8768613
   2.1548710  60.1343830  56.8877220   2.3142196  59.3787154  57.2928942
   1.9741603  60.6834769  57.5417957   2.1514069  60.1037643  57.0439926
  10.0969013  52.3005065  57.4428009   9.6009574  52.4968739  56.7519576
  10.8538075  52.6997733  57.2716811  10.1355837  52.3882799  57.3148146
   7.3671892  55.9747411  54.0331320   7.3914379  55.4407523  53.3444100
   7.6183366  55.4664720  54.6956910   7.4081811  55.8208315  54.0295965
   3.6473214  54.7018229  53.4137064   3.6871586  55.2027436  54.1271772
   2.8222879  54.7928623  53.1442987   3.5312740  54.7900046  53.4787602
   5.0687578  61.2178739  55.7110963   4.2379508  61.3852557  55.5046211
   5.0139095  60.8414690  56.4959848   4.9376993  61.1868470  55.7959491
   2.8771361  54.7087632  61.3467374   3.5024065  54.1649765  61.6196806
   2.4221841  54.2282550  60.7775164   2.9019622  54.5577113  61.3028968
   3.4423622  59.4934331  46.2401081   3.5826583  59.9906795  46.9429722
   3.9406154  58.7920625  46.3815295   3.5364703  59.4636309  46.3652660
   3.4723844  60.3601442  43.5693658   4.1068924  60.9561867  43.5043119
   3.5549455  60.0604899  44.3839528   3.5780395  60.4042350  43.6796744
  16.4506410  62.8916919  56.4380022  17.0424250  63.5314170  56.4698220
  16.8865404  62.1939956  56.7272089  16.6024841  62.8835269  56.4860854
   5.0502827  56.2915417  43.5439100   5.3718668  55.8118500  42.8898362
   5.3129771  57.1015063  43.3529911   5.1368852  56.3405315  43.4194592
   8.2799800  67.3134291  57.0637916   7.7724891  67.8670138  57.5078546
   7.9826446  67.3742581  56.2456690   8.1604685  67.4040603  57.0086372
  10.4461982  55.6787611  55.9062579  10.8717053  55.2260138  55.2946105
   9.8318975  55.1247682  56.1827366  10.4190627  55.5301587  55.8567604
   8.8856205  52.1502711  49.3153156   8.2424523  52.0000357  49.8838294
   8.5455612  51.9045056  48.5502260   8.7401282  52.0914833  49.2856171
  13.4755551  60.1062138  48.7383164  12.8046741  60.6491840  48.6096230
  14.1695301  60.5756993  48.4964859  13.4784419  60.2560409  48.6838692
  13.6383679  56.5618021  51.6473538  13.9911289  56.1347744  52.3219336
  12.7798480  56.4768865  51.7774614  13.5633123  56.4862762  51.7668548
   2.3367364  59.1925541  49.7056384   1.6179353  59.6089674  49.9729248
   2.7079726  59.7579780  49.1548022   2.2859295  59.3374822  49.6639191
  11.6366945  59.8253390  55.5958380  11.6164872  59.6436685  56.4493159
  11.6846145  60.6965408  55.5717963  11.6401586  59.9269928  55.7181675
   9.5813274  66.4140582  61.5206856   9.5409129  65.7690259  60.9352012
  10.3936593  66.3577199  61.8332268   9.6956428  66.3099549  61.4803806
   8.1113938  58.2323541  45.0429764   7.5178777  58.5540537  44.4914331
   8.1489216  57.3864636  44.8350870   8.0288327  58.1547869  44.9312535
  15.0707739  51.6836433  52.5757850  14.5638603  50.9765573  52.5079028
  15.8675173  51.3529622  52.7058927  15.1134978  51.5309585  52.5856845
  10.9871755  58.1903045  48.4731514  10.7585448  58.2135747  47.6309872
  11.2469831  57.3660512  48.5926524  10.9917943  58.0719125  48.3656712
   5.2690983  60.0437518  58.0756614   4.7569886  59.4358701  58.4341645
   5.0970479  60.7594111  58.5430590   5.1680620  60.0600818  58.1972838
   4.0416517  56.7279592  49.7685709   4.5173883  57.0896672  49.1335891
   3.5405117  57.3836059  50.0485852   4.0381876  56.8773780  49.7162450
  17.2727879  66.2001360  45.5598714  17.6561484  66.9492716  45.7896812
  16.4771992  66.4467179  45.3010704  17.2121661  66.3471054  45.5556288
   9.1460053  57.9661763  60.5158870   9.7031484  57.7375573  59.8837335
   8.8221118  58.7267429  60.2394082   9.1806464  58.0445600  60.3815367
   6.8643171  61.0529416  61.4810877   7.6154498  61.3681093  61.7950431
   7.0565747  60.8508587  60.6544798   7.0034585  61.0696798  61.4054272
   6.0843170  58.8720792  43.1359093   6.4642135  58.8900421  42.3510208
   5.3435766  59.3174780  43.0149941   6.0312008  58.9402566  43.0022662
  13.7128461  57.1802983  48.7234672  13.7122687  57.0251639  49.5818948
  13.5084641  58.0265970  48.6676058  13.6828239  57.2823603  48.8422612
  11.4369313  61.8600485  52.3770879  11.9322978  61.1423480  52.3374899
  10.6269089  61.5571282  52.2625366  11.3913206  61.7098131  52.3544605
   6.8827924  65.7098298  44.5267883   6.0739247  65.3864971  44.4801193
   7.3902833  65.0031520  44.4596132   6.8377591  65.5579614  44.5098178
  13.5021132  64.6104172  55.0648008  13.9276203  64.0878594  54.5118433
  13.1378052  65.2085009  54.5436631  13.5107734  64.6214399  54.9057018
  10.0899731  68.3238436  51.3949165  10.5610909  69.0378699  51.5639150
  10.4259910  67.7237186  51.9309035  10.2094846  68.3409901  51.4981541
   7.0069226  53.0965907  58.3507260   7.1397132  52.2996900  58.6788236
   7.3914379  53.6232310  58.9305536   7.0825555  53.0565824  58.4850763
  10.7273678  68.1156370  58.1576858  10.1794623  67.4914254  57.8896923
  11.1886706  68.3050642  57.4420937  10.7140887  68.0515421  58.0127289
  10.0801581  50.0196233  54.9488353   9.2747545  49.9093963  55.2656192
   9.9508317  50.1208689  54.0918219   9.9421714  50.0179903  54.8696394
  13.5367542  56.1841725  55.5428050  12.9530531  56.6850931  55.1305618
  13.8571836  55.6771281  54.9092373  13.4980717  56.1833560  55.3886557
   6.0762341  55.0982320  45.8186725   6.8978035  55.2680633  45.5768420
   5.6131992  55.2529581  45.0953023   6.1293503  55.1464053  45.6758369
   4.6657673  53.0925082  56.5985154   5.2102086  52.7516209  57.1889495
   4.7194609  53.9510544  56.7406438   4.7546792  53.1680341  56.7067027
  10.2932004  69.1207443  54.6886199  11.1130378  68.9770409  54.9502494
  10.0126081  69.7453642  55.2302637  10.3728747  69.1917795  54.8074138
  16.6921126  70.7127012  51.3772389  16.3624456  71.1638155  50.7076088
  16.0166128  70.6343175  51.9245395  16.5431562  70.7678147  51.3595612
  23.8997534  66.7012534  49.6222000  23.5850975  67.3916013  50.0542422
  23.3824475  66.6457317  48.9207500  23.7762004  66.7947423  49.5818949
  14.8977080  68.7739300  46.8595337  15.6523048  69.1417617  46.6212387
  14.7204615  69.1478854  47.6274516  14.9831558  68.8837488  46.9380225
  28.1911979  74.9233740  54.9042876  27.3540400  74.9935928  55.1390471
  28.1600210  74.9258235  54.0317178  28.0630261  74.9343967  54.8102424
  13.2534145  71.1809619  43.5573450  13.0709718  71.3981500  42.7314442
  14.1159758  71.2948632  43.6132064  13.3538734  71.2299517  43.4427937
  18.9333864  68.1836030  46.5922474  19.6620024  68.0051985  46.1460630
  19.0228757  69.0254109  46.8029652  19.0540526  68.2819908  46.5575991
  25.8719818  69.9876522  53.4886598  26.5145727  70.0574627  54.0748514
  26.1242839  69.3205745  52.9866140  26.0041951  69.9002871  53.5013878
  21.1071101  71.0813494  51.1997551  20.4027428  70.5922679  51.3581471
  21.1556075  71.0935968  50.3285996  21.0101153  71.0103142  51.0936891
  28.3101321  74.7621159  49.2198562  28.0537886  73.9501101  49.0296445
  29.1530635  74.7698726  48.9928749  28.3967346  74.6433157  49.1583379
  22.4904413  68.7020783  53.9574716  22.8714925  68.0198954  54.3442590
  21.6867697  68.4130385  53.7750381  22.4280875  68.5587832  53.9878772
  16.4496254  71.2074982  63.8237325  16.1349695  71.9774544  63.5606887
  16.1286186  70.6445238  63.2389552  16.3555173  71.2385250  63.6978675
  14.0028151  69.5965503  49.4383521  13.1350576  69.6688103  49.5041130
  14.2903355  70.3987582  49.6271496  13.9167899  69.7259650  49.4758287
  23.1261039  69.7443362  57.7694843  23.8714631  69.5553173  57.3558268
  22.7098344  70.2701600  57.2108699  23.1746014  69.7945508  57.6259416
  30.5023310  77.1152591  52.7200348  31.0531232  76.4820660  52.9597440
  30.4867426  77.6467984  53.4115852  30.5808507  77.1001539  52.8579206
  24.2051716  75.3548925  51.8304944  23.8616482  74.6339260  52.1812194
  24.3044759  75.1462776  50.9883302  24.1693759  75.2173128  51.7576624
  22.7242682  73.2740509  53.7064487  21.8853782  73.3001788  53.4702750
  22.7947049  73.9211245  54.2869833  22.6111075  73.3736635  53.7573604
  21.1711960  70.1725886  48.4392103  21.8738313  69.9733635  47.9612061
  20.9056149  69.4001829  48.7460946  21.2358592  70.0288852  48.4137544
  15.9340516  71.4361172  57.4922983  15.7423713  71.4516306  58.3422407
  16.7839112  71.6324846  57.4689638  16.0316238  71.4675523  57.6146278
  18.8444743  71.6316681  57.6994806  19.3017357  72.3640655  57.8267599
  18.9201072  71.2083146  58.4582062  18.9235713  71.6773919  57.8295883
  23.3172069  64.8106556  51.5688649  23.4355637  65.2683019  50.8355952
  23.1434245  64.0051817  51.2824867  23.3091240  64.7600328  51.4189583
  20.8934904  73.5557423  57.5219969  21.1076874  72.9168337  56.9683322
  20.2768804  74.0003247  57.0927830  20.8340234  73.5267567  57.3770400
  23.0573992  75.1646488  58.4603276  22.2450674  74.8572378  58.5416448
  23.5163927  74.6845488  59.0245988  23.0054377  75.0482980  58.5557870
  20.2849633  66.6657359  52.5107311  19.4143191  66.6396080  52.4640621
  20.5389974  66.4934551  51.6933157  20.1943193  66.6367502  52.3827448
  17.3098774  68.6763587  53.9680782  16.7937262  67.9843778  54.0932361
  16.7492702  69.3434364  53.9143380  17.1505287  68.6726845  53.9786848
  19.3791007  69.2156547  55.7973634  18.9922760  69.2405579  56.5787164
  18.8923944  68.6498226  55.3448151  19.2503516  69.1352298  55.8461538
  19.0448149  66.1023533  58.0883894  19.6741267  66.6383833  57.8104965
  19.2134011  66.0100891  58.9397460  19.1625943  66.1684895  58.1732422
  18.8462064  70.8894727  60.3610306  19.6735493  70.6179876  60.4168920
  18.8669910  71.6855569  60.7174124  18.9714914  70.9674481  60.4225489
  22.5372067  68.6359421  51.0569196  22.7421661  68.5681729  51.9026193
  22.2098491  69.4418242  50.9890373  22.5187315  68.7445361  51.1728851
  25.7905755  69.1891185  50.5371961  25.1780068  69.6761587  50.9225693
  25.8869930  68.5134676  51.0809613  25.7143653  69.1609494  50.6750820
  19.7924836  70.9454026  45.6369461  20.2468582  71.1164587  46.3617305
  20.2664882  70.3322137  45.2367237  19.9293156  70.8804912  45.6843222
  20.1215732  73.2222034  52.6408387  19.6475686  72.6963796  53.1513698
  20.4933868  72.6751507  52.0723249  20.1065621  73.0638031  52.6323535
  22.0499231  74.1158589  45.7034141  21.5222250  74.1987333  45.0139850
  22.5094940  74.8576460  45.6998786  22.0401082  74.2379251  45.6008836
  28.3857649  75.0625867  52.0044427  28.1467419  75.0221701  51.1665212
  28.5491551  75.9097019  52.1310148  28.3747953  75.1817952  51.8997909
  21.0701596  67.8190373  57.4428009  20.5742157  68.0154047  56.7519576
  21.8270658  68.2183041  57.2716811  21.1088421  67.9068107  57.3148146
  18.3404476  71.4932719  54.0331320  18.3646963  70.9592831  53.3444100
  18.5915949  70.9850028  54.6956910  18.3814395  71.3393623  54.0295965
  14.6205798  70.2203537  53.4137064  14.6604170  70.7212744  54.1271772
  13.7955463  70.3113931  53.1442987  14.5045324  70.3085354  53.4787602
  13.8503945  70.2272940  61.3467374  14.4756648  69.6835073  61.6196806
  13.3954425  69.7467858  60.7775164  13.8752205  70.0762421  61.3028968
  16.0235411  71.8100725  43.5439100  16.3451252  71.3303808  42.8898362
  16.2862354  72.6200371  43.3529911  16.1101436  71.8590623  43.4194592
  21.4194565  71.1972919  55.9062579  21.8449637  70.7445445  55.2946105
  20.8051559  70.6432990  56.1827366  21.3923211  71.0486895  55.8567604
  19.8588788  67.6688019  49.3153156  19.2157106  67.5185665  49.8838294
  19.5188195  67.4230364  48.5502260  19.7133866  67.6100141  49.2856171
  24.6116262  72.0803329  51.6473538  24.9643872  71.6533052  52.3219336
  23.7531064  71.9954173  51.7774614  24.5365707  72.0048070  51.7668548
  26.0440322  67.2021741  52.5757850  25.5371187  66.4950881  52.5079028
  26.8407756  66.8714930  52.7058927  26.0867562  67.0494892  52.5856845
  21.9604338  73.7088353  48.4731514  21.7318031  73.7321055  47.6309872
  22.2202414  72.8845820  48.5926524  21.9650526  73.5904433  48.3656712
  24.6861044  72.6988291  48.7234672  24.6855271  72.5436947  49.5818948
  24.4817224  73.5451278  48.6676058  24.6560822  72.8008911  48.8422612
  17.9801810  68.6151215  58.3507260  18.1129715  67.8182208  58.6788236
  18.3646962  69.1417618  58.9305536  18.0558139  68.5751132  58.4850763
  21.0534165  65.5381541  54.9488353  20.2480129  65.4279271  55.2656192
  20.9240900  65.6393997  54.0918219  20.9154298  65.5365211  54.8696394
  17.0494925  70.6167628  45.8186725  17.8710619  70.7865941  45.5768420
  16.5864575  70.7714889  45.0953023  17.1026087  70.6649361  45.6758369
  15.6390256  68.6110390  56.5985154  16.1834669  68.2701517  57.1889495
  15.6927192  69.4695851  56.7406438  15.7279376  68.6865649  56.7067027
   4.5131311  22.6779810  34.5869122   4.4825315  23.5324447  34.7587392
   5.1112660  22.3775103  35.1455266   4.5968469  22.7596307  34.6943925
   1.0224712  28.0341987  48.9482509   1.7291480  27.5394018  49.0769443
   1.2112648  28.4751068  48.2185167   1.1552618  28.0260337  48.8591554
   2.3347885  25.2532112  32.8587432   2.2187411  26.0039798  33.2879570
   3.1303772  24.9956065  33.1083519   2.4352475  25.3266959  32.9591524
   1.6483190  12.6020050  36.5562046   1.3336631  13.2923528  36.9882469
   1.1310132  12.5464832  35.8547547   1.5247661  12.6954938  36.5158996
   6.4443677  28.1770855  38.0432501   5.6141380  28.3881499  38.2065918
   6.3952929  27.3507910  37.7674785   6.3150413  28.0860461  38.0269867
   5.9397635  20.8241256  41.8382923   5.1026057  20.8943443  42.0730517
   5.9085866  20.8265751  40.9657225   5.8115918  20.8351483  41.7442471
   3.7007992  28.8470210  38.1797217   3.2643224  28.8506952  38.9356189
   3.3670908  29.5275709  37.7476795   3.5870612  28.9482665  38.2278050
   3.6205475  15.8884037  40.4226645   4.2631384  15.9582142  41.0088561
   3.8728496  15.2213260  39.9206187   3.7527607  15.8010386  40.4353924
   6.8352339  25.5651129  37.0716855   7.4968773  25.0041798  36.9712763
   6.1943751  25.0703160  37.3969546   6.8381206  25.4087538  37.1049195
   3.1217169  26.5816512  36.8128843   3.3572758  26.7261711  35.9855694
   3.2706733  27.3458920  37.2060357   3.1782973  26.7155566  36.7492447
   4.9507626  25.4218178  34.6498447   5.2815843  25.9545818  34.0438542
   5.5240714  25.4757066  35.3060398   5.0841305  25.5087747  34.6576229
   6.0586978  20.6628675  36.1538609   5.8023542  19.8508616  35.9636492
   6.9016291  20.6706242  35.9268796   6.1453003  20.5440672  36.0923426
   3.7412137  27.8178271  45.9897161   3.5050774  26.9866335  45.8709222
   4.3855366  27.7663878  46.5752006   3.8006808  27.6875959  46.0583055
   4.7648557  27.6022719  42.0525456   4.4594374  28.3350776  42.4138771
   4.0454773  27.1960649  41.7718242   4.6135900  27.6504452  42.0638593
  10.4650350  24.2415720  41.3793800  10.3974850  24.2611679  40.5096387
  10.4506012  25.0846047  41.6049471  10.4529106  24.3689455  41.2846277
   8.2508967  23.0160106  39.6540394   8.8016888  22.3828175  39.8937487
   8.2353082  23.5475499  40.3455899   8.3294163  23.0009054  39.7919253
   1.9537373  21.2556440  38.7644991   1.6102139  20.5346775  39.1152240
   2.0530416  21.0470291  37.9223349   1.9179416  21.1180643  38.6916671
   2.4150402  27.7182144  34.3068979   2.9808435  28.3775354  34.2227522
   1.7678306  28.0631842  34.7785381   2.4029159  27.8664085  34.3641735
   4.3485862  24.3816012  37.9265775   4.2619837  24.5371438  38.7800554
   3.8936342  25.0254087  37.5525180   4.2689119  24.4991767  37.9972882
   2.1159727  28.4110118  40.3378116   1.9774087  29.1091164  40.8426858
   1.3359725  28.2558774  39.9814298   1.9802954  28.4910285  40.3604390
   3.6113100  27.7688372  31.0994615   3.2319909  26.9825510  31.0923905
   2.9479346  28.3175229  30.9566260   3.4571575  27.7333196  31.0775412
   1.8573199  30.0133863  31.4346301   1.9393036  30.8200849  31.1107752
   2.3422941  30.0329822  32.1587075   1.9410357  30.1354525  31.4933200
   1.3648399  28.7731281  51.5164627   2.1783264  28.5016430  51.6769760
   1.2043366  28.4738821  50.7124823   1.4618348  28.6886207  51.4210033
   1.3769643  29.8337571  46.7887468   2.0149364  29.3397767  46.4549924
   0.7343735  29.7614972  46.2039694   1.3763870  29.7496580  46.6529823
   3.1026643  21.6826717  41.3553383   2.6754251  21.5953066  40.6001483
   2.4652696  21.7904493  41.9408227   2.9456251  21.6859377  41.3298825
   1.4323900  30.5257380  43.4292824   2.2216278  30.1746444  43.5494906
   1.6067498  31.3393768  43.1669458   1.5744181  30.5943237  43.4080692
   3.5391412  15.0898701  37.4712008   2.9265725  15.5769103  37.8565740
   3.6355587  14.4142191  38.0149659   3.4629309  15.0617009  37.6090866
   7.1816440  26.1615637  42.8989524   7.2399563  26.6102286  43.6449501
   6.5482907  26.5714450  42.4619604   7.0967735  26.2889372  42.9442073
   4.1338119  24.1831925  40.9855215   3.8936342  23.3438340  40.9897641
   4.6130126  24.2632092  41.7095988   4.1690303  24.0713325  41.0930017
   6.1343306  20.9633382  38.9384474   5.8953076  20.9229216  38.1005258
   6.2977207  21.8104534  39.0650195   6.1233610  21.0825467  38.8337956
   2.7389336  25.3483332  44.8689519   3.4623535  24.8955858  44.6900539
   2.4739299  25.6287997  44.0861847   2.8070610  25.3234300  44.7268234
   5.1724650  24.3109742  43.3720069   5.7642490  24.9506993  43.4038267
   5.6083645  23.6132779  43.6612135   5.3243081  24.3028093  43.4200901
   2.1973792  21.5254961  35.6723211   1.5264981  22.0684663  35.5436277
   2.8913542  21.9949816  35.4304906   2.2002659  21.6753232  35.6178739
   2.3601919  17.9810845  38.5813584   2.7129529  17.5540568  39.2559383
   1.5016721  17.8961688  38.7114661   2.2851364  17.9055585  38.7008595
   3.7925979  13.1029256  39.5097897   3.2856844  12.3958396  39.4419074
   4.5893413  12.7722445  39.6398973   3.8353218  12.9502408  39.5196892
   5.9946119  27.6194183  32.4938761   6.3779725  28.3685539  32.7236858
   5.1990232  27.8660003  32.2350750   5.9339901  27.7663877  32.4896335
   2.4346701  18.5995806  35.6574719   2.4340928  18.4444463  36.5158995
   2.2302881  19.4458793  35.6016105   2.4046479  18.7016427  35.7762658
   2.2239372  26.0296995  41.9988055   2.6494444  25.5071417  41.4458480
   1.8596292  26.6277833  41.4776678   2.2325975  26.0407222  41.8397064
   0.8994956  31.3532573  50.5081284   1.0091922  30.5641133  50.8638031
   1.2285853  31.2638509  49.7055622   0.9647362  31.2238426  50.4423675
   2.2585782  17.6034548  42.4768097   1.6748771  18.1043755  42.0645664
   2.5790076  17.0964104  41.8432420   2.2198958  17.6026383  42.3226604
  15.4863895  38.1965118  34.5869122  15.4557899  39.0509755  34.7587392
  16.0845243  37.8960411  35.1455266  15.5701052  38.2781615  34.6943925
   8.6863579  37.2840769  39.3422053   7.8301475  37.4449267  39.3931169
   8.7331233  36.4132833  39.3627114   8.5662691  37.1791571  39.3528119
   3.0704719  46.8203487  35.1059284   2.3187619  46.4419025  34.8775329
   3.5190731  46.8521921  34.3578095   3.0254386  46.7689094  34.9616786
  11.9957296  43.5527295  48.9482509  12.7024063  43.0579325  49.0769443
  12.1845231  43.9936376  48.2185167  12.1285202  43.5445645  48.8591554
   8.5229679  47.2428856  30.5344831   8.1881047  47.9205778  30.0989053
   9.0356549  46.8534168  29.9461703   8.5495260  47.2853435  30.3831623
   8.0633970  49.1943125  36.4755943   8.4473350  49.7630024  35.9360718
   7.9993112  48.4692635  35.9961759   8.1107398  49.1718589  36.3249805
  11.5315400  39.3432813  41.9853704  12.0771360  40.0217900  42.0447674
  11.4732277  39.2020274  41.1255286  11.6031315  39.4224815  41.8665765
  13.3080469  40.7717420  32.8587432  13.1919995  41.5225106  33.2879570
  14.1036356  40.5141373  33.1083519  13.4085059  40.8452267  32.9591524
   4.4890215  51.7499468  38.7736913   5.1327670  52.1912632  39.1633071
   4.8146470  50.9452894  38.6867172   4.6322044  51.6964663  38.8182390
   5.1910795  44.7611443  34.1456774   5.5126636  45.3016650  33.5418083
   5.8382891  44.1908215  34.2779064   5.3336850  44.7570618  34.0763810
   7.2412503  36.7627438  34.2291161   7.9392667  36.9415566  34.7212624
   7.5564835  36.2397777  33.6061551   7.3907840  36.7121210  34.2093171
   7.4300438  43.1497883  34.2170953   7.8694074  42.5414984  34.6625725
   7.2805101  42.7705256  33.4456418   7.4721904  43.0036354  34.1690120
   4.8972081  41.7441895  41.4189778   5.5421084  41.2514338  41.1000727
   5.1373858  41.8866682  42.2455856   5.0282666  41.6919337  41.4939311
   7.4358172  44.5896801  41.0696671   7.7181415  43.7948207  40.8483427
   8.1644333  45.0677388  41.0901732   7.5847736  44.5431398  41.0399686
   5.4139366  32.1319835  38.3112436   5.0842696  32.5830978  37.6416135
   4.7384368  32.0535998  38.8585442   5.2649803  32.1870970  38.2935659
  11.0309775  41.5025064  31.1701722  10.9461070  42.3586031  31.3151291
  11.5194158  41.2269388  31.8383881  11.0898672  41.5882386  31.2903803
  12.6215774  28.1205358  36.5562046  12.3069215  28.8108836  36.9882469
  12.1042716  28.0650140  35.8547547  12.4980244  28.2140246  36.5158996
  11.9628208  38.1209859  32.6699457  11.4339679  38.3369492  33.3296763
  12.4853228  38.8145997  32.5900426  11.9616661  38.2552995  32.7555056
  17.4176261  43.6956163  38.0432501  16.5873964  43.9066807  38.2065918
  17.3685513  42.8693218  37.7674785  17.2882996  43.6045769  38.0269867
   3.8527816  42.0173075  31.4706925   3.2685031  42.5223107  31.8772789
   3.4497911  41.7915462  30.7303517   3.7067119  42.0581324  31.4211950
   5.4785998  46.5260017  40.8780411   4.9612940  46.1667432  40.2741719
   6.1760390  46.0022192  40.8886477   5.5051579  46.3957705  40.7910670
   9.1349590  46.9754831  46.8396584   9.2232936  46.7880972  47.6874794
   9.5639303  46.3292261  46.4401431   9.2111693  46.8517839  46.9068336
   6.7020050  46.2585991  45.8214246   6.1390885  45.8458601  46.3453907
   7.4641074  46.1838897  46.2407390   6.7314499  46.1863392  45.9607247
   8.3105030  38.2638727  29.9475846   8.5501034  38.4716711  29.1351189
   8.6320871  37.4596236  30.0564790   8.3942188  38.1752829  29.8436399
   3.6195320  30.1932123  33.7935384   4.3741288  30.5610440  33.5552434
   3.4422855  30.5671678  34.5614563   3.7049799  30.3030311  33.8720272
   2.2616042  48.2484012  38.4250876   2.9636621  47.7336001  38.4823633
   2.1813525  48.5758164  39.2297752   2.3539802  48.2198239  38.5523669
  16.9130219  36.3426564  41.8382923  16.0758640  36.4128751  42.0730517
  16.8818450  36.3451059  40.9657225  16.7848501  36.3536791  41.7442471
   3.3094948  38.4859599  47.5531292   3.4815452  38.3765494  48.4016573
   3.8464306  39.1314005  47.3162484   3.4139952  38.5651601  47.6436388
   1.9752385  32.6002442  30.4913497   1.7927958  32.8174323  29.6654489
   2.8377998  32.7141455  30.5472111   2.0756974  32.6492340  30.3767984
   1.5866817  44.4390364  37.9336484   2.4255716  44.6713297  37.9810246
   1.6178586  43.5694676  37.8643520   1.7148535  44.3447311  37.9301129
   2.2119520  44.8591240  42.2349790   2.7517745  44.7162371  42.9053162
   1.5289466  45.2587990  42.6033816   2.1911674  44.8970910  42.3884212
   7.6552104  29.6028853  33.5262520   8.3838265  29.4244808  33.0800677
   7.7446997  30.4446933  33.7369698   7.7758766  29.7012731  33.4916038
  11.6360405  40.5382240  37.4294814  12.3917920  40.9713755  37.4683723
  11.7422729  39.8887010  38.0029450  11.7630575  40.5059724  37.5192840
  14.6740576  44.3655517  38.1797217  14.2375808  44.3692260  38.9356189
  14.3403491  45.0461016  37.7476795  14.5603196  44.4667973  38.2278050
   9.2469650  46.4063850  49.5040368  10.0310066  46.5194698  49.8696110
   9.0466244  45.5804987  49.6999053   9.3335675  46.3010570  49.5874754
  14.5938059  31.4069345  40.4226645  15.2363967  31.4767450  41.0088561
  14.8461080  30.7398568  39.9206187  14.7260191  31.3195694  40.4353924
   1.5214412  35.8776615  29.0035970   0.8072589  35.5914794  29.4158402
   2.0058381  36.2173241  29.6442357   1.4873775  35.8858264  29.1591605
   2.3655271  34.6169909  45.0351219   1.6727068  34.1466888  45.2811951
   2.9815599  34.3908213  45.6092926   2.3539801  34.5137040  45.1560372
   9.4040043  48.3173952  43.1506823   8.6055289  48.0773452  43.4080692
   9.8526054  48.3688345  43.8973871   9.3514654  48.2896343  43.2991747
   8.6961730  44.3806569  29.3797778   9.1112878  44.0491593  28.6882274
   7.8653660  44.1475471  29.2517914   8.6349739  44.2977825  29.2588625
  14.0949753  42.1001820  36.8128843  14.3305342  42.2447019  35.9855694
  14.2439317  42.8644228  37.2060357  14.1515556  42.2340874  36.7492447
   1.0895830  38.5835313  46.1778064   1.8135803  38.5688343  46.6642959
   1.1911967  39.2930668  45.6800033   1.2114039  38.6860016  46.1756851
  15.9240210  40.9403486  34.6498447  16.2548427  41.4731126  34.0438542
  16.4973298  40.9942373  35.3060398  16.0573889  41.0273055  34.6576229
   8.4640780  42.0634397  51.0427011   7.6713761  42.3777909  51.2279631
   8.5789707  42.2785866  50.2047796   8.3636190  42.1418234  50.9465346
  11.1372099  38.7868388  35.3322027  11.2318953  39.5257682  35.7861653
  10.5130942  38.3585864  35.7656592  11.0581129  38.8329709  35.4630175
   9.3924573  41.9654601  45.9812308   9.9663434  41.3281845  46.1360872
   9.3139376  41.9658683  45.1121966   9.4657807  41.8719712  45.8758719
  11.3895120  40.6317128  28.5658979  11.3075283  40.7019315  29.4313966
  12.0274841  41.1946872  28.3742720  11.4714957  40.7256099  28.6648929
   4.7488291  40.3977866  38.0333506   4.4907535  39.5649601  38.0064805
   4.8036774  40.6235479  37.1926006   4.7188069  40.3075637  37.9053642
   9.8289341  32.5006317  38.1337598   9.1245668  32.0115502  38.2921517
   9.8774316  32.5128791  37.2626043   9.7319393  32.4295965  38.0276938
   3.7223003  37.9515629  38.5198400   3.1472595  38.1107797  39.1562361
   3.3458680  37.3151038  38.0566851   3.5825816  37.8813442  38.5452959
   7.3896292  36.4238978  43.3790779   7.0010725  35.9993196  42.7242970
   6.7250990  36.6721128  43.8867805   7.2343220  36.3977699  43.3578647
  17.0319561  36.1813983  36.1538609  16.7756126  35.3693924  35.9636492
  17.8748875  36.1891550  35.9268796  17.1185587  36.0625980  36.0923426
  11.2122654  30.1213607  40.8914763  11.5933165  29.4391778  41.2782637
  10.4085938  29.8323209  40.7090427  11.1499115  29.9780655  40.9218819
   8.4935230  40.6537582  31.5767586   9.3075869  40.9452475  31.4650357
   8.4294372  39.9997445  31.0025879   8.6037969  40.6002777  31.4756423
  14.7144720  43.3363579  45.9897161  14.4783358  42.5051643  45.8709222
  15.3587949  43.2849186  46.5752006  14.7739391  43.2061267  46.0583055
   4.3643139  44.1259100  36.7039898   5.0017085  43.8870847  37.2491691
   4.7898210  44.3296259  35.9693058   4.5219305  44.1210110  36.6757055
   5.0045954  39.3461390  31.0414787   5.3891106  39.1269096  31.7931332
   4.7557574  40.1724335  31.1715864   5.0248026  39.4359536  31.1715864
   5.1714494  32.6267805  50.7577371   4.8567935  33.3967368  50.4946934
   4.8504426  32.0638061  50.1729598   5.0773413  32.6578074  50.6318721
  15.7381141  43.1208027  42.0525456  15.4326958  43.8536084  42.4138771
  15.0187357  42.7145957  41.7718242  15.5868483  43.1689760  42.0638593
   6.7464610  44.6031523  38.3833684   6.8203619  44.4406694  39.2375534
   7.5634117  44.7921712  38.1394166   6.8780969  44.6068265  38.4731710
   2.7246391  31.0158326  36.3723568   1.8568816  31.0880926  36.4381177
   3.0121595  31.8180405  36.5611543   2.6386139  31.1452473  36.4098334
  11.8479280  31.1636186  44.7034890  12.5932872  30.9745996  44.2898315
  11.4316584  31.6894424  44.1448746  11.8964254  31.2138331  44.5599463
   5.2869196  47.5666266  33.1147157   5.5767495  47.1755247  32.3906384
   6.0172677  47.7482971  33.5552433   5.4376080  47.5360079  33.0729964
   5.8763941  42.3684012  44.2000288   5.3775635  43.0799779  44.2785176
   6.6864166  42.6884678  44.1618450   5.9220048  42.5210860  44.2056856
   3.2275112  49.5433648  36.1807307   3.0075407  49.2531003  36.9733974
   3.0069634  48.8848603  35.6525220   3.1622706  49.4033356  36.2196216
   2.1392059  41.6306965  38.4463009   1.8505308  41.0044436  38.9808736
   3.0075407  41.5727252  38.5127689   2.2252311  41.5294509  38.5353963
  12.9269957  36.7741748  38.7644991  12.5834723  36.0532083  39.1152240
  13.0262999  36.5655599  37.9223349  12.8912000  36.6365951  38.6916671
   5.3943067  50.9163038  34.9638000   6.0467125  50.3839480  35.1929026
   4.6968676  50.5631690  35.3505874   5.3873785  50.7852561  35.0550167
   2.3424332  43.2702216  34.3705374   3.0970300  43.6515255  34.5840836
   1.7494945  43.7213359  34.8252070   2.3661046  43.3931043  34.4688252
  13.3882986  43.2367452  34.3068979  13.9541018  43.8960662  34.2227522
  12.7410889  43.5817150  34.7785381  13.3761742  43.3849393  34.3641735
   4.8030999  35.2265056  49.4962586   3.9930775  35.5322836  49.3852428
   5.2805686  35.9470638  49.6115170   4.7534478  35.3779657  49.4969657
   3.6622559  44.4410777  39.7445489   3.1403312  44.5811069  40.4297354
   4.0496579  43.6821441  39.9347607   3.6426260  44.3496301  39.8746566
   9.8589564  46.1806236  33.7306058   9.6176240  45.4474097  33.3233123
  10.0390897  46.7293093  33.0772391   9.8497188  46.1528627  33.5736281
   5.0888885  41.4714796  35.1426980   4.8931667  42.0789530  34.5487283
   5.3123230  40.7782740  34.6618654   5.0923526  41.4592321  34.9843061
   3.4867415  38.3569534  35.2607849   4.2090066  38.5210692  34.8011655
   3.0075407  39.0779199  35.1547188   3.5231145  38.4867763  35.1773463
  11.4460922  34.6933333  40.6404534  10.6072023  34.7194612  40.4042797
  11.5165289  35.3404068  41.2209880  11.3329316  34.7929458  40.6913650
   1.1375031  40.7627606  44.3661989   1.6496128  41.0411860  43.7170748
   0.8511374  41.5016900  44.7324802   1.1709894  40.9129960  44.3251867
   9.8930200  31.5918710  35.3732150  10.5956553  31.3926458  34.8952108
   9.6274389  30.8194652  35.6800993   9.9576833  31.4481676  35.3477591
  15.3218446  39.9001319  37.9265775  15.2352420  40.0556745  38.7800554
  14.8668926  40.5439395  37.5525180  15.2421703  40.0177075  37.9972882
   4.6558757  32.8553995  44.4263030   4.4641954  32.8709129  45.2762454
   5.5057353  33.0517669  44.4029685   4.7534479  32.8868346  44.5486325
   9.1944262  37.2212067  36.5491335   8.9478976  37.1407817  37.3828124
   9.5229385  36.4365534  36.3553862   9.2065506  37.0938332  36.6438858
  13.0892311  43.9295426  40.3378116  12.9506670  44.6276472  40.8426858
  12.3092309  43.7744082  39.9814298  12.9535538  44.0095593  40.3604390
  11.4270396  40.2291801  46.5900498  11.4218434  39.3571618  46.5942924
  12.1331390  40.4279970  46.1169953  11.5315400  40.1295675  46.5207533
   5.1541289  39.9568785  45.9614318   5.2984665  40.5369993  45.3257428
   5.5016938  40.3345082  46.6664173   5.2268751  40.0989489  45.9713313
   7.3261207  39.1558954  43.7439450   6.5784521  39.3489968  43.3387728
   7.4802732  38.3304173  43.5063571   7.2383634  39.0624065  43.6484855
   4.2269044  48.1471557  42.8275345   4.3758608  47.5874473  42.1748749
   5.0069046  48.2263559  43.2107864   4.3643138  48.0757122  42.7872294
  14.5845684  43.2873680  31.0994615  14.2052492  42.5010818  31.0923905
  13.9211929  43.8360537  30.9566260  14.4304158  43.2518504  31.0775412
   6.7522345  48.3186200  44.1059836   6.6766016  47.6495010  44.6610624
   6.6812204  49.0203988  44.6200502   6.7302952  48.3231107  44.2636684
   7.5662984  33.0509504  44.6334853   8.0235598  33.7833479  44.7607645
   7.6419312  32.6275969  45.3922109   7.6453954  33.0966742  44.7635930
  12.0390310  26.2299379  38.5028696  12.1573878  26.6875843  37.7695999
  11.8652485  25.4244641  38.2164914  12.0309481  26.1793152  38.3529630
   7.4092592  46.8387199  34.9383442   8.1742483  46.5696842  34.6166106
   7.3070682  46.3537209  35.6553504   7.5074087  46.7276763  34.9963269
   5.4445362  35.0411608  41.4776677   4.6541436  34.8603068  41.7994013
   5.8405984  34.2638561  41.4606972   5.3862238  34.8999069  41.5229226
   9.9311252  43.8699382  26.9183391  10.6984238  43.9299507  26.5089243
   9.4842561  43.2979824  26.4339709   9.9784680  43.7935958  26.7861101
  10.8289048  42.6754038  39.2036123  10.1534050  42.4439271  39.7049510
  10.8381424  42.0675221  38.5778228  10.7307552  42.5512964  39.1852275
   7.9583192  37.5171867  45.9600176   7.8942333  38.3781824  45.8320313
   8.0980380  37.2003860  45.1595728   7.9698662  37.5972034  45.8228389
  12.8305782  45.5319171  31.4346301  12.9125620  46.3386157  31.1107752
  13.3155525  45.5515130  32.1587075  12.9142940  45.6539833  31.4933200
   6.6402286  40.2104007  40.1016379   6.2164535  40.4108506  39.3655397
   6.4647141  39.3632855  40.2140679   6.5513166  40.1152788  40.0090069
   6.1413979  51.7254520  42.5637836   6.6309910  51.0265309  42.3813501
   5.5698212  51.4278390  43.1513894   6.1298509  51.5780743  42.6238877
   1.9284731  40.7056058  35.5344352   2.0849350  40.6402861  36.3900344
   2.2685324  41.4804611  35.3223031   2.0017966  40.8105256  35.6298946
   8.4663875  40.0813942  34.4037715   9.0079421  39.5784323  34.8676335
   8.7810434  40.0279136  33.5927200   8.5928272  39.9993363  34.3521527
  12.3380983  44.2916589  51.5164627  13.1515848  44.0201738  51.6769760
  12.1775949  43.9924129  50.7124823  12.4350931  44.2071515  51.4210033
   6.6350325  45.4731293  31.6877743   6.7043145  44.6145832  31.8270743
   7.4138780  45.6903174  31.3596767   6.7603175  45.3784157  31.6594900
   9.6153145  34.9750246  44.4560015   9.8295114  34.3361160  43.9023369
   8.9987044  35.4196070  44.0267877   9.5558474  34.9460390  44.3110446
  11.0257813  47.8968994  35.9014236  10.6337604  47.5935710  35.1837102
  11.1810885  48.7338084  35.7119190  10.9911402  47.9752831  35.7670733
  11.7792233  36.5839311  45.3943322  10.9668914  36.2765202  45.4756495
  12.2382167  36.1038311  45.9586035  11.7272618  36.4675804  45.4897917
  11.1897487  44.4618983  35.8420267  10.8312142  44.6333626  36.6184299
  10.7036198  44.9232189  35.2848265  11.0656184  44.5557954  35.8745536
   9.0067873  28.0850182  39.4447358   8.1361431  28.0588903  39.3980668
   9.2608215  27.9127374  38.6273204   8.9161433  28.0560326  39.3167495
   5.9785853  40.1418149  28.3820501   6.2678378  40.9183031  28.6564075
   6.0657652  39.6306880  29.0835000   6.0340109  40.1810067  28.5262999
   8.8745740  37.9899383  50.1772025   9.3445371  38.6141499  50.5639899
   8.9207620  37.3216358  50.7365239   8.9513616  37.9834063  50.3172096
   6.0317014  30.0956410  40.9020828   5.5155502  29.4036602  41.0272407
   5.4710943  30.7627187  40.8483427   5.8723527  30.0919668  40.9126894
   8.1009247  30.6349370  42.7313681   7.7141000  30.6598402  43.5127211
   7.6142185  30.0691049  42.2788198   7.9721756  30.5545121  42.7801585
  12.3502227  45.3522879  46.7887468  12.9881947  44.8583075  46.4549924
  11.7076318  45.2800280  46.2039694  12.3496453  45.2681888  46.6529823
  14.0759227  37.2012025  41.3553383  13.6486835  37.1138374  40.6001483
  13.4385280  37.3089801  41.9408227  13.9188834  37.2044685  41.3298825
   7.7666389  27.5216356  45.0223941   8.3959507  28.0576656  44.7445011
   7.9352252  27.4293715  45.8737507   7.8844184  27.5877718  45.1072469
   7.5680304  32.3087550  47.2950353   8.3953733  32.0372699  47.3508967
   7.5888150  33.1048392  47.6514171   7.6933154  32.3867305  47.3565535
  12.4056483  46.0442688  43.4292824  13.1948862  45.6931752  43.5494906
  12.5800081  46.8579076  43.1669458  12.5476765  46.1128545  43.4080692
   2.1449794  39.4551413  40.4820613   1.3037800  39.3555287  40.6899507
   2.3539802  40.2246894  40.8334934   2.0514486  39.5543457  40.5647928
  11.2590308  30.0552244  37.9909243  11.4639901  29.9874552  38.8366240
  10.9316732  30.8611065  37.9230420  11.2405555  30.1638185  38.1068898
   5.9566459  37.3832812  39.7318211   5.6529596  36.8288801  40.3328618
   5.2545879  37.5625022  39.2446245   5.8082668  37.3277595  39.7487916
   5.0132556  34.6933332  34.2962913   5.2892290  33.9752245  33.8840480
   5.6131225  35.2918252  34.0884019   5.1425820  34.6753703  34.2043674
   4.0184810  44.5982533  44.4390309   3.9105165  44.6084595  45.3052367
   4.2280591  45.4237314  44.2495262   4.0334921  44.7223608  44.5394400
  14.5123995  30.6084009  37.4712008  13.8998309  31.0954411  37.8565740
  14.6088170  29.9327499  38.0149659  14.4361893  30.5802317  37.6090866
   8.5143076  32.3646850  32.5709508   8.9686823  32.5357410  33.2957352
   8.9883122  31.7514960  32.1707283   8.6511396  32.2997735  32.6183269
   2.0358602  41.8495176  41.9012246   1.4446535  42.4904674  41.8715261
   2.7979625  42.2732793  41.8743546   2.0606862  42.0071014  41.8927393
   2.4319224  33.0097173  42.5680264   2.8920706  33.0836103  43.3055387
   2.4775331  33.8078427  42.2180085   2.5069780  33.1391320  42.6253020
   4.0802574  33.6763868  47.1352291   3.6888139  33.0297215  47.5708069
   4.2488437  34.2675303  47.7546546   4.0473485  33.6678136  47.2914997
  18.1549023  41.6800945  42.8989524  18.2132147  42.1287594  43.6449501
  17.5215491  42.0899758  42.4619604  18.0700318  41.8074680  42.9442073
  11.7948118  47.3004487  39.3344271  11.5967807  47.7895302  38.6400482
  11.1735829  47.5045729  39.9128404  11.6735682  47.4021025  39.3167494
   5.8556096  39.0689384  33.6754515   6.5998141  39.4563660  33.9137465
   6.0016792  38.2246809  33.8395003   5.9866681  39.0019857  33.7348485
   7.7735672  30.8639643  38.7086376   6.9271717  31.0362451  38.5827726
   7.7706804  30.0588987  39.0452205   7.6482822  30.7700672  38.7397503
   8.8433972  34.6414857  39.5748434   8.3693926  34.1156619  40.0853745
   9.2152108  34.0944330  39.0063296   8.8283861  34.4830854  39.5663581
  15.1070703  39.7017233  40.9855215  14.8668926  38.8623648  40.9897641
  15.5862710  39.7817400  41.7095988  15.1422886  39.5898633  41.0930017
  10.7717472  35.5351412  32.6374188  10.2440490  35.6180156  31.9479897
  11.2313180  36.2769283  32.6338833  10.7619322  35.6572074  32.5348883
  17.1075890  36.4818690  38.9384474  16.8685660  36.4414524  38.1005258
  17.2709791  37.3289842  39.0650195  17.0966193  36.6010775  38.8337956
  13.7121920  40.8668639  44.8689519  14.4356119  40.4141166  44.6900539
  13.4471882  41.1473305  44.0861847  13.7803193  40.8419608  44.7268234
   2.5808788  35.4628813  41.6042398   1.9561858  35.4747205  40.9968351
   2.2454383  35.9388988  42.2533638   2.4394280  35.5347330  41.6098967
   2.7650537  33.8053931  27.6615083   2.4163341  34.4573657  28.1246632
   2.2846983  33.7911045  26.9338954   2.6420781  33.8996985  27.6226174
  10.3254554  44.1054975  31.7683845  11.0488753  44.5713088  31.6248418
   9.8855145  44.1728585  31.0181442  10.3670246  44.1838812  31.6368626
   9.4940709  40.9652518  43.0184534   8.8797702  40.4210568  43.3133169
  10.0107994  40.4516754  42.5390350   9.4796372  40.8088927  42.9908762
   8.7337006  42.0356788  40.7528833   8.3064615  41.4106506  40.3194268
   8.7261951  41.7531710  41.5787840   8.6696148  41.9009568  40.8108660
   1.8499534  37.0721961  43.8217267   2.0093020  36.3165285  44.2268989
   1.6692427  37.6212900  44.4758004   1.8464893  37.0415775  43.9779973
   9.7919837  29.2383196  44.3768056   9.2960398  29.4346871  43.6859623
  10.5488899  29.6375865  44.2056858   9.8306661  29.3260930  44.2488193
   7.0622716  32.9125542  40.9671367   7.0865203  32.3785655  40.2784147
   7.3134190  32.4042851  41.6296957   7.1032635  32.7586446  40.9636011
   3.3424038  31.6396361  40.3477111   3.3822410  32.1405567  41.0611818
   2.5173703  31.7306754  40.0783034   3.2263564  31.7278177  40.4127649
   5.5253651  41.2057100  48.4497406   4.6749282  41.3428815  48.5855050
   5.6881779  40.4720879  48.8945107   5.4237515  41.1171202  48.5353005
   4.7638402  38.1556870  42.6451010   3.9330331  38.3230688  42.4386258
   4.7089919  37.7792821  43.4299895   4.6327817  38.1246602  42.7299538
   2.5722185  31.6465763  48.2807421   3.1974888  31.1027896  48.5536853
   2.1172665  31.1660681  47.7115211   2.5970446  31.4955245  48.2369014
   3.1374446  36.4312462  33.1741128   3.2777407  36.9284926  33.8769769
   3.6356978  35.7298756  33.3155341   3.2315527  36.4014441  33.2992707
   3.1674668  37.2979573  30.5033704   3.8019747  37.8939998  30.4383166
   3.2500279  36.9983031  31.3179575   3.2731219  37.3420481  30.6136791
  16.1457234  39.8295050  43.3720069  16.7375074  40.4692301  43.4038267
  16.5816228  39.1318087  43.6612135  16.2975665  39.8213401  43.4200901
   4.7453651  33.2293548  30.4779146   5.0669492  32.7496631  29.8238409
   5.0080595  34.0393194  30.2869958   4.8319676  33.2783446  30.3534639
   7.9750624  44.2512423  43.9977963   7.4675715  44.8048270  44.4418593
   7.6777270  44.3120713  43.1796737   7.8555509  44.3418734  43.9426419
  10.1412806  32.6165742  42.8402626  10.5667877  32.1638269  42.2286152
   9.5269799  32.0625813  43.1167413  10.1141451  32.4679718  42.7907651
  10.5858404  48.1675680  31.9281906   9.8687714  47.9936543  31.4629143
  11.2365142  47.9328253  31.3957392  10.5760254  48.1071473  31.7811124
   8.5807029  29.0880842  36.2493203   7.9375347  28.9378488  36.8178341
   8.2406436  28.8423187  35.4842307   8.4352106  29.0292965  36.2196218
  13.1706375  37.0440269  35.6723211  12.4997565  37.5869971  35.5436277
  13.8646125  37.5135124  35.4304906  13.1735243  37.1938540  35.6178739
   7.2193109  49.1836981  40.9034969   6.9958763  48.4255810  41.2718996
   6.7302952  49.2135002  40.1815409   7.1136558  49.0759205  40.8511710
  13.3334503  33.4996153  38.5813584  13.6862113  33.0725875  39.2559383
  12.4749304  33.4146996  38.7114661  13.2583947  33.4240893  38.7008595
   2.0318188  36.1303672  36.6396431   1.3130177  36.5467805  36.9069294
   2.4030550  36.6957911  36.0888069   1.9810119  36.2752954  36.5979238
  11.3317768  36.7631521  42.5298427  11.3115696  36.5814816  43.3833206
  11.3796969  37.6343540  42.5058010  11.3352409  36.8648059  42.6521721
   9.2764098  43.3518713  48.4546903   9.2359953  42.7068390  47.8692059
  10.0887417  43.2955330  48.7672315   9.3907252  43.2477680  48.4143852
   5.8671566  49.4037439  38.3572054   5.4531964  48.7411569  37.9675896
   6.5518940  49.5515298  37.8367748   5.9069938  49.3278097  38.2228551
   9.2336860  48.5627524  39.1095671   8.8353143  48.6729795  38.3416491
   8.6188080  48.7709591  39.6922230   9.0835749  48.6101092  39.0826970
   7.8064762  35.1701672  31.9769810   7.2129601  35.4918669  31.4254377
   7.8440040  34.3242768  31.7690917   7.7239151  35.0926000  31.8652582
  14.7658563  28.6214564  39.5097897  14.2589427  27.9143704  39.4419074
  15.5625996  28.2907753  39.6398973  14.8085802  28.4687716  39.5196892
  10.6822579  35.1281177  35.4071561  10.4536272  35.1513878  34.5649919
  10.9420655  34.3038644  35.5266571  10.6868767  35.0097257  35.2996758
   4.9641807  36.9815650  45.0096661   4.4520710  36.3736833  45.3681692
   4.7921303  37.6972242  45.4770637   4.8631444  36.9978949  45.1312885
  16.9678703  43.1379491  32.4938761  17.3512308  43.8870847  32.7236858
  16.1722816  43.3845311  32.2350750  16.9072485  43.2849185  32.4896335
   8.8410877  34.9039894  47.4498916   9.3982308  34.6753704  46.8177382
   8.5171942  35.6645560  47.1734129   8.8757288  34.9823731  47.3155413
   6.5593995  37.9907548  48.4150924   7.3105322  38.3059224  48.7290478
   6.7516571  37.7886719  47.5884845   6.6985409  38.0074929  48.3394319
   5.7793994  35.8098923  30.0699140   6.1592959  35.8278552  29.2850255
   5.0386590  36.2552912  29.9489988   5.7262832  35.8780697  29.9362708
  13.4079285  34.1181114  35.6574719  13.4073511  33.9629770  36.5158995
  13.2035465  34.9644101  35.6016105  13.3779063  34.2201735  35.7762658
  11.1320137  38.7978616  39.3110926  11.6273802  38.0801611  39.2714946
  10.3219913  38.4949413  39.1965413  11.0864030  38.6476262  39.2884652
   6.5778748  42.6476429  31.4607930   5.7690071  42.3243102  31.4141240
   7.0853657  41.9409651  31.3936179   6.5328415  42.4957745  31.4438225
  13.1971956  41.5482303  41.9988055  13.6227027  41.0256725  41.4458480
  12.8328876  42.1463141  41.4776678  13.2058558  41.5592530  41.8397064
   2.8326035  49.8446521  40.7585400   3.1472594  50.6582909  40.7663182
   3.2419449  49.4596739  41.4267559   2.9394133  49.9075223  40.8589492
   9.7850555  45.2616567  38.3289212  10.2561733  45.9756830  38.4979197
  10.1210734  44.6615318  38.8649082   9.9045670  45.2788032  38.4321588
  11.8727540  46.8717881  50.5081284  11.9824505  46.0826441  50.8638031
  12.2018436  46.7823817  49.7055622  11.9379946  46.7423734  50.4423675
   6.7020050  30.0344038  45.2847307   6.8347956  29.2375031  45.6128282
   7.0865203  30.5610441  45.8645582   6.7776379  29.9943955  45.4190810
  10.4224501  45.0534502  45.0916905   9.8745447  44.4292385  44.8236970
  10.8837530  45.2428774  44.3760984  10.4091711  44.9893552  44.9467336
   9.7752405  26.9574364  41.8828400   8.9698369  26.8472094  42.1996238
   9.6459141  27.0586820  41.0258266   9.6372538  26.9558034  41.8036441
  13.2318366  33.1219856  42.4768097  12.6481355  33.6229063  42.0645664
  13.5522660  32.6149412  41.8432420  13.1931541  33.1211691  42.3226604
   5.7713165  32.0360451  32.7526772   6.5928859  32.2058764  32.5108467
   5.3082816  32.1907712  32.0293069   5.8244327  32.0842184  32.6098416
   4.3608497  30.0303213  43.5325201   4.9052910  29.6894340  44.1229542
   4.4145433  30.8888675  43.6746485   4.4497616  30.1058472  43.6407074
   9.9882828  46.0585574  41.6226246  10.8081202  45.9148540  41.8842541
   9.7076905  46.6831773  42.1642684  10.0679571  46.1295926  41.7414185
  19.6596163  52.8026077  39.3422053  18.8034058  52.9634575  39.3931169
  19.7063817  51.9318141  39.3627114  19.5395274  52.6976879  39.3528119
  14.0437303  62.3388795  35.1059284  13.2920202  61.9604333  34.8775329
  14.4923314  62.3707229  34.3578095  13.9986970  62.2874402  34.9616786
  22.9689880  59.0712603  48.9482509  23.6756647  58.5764633  49.0769443
  23.1577815  59.5121684  48.2185167  23.1017785  59.0630953  48.8591554
  19.4962263  62.7614164  30.5344831  19.1613631  63.4391086  30.0989053
  20.0089133  62.3719476  29.9461703  19.5227844  62.8038743  30.3831623
  19.0366554  64.7128433  36.4755943  19.4205933  65.2815332  35.9360718
  18.9725695  63.9877943  35.9961759  19.0839981  64.6903897  36.3249805
  22.5047984  54.8618121  41.9853704  23.0503944  55.5403208  42.0447674
  22.4464860  54.7205582  41.1255286  22.5763898  54.9410123  41.8665765
  15.6222059  62.3507187  37.3722057  15.7232422  61.5407541  37.6819184
  15.0263804  62.2564133  36.7421735  15.5494598  62.2172215  37.3248295
  24.2813053  56.2902728  32.8587432  24.1652579  57.0410414  33.2879570
  25.0768939  56.0326681  33.1083519  24.3817642  56.3637575  32.9591524
  15.4622798  67.2684776  38.7736913  16.1060254  67.7097940  39.1633071
  15.7879054  66.4638202  38.6867172  15.6054627  67.2149971  38.8182390
   8.8187103  58.3727474  36.9974390   8.5837288  57.5395126  36.8906659
   8.9572744  58.6532139  36.1835591   8.8042766  58.2910977  36.8616745
  11.1177191  50.5413204  39.8958698  10.4982222  49.9505851  39.7268713
  11.0161054  51.1324639  39.2623021  11.0114866  50.5417287  39.7763688
  16.1643378  60.2796751  34.1456774  16.4859219  60.8201958  33.5418083
  16.8115475  59.7093522  34.2779064  16.3069433  60.2755926  34.0763810
  18.2145086  52.2812746  34.2291161  18.9125251  52.4600874  34.7212624
  18.5297419  51.7583085  33.6061551  18.3640423  52.2306518  34.2093171
  10.8446324  54.0865486  42.1402267  10.7205020  54.6727931  42.7752086
  11.4964608  53.5925682  42.4414542  10.9219973  54.1004290  42.2788196
  18.4033022  58.6683191  34.2170953  18.8426657  58.0600292  34.6625725
  18.2537684  58.2890564  33.4456418  18.4454487  58.5221662  34.1690120
  15.8704665  57.2627203  41.4189778  16.5153667  56.7699646  41.1000727
  16.1106442  57.4051989  42.2455856  16.0015250  57.2104645  41.4939311
  18.4090756  60.1082109  41.0696671  18.6913999  59.3133514  40.8483427
  19.1376916  60.5862696  41.0901732  18.5580320  60.0616706  41.0399686
  16.3871950  47.6505143  38.3112436  16.0575280  48.1016286  37.6416135
  15.7116952  47.5721306  38.8585442  16.2382386  47.7056278  38.2935659
  22.0042358  57.0210372  31.1701722  21.9193653  57.8771339  31.3151291
  22.4926741  56.7454696  31.8383881  22.0631255  57.1067694  31.2903803
  22.9360791  53.6395167  32.6699457  22.4072263  53.8554800  33.3296763
  23.4585811  54.3331305  32.5900426  22.9349244  53.7738303  32.7555056
  14.8260399  57.5358383  31.4706925  14.2417614  58.0408415  31.8772789
  14.4230494  57.3100770  30.7303517  14.6799703  57.5766632  31.4211950
  10.3804428  63.2513144  38.2730597   9.8972006  63.9763634  38.2490180
  11.1927746  63.5489274  38.3840754  10.4295176  63.4015498  38.2857876
  16.4518582  62.0445325  40.8780411  15.9345524  61.6852740  40.2741719
  17.1492973  61.5207500  40.8886477  16.4784163  61.9143013  40.7910670
  20.1082174  62.4940139  46.8396584  20.1965520  62.3066280  47.6874794
  20.5371886  61.8477569  46.4401431  20.1844276  62.3703147  46.9068336
  17.6752634  61.7771299  45.8214246  17.1123468  61.3643909  46.3453907
  18.4373657  61.7024205  46.2407390  17.7047082  61.7048700  45.9607247
  19.2837614  53.7824035  29.9475846  19.5233617  53.9902019  29.1351189
  19.6053455  52.9781544  30.0564790  19.3674772  53.6938137  29.8436399
  14.5927904  45.7117431  33.7935384  15.3473872  46.0795748  33.5552434
  14.4155438  46.0856985  34.5614563  14.6782382  45.8215619  33.8720272
  13.2348625  63.7669320  38.4250876  13.9369204  63.2521309  38.4823633
  13.1546108  64.0943472  39.2297752  13.3272386  63.7383547  38.5523669
  27.8862803  51.8611872  41.8382923  27.0491224  51.9314059  42.0730517
  27.8551034  51.8636366  40.9657225  27.7581085  51.8722099  41.7442471
  14.2827532  54.0044907  47.5531292  14.4548035  53.8950802  48.4016573
  14.8196889  54.6499313  47.3162484  14.3872536  54.0836909  47.6436388
  12.9484969  48.1187750  30.4913497  12.7660542  48.3359631  29.6654489
  13.8110582  48.2326763  30.5472111  13.0489558  48.1677648  30.3767984
  12.5599401  59.9575672  37.9336484  13.3988300  60.1898605  37.9810246
  12.5911170  59.0879984  37.8643520  12.6881118  59.8632619  37.9301129
  13.1852104  60.3776548  42.2349790  13.7250328  60.2347679  42.9053162
  12.5022050  60.7773298  42.6033816  13.1644257  60.4156218  42.3884212
  18.6284688  45.1214161  33.5262520  19.3570848  44.9430116  33.0800677
  18.7179581  45.9632241  33.7369698  18.7491350  45.2198039  33.4916038
  22.6092988  56.0567548  37.4294814  23.3650503  56.4899062  37.4683723
  22.7155313  55.4072318  38.0029450  22.7363159  56.0245032  37.5192840
  25.6473160  59.8840825  38.1797217  25.2108391  59.8877568  38.9356189
  25.3136075  60.5646324  37.7476795  25.5335779  59.9853281  38.2278050
  20.2202233  61.9249158  49.5040368  21.0042650  62.0380006  49.8696110
  20.0198828  61.0990295  49.6999053  20.3068259  61.8195878  49.5874754
   8.5889249  56.5976838  42.3884211   8.3227664  55.7815955  42.5475202
   8.6027813  56.6429994  41.5179727   8.5513971  56.4833743  42.2837693
  12.4946996  51.3961923  29.0035970  11.7805173  51.1100102  29.4158402
  12.9790964  51.7358549  29.6442357  12.4606359  51.4043572  29.1591605
  13.3387855  50.1355217  45.0351219  12.6459652  49.6652196  45.2811951
  13.9548182  49.9093521  45.6092926  13.3272385  50.0322348  45.1560372
  20.3772626  63.8359260  43.1506823  19.5787872  63.5958760  43.4080692
  20.8258638  63.8873653  43.8973871  20.3247238  63.8081651  43.2991747
  19.6694313  59.8991877  29.3797778  20.0845462  59.5676901  28.6882274
  18.8386243  59.6660779  29.2517914  19.6082322  59.8163133  29.2588625
   8.9982662  57.3835618  39.6695956   8.8158235  57.3582504  38.8168248
   9.7332331  57.8534556  39.7084865   9.0796726  57.4496980  39.5493874
  12.0628414  54.1020621  46.1778064  12.7868386  54.0873651  46.6642959
  12.1644550  54.8115976  45.6800033  12.1846623  54.2045324  46.1756851
  19.4373363  57.5819705  51.0427011  18.6446344  57.8963217  51.2279631
  19.5522290  57.7971174  50.2047796  19.3368774  57.6603542  50.9465346
  22.1104682  54.3053696  35.3322027  22.2051537  55.0442990  35.7861653
  21.4863526  53.8771172  35.7656592  22.0313712  54.3515017  35.4630175
  20.3657156  57.4839909  45.9812308  20.9396018  56.8467153  46.1360872
  20.2871960  57.4843991  45.1121966  20.4390391  57.3905020  45.8758719
   8.9653573  54.2629118  39.8195022   9.5427075  54.1265569  40.4587268
   8.2667634  53.8064903  40.0740607   8.9474594  54.1751385  39.9517312
  22.3627704  56.1502436  28.5658979  22.2807866  56.2204623  29.4313966
  23.0007424  56.7132180  28.3742720  22.4447541  56.2441407  28.6648929
  15.7220875  55.9163174  38.0333506  15.4640119  55.0834909  38.0064805
  15.7769358  56.1420787  37.1926006  15.6920653  55.8260945  37.9053642
  20.8021925  48.0191625  38.1337598  20.0978252  47.5300810  38.2921517
  20.8506899  48.0314099  37.2626043  20.7051976  47.9481273  38.0276938
  14.6955587  53.4700937  38.5198400  14.1205178  53.6293105  39.1562361
  14.3191263  52.8336346  38.0566851  14.5558399  53.3998749  38.5452959
  18.3628876  51.9424286  43.3790779  17.9743308  51.5178504  42.7242970
  17.6983574  52.1906435  43.8867805  18.2075803  51.9163007  43.3578647
   4.4412406  53.1141011  36.5342841   4.5272658  52.7372880  37.3156371
   5.0688203  52.7401457  36.0562799   4.5468957  53.0026493  36.5788318
  22.1855237  45.6398915  40.8914763  22.5665749  44.9577086  41.2782637
  21.3818521  45.3508517  40.7090427  22.1231699  45.4965963  40.9218819
  19.4667814  56.1722890  31.5767586  20.2808453  56.4637783  31.4650357
  19.4026955  55.5182753  31.0025879  19.5770553  56.1188085  31.4756423
  25.6877304  58.8548887  45.9897161  25.4515941  58.0236951  45.8709222
  26.3320533  58.8034494  46.5752006  25.7471975  58.7246574  46.0583055
  15.3375722  59.6444408  36.7039898  15.9749669  59.4056155  37.2491691
  15.7630794  59.8481567  35.9693058  15.4951888  59.6395418  36.6757055
  10.0288364  61.8832744  40.5874202  10.0692510  62.1547595  39.7593981
  10.5882889  62.4074652  41.0031989  10.1171710  62.0008499  40.5266090
  15.9778537  54.8646698  31.0414787  16.3623690  54.6454404  31.7931332
  15.7290157  55.6909643  31.1715864  15.9980610  54.9544844  31.1715864
  16.1447078  48.1453113  50.7577371  15.8300519  48.9152676  50.4946934
  15.8237010  47.5823369  50.1729598  16.0505997  48.1763381  50.6318721
  26.7113725  58.6393335  42.0525456  26.4059542  59.3721392  42.4138771
  25.9919940  58.2331265  41.7718242  26.5601067  58.6875068  42.0638593
  17.7197194  60.1216830  38.3833684  17.7936202  59.9592002  39.2375534
  18.5366700  60.3107020  38.1394166  17.8513553  60.1253573  38.4731710
  32.4115517  55.2786336  41.3793800  32.3440017  55.2982295  40.5096387
  32.3971179  56.1216663  41.6049471  32.3994273  55.4060071  41.2846277
  11.4802951  60.4674693  35.4128128  10.6541068  60.7136430  35.2862406
  11.5414942  60.3886774  36.2790186  11.3677118  60.4919642  35.5217072
  13.6978974  46.5343634  36.3723568  12.8301400  46.6066234  36.4381177
  13.9854179  47.3365713  36.5611543  13.6118723  46.6637781  36.4098334
  22.8211863  46.6821494  44.7034890  23.5665455  46.4931304  44.2898315
  22.4049168  47.2079732  44.1448746  22.8696837  46.7323639  44.5599463
  16.2601780  63.0851574  33.1147157  16.5500078  62.6940555  32.3906384
  16.9905261  63.2668278  33.5552433  16.4108664  63.0545387  33.0729964
  16.8496525  57.8869319  44.2000288  16.3508219  58.5985087  44.2785176
  17.6596749  58.2069986  44.1618450  16.8952632  58.0396168  44.2056856
  14.2007695  65.0618956  36.1807307  13.9807991  64.7716311  36.9733974
  13.9802217  64.4033911  35.6525220  14.1355290  64.9218664  36.2196216
  13.1124643  57.1492272  38.4463009  12.8237891  56.5229744  38.9808736
  13.9807991  57.0912560  38.5127689  13.1984894  57.0479817  38.5353963
  23.9002540  52.2927056  38.7644991  23.5567306  51.5717391  39.1152240
  23.9995583  52.0840907  37.9223349  23.8644583  52.1551259  38.6916671
  16.3675651  66.4348346  34.9638000  17.0199709  65.9024788  35.1929026
  15.6701260  66.0816998  35.3505874  16.3606369  66.3037869  35.0550167
  13.3156916  58.7887524  34.3705374  14.0702884  59.1700563  34.5840836
  12.7227529  59.2398667  34.8252070  13.3393629  58.9116351  34.4688252
  24.3615569  58.7552760  34.3068979  24.9273602  59.4145970  34.2227522
  23.7143473  59.1002458  34.7785381  24.3494326  58.9034701  34.3641735
  15.7763583  50.7450364  49.4962586  14.9663359  51.0508144  49.3852428
  16.2538270  51.4655946  49.6115170  15.7267062  50.8964965  49.4969657
  14.6355143  59.9596085  39.7445489  14.1135896  60.0996377  40.4297354
  15.0229163  59.2006749  39.9347607  14.6158843  59.8681609  39.8746566
  11.6246327  50.0101894  33.8140444  11.3371122  49.6403164  33.0772391
  12.3116795  50.4796749  33.5524149  11.6835224  50.0248863  33.6655520
  20.8322147  61.6991544  33.7306058  20.5908823  60.9659405  33.3233123
  21.0123480  62.2478401  33.0772391  20.8229771  61.6713935  33.5736281
  16.0621468  56.9900104  35.1426980  15.8664251  57.5974838  34.5487283
  16.2855814  56.2968048  34.6618654  16.0656109  56.9777629  34.9843061
  14.4599998  53.8754842  35.2607849  15.1822650  54.0396000  34.8011655
  13.9807991  54.5964507  35.1547188  14.4963729  54.0053071  35.1773463
  22.4193506  50.2118641  40.6404534  21.5804606  50.2379919  40.4042797
  22.4897873  50.8589376  41.2209880  22.3061899  50.3114766  40.6913650
  12.1107615  56.2812914  44.3661989  12.6228712  56.5597167  43.7170748
  11.8243957  57.0202208  44.7324802  12.1442478  56.4315268  44.3251867
  20.8662784  47.1104018  35.3732150  21.5689137  46.9111766  34.8952108
  20.6006973  46.3379960  35.6800993  20.9309416  46.9666984  35.3477591
   9.1974521  50.7883106  34.6625725   9.2990658  51.5909267  34.9906700
   9.9930408  50.5870442  34.3648806   9.3302427  50.8769005  34.6661080
  15.6291340  48.3739303  44.4263030  15.4374537  48.3894437  45.2762454
  16.4789936  48.5702977  44.4029685  15.7267062  48.4053654  44.5486325
  10.0138253  50.9030284  42.4046847   9.8723745  50.0514225  42.5291355
  10.2978817  50.9458945  41.5809053  10.0346099  50.7830034  42.3014471
  20.1676846  52.7397374  36.5491335  19.9211560  52.6593125  37.3828124
  20.4961969  51.9550842  36.3553862  20.1798089  52.6123640  36.6438858
  24.0624894  59.4480734  40.3378116  23.9239254  60.1461780  40.8426858
  23.2824892  59.2929390  39.9814298  23.9268121  59.5280900  40.3604390
  22.4002980  55.7477109  46.5900498  22.3951018  54.8756926  46.5942924
  23.1063973  55.9465278  46.1169953  22.5047984  55.6480983  46.5207533
  16.1273873  55.4754093  45.9614318  16.2717249  56.0555301  45.3257428
  16.4749521  55.8530390  46.6664173  16.2001334  55.6174797  45.9713313
  18.2993790  54.6744261  43.7439450  17.5517104  54.8675276  43.3387728
  18.4535315  53.8489481  43.5063571  18.2116218  54.5809373  43.6484855
  15.2001628  63.6656865  42.8275345  15.3491192  63.1059781  42.1748749
  15.9801630  63.7448867  43.2107864  15.3375722  63.5942430  42.7872294
  25.5578267  58.8058988  31.0994615  25.1785076  58.0196126  31.0923905
  24.8944513  59.3545845  30.9566260  25.4036742  58.7703812  31.0775412
  17.7254929  63.8371508  44.1059836  17.6498600  63.1680318  44.6610624
  17.6544788  64.5389296  44.6200502  17.7035535  63.8416415  44.2636684
  18.5395567  48.5694812  44.6334853  18.9968181  49.3018786  44.7607645
  18.6151896  48.1461277  45.3922109  18.6186537  48.6152050  44.7635930
  10.7828558  48.8160632  45.7224297  10.2470748  48.2040990  46.0385064
  10.8446323  49.3908768  46.3757964  10.7124191  48.8107560  45.8659724
  18.3825175  62.3572507  34.9383442  19.1475067  62.0882150  34.6166106
  18.2803265  61.8722517  35.6553504  18.4806671  62.2462071  34.9963269
  16.4177945  50.5596916  41.4776677  15.6274020  50.3788376  41.7994013
  16.8138568  49.7823869  41.4606972  16.3594821  50.4184377  41.5229226
  20.9043836  59.3884690  26.9183391  21.6716821  59.4484815  26.5089243
  20.4575145  58.8165132  26.4339709  20.9517263  59.3121266  26.7861101
  21.8021631  58.1939346  39.2036123  21.1266633  57.9624578  39.7049510
  21.8114008  57.5860529  38.5778228  21.7040136  58.0698271  39.1852275
  18.9315775  53.0357175  45.9600176  18.8674917  53.8967132  45.8320313
  19.0712963  52.7189168  45.1595728  18.9431246  53.1157342  45.8228389
  23.8038366  61.0504479  31.4346301  23.8858203  61.8571465  31.1107752
  24.2888108  61.0700438  32.1587075  23.8875524  61.1725141  31.4933200
  17.6134869  55.7289315  40.1016379  17.1897118  55.9293814  39.3655397
  17.4379725  54.8818163  40.2140679  17.5245750  55.6338096  40.0090069
  17.1146563  67.2439828  42.5637836  17.6042493  66.5450617  42.3813501
  16.5430795  66.9463698  43.1513894  17.1031093  67.0966051  42.6238877
  12.9017314  56.2241366  35.5344352  13.0581933  56.1588169  36.3900344
  13.2417907  56.9989919  35.3223031  12.9750549  56.3290564  35.6298946
  19.4396459  55.5999250  34.4037715  19.9812004  55.0969631  34.8676335
  19.7543018  55.5464444  33.5927200  19.5660856  55.5178670  34.3521527
  23.3113566  59.8101897  51.5164627  24.1248432  59.5387046  51.6769760
  23.1508533  59.5109437  50.7124823  23.4083515  59.7256823  51.4210033
  17.6082909  60.9916601  31.6877743  17.6775729  60.1331140  31.8270743
  18.3871364  61.2088482  31.3596767  17.7335759  60.8969465  31.6594900
  20.5885728  50.4935554  44.4560015  20.8027698  49.8546468  43.9023369
  19.9719627  50.9381378  44.0267877  20.5291058  50.4645698  44.3110446
  21.9990396  63.4154302  35.9014236  21.6070188  63.1121018  35.1837102
  22.1543468  64.2523392  35.7119190  21.9643986  63.4938139  35.7670733
   9.4751576  53.4076316  35.8505119   9.8550541  53.8260861  35.1865386
   8.9006941  53.9889772  36.1573962   9.4462901  53.5554175  35.7981860
  22.7524816  52.1024619  45.3943322  21.9401498  51.7950510  45.4756495
  23.2114751  51.6223619  45.9586035  22.7005201  51.9861112  45.4897917
  22.1630071  59.9804291  35.8420267  21.8044726  60.1518934  36.6184299
  21.6768782  60.4417497  35.2848265  22.0388768  60.0743262  35.8745536
  19.9800457  43.6035490  39.4447358  19.1094015  43.5774211  39.3980668
  20.2340798  43.4312682  38.6273204  19.8894017  43.5745633  39.3167495
  16.9518436  55.6603457  28.3820501  17.2410961  56.4368339  28.6564075
  17.0390235  55.1492188  29.0835000  17.0072693  55.6995375  28.5262999
  19.8478324  53.5084691  50.1772025  20.3177955  54.1326807  50.5639899
  19.8940204  52.8401666  50.7365239  19.9246200  53.5019371  50.3172096
  17.0049597  45.6141718  40.9020828  16.4888086  44.9221910  41.0272407
  16.4443526  46.2812495  40.8483427  16.8456111  45.6104976  40.9126894
  19.0741831  46.1534678  42.7313681  18.6873584  46.1783710  43.5127211
  18.5874768  45.5876357  42.2788198  18.9454340  46.0730429  42.7801585
  23.3234810  60.8708187  46.7887468  23.9614531  60.3768383  46.4549924
  22.6808902  60.7985588  46.2039694  23.3229037  60.7867196  46.6529823
  25.0491810  52.7197333  41.3553383  24.6219419  52.6323682  40.6001483
  24.4117863  52.8275109  41.9408227  24.8921418  52.7229993  41.3298825
  18.7398973  43.0401664  45.0223941  19.3692091  43.5761964  44.7445011
  18.9084835  42.9479023  45.8737507  18.8576767  43.1063026  45.1072469
  18.5412888  47.8272858  47.2950353  19.3686317  47.5558007  47.3508967
  18.5620734  48.6233700  47.6514171  18.6665738  47.9052613  47.3565535
  23.3789067  61.5627995  43.4292824  24.1681445  61.2117060  43.5494906
  23.5532665  62.3764384  43.1669458  23.5209349  61.6313853  43.4080692
  13.1182377  54.9736721  40.4820613  12.2770384  54.8740595  40.6899507
  13.3272385  55.7432201  40.8334934  13.0247070  55.0728765  40.5647928
  10.5957944  52.5956258  38.3105364  10.2014642  52.6699270  37.5355474
  10.0398061  52.9814204  38.8613726  10.4560757  52.6638033  38.2773024
  16.9299042  52.9018120  39.7318211  16.6262180  52.3474109  40.3328618
  16.2278463  53.0810330  39.2446245  16.7815252  52.8462903  39.7487916
  15.9865139  50.2118640  34.2962913  16.2624874  49.4937553  33.8840480
  16.5863809  50.8103560  34.0884019  16.1158404  50.1939011  34.2043674
  14.9917393  60.1167841  44.4390309  14.8837748  60.1269903  45.3052367
  15.2013175  60.9422621  44.2495262  15.0067504  60.2408916  44.5394400
  19.4875660  47.8832158  32.5709508  19.9419406  48.0542718  33.2957352
  19.9615706  47.2700268  32.1707283  19.6243980  47.8183043  32.6183269
  13.0091185  57.3680484  41.9012246  12.4179118  58.0089982  41.8715261
  13.7712209  57.7918101  41.8743546  13.0339446  57.5256322  41.8927393
  13.4051808  48.5282481  42.5680264  13.8653290  48.6021411  43.3055387
  13.4507915  49.3263735  42.2180085  13.4802363  48.6576628  42.6253020
  15.0535158  49.1949176  47.1352291  14.6620723  48.5482523  47.5708069
  15.2221021  49.7860611  47.7546546  15.0206068  49.1863444  47.2914997
  29.1281607  57.1986253  42.8989524  29.1864730  57.6472902  43.6449501
  28.4948074  57.6085066  42.4619604  29.0432902  57.3259988  42.9442073
  22.7680701  62.8189795  39.3344271  22.5700390  63.3080610  38.6400482
  22.1468413  63.0231037  39.9128404  22.6468266  62.9206333  39.3167494
  16.8288680  54.5874692  33.6754515  17.5730725  54.9748968  33.9137465
  16.9749376  53.7432117  33.8395003  16.9599265  54.5205165  33.7348485
  18.7468255  46.3824951  38.7086376  17.9004300  46.5547759  38.5827726
  18.7439388  45.5774295  39.0452205  18.6215405  46.2885980  38.7397503
  19.8166556  50.1600165  39.5748434  19.3426510  49.6341927  40.0853745
  20.1884691  49.6129638  39.0063296  19.8016445  50.0016162  39.5663581
  10.1939586  52.1571672  44.9431980  11.0565199  52.0567381  44.8569310
   9.8631369  51.5766381  44.3817552  10.2724782  52.0563299  44.8477386
  26.0803286  55.2202541  40.9855215  25.8401509  54.3808956  40.9897641
  26.5595293  55.3002708  41.7095988  26.1155470  55.1083941  41.0930017
  21.7450055  51.0536720  32.6374188  21.2173074  51.1365464  31.9479897
  22.2045763  51.7954591  32.6338833  21.7351906  51.1757382  32.5348883
  28.0808473  52.0003998  38.9384474  27.8418243  51.9599832  38.1005258
  28.2442375  52.8475150  39.0650195  28.0698777  52.1196083  38.8337956
  24.6854503  56.3853947  44.8689519  25.4088702  55.9326474  44.6900539
  24.4204466  56.6658613  44.0861847  24.7535777  56.3604916  44.7268234
  13.5541372  50.9814121  41.6042398  12.9294442  50.9932513  40.9968351
  13.2186967  51.4574296  42.2533638  13.4126864  51.0532638  41.6098967
  13.7383120  49.3239239  27.6615083  13.3895925  49.9758965  28.1246632
  13.2579566  49.3096352  26.9338954  13.6153364  49.4182293  27.6226174
  10.2667047  59.0414581  43.0446162   9.7366972  58.3507020  43.0941137
  10.5392141  59.0324766  42.2158871  10.2291770  58.9381713  42.9293578
  21.2987138  59.6240283  31.7683845  22.0221337  60.0898396  31.6248418
  20.8587729  59.6913893  31.0181442  21.3402830  59.7024120  31.6368626
  20.4673293  56.4837826  43.0184534  19.8530286  55.9395876  43.3133169
  20.9840578  55.9702062  42.5390350  20.4528955  56.3274235  42.9908762
  19.7069590  57.5542096  40.7528833  19.2797198  56.9291814  40.3194268
  19.6994534  57.2717018  41.5787840  19.6428731  57.4194876  40.8108660
  12.8232117  52.5907269  43.8217267  12.9825604  51.8350593  44.2268989
  12.6425011  53.1398208  44.4758004  12.8197476  52.5601082  43.9779973
  20.7652420  44.7568504  44.3768056  20.2692981  44.9532179  43.6859623
  21.5221482  45.1561173  44.2056858  20.8039245  44.8446238  44.2488193
  18.0355300  48.4310850  40.9671367  18.0597787  47.8970962  40.2784147
  18.2866773  47.9228159  41.6296957  18.0765218  48.2771754  40.9636011
   5.5462890  55.7142345  40.4014511   5.4406339  55.6689190  39.5366595
   4.7963110  56.0596126  40.6828796   5.4198493  55.7583253  40.3151840
  14.3156622  47.1581668  40.3477111  14.3554994  47.6590875  41.0611818
  13.4906287  47.2492062  40.0783034  14.1996148  47.2463485  40.4127649
  16.4986235  56.7242408  48.4497406  15.6481865  56.8614123  48.5855050
  16.6614363  55.9906187  48.8945107  16.3970098  56.6356510  48.5353005
  15.7370985  53.6742178  42.6451010  14.9062915  53.8415996  42.4386258
  15.6822503  53.2978129  43.4299895  15.6060400  53.6431910  42.7299538
  13.5454769  47.1651071  48.2807421  14.1707472  46.6213204  48.5536853
  13.0905249  46.6845989  47.7115211  13.5703029  47.0140553  48.2369014
  14.1107029  51.9497770  33.1741128  14.2509990  52.4470234  33.8769769
  14.6089562  51.2484064  33.3155341  14.2048110  51.9199749  33.2992707
  14.1407252  52.8164881  30.5033704  14.7752331  53.4125306  30.4383166
  14.2232862  52.5168338  31.3179575  14.2463803  52.8605789  30.6136791
  27.1189817  55.3480358  43.3720069  27.7107658  55.9877609  43.4038267
  27.5548812  54.6503395  43.6612135  27.2708249  55.3398709  43.4200901
  15.7186234  48.7478856  30.4779146  16.0402076  48.2681939  29.8238409
  15.9813178  49.5578502  30.2869958  15.8052260  48.7968754  30.3534639
  18.9483207  59.7697731  43.9977963  18.4408298  60.3233577  44.4418593
  18.6509853  59.8306020  43.1796737  18.8288092  59.8604042  43.9426419
  21.1145389  48.1351050  42.8402626  21.5400461  47.6823577  42.2286152
  20.5002383  47.5811121  43.1167413  21.0874035  47.9865026  42.7907651
  10.6460239  55.0132722  33.7723251  11.1552469  55.6097229  34.1534556
  11.1194512  54.7458695  33.0899670  10.7903615  55.0618537  33.7277773
  21.5590988  63.6860988  31.9281906  20.8420297  63.5121851  31.4629143
  22.2097725  63.4513561  31.3957392  21.5492838  63.6256781  31.7811124
  19.5539612  44.6066150  36.2493203  18.9107930  44.4563796  36.8178341
  19.2139019  44.3608495  35.4842307  19.4084690  44.5478272  36.2196218
  24.1438959  52.5625577  35.6723211  23.4730149  53.1055279  35.5436277
  24.8378709  53.0320432  35.4304906  24.1467826  52.7123848  35.6178739
  18.1925692  64.7022289  40.9034969  17.9691347  63.9441118  41.2718996
  17.7035536  64.7320310  40.1815409  18.0869142  64.5944513  40.8511710
  24.3067086  49.0181460  38.5813584  24.6594696  48.5911183  39.2559383
  23.4481888  48.9332304  38.7114661  24.2316531  48.9426201  38.7008595
  13.0050771  51.6488980  36.6396431  12.2862760  52.0653113  36.9069294
  13.3763133  52.2143219  36.0888069  12.9542703  51.7938262  36.5979238
  22.3050352  52.2816829  42.5298427  22.2848279  52.1000124  43.3833206
  22.3529553  53.1528848  42.5058010  22.3084993  52.3833367  42.6521721
  20.2496682  58.8704021  48.4546903  20.2092537  58.2253698  47.8692059
  21.0620000  58.8140638  48.7672315  20.3639835  58.7662988  48.4143852
  16.8404149  64.9222747  38.3572054  16.4264548  64.2596877  37.9675896
  17.5251524  65.0700606  37.8367748  16.8802521  64.8463405  38.2228551
  20.2069444  64.0812832  39.1095671  19.8085727  64.1915103  38.3416491
  19.5920663  64.2894899  39.6922230  20.0568333  64.1286400  39.0826970
  18.7797346  50.6886980  31.9769810  18.1862185  51.0103977  31.4254377
  18.8172623  49.8428075  31.7690917  18.6971735  50.6111308  31.8652582
  21.6555162  50.6466485  35.4071561  21.4268855  50.6699186  34.5649919
  21.9153238  49.8223952  35.5266571  21.6601350  50.5282564  35.2996758
  15.9374391  52.5000958  45.0096661  15.4253294  51.8922141  45.3681692
  15.7653887  53.2157550  45.4770637  15.8364028  52.5164257  45.1312885
  10.7840105  50.9438533  47.6599023  10.6142696  51.6039908  47.1147229
  10.3406055  51.1545094  48.3811512  10.6939439  51.0724515  47.6860652
  14.7099925  49.1843031  36.7025756  15.1857291  49.5460111  36.0675937
  14.2088524  49.8399498  36.9825899  14.7065284  49.3337220  36.6502497
  19.8143461  50.4225202  47.4498916  20.3714891  50.1939012  46.8177382
  19.4904526  51.1830868  47.1734129  19.8489871  50.5009039  47.3155413
   7.6842170  53.8485398  42.9187512   7.1368889  53.1786044  43.0368381
   8.4734548  53.4815246  42.9830980   7.7194353  53.6950385  42.9456213
  17.5326578  53.5092856  48.4150924  18.2837905  53.8244532  48.7290478
  17.7249155  53.3072026  47.5884845  17.6717992  53.5260237  48.3394319
  16.7526578  51.3284231  30.0699140  17.1325543  51.3463860  29.2850255
  16.0119174  51.7738219  29.9489988  16.6995416  51.3966005  29.9362708
   6.4429139  53.0606206  40.0733536   6.2650900  52.6082815  40.7988451
   6.1548161  53.8632368  40.2572013   6.3742092  53.1128764  40.2077038
  22.1052720  54.3163924  39.3110926  22.6006386  53.5986919  39.2714946
  21.2952496  54.0134721  39.1965413  22.0596614  54.1661570  39.2884652
  17.5511332  58.1661737  31.4607930  16.7422655  57.8428410  31.4141240
  18.0586241  57.4594959  31.3936179  17.5060999  58.0143053  31.4438225
   8.1801609  55.5933930  37.1855295   7.3147129  55.5819620  37.0738066
   8.2800425  55.4064153  38.0326434   8.0675776  55.5639991  37.2944239
  24.1704539  57.0667611  41.9988055  24.5959611  56.5442033  41.4458480
  23.8061459  57.6648449  41.4776678  24.1791142  57.0777838  41.8397064
  13.8058619  65.3631829  40.7585400  14.1205178  66.1768217  40.7663182
  14.2152032  64.9782047  41.4267559  13.9126717  65.4260531  40.8589492
  20.7583139  60.7801875  38.3289212  21.2294317  61.4942138  38.4979197
  21.0943317  60.1800626  38.8649082  20.8778254  60.7973340  38.4321588
  22.8460123  62.3903189  50.5081284  22.9557089  61.6011749  50.8638031
  23.1751020  62.3009125  49.7055622  22.9112529  62.2609042  50.4423675
  17.6752634  45.5529346  45.2847307  17.8080539  44.7560339  45.6128282
  18.0597786  46.0795749  45.8645582  17.7508963  45.5129263  45.4190810
  21.3957085  60.5719810  45.0916905  20.8478031  59.9477693  44.8236970
  21.8570114  60.7614082  44.3760984  21.3824294  60.5078860  44.9467336
  20.7484989  42.4759672  41.8828400  19.9430953  42.3657402  42.1996238
  20.6191724  42.5772128  41.0258266  20.6105122  42.4743342  41.8036441
  24.2050949  48.6405164  42.4768097  23.6213938  49.1414371  42.0645664
  24.5255243  48.1334720  41.8432420  24.1664125  48.6396999  42.3226604
  16.7445749  47.5545759  32.7526772  17.5661443  47.7244072  32.5108467
  16.2815399  47.7093020  32.0293069  16.7976911  47.6027492  32.6098416
  15.3341080  45.5488521  43.5325201  15.8785493  45.2079648  44.1229542
  15.3878016  46.4073983  43.6746485  15.4230200  45.6243780  43.6407074
  11.1471639  59.3104937  40.4064008  11.7516497  59.2700771  39.7777829
  10.9398952  60.1576089  40.4368064  11.2060536  59.4292940  40.3180125
  20.9615411  61.5770882  41.6226246  21.7813785  61.4333848  41.8842541
  20.6809489  62.2017081  42.1642684  21.0412155  61.6481234  41.7414185
   6.3822921  58.2939555  40.2762932   6.2847200  57.4835826  40.5852988
   7.1651791  58.2731348  39.8909200   6.4839058  58.1706645  40.2649795
  37.4329062  69.2335734  34.5869122  37.4023066  70.0880371  34.7587392
  38.0310410  68.9331027  35.1455266  37.5166220  69.3152231  34.6943925
  30.6328747  68.3211385  39.3422053  29.7766642  68.4819883  39.3931169
  30.6796400  67.4503449  39.3627114  30.5127858  68.2162187  39.3528119
  33.9422463  74.5897911  48.9482509  34.6489230  74.0949941  49.0769443
  34.1310399  75.0306992  48.2185167  34.0750369  74.5816261  48.8591554
  33.4780568  70.3803429  41.9853704  34.0236528  71.0588515  42.0447674
  33.4197444  70.2390890  41.1255286  33.5496482  70.4595431  41.8665765
  35.2545636  71.8088036  32.8587432  35.1385162  72.5595722  33.2879570
  36.0501523  71.5511989  33.1083519  35.3550226  71.8822883  32.9591524
  22.0909774  66.0598512  39.8958698  21.4714806  65.4691159  39.7268713
  21.9893638  66.6509947  39.2623021  21.9847450  66.0602595  39.7763688
  27.1375962  75.7982059  34.1456774  27.4591803  76.3387266  33.5418083
  27.7848058  75.2278830  34.2779064  27.2802017  75.7941234  34.0763810
  29.1877670  67.7998054  34.2291161  29.8857835  67.9786181  34.7212624
  29.5030002  67.2768393  33.6061551  29.3373007  67.7491826  34.2093171
  21.8178907  69.6050794  42.1402267  21.6937604  70.1913239  42.7752086
  22.4697192  69.1110990  42.4414542  21.8952557  69.6189598  42.2788196
  29.3765605  74.1868499  34.2170953  29.8159241  73.5785599  34.6625725
  29.2270268  73.8075872  33.4456418  29.4187071  74.0406970  34.1690120
  26.8437248  72.7812511  41.4189778  27.4886251  72.2884954  41.1000727
  27.0839025  72.9237297  42.2455856  26.9747833  72.7289953  41.4939311
  29.3823340  75.6267417  41.0696671  29.6646582  74.8318822  40.8483427
  30.1109500  76.1048004  41.0901732  29.5312903  75.5802014  41.0399686
  27.3604533  63.1690451  38.3112436  27.0307863  63.6201594  37.6416135
  26.6849535  63.0906614  38.8585442  27.2114970  63.2241586  38.2935659
  32.9774942  72.5395680  31.1701722  32.8926237  73.3956647  31.3151291
  33.4659325  72.2640004  31.8383881  33.0363839  72.6253002  31.2903803
  33.9093375  69.1580474  32.6699457  33.3804846  69.3740108  33.3296763
  34.4318395  69.8516613  32.5900426  33.9081828  69.2923611  32.7555056
  39.3641428  74.7326779  38.0432501  38.5339131  74.9437423  38.2065918
  39.3150680  73.9063833  37.7674785  39.2348163  74.6416385  38.0269867
  25.7992983  73.0543691  31.4706925  25.2150198  73.5593723  31.8772789
  25.3963078  72.8286078  30.7303517  25.6532287  73.0951940  31.4211950
  31.0814757  78.0125447  46.8396584  31.1698103  77.8251588  47.6874794
  31.5104470  77.3662877  46.4401431  31.1576860  77.8888455  46.9068336
  30.2570197  69.3009343  29.9475846  30.4966201  69.5087327  29.1351189
  30.5786038  68.4966852  30.0564790  30.3407355  69.2123444  29.8436399
  25.5660487  61.2302739  33.7935384  26.3206456  61.5981056  33.5552434
  25.3888022  61.6042293  34.5614563  25.6514966  61.3400927  33.8720272
  38.8595386  67.3797180  41.8382923  38.0223807  67.4499367  42.0730517
  38.8283617  67.3821674  40.9657225  38.7313669  67.3907407  41.7442471
  25.2560115  69.5230215  47.5531292  25.4280619  69.4136110  48.4016573
  25.7929473  70.1684621  47.3162484  25.3605119  69.6022217  47.6436388
  23.9217552  63.6373058  30.4913497  23.7393125  63.8544939  29.6654489
  24.7843165  63.7512071  30.5472111  24.0222142  63.6862956  30.3767984
  33.5825572  71.5752856  37.4294814  34.3383087  72.0084370  37.4683723
  33.6887896  70.9257626  38.0029450  33.7095743  71.5430340  37.5192840
  36.6205743  75.4026133  38.1797217  36.1840975  75.4062876  38.9356189
  36.2868659  76.0831632  37.7476795  36.5068363  75.5038589  38.2278050
  31.1934817  77.4434466  49.5040368  31.9775233  77.5565314  49.8696110
  30.9931411  76.6175603  49.6999053  31.2800842  77.3381186  49.5874754
  19.5621832  72.1162146  42.3884211  19.2960247  71.3001263  42.5475202
  19.5760396  72.1615302  41.5179727  19.5246554  72.0019051  42.2837693
  36.5403226  62.4439961  40.4226645  37.1829134  62.5138066  41.0088561
  36.7926247  61.7769184  39.9206187  36.6725358  62.3566310  40.4353924
  23.4679579  66.9147231  29.0035970  22.7537756  66.6285410  29.4158402
  23.9523548  67.2543856  29.6442357  23.4338942  66.9228880  29.1591605
  24.3120439  65.6540525  45.0351219  23.6192235  65.1837504  45.2811951
  24.9280766  65.4278829  45.6092926  24.3004968  65.5507656  45.1560372
  39.7550089  72.1207053  37.0716855  40.4166523  71.5597722  36.9712763
  39.1141501  71.6259084  37.3969546  39.7578957  71.9643462  37.1049195
  30.6426897  75.4177185  29.3797778  31.0578046  75.0862208  28.6882274
  29.8118827  75.1846087  29.2517914  30.5814906  75.3348441  29.2588625
  19.9715246  72.9020926  39.6695956  19.7890819  72.8767812  38.8168248
  20.7064915  73.3719863  39.7084865  20.0529310  72.9682288  39.5493874
  36.0414920  73.1372436  36.8128843  36.2770509  73.2817634  35.9855694
  36.1904484  73.9014844  37.2060357  36.0980723  73.2711490  36.7492447
  23.0360997  69.6205928  46.1778064  23.7600970  69.6058959  46.6642959
  23.1377134  70.3301284  45.6800033  23.1579207  69.7230632  46.1756851
  37.8705377  71.9774102  34.6498447  38.2013594  72.5101742  34.0438542
  38.4438465  72.0312989  35.3060398  38.0039056  72.0643670  34.6576229
  30.4105947  73.1005013  51.0427011  29.6178928  73.4148525  51.2279631
  30.5254874  73.3156482  50.2047796  30.3101357  73.1788850  50.9465346
  33.0837266  69.8239004  35.3322027  33.1784120  70.5628298  35.7861653
  32.4596109  69.3956480  35.7656592  33.0046296  69.8700325  35.4630175
  31.3389740  73.0025217  45.9812308  31.9128601  72.3652461  46.1360872
  31.2604543  73.0029299  45.1121966  31.4122975  72.9090328  45.8758719
  19.9386156  69.7814426  39.8195022  20.5159659  69.6450877  40.4587268
  19.2400218  69.3250210  40.0740607  19.9207178  69.6936693  39.9517312
  33.3360287  71.6687744  28.5658979  33.2540450  71.7389931  29.4313966
  33.9740008  72.2317488  28.3742720  33.4180125  71.7626715  28.6648929
  26.6953458  71.4348482  38.0333506  26.4372703  70.6020217  38.0064805
  26.7501941  71.6606095  37.1926006  26.6653236  71.3446253  37.9053642
  25.6688170  68.9886244  38.5198400  25.0937762  69.1478413  39.1562361
  25.2923847  68.3521654  38.0566851  25.5290983  68.9184057  38.5452959
  29.3361459  67.4609594  43.3790779  28.9475892  67.0363811  42.7242970
  28.6716157  67.7091743  43.8867805  29.1808387  67.4348315  43.3578647
  38.9784728  67.2184598  36.1538609  38.7221293  66.4064540  35.9636492
  39.8214042  67.2262166  35.9268796  39.0650754  67.0996596  36.0923426
  15.4144989  68.6326319  36.5342841  15.5005241  68.2558188  37.3156371
  16.0420787  68.2586765  36.0562799  15.5201540  68.5211801  36.5788318
  33.1587821  61.1584222  40.8914763  33.5398332  60.4762394  41.2782637
  32.3551105  60.8693825  40.7090427  33.0964282  61.0151271  40.9218819
  30.4400397  71.6908198  31.5767586  31.2541036  71.9823091  31.4650357
  30.3759539  71.0368061  31.0025879  30.5503136  71.6373393  31.4756423
  36.6609888  74.3734194  45.9897161  36.4248525  73.5422259  45.8709222
  37.3053116  74.3219802  46.5752006  36.7204558  74.2431882  46.0583055
  26.3108306  75.1629716  36.7039898  26.9482253  74.9241463  37.2491691
  26.7363377  75.3666875  35.9693058  26.4684472  75.1580726  36.6757055
  26.9511121  70.3832006  31.0414787  27.3356273  70.1639712  31.7931332
  26.7022741  71.2094951  31.1715864  26.9713193  70.4730152  31.1715864
  27.1179661  63.6638421  50.7577371  26.8033102  64.4337983  50.4946934
  26.7969594  63.1008677  50.1729598  27.0238580  63.6948689  50.6318721
  37.6846308  74.1578643  42.0525456  37.3792125  74.8906700  42.4138771
  36.9652524  73.7516573  41.7718242  37.5333650  74.2060376  42.0638593
  28.6929778  75.6402138  38.3833684  28.7668786  75.4777310  39.2375534
  29.5099284  75.8292328  38.1394166  28.8246136  75.6438881  38.4731710
  43.3848100  70.7971644  41.3793800  43.3172601  70.8167603  40.5096387
  43.3703763  71.6401971  41.6049471  43.3726857  70.9245379  41.2846277
  24.6711558  62.0528942  36.3723568  23.8033983  62.1251542  36.4381177
  24.9586762  62.8551021  36.5611543  24.5851306  62.1823089  36.4098334
  33.7944447  62.2006802  44.7034890  34.5398039  62.0116612  44.2898315
  33.3781751  62.7265040  44.1448746  33.8429421  62.2508947  44.5599463
  41.1706718  69.5716030  39.6540394  41.7214639  68.9384099  39.8937487
  41.1550833  70.1031423  40.3455899  41.2491914  69.5564978  39.7919253
  27.8229109  73.4054627  44.2000288  27.3240802  74.1170395  44.2785176
  28.6329333  73.7255294  44.1618450  27.8685215  73.5581476  44.2056856
  24.0857226  72.6677580  38.4463009  23.7970475  72.0415052  38.9808736
  24.9540574  72.6097868  38.5127689  24.1717478  72.5665125  38.5353963
  34.8735124  67.8112364  38.7644991  34.5299890  67.0902699  39.1152240
  34.9728166  67.6026215  37.9223349  34.8377167  67.6736567  38.6916671
  24.2889499  74.3072831  34.3705374  25.0435467  74.6885870  34.5840836
  23.6960112  74.7583975  34.8252070  24.3126213  74.4301659  34.4688252
  35.3348153  74.2738068  34.3068979  35.9006186  74.9331278  34.2227522
  34.6876056  74.6187766  34.7785381  35.3226909  74.4220009  34.3641735
  26.7496166  66.2635672  49.4962586  25.9395942  66.5693451  49.3852428
  27.2270853  66.9841254  49.6115170  26.6999645  66.4150273  49.4969657
  25.6087726  75.4781393  39.7445489  25.0868480  75.6181684  40.4297354
  25.9961746  74.7192057  39.9347607  25.5891427  75.3866917  39.8746566
  22.5978910  65.5287202  33.8140444  22.3103706  65.1588472  33.0772391
  23.2849378  65.9982057  33.5524149  22.6567807  65.5434171  33.6655520
  31.8054731  77.2176852  33.7306058  31.5641407  76.4844713  33.3233123
  31.9856064  77.7663709  33.0772391  31.7962355  77.1899243  33.5736281
  27.0354052  72.5085412  35.1426980  26.8396834  73.1160146  34.5487283
  27.2588397  71.8153356  34.6618654  27.0388693  72.4962937  34.9843061
  25.4332582  69.3940150  35.2607849  26.1555234  69.5581308  34.8011655
  24.9540574  70.1149815  35.1547188  25.4696312  69.5238379  35.1773463
  33.3926089  65.7303949  40.6404534  32.5537190  65.7565227  40.4042797
  33.4630457  66.3774684  41.2209880  33.2794483  65.8300074  40.6913650
  23.0840198  71.7998222  44.3661989  23.5961295  72.0782475  43.7170748
  22.7976541  72.5387516  44.7324802  23.1175062  71.9500576  44.3251867
  37.2683613  70.9371935  37.9265775  37.1817588  71.0927361  38.7800554
  36.8134093  71.5810011  37.5525180  37.1886870  71.0547690  37.9972882
  20.1707105  66.3068414  34.6625725  20.2723241  67.1094575  34.9906700
  20.9662991  66.1055750  34.3648806  20.3035010  66.3954313  34.6661080
  26.6023924  63.8924611  44.4263030  26.4107121  63.9079745  45.2762454
  27.4522520  64.0888285  44.4029685  26.6999646  63.9238962  44.5486325
  20.9870837  66.4215592  42.4046847  20.8456329  65.5699533  42.5291355
  21.2711400  66.4644253  41.5809053  21.0078683  66.3015342  42.3014471
  31.1409429  68.2582682  36.5491335  30.8944143  68.1778433  37.3828124
  31.4694552  67.4736150  36.3553862  31.1530673  68.1308948  36.6438858
  35.0357478  74.9666042  40.3378116  34.8971837  75.6647088  40.8426858
  34.2557476  74.8114698  39.9814298  34.9000705  75.0466208  40.3604390
  33.3735563  71.2662417  46.5900498  33.3683602  70.3942234  46.5942924
  34.0796557  71.4650586  46.1169953  33.4780567  71.1666291  46.5207533
  27.1006456  70.9939401  45.9614318  27.2449832  71.5740609  45.3257428
  27.4482105  71.3715698  46.6664173  27.1733918  71.1360105  45.9713313
  29.2726374  70.1929569  43.7439450  28.5249688  70.3860584  43.3387728
  29.4267899  69.3674789  43.5063571  29.1848801  70.0994681  43.6484855
  36.5310851  74.3244296  31.0994615  36.1517660  73.5381433  31.0923905
  35.8677096  74.8731153  30.9566260  36.3769326  74.2889119  31.0775412
  29.5128151  64.0880120  44.6334853  29.9700765  64.8204094  44.7607645
  29.5884480  63.6646585  45.3922109  29.5919121  64.1337358  44.7635930
  21.7561142  64.3345940  45.7224297  21.2203332  63.7226298  46.0385064
  21.8178907  64.9094076  46.3757964  21.6856775  64.3292868  45.8659724
  33.9855477  57.2669995  38.5028696  34.1039045  57.7246459  37.7695999
  33.8117652  56.4615256  38.2164914  33.9774648  57.2163767  38.3529630
  27.3910529  66.0782224  41.4776677  26.6006604  65.8973684  41.7994013
  27.7871152  65.3009177  41.4606972  27.3327405  65.9369685  41.5229226
  31.8776420  74.9069998  26.9183391  32.6449405  74.9670123  26.5089243
  31.4307729  74.3350440  26.4339709  31.9249847  74.8306574  26.7861101
  32.7754215  73.7124654  39.2036123  32.0999217  73.4809886  39.7049510
  32.7846591  73.1045837  38.5778228  32.6772720  73.5883579  39.1852275
  29.9048359  68.5542483  45.9600176  29.8407500  69.4152440  45.8320313
  30.0445547  68.2374476  45.1595728  29.9163829  68.6342650  45.8228389
  34.7770950  76.5689787  31.4346301  34.8590787  77.3756773  31.1107752
  35.2620692  76.5885746  32.1587075  34.8608108  76.6910449  31.4933200
  28.5867453  71.2474622  40.1016379  28.1629702  71.4479122  39.3655397
  28.4112308  70.4003470  40.2140679  28.4978334  71.1523404  40.0090069
  23.8749898  71.7426674  35.5344352  24.0314517  71.6773477  36.3900344
  24.2150491  72.5175226  35.3223031  23.9483133  71.8475872  35.6298946
  30.4129043  71.1184557  34.4037715  30.9544588  70.6154939  34.8676335
  30.7275602  71.0649752  33.5927200  30.5393440  71.0363978  34.3521527
  34.2846150  75.3287205  51.5164627  35.0981015  75.0572354  51.6769760
  34.1241116  75.0294745  50.7124823  34.3816098  75.2442131  51.4210033
  28.5815492  76.5101909  31.6877743  28.6508313  75.6516447  31.8270743
  29.3603947  76.7273790  31.3596767  28.7068342  76.4154773  31.6594900
  31.5618312  66.0120862  44.4560015  31.7760281  65.3731776  43.9023369
  30.9452211  66.4566686  44.0267877  31.5023641  65.9831006  44.3110446
  20.4484159  68.9261624  35.8505119  20.8283124  69.3446169  35.1865386
  19.8739524  69.5075080  36.1573962  20.4195484  69.0739483  35.7981860
  33.7257400  67.6209927  45.3943322  32.9134082  67.3135818  45.4756495
  34.1847334  67.1408927  45.9586035  33.6737785  67.5046420  45.4897917
  33.1362655  75.4989599  35.8420267  32.7777309  75.6704242  36.6184299
  32.6501365  75.9602805  35.2848265  33.0121351  75.5928570  35.8745536
  27.9251020  71.1788765  28.3820501  28.2143545  71.9553647  28.6564075
  28.0122819  70.6677496  29.0835000  27.9805276  71.2180683  28.5262999
  30.8210907  69.0269999  50.1772025  31.2910539  69.6512115  50.5639899
  30.8672788  68.3586974  50.7365239  30.8978783  69.0204679  50.3172096
  27.9782181  61.1327026  40.9020828  27.4620670  60.4407218  41.0272407
  27.4176110  61.7997803  40.8483427  27.8188694  61.1290284  40.9126894
  30.0474415  61.6719986  42.7313681  29.6606168  61.6969018  43.5127211
  29.5607352  61.1061665  42.2788198  29.9186923  61.5915737  42.7801585
  34.2967394  76.3893495  46.7887468  34.9347114  75.8953691  46.4549924
  33.6541485  76.3170896  46.2039694  34.2961620  76.3052504  46.6529823
  36.0224394  68.2382641  41.3553383  35.5952002  68.1508990  40.6001483
  35.3850447  68.3460417  41.9408227  35.8654001  68.2415301  41.3298825
  29.7131556  58.5586972  45.0223941  30.3424674  59.0947272  44.7445011
  29.8817419  58.4664331  45.8737507  29.8309351  58.6248334  45.1072469
  29.5145471  63.3458166  47.2950353  30.3418900  63.0743315  47.3508967
  29.5353317  64.1419008  47.6514171  29.6398321  63.4237921  47.3565535
  34.3521651  77.0813303  43.4292824  35.1414029  76.7302368  43.5494906
  34.5265248  77.8949692  43.1669458  34.4941932  77.1499161  43.4080692
  24.0914961  70.4922029  40.4820613  23.2502968  70.3925903  40.6899507
  24.3004969  71.2617509  40.8334934  23.9979654  70.5914072  40.5647928
  21.5690528  68.1141566  38.3105364  21.1747226  68.1884578  37.5355474
  21.0130645  68.4999512  38.8613726  21.4293340  68.1823341  38.2773024
  27.9031626  68.4203428  39.7318211  27.5994763  67.8659417  40.3328618
  27.2011047  68.5995638  39.2446245  27.7547836  68.3648211  39.7487916
  26.9597723  65.7303948  34.2962913  27.2357457  65.0122861  33.8840480
  27.5596392  66.3288868  34.0884019  27.0890988  65.7124319  34.2043674
  23.9823769  72.8865791  41.9012246  23.3911702  73.5275290  41.8715261
  24.7444792  73.3103409  41.8743546  24.0072029  73.0441630  41.8927393
  24.3784392  64.0467789  42.5680264  24.8385873  64.1206719  43.3055387
  24.4240498  64.8449043  42.2180085  24.4534947  64.1761936  42.6253020
  26.0267741  64.7134484  47.1352291  25.6353306  64.0667831  47.5708069
  26.1953604  65.3045919  47.7546546  25.9938652  64.7048752  47.2914997
  40.1014190  72.7171561  42.8989524  40.1597314  73.1658210  43.6449501
  39.4680658  73.1270374  42.4619604  40.0165485  72.8445296  42.9442073
  33.7413285  78.3375103  39.3344271  33.5432974  78.8265917  38.6400482
  33.1200996  78.5416345  39.9128404  33.6200849  78.4391641  39.3167494
  27.8021263  70.1060000  33.6754515  28.5463308  70.4934276  33.9137465
  27.9481960  69.2617425  33.8395003  27.9331849  70.0390473  33.7348485
  29.7200839  61.9010259  38.7086376  28.8736884  62.0733067  38.5827726
  29.7171971  61.0959602  39.0452205  29.5947989  61.8071288  38.7397503
  30.7899139  65.6785473  39.5748434  30.3159094  65.1527235  40.0853745
  31.1617275  65.1314946  39.0063296  30.7749028  65.5201470  39.5663581
  21.1672169  67.6756980  44.9431980  22.0297782  67.5752689  44.8569310
  20.8363952  67.0951689  44.3817552  21.2457366  67.5748607  44.8477386
  37.0535870  70.7387849  40.9855215  36.8134093  69.8994264  40.9897641
  37.5327877  70.8188016  41.7095988  37.0888053  70.6269249  41.0930017
  32.7182639  66.5722028  32.6374188  32.1905658  66.6550772  31.9479897
  33.1778347  67.3139899  32.6338833  32.7084489  66.6942690  32.5348883
  39.0541057  67.5189306  38.9384474  38.8150827  67.4785140  38.1005258
  39.2174958  68.3660458  39.0650195  39.0431360  67.6381391  38.8337956
  35.6587087  71.9039255  44.8689519  36.3821286  71.4511782  44.6900539
  35.3937049  72.1843921  44.0861847  35.7268360  71.8790224  44.7268234
  24.5273955  66.4999429  41.6042398  23.9027026  66.5117821  40.9968351
  24.1919550  66.9759604  42.2533638  24.3859447  66.5717946  41.6098967
  24.7115704  64.8424547  27.6615083  24.3628508  65.4944273  28.1246632
  24.2312150  64.8281660  26.9338954  24.5885948  64.9367601  27.6226174
  32.2719721  75.1425591  31.7683845  32.9953920  75.6083704  31.6248418
  31.8320312  75.2099201  31.0181442  32.3135414  75.2209428  31.6368626
  31.4405876  72.0023134  43.0184534  30.8262870  71.4581184  43.3133169
  31.9573161  71.4887370  42.5390350  31.4261539  71.8459543  42.9908762
  30.6802174  73.0727404  40.7528833  30.2529782  72.4477122  40.3194268
  30.6727118  72.7902325  41.5787840  30.6161315  72.9380184  40.8108660
  23.7964701  68.1092577  43.8217267  23.9558187  67.3535901  44.2268989
  23.6157594  68.6583516  44.4758004  23.7930060  68.0786390  43.9779973
  31.7385004  60.2753812  44.3768056  31.2425565  60.4717486  43.6859623
  32.4954066  60.6746480  44.2056858  31.7771828  60.3631546  44.2488193
  29.0087883  63.9496158  40.9671367  29.0330371  63.4156270  40.2784147
  29.2599357  63.4413467  41.6296957  29.0497802  63.7957062  40.9636011
  16.5195473  71.2327653  40.4014511  16.4138922  71.1874497  39.5366595
  15.7695693  71.5781434  40.6828796  16.3931076  71.2768561  40.3151840
  25.2889206  62.6766976  40.3477111  25.3287577  63.1776183  41.0611818
  24.4638870  62.7677370  40.0783034  25.1728732  62.7648793  40.4127649
  27.4718818  72.2427716  48.4497406  26.6214449  72.3799431  48.5855050
  27.6346946  71.5091495  48.8945107  27.3702682  72.1541818  48.5353005
  26.7103569  69.1927486  42.6451010  25.8795499  69.3601304  42.4386258
  26.6555086  68.8163437  43.4299895  26.5792984  69.1617217  42.7299538
  24.5187352  62.6836379  48.2807421  25.1440056  62.1398512  48.5536853
  24.0637832  62.2031297  47.7115211  24.5435613  62.5325860  48.2369014
  25.0839613  67.4683078  33.1741128  25.2242574  67.9655542  33.8769769
  25.5822146  66.7669372  33.3155341  25.1780694  67.4385057  33.2992707
  25.1139835  68.3350189  30.5033704  25.7484915  68.9310614  30.4383166
  25.1965446  68.0353646  31.3179575  25.2196386  68.3791097  30.6136791
  38.0922401  70.8665666  43.3720069  38.6840241  71.5062917  43.4038267
  38.5281395  70.1688703  43.6612135  38.2440832  70.8584016  43.4200901
  26.6918818  64.2664164  30.4779146  27.0134659  63.7867247  29.8238409
  26.9545762  65.0763810  30.2869958  26.7784843  64.3154062  30.3534639
  29.9215791  75.2883039  43.9977963  29.4140882  75.8418885  44.4418593
  29.6242437  75.3491328  43.1796737  29.8020676  75.3789350  43.9426419
  32.0877973  63.6536358  42.8402626  32.5133045  63.2008885  42.2286152
  31.4734966  63.0996429  43.1167413  32.0606618  63.5050334  42.7907651
  21.6192823  70.5318030  33.7723251  22.1285052  71.1282537  34.1534556
  22.0927095  70.2644003  33.0899670  21.7636199  70.5803845  33.7277773
  35.1171542  68.0810885  35.6723211  34.4462732  68.6240587  35.5436277
  35.8111293  68.5505740  35.4304906  35.1200410  68.2309156  35.6178739
  35.2799670  64.5366768  38.5813584  35.6327280  64.1096491  39.2559383
  34.4214471  64.4517612  38.7114661  35.2049114  64.4611509  38.7008595
  23.9783355  67.1674288  36.6396431  23.2595344  67.5838421  36.9069294
  24.3495717  67.7328527  36.0888069  23.9275287  67.3123570  36.5979238
  33.2782936  67.8002137  42.5298427  33.2580863  67.6185432  43.3833206
  33.3262136  68.6714155  42.5058010  33.2817577  67.9018675  42.6521721
  31.2229265  74.3889329  48.4546903  31.1825120  73.7439006  47.8692059
  32.0352584  74.3325946  48.7672315  31.3372419  74.2848296  48.4143852
  29.7529929  66.2072288  31.9769810  29.1594768  66.5289284  31.4254377
  29.7905207  65.3613383  31.7690917  29.6704318  66.1296616  31.8652582
  36.7123730  59.6585180  39.5097897  36.2054595  58.9514320  39.4419074
  37.5091164  59.3278369  39.6398973  36.7550969  59.5058332  39.5196892
  32.6287746  66.1651792  35.4071561  32.4001439  66.1884494  34.5649919
  32.8885822  65.3409259  35.5266571  32.6333934  66.0467872  35.2996758
  26.9106974  68.0186265  45.0096661  26.3985877  67.4107448  45.3681692
  26.7386470  68.7342858  45.4770637  26.8096611  68.0349565  45.1312885
  21.7572689  66.4623841  47.6599023  21.5875279  67.1225216  47.1147229
  21.3138639  66.6730402  48.3811512  21.6672022  66.5909823  47.6860652
  25.6832508  64.7028339  36.7025756  26.1589875  65.0645419  36.0675937
  25.1821108  65.3584806  36.9825899  25.6797867  64.8522528  36.6502497
  38.9143870  74.1750107  32.4938761  39.2977476  74.9241463  32.7236858
  38.1187983  74.4215927  32.2350750  38.8537652  74.3219801  32.4896335
  30.7876045  65.9410510  47.4498916  31.3447475  65.7124320  46.8177382
  30.4637110  66.7016176  47.1734129  30.8222455  66.0194347  47.3155413
  18.6574753  69.3670706  42.9187512  18.1101473  68.6971352  43.0368381
  19.4467132  69.0000554  42.9830980  18.6926937  69.2135693  42.9456213
  28.5059162  69.0278163  48.4150924  29.2570489  69.3429840  48.7290478
  28.6981738  68.8257334  47.5884845  28.6450576  69.0445545  48.3394319
  27.7259161  66.8469539  30.0699140  28.1058126  66.8649168  29.2850255
  26.9851757  67.2923527  29.9489988  27.6727999  66.9151313  29.9362708
  35.3544452  65.1551730  35.6574719  35.3538678  65.0000386  36.5158995
  35.1500632  66.0014717  35.6016105  35.3244230  65.2572351  35.7762658
  17.4161723  68.5791514  40.0733536  17.2383484  68.1268123  40.7988451
  17.1280745  69.3817676  40.2572013  17.3474676  68.6314072  40.2077038
  33.0785304  69.8349232  39.3110926  33.5738969  69.1172227  39.2714946
  32.2685080  69.5320029  39.1965413  33.0329197  69.6846878  39.2884652
  28.5243915  73.6847045  31.4607930  27.7155238  73.3613718  31.4141240
  29.0318824  72.9780267  31.3936179  28.4793582  73.5328361  31.4438225
  19.1534193  71.1119238  37.1855295  18.2879712  71.1004928  37.0738066
  19.2533009  70.9249461  38.0326434  19.0408360  71.0825299  37.2944239
  35.1437123  72.5852919  41.9988055  35.5692194  72.0627341  41.4458480
  34.7794043  73.1833756  41.4776678  35.1523725  72.5963146  41.8397064
  31.7315722  76.2987183  38.3289212  32.2026900  77.0127446  38.4979197
  32.0675901  75.6985933  38.8649082  31.8510837  76.3158648  38.4321588
  33.8192707  77.9088497  50.5081284  33.9289672  77.1197057  50.8638031
  34.1483603  77.8194433  49.7055622  33.8845113  77.7794350  50.4423675
  28.6485217  61.0714654  45.2847307  28.7813123  60.2745647  45.6128282
  29.0330370  61.5981057  45.8645582  28.7241546  61.0314571  45.4190810
  32.3689669  76.0905117  45.0916905  31.8210615  75.4663001  44.8236970
  32.8302697  76.2799390  44.3760984  32.3556878  76.0264168  44.9467336
  31.7217572  57.9944980  41.8828400  30.9163536  57.8842710  42.1996238
  31.5924308  58.0957436  41.0258266  31.5837705  57.9928650  41.8036441
  35.1783533  64.1590472  42.4768097  34.5946522  64.6599678  42.0645664
  35.4987827  63.6520028  41.8432420  35.1396708  64.1582307  42.3226604
  27.7178332  63.0731067  32.7526772  28.5394026  63.2429380  32.5108467
  27.2547983  63.2278328  32.0293069  27.7709494  63.1212800  32.6098416
  26.3073664  61.0673829  43.5325201  26.8518077  60.7264956  44.1229542
  26.3610600  61.9259291  43.6746485  26.3962783  61.1429088  43.6407074
  31.9347995  77.0956190  41.6226246  32.7546369  76.9519156  41.8842541
  31.6542073  77.7202389  42.1642684  32.0144738  77.1666542  41.7414185
  38.3337117  78.6875759  38.3112436  38.0040447  79.1386902  37.6416135
  37.6582119  78.6091922  38.8585442  38.1847553  78.7426894  38.2935659
  45.5413525  74.6761281  36.5562046  45.2266966  75.3664760  36.9882469
  45.0240466  74.6206064  35.8547547  45.4177995  74.7696170  36.5158996
  36.5393071  76.7488047  33.7935384  37.2939039  77.1166364  33.5552434
  36.3620606  77.1227601  34.5614563  36.6247549  76.8586235  33.8720272
  49.8327970  82.8982487  41.8382923  48.9956391  82.9684675  42.0730517
  49.8016201  82.9006982  40.9657225  49.7046252  82.9092714  41.7442471
  40.5749855  76.1584777  33.5262520  41.3036015  75.9800732  33.0800677
  40.6644748  77.0002856  33.7369698  40.6956517  76.2568655  33.4916038
  47.5135810  77.9625269  40.4226645  48.1561718  78.0323374  41.0088561
  47.7658830  77.2954492  39.9206187  47.6457942  77.8751618  40.4353924
  42.7487092  79.0562241  38.1337598  42.0443419  78.5671426  38.2921517
  42.7972066  79.0684715  37.2626043  42.6517144  78.9851889  38.0276938
  49.9517312  82.7369906  36.1538609  49.6953877  81.9249848  35.9636492
  50.7946626  82.7447473  35.9268796  50.0383337  82.6181904  36.0923426
  44.1320404  76.6769530  40.8914763  44.5130916  75.9947702  41.2782637
  43.3283689  76.3879133  40.7090427  44.0696866  76.5336579  40.9218819
  38.0912245  79.1823729  50.7577371  37.7765686  79.9523291  50.4946934
  37.7702177  78.6193985  50.1729598  37.9971164  79.2133997  50.6318721
  35.6444142  77.5714250  36.3723568  34.7766567  77.6436850  36.4381177
  35.9319346  78.3736329  36.5611543  35.5583890  77.7008397  36.4098334
  44.7677030  77.7192110  44.7034890  45.5130622  77.5301920  44.2898315
  44.3514335  78.2450347  44.1448746  44.8162005  77.7694255  44.5599463
  44.3658673  81.2489256  40.6404534  43.5269773  81.2750535  40.4042797
  44.4363040  81.8959992  41.2209880  44.2527066  81.3485382  40.6913650
  42.8127951  78.1474633  35.3732150  43.5154304  77.9482382  34.8952108
  42.5472140  77.3750576  35.6800993  42.8774583  78.0037599  35.3477591
  37.5756507  79.4109919  44.4263030  37.3839704  79.4265053  45.2762454
  38.4255103  79.6073593  44.4029685  37.6732229  79.4424270  44.5486325
  40.4860734  79.6065428  44.6334853  40.9433349  80.3389402  44.7607645
  40.5617063  79.1831893  45.3922109  40.5651704  79.6522666  44.7635930
  44.9588060  72.7855303  38.5028696  45.0771628  73.2431766  37.7695999
  44.7850236  71.9800564  38.2164914  44.9507231  72.7349075  38.3529630
  41.9265624  74.6406106  39.4447358  41.0559182  74.6144827  39.3980668
  42.1805965  74.4683298  38.6273204  41.8359184  74.6116249  39.3167495
  38.9514765  76.6512334  40.9020828  38.4353253  75.9592525  41.0272407
  38.3908694  77.3183111  40.8483427  38.7921278  76.6475592  40.9126894
  41.0206998  77.1905294  42.7313681  40.6338751  77.2154326  43.5127211
  40.5339935  76.6246973  42.2788198  40.8919507  77.1101045  42.7801585
  40.6864140  74.0772280  45.0223941  41.3157258  74.6132580  44.7445011
  40.8550003  73.9849638  45.8737507  40.8041934  74.1433642  45.1072469
  40.4878055  78.8643474  47.2950353  41.3151484  78.5928623  47.3508967
  40.5085901  79.6604316  47.6514171  40.6130905  78.9423228  47.3565535
  44.1788058  76.6108168  37.9909243  44.3837652  76.5430476  38.8366240
  43.8514482  77.4166989  37.9230420  44.1603306  76.7194108  38.1068898
  47.4321746  77.1639932  37.4712008  46.8196060  77.6510334  37.8565740
  47.5285921  76.4883423  38.0149659  47.3559644  77.1358241  37.6090866
  41.4340827  78.9202773  32.5709508  41.8884574  79.0913334  33.2957352
  41.9080873  78.3070884  32.1707283  41.5709147  78.8553659  32.6183269
  40.6933422  77.4195567  38.7086376  39.8469468  77.5918374  38.5827726
  40.6904555  76.6144910  39.0452205  40.5680572  77.3256596  38.7397503
  41.7631723  81.1970781  39.5748434  41.2891677  80.6712543  40.0853745
  42.1349859  80.6500254  39.0063296  41.7481612  81.0386778  39.5663581
  50.0273640  83.0374614  38.9384474  49.7883410  82.9970448  38.1005258
  50.1907542  83.8845766  39.0650195  50.0163944  83.1566699  38.8337956
  42.7117587  75.7939120  44.3768056  42.2158149  75.9902794  43.6859623
  43.4686649  76.1931788  44.2056858  42.7504412  75.8816854  44.2488193
  39.9820467  79.4681466  40.9671367  40.0062954  78.9341578  40.2784147
  40.2331941  78.9598775  41.6296957  40.0230386  79.3142370  40.9636011
  36.2621789  78.1952284  40.3477111  36.3020161  78.6961491  41.0611818
  35.4371454  78.2862678  40.0783034  36.1461315  78.2834101  40.4127649
  35.4919936  78.2021687  48.2807421  36.1172639  77.6583820  48.5536853
  35.0370416  77.7216605  47.7115211  35.5168196  78.0511168  48.2369014
  43.0610557  79.1721666  42.8402626  43.4865628  78.7194192  42.2286152
  42.4467550  78.6181737  43.1167413  43.0339202  79.0235642  42.7907651
  41.5004779  75.6436766  36.2493203  40.8573097  75.4934412  36.8178341
  41.1604186  75.3979111  35.4842307  41.3549857  75.5848888  36.2196218
  46.2532253  80.0552076  38.5813584  46.6059863  79.6281799  39.2559383
  45.3947055  79.9702920  38.7114661  46.1781698  79.9796817  38.7008595
  47.6856313  75.1770488  39.5097897  47.1787178  74.4699628  39.4419074
  48.4823747  74.8463677  39.6398973  47.7283553  75.0243640  39.5196892
  43.6020329  81.6837100  35.4071561  43.3734022  81.7069802  34.5649919
  43.8618406  80.8594567  35.5266571  43.6066517  81.5653180  35.2996758
  46.3277036  80.6737038  35.6574719  46.3271262  80.5185694  36.5158995
  46.1233216  81.5200025  35.6016105  46.2976813  80.7757658  35.7762658
  39.6217801  76.5899962  45.2847307  39.7545706  75.7930955  45.6128282
  40.0062954  77.1166365  45.8645582  39.6974130  76.5499879  45.4190810
  42.6950156  73.5130288  41.8828400  41.8896120  73.4028018  42.1996238
  42.5656891  73.6142744  41.0258266  42.5570289  73.5113958  41.8036441
  46.1516117  79.6775780  42.4768097  45.5679105  80.1784986  42.0645664
  46.4720411  79.1705336  41.8432420  46.1129292  79.6767615  42.3226604
  38.6910916  78.5916375  32.7526772  39.5126610  78.7614688  32.5108467
  38.2280567  78.7463636  32.0293069  38.7442078  78.6398108  32.6098416
  37.2806248  76.5859137  43.5325201  37.8250661  76.2450264  44.1229542
  37.3343183  77.4444598  43.6746485  37.3695367  76.6614396  43.6407074
  15.1814719  15.1343249  21.5209169  15.1508723  15.9887886  21.6927438
  15.7796067  14.8338542  22.0795313  15.2651876  15.2159746  21.6283971
   8.3814403  14.2218900  26.2762099   7.5252299  14.3827399  26.3271216
   8.4282057  13.3510964  26.2967161   8.2613515  14.1169702  26.2868165
   2.7655543  23.7581618  22.0399331   2.0138443  23.3797156  21.8115376
   3.2141555  23.7900052  21.2918141   2.7205210  23.7067225  21.8956833
  11.6908120  20.4905426  35.8822556  12.3974887  19.9957457  36.0109490
  11.8796055  20.9314507  35.1525214  11.8236025  20.4823776  35.7931601
   8.2180503  24.1806988  17.4684878   7.8831871  24.8583909  17.0329100
   8.7307373  23.7912299  16.8801750   8.2446084  24.2231566  17.3171670
   7.7584794  26.1321256  23.4095990   8.1424174  26.7008155  22.8700765
   7.6943935  25.4070767  22.9301806   7.8058221  26.1096720  23.2589852
  11.2266224  16.2810944  28.9193751  11.7722184  16.9596031  28.9787721
  11.1683101  16.1398405  28.0595333  11.2982139  16.3602946  28.8005812
   4.3440299  23.7700010  24.3062104   4.4450662  22.9600364  24.6159231
   3.7482044  23.6756957  23.6761782   4.2712838  23.6365038  24.2588342
  13.0031293  17.7095551  19.7927479  12.8870819  18.4603237  20.2219617
  13.7987180  17.4519505  20.0423566  13.1035882  17.7830398  19.8931571
   4.1841039  28.6877599  25.7076960   4.8278494  29.1290764  26.0973118
   4.5097294  27.8831026  25.6207218   4.3272867  28.6342794  25.7522437
   4.8861619  21.6989574  21.0796821   5.2077460  22.2394782  20.4758129
   5.5333715  21.1286346  21.2119111   5.0287674  21.6948749  21.0103857
   6.9363327  13.7005569  21.1631208   7.6343491  13.8793697  21.6552671
   7.2515659  13.1775909  20.5401597   7.0858664  13.6499341  21.1433218
   7.1251262  20.0876014  21.1510999   7.5644897  19.4793115  21.5965772
   6.9755925  19.7083388  20.3796464   7.1672728  19.9414485  21.1030167
   4.5922905  18.6820026  28.3529825   5.2371908  18.1892469  28.0340773
   4.8324682  18.8244813  29.1795903   4.7233490  18.6297468  28.4279358
   7.1308996  21.5274932  28.0036718   7.4132239  20.7326338  27.7823473
   7.8595157  22.0055519  28.0241779   7.2798560  21.4809529  27.9739733
  10.7260599  18.4403196  18.1041769  10.6411894  19.2964162  18.2491338
  11.2144982  18.1647520  18.7723928  10.7849496  18.5260517  18.2243850
  11.6579032  15.0587990  19.6039504  11.1290503  15.2747623  20.2636810
  12.1804052  15.7524128  19.5240473  11.6567485  15.1931127  19.6895103
  17.1127085  20.6334294  24.9772548  16.2824788  20.8444938  25.1405965
  17.0636337  19.8071349  24.7014832  16.9833820  20.5423901  24.9609914
   5.1736822  23.4638148  27.8120458   4.6563764  23.1045563  27.2081766
   5.8711214  22.9400323  27.8226524   5.2002403  23.3335836  27.7250717
   8.8300414  23.9132962  33.7736631   8.9183760  23.7259103  34.6214841
   9.2590127  23.2670392  33.3741478   8.9062517  23.7895970  33.8408382
   6.3970874  23.1964122  32.7554293   5.8341709  22.7836732  33.2793954
   7.1591897  23.1217028  33.1747436   6.4265323  23.1241523  32.8947293
   1.9566865  25.1862144  25.3590923   2.6587445  24.6714133  25.4163680
   1.8764349  25.5136295  26.1637798   2.0490626  25.1576370  25.4863715
  16.6081043  13.2804695  28.7722970  15.7709464  13.3506882  29.0070564
  16.5769274  13.2829190  27.8997272  16.4799325  13.2914922  28.6782518
   3.0045772  15.4237730  34.4871338   3.1766276  15.3143625  35.3356620
   3.5415130  16.0692136  34.2502531   3.1090776  15.5029732  34.5776435
   1.2817641  21.3768496  24.8676531   2.1206540  21.6091428  24.9150293
   1.3129410  20.5072807  24.7983567   1.4099358  21.2825442  24.8641176
   1.9070344  21.7969371  29.1689837   2.4468569  21.6540502  29.8393209
   1.2240290  22.1966122  29.5373863   1.8862498  21.8349042  29.3224258
  11.3311229  17.4760371  24.3634861  12.0868744  17.9091886  24.4023770
  11.4373553  16.8265141  24.9369497  11.4581399  17.4437855  24.4532887
  14.3691400  21.3033649  25.1137264  13.9326632  21.3070391  25.8696236
  14.0354315  21.9839148  24.6816842  14.2554020  21.4046104  25.1618097
   8.9420474  23.3441981  36.4380414   9.7260890  23.4572829  36.8036157
   8.7417068  22.5183119  36.6339100   9.0286499  23.2388701  36.5214800
  14.2888883   8.3447476  27.3566692  14.9314791   8.4145581  27.9428607
  14.5411904   7.6776699  26.8546234  14.4211015   8.2573825  27.3693971
   9.0990867  25.2552084  30.0846870   8.3006113  25.0151584  30.3420739
   9.5476878  25.3066476  30.8313918   9.0465478  25.2274475  30.2331794
  17.5035746  18.0214569  24.0056901  18.1652180  17.4605237  23.9052810
  16.8627158  17.5266599  24.3309593  17.5064614  17.8650978  24.0389242
   8.3912554  21.3184700  16.3137825   8.8063702  20.9869724  15.6222320
   7.5604483  21.0853602  16.1857961   8.3300563  21.2355956  16.1928672
  13.7900577  19.0379951  23.7468890  14.0256166  19.1825150  22.9195741
  13.9390140  19.8022359  24.1400404  13.8466380  19.1719005  23.6832494
   0.7846654  15.5213444  33.1118111   1.5086627  15.5066474  33.5983006
   0.8862791  16.2308799  32.6140079   0.9064863  15.6238147  33.1096898
  15.6191034  17.8781617  21.5838494  15.9499251  18.4109257  20.9778589
  16.1924122  17.9320505  22.2400445  15.7524713  17.9651186  21.5916276
   8.1591604  19.0012528  37.9767058   7.3664584  19.3156040  38.1619678
   8.2740531  19.2163997  37.1387843   8.0587014  19.0796365  37.8805393
  10.8322923  15.7246520  22.2662074  10.9269777  16.4635814  22.7201700
  10.2081766  15.2963995  22.6996639  10.7531953  15.7707840  22.3970222
   9.0875397  18.9032732  32.9152355   9.6614258  18.2659976  33.0700919
   9.0090200  18.9036815  32.0462013   9.1608631  18.8097844  32.8098766
   4.4439115  17.3355997  24.9673552   4.1858359  16.5027732  24.9404852
   4.4987598  17.5613610  24.1266053   4.4138893  17.2453769  24.8393689
   9.5240165   9.4384448  25.0677645   8.8196492   8.9493633  25.2261564
   9.5725140   9.4506922  24.1966089   9.4270217   9.3674096  24.9616985
   3.4173827  14.8893760  25.4538447   2.8423419  15.0485928  26.0902408
   3.0409504  14.2529169  24.9906898   3.2776640  14.8191573  25.4793006
   7.0847116  13.3617109  30.3130826   6.6961549  12.9371327  29.6583017
   6.4201814  13.6099259  30.8207852   6.9294044  13.3355830  30.2918694
  16.7270385  13.1192114  23.0878656  16.4706950  12.3072055  22.8976538
  17.5699699  13.1269681  22.8608843  16.8136410  13.0004111  23.0263473
  10.9073477   7.0591738  27.8254810  11.2883989   6.3769909  28.2122684
  10.1036762   6.7701340  27.6430474  10.8449939   6.9158786  27.8558866
   8.1886054  17.5915714  18.5107633   9.0026693  17.8830606  18.3990404
   8.1245195  16.9375576  17.9365926   8.2988793  17.5380908  18.4096470
  14.4095544  20.2741710  32.9237208  14.1734182  19.4429775  32.8049269
  15.0538773  20.2227317  33.5092052  14.4690215  20.1439398  32.9923102
   4.0593962  21.0637231  23.6379945   4.6967909  20.8248979  24.1831738
   4.4849034  21.2674390  22.9033105   4.2170129  21.0588241  23.6097102
  15.4331965  20.0586159  28.9865503  15.1277782  20.7914215  29.3478818
  14.7138181  19.6524088  28.7058289  15.2819307  20.1067892  28.9978640
   6.4415434  21.5409654  25.3173731   6.5154443  21.3784826  26.1715581
   7.2584941  21.7299843  25.0734213   6.5731793  21.5446396  25.4071756
  21.1333757  16.6979159  28.3133847  21.0658257  16.7175118  27.4436433
  21.1189420  17.5409486  28.5389517  21.1212514  16.8252894  28.2186324
  11.5430104   8.1014317  31.6374936  12.2883696   7.9124127  31.2238362
  11.1267408   8.6272555  31.0788793  11.5915078   8.1516462  31.4939510
   4.9820020  24.5044397  20.0487204   5.2718319  24.1133378  19.3246431
   5.7123501  24.6861102  20.4892480   5.1326904  24.4738211  20.0070011
  18.9192374  15.4723545  26.5880441  19.4700296  14.8391614  26.8277533
  18.9036490  16.0038938  27.2795946  18.9977571  15.4572494  26.7259300
   5.5714765  19.3062143  31.1340335   5.0726459  20.0177910  31.2125223
   6.3814990  19.6262809  31.0958497   5.6170872  19.4588991  31.1396903
   2.9225936  26.4811779  23.1147354   2.7026231  26.1909134  23.9074021
   2.7020458  25.8226734  22.5865266   2.8573530  26.3411488  23.1536263
   1.8342883  18.5685096  25.3803056   1.5456132  17.9422567  25.9148783
   2.7026231  18.5105383  25.4467736   1.9203135  18.4672640  25.4694010
  12.6220781  13.7119879  25.6985038  12.2785547  12.9910214  26.0492287
  12.7213823  13.5033730  24.8563396  12.5862824  13.5744082  25.6256718
   5.0893891  27.8541169  21.8978046   5.7417949  27.3217611  22.1269072
   4.3919500  27.5009821  22.2845920   5.0824609  27.7230692  21.9890214
   2.0375156  20.2080347  21.3045421   2.7921124  20.5893386  21.5180883
   1.4445769  20.6591490  21.7592117   2.0611870  20.3309174  21.4028299
  13.0833810  20.1745583  21.2409026  13.6491842  20.8338793  21.1567569
  12.4361713  20.5195281  21.7125428  13.0712566  20.3227524  21.2981782
   4.4981823  12.1643187  36.4302633   3.6881599  12.4700967  36.3192475
   4.9756510  12.8848769  36.5455217   4.4485302  12.3157788  36.4309704
   3.3573383  21.3788908  26.6785536   2.8354136  21.5189200  27.3637401
   3.7447403  20.6199572  26.8687653   3.3377084  21.2874432  26.8086613
   9.5540388  23.1184367  20.6646105   9.3127064  22.3852228  20.2573170
   9.7341721  23.6671224  20.0112438   9.5448012  23.0906759  20.5076328
   4.7839708  18.4092927  22.0767027   4.5882491  19.0167662  21.4827330
   5.0074054  17.7160871  21.5958701   4.7874350  18.3970453  21.9183108
   3.1818238  15.2947665  22.1947896   3.9040890  15.4588823  21.7351701
   2.7026231  16.0157330  22.0887235   3.2181969  15.4245895  22.1113510
  11.1411746  11.6311464  27.5744580  10.3022847  11.6572743  27.3382844
  11.2116113  12.2782199  28.1549927  11.0280140  11.7307590  27.6253697
   9.5881024   8.5296841  22.3072196  10.2907377   8.3304589  21.8292155
   9.3225213   7.7572783  22.6141040   9.6527657   8.3859807  22.2817638
  15.0169270  16.8379451  24.8605822  14.9303244  16.9934877  25.7140601
  14.5619750  17.4817526  24.4865227  14.9372527  16.9555206  24.9312929
   4.3509581   9.7932126  31.3603077   4.1592778   9.8087260  32.2102500
   5.2008177   9.9895800  31.3369732   4.4485303   9.8246477  31.4826372
   8.8895086  14.1590198  23.4831382   8.6429800  14.0785949  24.3168171
   9.2180209  13.3743666  23.2893909   8.9016330  14.0316463  23.5778905
  12.7843135  20.8673557  27.2718163  12.6457494  21.5654603  27.7766905
  12.0043133  20.7122214  26.9154345  12.6486362  20.9473724  27.2944437
  11.1221220  17.1669932  33.5240545  11.1169258  16.2949749  33.5282971
  11.8282214  17.3658102  33.0510000  11.2266224  17.0673807  33.4547580
   4.8492113  16.8946916  32.8954365   4.9935489  17.4748124  32.2597475
   5.1967762  17.2723213  33.6004219   4.9219575  17.0367620  32.9053360
   7.0212031  16.0937085  30.6779496   6.2735345  16.2868099  30.2727774
   7.1753556  15.2682304  30.4403618   6.9334458  16.0002196  30.5824902
   3.9219868  25.0849688  29.7615392   4.0709432  24.5252604  29.1088796
   4.7019870  25.1641690  30.1447910   4.0593962  25.0135254  29.7212341
  14.2796508  20.2251811  18.0334662  13.9003316  19.4388949  18.0263951
  13.6162753  20.7738668  17.8906306  14.1254982  20.1896635  18.0115459
   6.4473169  25.2564331  31.0399882   6.3716840  24.5873142  31.5950671
   6.3763028  25.9582119  31.5540549   6.4253776  25.2609238  31.1976731
   7.2613808   9.9887635  31.5674900   7.7186422  10.7211610  31.6947692
   7.3370136   9.5654101  32.3262156   7.3404777  10.0344873  31.6975977
   7.1043416  23.7765330  21.8723488   7.8693307  23.5074974  21.5506153
   7.0021506  23.2915340  22.5893551   7.2024911  23.6654895  21.9303316
   5.1396186  11.9789739  28.4116724   4.3492260  11.7981199  28.7334060
   5.5356808  11.2016692  28.3947019   5.0813062  11.8377200  28.4569272
  10.5239872  19.6132169  26.1376170   9.8484874  19.3817402  26.6389557
  10.5332248  19.0053352  25.5118275  10.4258376  19.4891095  26.1192322
   7.6534016  14.4549998  32.8940223   7.5893157  15.3159955  32.7660360
   7.7931204  14.1381992  32.0935774   7.6649486  14.5350165  32.7568436
  12.5256606  22.4697302  18.3686348  12.6076444  23.2764288  18.0447799
  13.0106349  22.4893261  19.0927121  12.6093764  22.5917964  18.4273247
   6.3353110  17.1482138  27.0356426   5.9115359  17.3486637  26.2995444
   6.1597965  16.3010986  27.1480726   6.2463990  17.0530919  26.9430116
   5.8364803  28.6632651  29.4977883   6.3260733  27.9643440  29.3153548
   5.2649035  28.3656521  30.0853941   5.8249333  28.5158874  29.5578924
   1.6235555  17.6434189  22.4684398   1.7800174  17.5780992  23.3240391
   1.9636148  18.4182742  22.2563078   1.6968790  17.7483387  22.5638993
   8.1614699  17.0192073  21.3377762   8.7030245  16.5162454  21.8016382
   8.4761258  16.9657267  20.5267247   8.2879096  16.9371494  21.2861574
  12.0331807  21.2294720  38.4504674  12.8466672  20.9579869  38.6109806
  11.8726773  20.9302260  37.6464870  12.1301755  21.1449646  38.3550080
   6.3301149  22.4109424  18.6217790   6.3993969  21.5523963  18.7610790
   7.1089604  22.6281305  18.2936814   6.4553999  22.3162288  18.5934947
   9.3103969  11.9128377  31.3900062   9.5245938  11.2739292  30.8363416
   8.6937868  12.3574201  30.9607924   9.2509298  11.8838521  31.2450493
  10.7208637  24.8347126  22.8354283  10.3288428  24.5313841  22.1177149
  10.8761709  25.6716216  22.6459237  10.6862226  24.9130962  22.7010780
  11.4743057  13.5217442  32.3283369  10.6619738  13.2143333  32.4096542
  11.9332991  13.0416443  32.8926081  11.4223441  13.4053935  32.4237963
  10.8848311  21.3997114  22.7760314  10.5262966  21.5711757  23.5524346
  10.3987022  21.8610320  22.2188312  10.7607008  21.4936086  22.8085583
   8.5696564  14.9277514  37.1112072   9.0396195  15.5519630  37.4979946
   8.6158444  14.2594489  37.6705286   8.6464440  14.9212194  37.2512143
  12.0453051  22.2901010  33.7227514  12.6832771  21.7961206  33.3889971
  11.4027142  22.2178411  33.1379741  12.0447277  22.2060019  33.5869869
  13.7710051  14.1390156  28.2893430  13.3437659  14.0516505  27.5341530
  13.1336104  14.2467932  28.8748274  13.6139658  14.1422816  28.2638872
   7.2631128   9.2465682  34.2290399   8.0904557   8.9750831  34.2849014
   7.2838974  10.0426523  34.5854218   7.3883978   9.3245436  34.2905582
  12.1007307  22.9820819  30.3632871  12.8899685  22.6309883  30.4834953
  12.2750905  23.7957207  30.1009505  12.2427589  23.0506676  30.3420739
   1.8400618  16.3929544  27.4160660   0.9988624  16.2933419  27.6239554
   2.0490626  17.1625025  27.7674981   1.7465310  16.4921588  27.4987975
  10.9541131   6.9930375  24.9249290  11.1590725   6.9252683  25.7706287
  10.6267555   7.7989197  24.8570467  10.9356379   7.1016316  25.0408945
   5.6517283  14.3210944  26.6658258   5.3480420  13.7666932  27.2668665
   4.9496703  14.5003154  26.1786292   5.5033492  14.2655726  26.6827963
   3.7135634  21.5360664  31.3730355   3.6055989  21.5462726  32.2392413
   3.9231415  22.3615445  31.1835309   3.7285745  21.6601739  31.4734447
  14.2074819   7.5462140  24.4052055  13.5949133   8.0332542  24.7905787
  14.3038994   6.8705631  24.9489706  14.1312717   7.5180448  24.5430913
   1.7309426  18.7873307  28.8352293   1.1397359  19.4282805  28.8055308
   2.4930449  19.2110924  28.8083592   1.7557686  18.9449145  28.8267440
  17.8499847  18.6179076  29.8329571  17.9082971  19.0665725  30.5789548
  17.2166315  19.0277889  29.3959651  17.7651142  18.7452811  29.8782120
  11.4898942  24.2382618  26.2684317  11.2918630  24.7273433  25.5740529
  10.8686653  24.4423860  26.8468451  11.3686506  24.3399157  26.2507541
   5.5506920  16.0067515  20.6094562   6.2948965  16.3941791  20.8477512
   5.6967616  15.1624941  20.7735049   5.6817505  15.9397988  20.6688531
   8.5384796  11.5792988  26.5088481   8.0644750  11.0534750  27.0193792
   8.9102932  11.0322461  25.9403343   8.5234685  11.4208985  26.5003628
  14.8021527  16.6395364  27.9195262  14.5619750  15.8001779  27.9237688
  15.2813534  16.7195531  28.6436035  14.8373710  16.5276764  28.0270064
  16.8026714  13.4196821  25.8724521  16.5636484  13.3792655  25.0345305
  16.9660615  14.2667973  25.9990242  16.7917017  13.5388906  25.7678003
  13.4072744  17.8046771  31.8029566  14.1306943  17.3519297  31.6240586
  13.1422706  18.0851436  31.0201894  13.4754017  17.7797739  31.6608281
   2.2759612  12.4006944  28.5382445   1.6512682  12.4125336  27.9308398
   1.9405207  12.8767119  29.1873685   2.1345104  12.4725461  28.5439013
  10.0205378  21.0433107  18.7023892  10.7439577  21.5091220  18.5588465
   9.5805969  21.1106716  17.9521489  10.0621070  21.1216943  18.5708673
   9.1891533  17.9030649  29.9524581   8.5748526  17.3588699  30.2473216
   9.7058818  17.3894885  29.4730397   9.1747196  17.7467058  29.9248809
   8.4287830  18.9734919  27.6868879   8.0015438  18.3484638  27.2534315
   8.4212775  18.6909841  28.5127887   8.3646972  18.8387700  27.7448707
   1.5450358  14.0100092  30.7557313   1.7043844  13.2543416  31.1609035
   1.3643251  14.5591031  31.4098051   1.5415717  13.9793906  30.9120019
   9.4870661   6.1761328  31.3108103   8.9911222   6.3725002  30.6199670
  10.2439723   6.5753996  31.1396905   9.5257485   6.2639061  31.1828240
   6.7573540   9.8503673  27.9011413   6.7816027   9.3163786  27.2124193
   7.0085014   9.3420982  28.5637004   6.7983459   9.6964577  27.8976058
   5.2204475  18.1435232  35.3837452   4.3700106  18.2806946  35.5195097
   5.3832603  17.4099010  35.8285154   5.1188339  18.0549333  35.4693052
   4.4589226  15.0935001  29.5791057   3.6281155  15.2608819  29.3726305
   4.4040743  14.7170952  30.3639942   4.3278641  15.0624733  29.6639585
  15.8408058  16.7673181  30.3060115  16.4325898  17.4070432  30.3378314
  16.2767052  16.0696218  30.5952182  15.9926489  16.7591532  30.3540948
   7.6701448  21.1890554  30.9318009   7.1626539  21.7426401  31.3758640
   7.3728094  21.2498844  30.1136784   7.5506333  21.2796865  30.8766466
   9.8363630   9.5543873  29.7742672  10.2618701   9.1016400  29.1626199
   9.2220623   9.0003944  30.0507460   9.8092275   9.4057850  29.7247698
  10.2809228  25.1053812  18.8621953   9.5638538  24.9314674  18.3969190
  10.9315965  24.8706384  18.3297439  10.2711078  25.0449604  18.7151171
  12.8657199  13.9818400  22.6063258  12.1948389  14.5248102  22.4776324
  13.5596949  14.4513255  22.3644953  12.8686067  14.1316671  22.5518786
   6.9143933  26.1215112  27.8375016   6.6909587  25.3633941  28.2059043
   6.4253776  26.1513133  27.1155456   6.8087382  26.0137337  27.7851757
  13.0285327  10.4374284  25.5153631  13.3812937  10.0104007  26.1899430
  12.1700128  10.3525127  25.6454708  12.9534771  10.3619024  25.6348642
   1.7269012  13.0681803  23.5736478   1.0081001  13.4845936  23.8409341
   2.0981374  13.6336042  23.0228116   1.6760943  13.2131085  23.5319285
  11.0268592  13.7009652  29.4638473  11.0066520  13.5192947  30.3173252
  11.0747793  14.5721671  29.4398057  11.0303233  13.8026191  29.5861768
   8.9714922  20.2896844  35.3886950   8.9310777  19.6446521  34.8032106
   9.7838240  20.2333462  35.7012362   9.0858076  20.1855811  35.3483899
   5.5622390  26.3415570  25.2912101   5.1482788  25.6789700  24.9015943
   6.2469764  26.4893429  24.7707795   5.6020761  26.2656228  25.1568598
   8.9287684  25.5005655  26.0435717   8.5303967  25.6107926  25.2756538
   8.3138904  25.7087722  26.6262277   8.7786573  25.5479223  26.0167017
  14.4609387   5.5592696  26.4437944  13.9540251   4.8521835  26.3759121
  15.2576820   5.2285884  26.5739020  14.5036626   5.4065847  26.4536939
  10.3773403  12.0659308  22.3411607  10.1487096  12.0892009  21.4989966
  10.6371479  11.2416775  22.4606618  10.3819591  11.9475388  22.2336805
   4.6592631  13.9193781  31.9436708   4.1471534  13.3114964  32.3021739
   4.4872127  14.6350373  32.4110683   4.5582268  13.9357080  32.0652931
   3.4318165  10.6035854  23.6365803   3.9075531  10.9652934  23.0015984
   2.9306765  11.2592322  23.9165946   3.4283524  10.7530043  23.5842544
   8.5361701  11.8418025  34.3838963   9.0933131  11.6131835  33.7517429
   8.2122766  12.6023691  34.1074176   8.5708111  11.9201862  34.2495460
   6.2544819  14.9285679  35.3490970   7.0056146  15.2437356  35.6630524
   6.4467395  14.7264850  34.5224892   6.3936233  14.9453061  35.2734366
  13.1030109  11.0559245  22.5914766  13.1024335  10.9007902  23.4499042
  12.8986289  11.9022232  22.5356151  13.0729887  11.1579866  22.7102705
  10.8270961  15.7356747  26.2450973  11.3224626  15.0179742  26.2054993
  10.0170736  15.4327545  26.1305460  10.7814854  15.5854393  26.2224698
  12.8922780  18.4860434  28.9328101  13.3177851  17.9634856  28.3798526
  12.5279699  19.0841272  28.4116724  12.9009382  18.4970661  28.7737111
   2.5276859  26.7824652  27.6925447   2.8423418  27.5961040  27.7003229
   2.9370273  26.3974871  28.3607606   2.6344957  26.8453354  27.7929539
  11.5678364  23.8096012  37.4421331  11.6775329  23.0204573  37.7978078
  11.8969260  23.7201948  36.6395669  11.6330769  23.6801865  37.3763722
  10.1175325  21.9912633  32.0256952   9.5696271  21.3670516  31.7577017
  10.5788354  22.1806905  31.3101031  10.1042535  21.9271683  31.8807383
  12.9269190  10.0597987  29.4108144  12.3432179  10.5607194  28.9985711
  13.2473484   9.5527543  28.7772467  12.8882365  10.0589822  29.2566651
   9.6833652  22.9963705  28.5566293  10.5032026  22.8526672  28.8182588
   9.4027729  23.6209904  29.0982731   9.7630395  23.0674058  28.6754232
  26.1547302  30.6528557  21.5209169  26.1241306  31.5073194  21.6927438
  26.7528651  30.3523850  22.0795313  26.2384460  30.7345054  21.6283971
  19.3546987  29.7404208  26.2762099  18.4984882  29.9012706  26.3271216
  19.4014641  28.8696272  26.2967161  19.2346098  29.6355010  26.2868165
  13.7388127  39.2766926  22.0399331  12.9871026  38.8982464  21.8115376
  14.1874138  39.3085360  21.2918141  13.6937793  39.2252533  21.8956833
  19.1913087  39.6992296  17.4684878  18.8564455  40.3769217  17.0329100
  19.7039957  39.3097607  16.8801750  19.2178668  39.7416874  17.3171670
  18.7317378  41.6506564  23.4095990  19.1156757  42.2193463  22.8700765
  18.6676519  40.9256075  22.9301806  18.7790805  41.6282028  23.2589852
  15.3172883  39.2885318  24.3062104  15.4183246  38.4785672  24.6159231
  14.7214628  39.1942265  23.6761782  15.2445421  39.1550346  24.2588342
  23.9763877  33.2280859  19.7927479  23.8603403  33.9788545  20.2219617
  24.7719763  32.9704813  20.0423566  24.0768466  33.3015706  19.8931571
  15.1573622  44.2062907  25.7076960  15.8011078  44.6476071  26.0973118
  15.4829878  43.4016334  25.6207218  15.3005451  44.1528102  25.7522437
   8.5137927  35.3105605  23.9314437   8.2788112  34.4773257  23.8246706
   8.6523568  35.5910270  23.1175638   8.4993590  35.2289108  23.7956792
  10.8128015  27.4791335  26.8298745  10.1933046  26.8883983  26.6608760
  10.7111878  28.0702771  26.1963068  10.7065690  27.4795418  26.7103734
  15.8594202  37.2174882  21.0796821  16.1810043  37.7580090  20.4758129
  16.5066299  36.6471654  21.2119111  16.0020257  37.2134057  21.0103857
  17.9095910  29.2190877  21.1631208  18.6076075  29.3979005  21.6552671
  18.2248243  28.6961217  20.5401597  18.0591247  29.1684649  21.1433218
  10.5397148  31.0243617  29.0742314  10.4155844  31.6106063  29.7092133
  11.1915432  30.5303813  29.3754589  10.6170797  31.0382422  29.2128243
  18.0983846  35.6061322  21.1510999  18.5377481  34.9978423  21.5965772
  17.9488508  35.2268696  20.3796464  18.1405311  35.4599793  21.1030167
  15.5655489  34.2005334  28.3529825  16.2104491  33.7077777  28.0340773
  15.8057266  34.3430121  29.1795903  15.6966074  34.1482776  28.4279358
  18.1041580  37.0460240  28.0036718  18.3864823  36.2511646  27.7823473
  18.8327740  37.5240827  28.0241779  18.2531144  36.9994837  27.9739733
  16.0822774  24.5883274  25.2452483  15.7526104  25.0394417  24.5756181
  15.4067776  24.5099437  25.7925489  15.9333210  24.6434409  25.2275706
  21.6993182  33.9588504  18.1041769  21.6144477  34.8149470  18.2491338
  22.1877565  33.6832828  18.7723928  21.7582079  34.0445825  18.2243850
  23.2899182  20.5768797  23.4902093  22.9752623  21.2672275  23.9222516
  22.7726123  20.5213579  22.7887594  23.1663652  20.6703685  23.4499042
  22.6311615  30.5773298  19.6039504  22.1023087  30.7932931  20.2636810
  23.1536635  31.2709436  19.5240473  22.6300068  30.7116435  19.6895103
  14.5211223  34.4736514  18.4046972  13.9368438  34.9786546  18.8112836
  14.1181318  34.2478901  17.6643564  14.3750527  34.5144763  18.3551997
  10.0755252  40.1891276  25.2070643   9.5922830  40.9141765  25.1830227
  10.8878570  40.4867406  25.3180801  10.1245999  40.3393629  25.2197923
  16.1469406  38.9823456  27.8120458  15.6296347  38.6230871  27.2081766
  16.8443797  38.4585631  27.8226524  16.1734987  38.8521144  27.7250717
  18.9788438  30.7202167  16.8815892  19.2184441  30.9280150  16.0691236
  19.3004279  29.9159675  16.9904837  19.0625595  30.6316268  16.7776445
  14.2878728  22.6495562  20.7275430  15.0424696  23.0173879  20.4892481
  14.1106262  23.0235117  21.4954610  14.3733206  22.7593750  20.8060319
  12.9299449  40.7047452  25.3590923  13.6320028  40.1899441  25.4163680
  12.8496932  41.0321603  26.1637798  13.0223209  40.6761678  25.4863715
  13.9778356  30.9423038  34.4871338  14.1498859  30.8328933  35.3356620
  14.5147713  31.5877444  34.2502531  14.0823360  31.0215040  34.5776435
  12.6435792  25.0565881  17.4253543  12.4611366  25.2737762  16.5994536
  13.5061405  25.1704894  17.4812158  12.7440382  25.1055779  17.3108030
  12.2550224  36.8953803  24.8676531  13.0939124  37.1276736  24.9150293
  12.2861994  36.0258115  24.7983567  12.3831942  36.8010750  24.8641176
  12.8802927  37.3154679  29.1689837  13.4201152  37.1725810  29.8393209
  12.1972874  37.7151429  29.5373863  12.8595081  37.3534350  29.3224258
  18.3235512  22.0592292  20.4602567  19.0521672  21.8808247  20.0140723
  18.4130405  22.9010372  20.6709745  18.4442174  22.1576170  20.4256085
   8.2840073  33.5354969  29.3224258   8.0178488  32.7194086  29.4815249
   8.2978637  33.5808125  28.4519774   8.2464795  33.4211874  29.2177740
  12.1897820  28.3340054  15.9376016  11.4755997  28.0478233  16.3498449
  12.6741788  28.6736680  16.5782404  12.1557183  28.3421704  16.0931651
  13.0338679  27.0733348  31.9691266  12.3410476  26.6030327  32.2151998
  13.6499006  26.8471652  32.5432973  13.0223209  26.9700480  32.0900419
  19.3645137  36.8370008  16.3137825  19.7796286  36.5055032  15.6222320
  18.5337067  36.6038910  16.1857961  19.3033146  36.7541264  16.1928672
   8.6933486  34.3213749  26.6036003   8.5109059  34.2960635  25.7508295
   9.4283155  34.7912687  26.6424911   8.7747550  34.3875111  26.4833921
  11.7579238  31.0398752  33.1118111  12.4819210  31.0251782  33.5983006
  11.8595374  31.7494107  32.6140079  11.8797447  31.1423455  33.1096898
  26.5923617  33.3966925  21.5838494  26.9231834  33.9294565  20.9778589
  27.1656705  33.4505813  22.2400445  26.7257296  33.4836494  21.5916276
  19.1324187  34.5197836  37.9767058  18.3397168  34.8341348  38.1619678
  19.2473114  34.7349305  37.1387843  19.0319598  34.5981673  37.8805393
  21.8055506  31.2431827  22.2662074  21.9002361  31.9821122  22.7201700
  21.1814350  30.8149303  22.6996639  21.7264536  31.2893148  22.3970222
   8.6604397  31.2007250  26.7535069   9.2377899  31.0643700  27.3927315
   7.9618458  30.7443034  27.0080654   8.6425418  31.1129516  26.8857359
  22.0578528  33.0880567  15.4999026  21.9758690  33.1582754  16.3654013
  22.6958248  33.6510311  15.3082767  22.1398365  33.1819538  15.5988976
  15.4171699  32.8541305  24.9673552  15.1590943  32.0213040  24.9404852
  15.4720182  33.0798918  24.1266053  15.3871477  32.7639076  24.8393689
  20.4972749  24.9569756  25.0677645  19.7929076  24.4678941  25.2261564
  20.5457723  24.9692230  24.1966089  20.4002800  24.8859404  24.9616985
  14.3906411  30.4079068  25.4538447  13.8156002  30.5671236  26.0902408
  14.0142087  29.7714477  24.9906898  14.2509223  30.3376881  25.4793006
  18.0579699  28.8802417  30.3130826  17.6694132  28.4556635  29.6583017
  17.3934398  29.1284567  30.8207852  17.9026627  28.8541138  30.2918694
   4.1363230  30.0519142  23.4682888   4.2223482  29.6751011  24.2496418
   4.7639027  29.6779588  22.9902846   4.2419781  29.9404625  23.5128365
  19.1618638  33.1101022  18.5107633  19.9759277  33.4015914  18.3990404
  19.0977779  32.4560884  17.9365926  19.2721377  33.0566216  18.4096470
  15.0326546  36.5822539  23.6379945  15.6700493  36.3434287  24.1831738
  15.4581618  36.7859698  22.9033105  15.1902712  36.5773549  23.6097102
   9.7239188  38.8210876  27.5214248   9.7643334  39.0925727  26.6934028
  10.2833712  39.3452784  27.9372036   9.8122534  38.9386631  27.4606137
  15.6729361  31.8024829  17.9754834  16.0574514  31.5832536  18.7271379
  15.4240981  32.6287774  18.1055910  15.6931434  31.8922975  18.1055910
  15.8397901  25.0831244  37.6917418  15.5251343  25.8530807  37.4286981
  15.5187834  24.5201500  37.1069645  15.7456821  25.1141513  37.5658768
  17.4148018  37.0594962  25.3173731  17.4887026  36.8970134  26.1715581
  18.2317524  37.2485151  25.0734213  17.5464377  37.0631704  25.4071756
  11.1753775  37.4052824  22.3468174  10.3491892  37.6514562  22.2202453
  11.2365766  37.3264905  23.2130232  11.0627942  37.4297773  22.4557119
  13.3929798  23.4721765  23.3063615  12.5252224  23.5444365  23.3721224
  13.6805003  24.2743844  23.4951590  13.3069547  23.6015913  23.3438381
  15.9552604  40.0229705  20.0487204  16.2450902  39.6318686  19.3246431
  16.6856085  40.2046410  20.4892480  16.1059488  39.9923518  20.0070011
  16.5447349  34.8247451  31.1340335  16.0459043  35.5363218  31.2125223
  17.3547573  35.1448117  31.0958497  16.5903456  34.9774299  31.1396903
  13.8958519  41.9997087  23.1147354  13.6758815  41.7094442  23.9074021
  13.6753041  41.3412042  22.5865266  13.8306113  41.8596795  23.1536263
  12.8075466  34.0870404  25.3803056  12.5188715  33.4607875  25.9148783
  13.6758815  34.0290691  25.4467736  12.8935718  33.9857948  25.4694010
  16.0626475  43.3726477  21.8978046  16.7150533  42.8402919  22.1269072
  15.3652084  43.0195129  22.2845920  16.0557193  43.2416000  21.9890214
  13.0107740  35.7265655  21.3045421  13.7653708  36.1078694  21.5180883
  12.4178353  36.1776798  21.7592117  13.0344453  35.8494482  21.4028299
  24.0566393  35.6930891  21.2409026  24.6224426  36.3524101  21.1567569
  23.4094297  36.0380589  21.7125428  24.0445150  35.8412832  21.2981782
  15.4714407  27.6828495  36.4302633  14.6614183  27.9886275  36.3192475
  15.9489094  28.4034077  36.5455217  15.4217886  27.8343096  36.4309704
  14.3305966  36.8974216  26.6785536  13.8086720  37.0374508  27.3637401
  14.7179987  36.1384880  26.8687653  14.3109667  36.8059740  26.8086613
  11.3197150  26.9480025  20.7480491  11.0321946  26.5781295  20.0112438
  12.0067619  27.4174880  20.4864196  11.3786048  26.9626994  20.5995567
  20.5272971  38.6369675  20.6646105  20.2859647  37.9037536  20.2573170
  20.7074304  39.1856532  20.0112438  20.5180595  38.6092066  20.5076328
  15.7572292  33.9278235  22.0767027  15.5615075  34.5352970  21.4827330
  15.9806638  33.2346179  21.5958701  15.7606933  33.9155761  21.9183108
  14.1550822  30.8132973  22.1947896  14.8773474  30.9774131  21.7351701
  13.6758815  31.5342638  22.0887235  14.1914553  30.9431203  22.1113510
  11.8058439  33.2191045  31.3002035  12.3179536  33.4975299  30.6510795
  11.5194781  33.9580339  31.6664848  11.8393302  33.3693399  31.2591913
  20.5613608  24.0482149  22.3072196  21.2639961  23.8489897  21.8292155
  20.2957797  23.2758091  22.6141040  20.6260240  23.9045115  22.2817638
   8.8925345  27.7261237  21.5965772   8.9941482  28.5287399  21.9246747
   9.6881232  27.5248573  21.2988852   9.0253251  27.8147136  21.6001127
  15.3242164  25.3117434  31.3603077  15.1325361  25.3272568  32.2102500
  16.1740760  25.5081108  31.3369732  15.4217886  25.3431785  31.4826372
   9.7089077  27.8408415  29.3386893   9.5674569  26.9892356  29.4631401
   9.9929641  27.8837076  28.5149099   9.7296923  27.7208165  29.2354517
  19.8627670  29.6775506  23.4831382  19.6162384  29.5971257  24.3168171
  20.1912793  28.8928973  23.2893909  19.8748913  29.5501771  23.5778905
  15.8224697  32.4132224  32.8954365  15.9668073  32.9933432  32.2597475
  16.1700345  32.7908521  33.6004219  15.8952158  32.5552928  32.9053360
  14.8952452  40.6034996  29.7615392  15.0442016  40.0437912  29.1088796
  15.6752454  40.6826998  30.1447910  15.0326545  40.5320562  29.7212341
  25.2529091  35.7437119  18.0334662  24.8735900  34.9574257  18.0263951
  24.5895337  36.2923976  17.8906306  25.0987566  35.7081943  18.0115459
  18.2346391  25.5072943  31.5674900  18.6919005  26.2396918  31.6947692
  18.3102720  25.0839409  32.3262156  18.3137361  25.5530181  31.6975977
  10.4779382  25.7538763  32.6564344   9.9421572  25.1419121  32.9725111
  10.5397147  26.3286899  33.3098010  10.4075015  25.7485691  32.7999771
  22.7073717  18.6862819  25.4368743  22.8257285  19.1439282  24.7036046
  22.5335893  17.8808080  25.1504961  22.6992888  18.6356591  25.2869677
  18.0775999  39.2950638  21.8723488  18.8425890  39.0260282  21.5506153
  17.9754089  38.8100648  22.5893551  18.1757495  39.1840202  21.9303316
  16.1128769  27.4975047  28.4116724  15.3224844  27.3166507  28.7334060
  16.5089392  26.7202000  28.3947019  16.0545645  27.3562508  28.4569272
  20.5994660  36.3262822  13.8523438  21.3667645  36.3862947  13.4429290
  20.1525969  35.7543263  13.3679756  20.6468087  36.2499397  13.7201148
  21.4972455  35.1317477  26.1376170  20.8217457  34.9002710  26.6389557
  21.5064832  34.5238660  25.5118275  21.3990960  35.0076403  26.1192322
  18.6266599  29.9735306  32.8940223  18.5625741  30.8345263  32.7660360
  18.7663787  29.6567300  32.0935774  18.6382069  30.0535473  32.7568436
  23.4989190  37.9882610  18.3686348  23.5809027  38.7949596  18.0447799
  23.9838932  38.0078569  19.0927121  23.5826348  38.1103272  18.4273247
  17.3085693  32.6667446  27.0356426  16.8847942  32.8671945  26.2995444
  17.1330548  31.8196294  27.1480726  17.2196574  32.5716227  26.9430116
  16.8097387  44.1817959  29.4977883  17.2993317  43.4828748  29.3153548
  16.2381619  43.8841829  30.0853941  16.7981917  44.0344182  29.5578924
  12.5968138  33.1619497  22.4684398  12.7532757  33.0966300  23.3240391
  12.9368731  33.9368050  22.2563078  12.6701373  33.2668695  22.5638993
  19.1347283  32.5377381  21.3377762  19.6762828  32.0347762  21.8016382
  19.4493842  32.4842575  20.5267247  19.2611680  32.4556802  21.2861574
  17.3033733  37.9294732  18.6217790  17.3726553  37.0709271  18.7610790
  18.0822188  38.1466613  18.2936814  17.4286583  37.8347596  18.5934947
  21.6941220  40.3532434  22.8354283  21.3021012  40.0499149  22.1177149
  21.8494292  41.1901523  22.6459237  21.6594810  40.4316270  22.7010780
   9.1702400  30.3454448  22.7845166   9.5501365  30.7638993  22.1205433
   8.5957765  30.9267903  23.0914009   9.1413725  30.4932306  22.7321907
  21.8580895  36.9182422  22.7760314  21.4995550  37.0897065  23.5524346
  21.3719606  37.3795628  22.2188312  21.7339592  37.0121393  22.8085583
  19.6751281  20.5413621  26.3787405  18.8044839  20.5152342  26.3320714
  19.9291622  20.3690813  25.5613251  19.5844841  20.5123765  26.2507542
  16.6469260  32.5981588  15.3160548  16.9361785  33.3746470  15.5904122
  16.7341059  32.0870319  16.0175047  16.7023517  32.6373506  15.4603046
  19.5429148  30.4462822  37.1112072  20.0128779  31.0704938  37.4979946
  19.5891028  29.7779797  37.6705286  19.6197024  30.4397502  37.2512143
  16.7000421  22.5519849  27.8360875  16.1838910  21.8600041  27.9612454
  16.1394350  23.2190626  27.7823474  16.5406935  22.5483107  27.8466941
  18.7692655  23.0912809  29.6653728  18.3824408  23.1161841  30.4467258
  18.2825592  22.5254488  29.2128244  18.6405164  23.0108560  29.7141632
  18.4349797  19.9779795  31.9563988  19.0642915  20.5140095  31.6785058
  18.6035659  19.8857154  32.8077553  18.5527591  20.0441157  32.0412516
  18.2363711  24.7650990  34.2290399  19.0637141  24.4936138  34.2849014
  18.2571558  25.5611831  34.5854218  18.3616562  24.8430744  34.2905582
  12.8133201  31.9114852  27.4160660  11.9721208  31.8118727  27.6239554
  13.0223209  32.6810333  27.7674981  12.7197894  32.0106896  27.4987975
  10.2908768  29.5334389  25.2445411   9.8965466  29.6077401  24.4695520
   9.7348885  29.9192336  25.7953772  10.1511581  29.6016164  25.2113070
  21.9273715  22.5115683  24.9249290  22.1323308  22.4437991  25.7706287
  21.6000139  23.3174505  24.8570467  21.9088963  22.6201624  25.0408945
  16.6249866  29.8396252  26.6658258  16.3213004  29.2852240  27.2668665
  15.9229287  30.0188462  26.1786292  16.4766076  29.7841034  26.6827963
  15.6815963  27.1496771  21.2302959  15.9575698  26.4315684  20.8180527
  16.2814633  27.7481691  21.0224065  15.8109228  27.1317142  21.1383721
  14.6868217  37.0545972  31.3730355  14.5788572  37.0648034  32.2392413
  14.8963999  37.8800753  31.1835309  14.7018328  37.1787047  31.4734447
  25.1807403  23.0647448  24.4052055  24.5681716  23.5517850  24.7905787
  25.2771578  22.3890938  24.9489706  25.1045300  23.0365756  24.5430913
  19.1826484  24.8210289  19.5049554  19.6370230  24.9920849  20.2297399
  19.6566530  24.2078399  19.1047330  19.3194804  24.7561174  19.5523316
  12.7042009  34.3058615  28.8352293  12.1129942  34.9468113  28.8055308
  13.4663033  34.7296232  28.8083592  12.7290270  34.4634453  28.8267440
  13.1002632  25.4660612  29.5020311  13.5604114  25.5399542  30.2395434
  13.1458739  26.2641866  29.1520132  13.1753187  25.5954759  29.5593067
  14.7485982  26.1327307  34.0692338  14.3571547  25.4860654  34.5048115
  14.9171844  26.7238743  34.6886593  14.7156892  26.1241575  34.2255044
  22.4631525  39.7567926  26.2684317  22.2651214  40.2458741  25.5740529
  21.8419236  39.9609168  26.8468451  22.3419090  39.8584465  26.2507541
  16.5239504  31.5252823  20.6094562  17.2681549  31.9127099  20.8477512
  16.6700200  30.6810248  20.7735049  16.6550089  31.4583296  20.6688531
  18.4419079  23.3203082  25.6426423  17.5955124  23.4925890  25.5167773
  18.4390212  22.5152426  25.9792251  18.3166229  23.2264111  25.6737550
  19.5117380  27.0978296  26.5088481  19.0377334  26.5720058  27.0193792
  19.8835515  26.5507769  25.9403343  19.4967269  26.9394293  26.5003628
   9.8890410  29.0949803  31.8772027  10.7516023  28.9945512  31.7909357
   9.5582193  28.5144512  31.3157599   9.9675606  28.9941430  31.7817433
  21.4400879  27.9914851  19.5714235  20.9123898  28.0743595  18.8819944
  21.8996587  28.7332722  19.5678879  21.4302730  28.1135513  19.4688930
  13.2492196  27.9192252  28.5382445  12.6245266  27.9310644  27.9308398
  12.9137791  28.3952427  29.1873685  13.1077688  27.9910769  28.5439013
  13.4333944  26.2617371  14.5955130  13.0846749  26.9137096  15.0586679
  12.9530390  26.2474484  13.8679001  13.3104188  26.3560424  14.5566221
   9.9617871  35.9792712  29.9786209   9.4317796  35.2885151  30.0281184
  10.2342965  35.9702898  29.1498918   9.9242594  35.8759844  29.8633625
  20.9937962  36.5618415  18.7023892  21.7172161  37.0276528  18.5588465
  20.5538553  36.6292024  17.9521489  21.0353654  36.6402251  18.5708673
  19.4020414  34.4920227  27.6868879  18.9748022  33.8669945  27.2534315
  19.3945358  34.2095149  28.5127887  19.3379555  34.3573007  27.7448707
  12.5182941  29.5285400  30.7557313  12.6776428  28.7728724  31.1609035
  12.3375835  30.0776339  31.4098051  12.5148300  29.4979214  30.9120019
  20.4603244  21.6946635  31.3108103  19.9643805  21.8910310  30.6199670
  21.2172306  22.0939304  31.1396905  20.4990069  21.7824369  31.1828240
  17.7306124  25.3688981  27.9011413  17.7548611  24.8349094  27.2124193
  17.9817597  24.8606290  28.5637004  17.7716042  25.2149885  27.8976058
   5.2413714  32.6520476  27.3354558   5.1357163  32.6067321  26.4706642
   4.4913934  32.9974257  27.6168842   5.1149316  32.6961384  27.2491887
  14.0107446  24.0959800  27.2817158  14.0505818  24.5969006  27.9951865
  13.1857111  24.1870193  27.0123081  13.8946972  24.1841616  27.3467696
  16.1937059  33.6620540  35.3837452  15.3432689  33.7992254  35.5195097
  16.3565187  32.9284318  35.8285154  16.0920922  33.5734641  35.4693052
  15.4321809  30.6120309  29.5791057  14.6013739  30.7794127  29.3726305
  15.3773326  30.2356260  30.3639942  15.3011224  30.5810041  29.6639585
  13.2405593  24.1029202  35.2147467  13.8658296  23.5591335  35.4876900
  12.7856073  23.6224120  34.6455258  13.2653853  23.9518684  35.1709061
  13.8057853  28.8875901  20.1081174  13.9460814  29.3848365  20.8109816
  14.3040386  28.1862195  20.2495388  13.8998934  28.8577880  20.2332754
  13.8358076  29.7543012  17.4373751  14.4703155  30.3503437  17.3723213
  13.9183686  29.4546470  18.2519621  13.9414627  29.7983920  17.5476838
  15.4137058  25.6856987  17.4119193  15.7352899  25.2060070  16.7578456
  15.6764002  26.4956633  17.2210005  15.5003084  25.7346885  17.2874685
  18.6434031  36.7075862  30.9318009  18.1359122  37.2611709  31.3758640
  18.3460677  36.7684152  30.1136784  18.5238916  36.7982173  30.8766466
  10.3411063  31.9510853  20.7063297  10.8503293  32.5475360  21.0874603
  10.8145336  31.6836826  20.0239717  10.4854439  31.9996668  20.6617820
  21.2541811  40.6239119  18.8621953  20.5371121  40.4499982  18.3969190
  21.9048549  40.3891692  18.3297439  21.2443662  40.5634912  18.7151171
  19.2490436  21.5444281  23.1833249  18.6058754  21.3941928  23.7518388
  18.9089843  21.2986626  22.4182354  19.1035514  21.4856404  23.1536265
  17.8876516  41.6400420  27.8375016  17.6642171  40.8819249  28.2059043
  17.3986360  41.6698441  27.1155456  17.7819965  41.5322645  27.7851757
  24.0017910  25.9559592  25.5153631  24.3545520  25.5289315  26.1899430
  23.1432712  25.8710435  25.6454708  23.9267355  25.8804332  25.6348642
  12.7001595  28.5867111  23.5736478  11.9813584  29.0031244  23.8409341
  13.0713957  29.1521350  23.0228116  12.6493527  28.7316393  23.5319285
  16.5354973  41.8600878  25.2912101  16.1215372  41.1975008  24.9015943
  17.2202348  42.0078737  24.7707795  16.5753345  41.7841536  25.1568598
  19.9020268  41.0190963  26.0435717  19.5036551  41.1293234  25.2756538
  19.2871487  41.2273030  26.6262277  19.7519157  41.0664531  26.0167017
  18.4748170  27.6265111  18.9109857  17.8813009  27.9482108  18.3594424
  18.5123447  26.7806207  18.7030963  18.3922559  27.5489439  18.7992628
  25.4341970  21.0778003  26.4437944  24.9272835  20.3707143  26.3759121
  26.2309404  20.7471192  26.5739020  25.4769209  20.9251155  26.4536939
  21.3505986  27.5844616  22.3411607  21.1219679  27.6077317  21.4989966
  21.6104062  26.7602083  22.4606618  21.3552174  27.4660696  22.2336805
  15.6325215  29.4379089  31.9436708  15.1204118  28.8300272  32.3021739
  15.4604711  30.1535681  32.4110683  15.5314852  29.4542388  32.0652931
  10.4790929  27.8816664  34.5939069  10.3093520  28.5418039  34.0487276
  10.0356879  28.0923225  35.3151559  10.3890263  28.0102646  34.6200699
  14.4050749  26.1221162  23.6365803  14.8808115  26.4838242  23.0015984
  13.9039348  26.7777630  23.9165946  14.4016108  26.2715351  23.5842544
  27.6362110  35.5942930  19.4278808  28.0195716  36.3434286  19.6576905
  26.8406224  35.8408750  19.1690797  27.5755892  35.7412624  19.4236382
  19.5094285  27.3603333  34.3838963  20.0665715  27.1317143  33.7517429
  19.1855350  28.1208999  34.1074176  19.5440695  27.4387170  34.2495460
   7.3792994  30.7863530  29.8527559   6.8319713  30.1164175  29.9708428
   8.1685372  30.4193378  29.9171027   7.4145177  30.6328516  29.8796260
  17.2277402  30.4470987  35.3490970  17.9788729  30.7622664  35.6630524
  17.4199979  30.2450158  34.5224892  17.3668816  30.4638369  35.2734366
  16.4477402  28.2662362  17.0039187  16.8276367  28.2841991  16.2190302
  15.7069998  28.7116351  16.8830034  16.3946240  28.3344136  16.8702755
  24.0762692  26.5744553  22.5914766  24.0756919  26.4193210  23.4499042
  23.8718872  27.4207540  22.5356151  24.0462470  26.6765174  22.7102705
   6.1379963  29.9984337  27.0073582   5.9601724  29.5460946  27.7328498
   5.8498985  30.8010499  27.1912060   6.0692916  30.0506895  27.1417085
  17.2462156  35.1039868  18.3947977  16.4373479  34.7806542  18.3481287
  17.7537065  34.3973090  18.3276226  17.2011823  34.9521184  18.3778271
   7.8752433  32.5312061  24.1195341   7.0097953  32.5197752  24.0078113
   7.9751249  32.3442284  24.9666481   7.7626600  32.5018122  24.2284286
  13.5009443  42.3009960  27.6925447  13.8156002  43.1146348  27.7003229
  13.9102856  41.9160178  28.3607606  13.6077541  42.3638662  27.7929539
  20.4533963  37.7180007  25.2629259  20.9245141  38.4320269  25.4319244
  20.7894141  37.1178757  25.7989128  20.5729078  37.7351471  25.3661635
  17.3703458  22.4907477  32.2187354  17.5031363  21.6938471  32.5468329
  17.7548610  23.0173880  32.7985629  17.4459786  22.4507394  32.3530857
  20.4435813  19.4137803  28.8168447  19.6381776  19.3035533  29.1336285
  20.3142548  19.5150259  27.9598313  20.3055946  19.4121473  28.7376487
  16.4396572  24.4923890  19.6866819  17.2612267  24.6622203  19.4448513
  15.9766223  24.6471151  18.9633116  16.4927735  24.5405623  19.5438463
  15.0291904  22.4866652  30.4665247  15.5736317  22.1457779  31.0569589
  15.0828840  23.3452114  30.6086532  15.1181024  22.5621912  30.5747121
  10.8422463  36.2483068  27.3404055  11.4467321  36.2078902  26.7117876
  10.6349776  37.0954220  27.3708111  10.9011360  36.3671071  27.2520172
   6.0773745  35.2317686  27.2102978   5.9798023  34.4213957  27.5193035
   6.8602615  35.2109479  26.8249247   6.1789882  35.1084776  27.1989841
  37.1279886  46.1713865  21.5209169  37.0973890  47.0258502  21.6927438
  37.7261234  45.8709158  22.0795313  37.2117044  46.2530362  21.6283971
  30.3279571  45.2589516  26.2762099  29.4717466  45.4198014  26.3271216
  30.3747224  44.3881580  26.2967161  30.2078682  45.1540318  26.2868165
  24.7120710  54.7952234  22.0399331  23.9603610  54.4167772  21.8115376
  25.1606722  54.8270668  21.2918141  24.6670377  54.7437841  21.8956833
  30.1645670  55.2177604  17.4684878  29.8297039  55.8954525  17.0329100
  30.6772541  54.8282915  16.8801750  30.1911251  55.2602182  17.3171670
  29.7049961  57.1691872  23.4095990  30.0889341  57.7378771  22.8700765
  29.6409103  56.4441383  22.9301806  29.7523389  57.1467336  23.2589852
  26.2905466  54.8070626  24.3062104  26.3915829  53.9970980  24.6159231
  25.6947212  54.7127573  23.6761782  26.2178005  54.6735654  24.2588342
  34.9496460  48.7466167  19.7927479  34.8335986  49.4973853  20.2219617
  35.7452347  48.4890120  20.0423566  35.0501050  48.8201014  19.8931571
  26.1306206  59.7248215  25.7076960  26.7743661  60.1661379  26.0973118
  26.4562462  58.9201642  25.6207218  26.2738035  59.6713410  25.7522437
  19.4870511  50.8290913  23.9314437  19.2520695  49.9958565  23.8246706
  19.6256151  51.1095578  23.1175638  19.4726173  50.7474416  23.7956792
  21.7860598  42.9976643  26.8298745  21.1665630  42.4069291  26.6608760
  21.6844462  43.5888079  26.1963068  21.6798274  42.9980726  26.7103734
  26.8326786  52.7360190  21.0796821  27.1542627  53.2765397  20.4758129
  27.4798882  52.1656962  21.2119111  26.9752841  52.7319365  21.0103857
  28.8828494  44.7376185  21.1631208  29.5808658  44.9164313  21.6552671
  29.1980826  44.2146524  20.5401597  29.0323831  44.6869957  21.1433218
  21.5129731  46.5428925  29.0742314  21.3888428  47.1291371  29.7092133
  22.1648016  46.0489121  29.3754589  21.5903380  46.5567729  29.2128243
  29.0716429  51.1246630  21.1510999  29.5110065  50.5163731  21.5965772
  28.9221092  50.7454003  20.3796464  29.1137895  50.9785101  21.1030167
  26.5388072  49.7190642  28.3529825  27.1837075  49.2263085  28.0340773
  26.7789849  49.8615429  29.1795903  26.6698657  49.6668084  28.4279358
  29.0774164  52.5645548  28.0036718  29.3597406  51.7696954  27.7823473
  29.8060324  53.0426135  28.0241779  29.2263727  52.5180145  27.9739733
  27.0555357  40.1068582  25.2452483  26.7258687  40.5579725  24.5756181
  26.3800359  40.0284745  25.7925489  26.9065794  40.1619717  25.2275706
  32.6725766  49.4773811  18.1041769  32.5877061  50.3334778  18.2491338
  33.1610149  49.2018136  18.7723928  32.7314663  49.5631133  18.2243850
  33.6044199  46.0958606  19.6039504  33.0755670  46.3118239  20.2636810
  34.1269219  46.7894744  19.5240473  33.6032652  46.2301743  19.6895103
  25.4943807  49.9921822  18.4046972  24.9101022  50.4971854  18.8112836
  25.0913902  49.7664209  17.6643564  25.3483111  50.0330071  18.3551997
  21.0487835  55.7076584  25.2070643  20.5655414  56.4327073  25.1830227
  21.8611154  56.0052714  25.3180801  21.0978583  55.8578937  25.2197923
  27.1201989  54.5008764  27.8120458  26.6028931  54.1416179  27.2081766
  27.8176381  53.9770939  27.8226524  27.1467571  54.3706452  27.7250717
  29.9521021  46.2387474  16.8815892  30.1917025  46.4465458  16.0691236
  30.2736862  45.4344983  16.9904837  30.0358179  46.1501576  16.7776445
  25.2611311  38.1680870  20.7275430  26.0157279  38.5359187  20.4892481
  25.0838846  38.5420425  21.4954610  25.3465790  38.2779058  20.8060319
  23.9032033  56.2232759  25.3590923  24.6052612  55.7084748  25.4163680
  23.8229516  56.5506911  26.1637798  23.9955793  56.1946986  25.4863715
  23.6168376  40.5751189  17.4253543  23.4343949  40.7923070  16.5994536
  24.4793989  40.6890202  17.4812158  23.7172966  40.6241087  17.3108030
  23.2282808  52.4139111  24.8676531  24.0671707  52.6462044  24.9150293
  23.2594577  51.5443423  24.7983567  23.3564526  52.3196058  24.8641176
  23.8535511  52.8339987  29.1689837  24.3933736  52.6911118  29.8393209
  23.1705457  53.2336737  29.5373863  23.8327665  52.8719658  29.3224258
  29.2968095  37.5777600  20.4602567  30.0254256  37.3993555  20.0140723
  29.3862988  38.4195680  20.6709745  29.4174757  37.6761478  20.4256085
  19.2572656  49.0540277  29.3224258  18.9911071  48.2379394  29.4815249
  19.2711220  49.0993433  28.4519774  19.2197378  48.9397182  29.2177740
  23.1630403  43.8525362  15.9376016  22.4488580  43.5663541  16.3498449
  23.6474372  44.1921988  16.5782404  23.1289766  43.8607011  16.0931651
  30.3377721  52.3555316  16.3137825  30.7528869  52.0240340  15.6222320
  29.5069651  52.1224218  16.1857961  30.2765730  52.2726572  16.1928672
  19.6666070  49.8399057  26.6036003  19.4841643  49.8145943  25.7508295
  20.4015739  50.3097995  26.6424911  19.7480134  49.9060419  26.4833921
  22.7311821  46.5584060  33.1118111  23.4551794  46.5437090  33.5983006
  22.8327958  47.2679415  32.6140079  22.8530031  46.6608763  33.1096898
  32.7788090  46.7617135  22.2662074  32.8734944  47.5006430  22.7201700
  32.1546933  46.3334611  22.6996639  32.6997120  46.8078456  22.3970222
  19.6336980  46.7192558  26.7535069  20.2110483  46.5829008  27.3927315
  18.9351042  46.2628342  27.0080654  19.6158002  46.6314824  26.8857359
  33.0311111  48.6065875  15.4999026  32.9491274  48.6768062  16.3654013
  33.6690832  49.1695619  15.3082767  33.1130949  48.7004846  15.5988976
  26.3904282  48.3726613  24.9673552  26.1323527  47.5398348  24.9404852
  26.4452765  48.5984226  24.1266053  26.3604060  48.2824384  24.8393689
  31.4705332  40.4755064  25.0677645  30.7661659  39.9864249  25.2261564
  31.5190307  40.4877538  24.1966089  31.3735384  40.4044712  24.9616985
  25.3638994  45.9264376  25.4538447  24.7888586  46.0856544  26.0902408
  24.9874671  45.2899785  24.9906898  25.2241807  45.8562189  25.4793006
  29.0312283  44.3987725  30.3130826  28.6426716  43.9741943  29.6583017
  28.3666981  44.6469875  30.8207852  28.8759211  44.3726446  30.2918694
  38.6735552  44.1562730  23.0878656  38.4172117  43.3442671  22.8976538
  39.5164866  44.1640297  22.8608843  38.7601578  44.0374727  23.0263473
  15.1095813  45.5704450  23.4682888  15.1956065  45.1936319  24.2496418
  15.7371611  45.1964896  22.9902846  15.2152364  45.4589933  23.5128365
  32.8538645  38.0962354  27.8254810  33.2349156  37.4140525  28.2122684
  32.0501929  37.8071956  27.6430474  32.7915106  37.9529402  27.8558866
  30.1351221  48.6286329  18.5107633  30.9491860  48.9201222  18.3990404
  30.0710363  47.9746192  17.9365926  30.2453960  48.5751524  18.4096470
  26.0059130  52.1007847  23.6379945  26.6433077  51.8619594  24.1831738
  26.4314201  52.3045006  22.9033105  26.1635296  52.0958857  23.6097102
  20.6971772  54.3396183  27.5214248  20.7375917  54.6111035  26.6934028
  21.2566296  54.8638092  27.9372036  20.7855118  54.4571939  27.4606137
  26.6461945  47.3210137  17.9754834  27.0307097  47.1017843  18.7271379
  26.3973565  48.1473082  18.1055910  26.6664017  47.4108283  18.1055910
  28.3880602  52.5780270  25.3173731  28.4619610  52.4155441  26.1715581
  29.2050108  52.7670459  25.0734213  28.5196960  52.5817012  25.4071756
  22.1486358  52.9238132  22.3468174  21.3224476  53.1699870  22.2202453
  22.2098349  52.8450213  23.2130232  22.0360525  52.9483081  22.4557119
  24.3662382  38.9907073  23.3063615  23.4984807  39.0629673  23.3721224
  24.6537586  39.7929152  23.4951590  24.2802130  39.1201220  23.3438381
  26.9285187  55.5415013  20.0487204  27.2183486  55.1503994  19.3246431
  27.6588668  55.7231718  20.4892480  27.0792071  55.5108826  20.0070011
  24.8691103  57.5182395  23.1147354  24.6491398  57.2279750  23.9074021
  24.6485625  56.8597350  22.5865266  24.8038697  57.3782103  23.1536263
  23.7808050  49.6055712  25.3803056  23.4921299  48.9793183  25.9148783
  24.6491398  49.5475999  25.4467736  23.8668302  49.5043256  25.4694010
  27.0359059  58.8911785  21.8978046  27.6883117  58.3588227  22.1269072
  26.3384667  58.5380437  22.2845920  27.0289777  58.7601308  21.9890214
  23.9840323  51.2450963  21.3045421  24.7386291  51.6264002  21.5180883
  23.3910936  51.6962106  21.7592117  24.0077037  51.3679790  21.4028299
  35.0298977  51.2116199  21.2409026  35.5957010  51.8709409  21.1567569
  34.3826880  51.5565897  21.7125428  35.0177733  51.3598140  21.2981782
  25.3038550  52.4159524  26.6785536  24.7819304  52.5559816  27.3637401
  25.6912570  51.6570188  26.8687653  25.2842251  52.3245048  26.8086613
  22.2929734  42.4665333  20.7480491  22.0054530  42.0966603  20.0112438
  22.9800202  42.9360188  20.4864196  22.3518631  42.4812302  20.5995567
  31.5005555  54.1554983  20.6646105  31.2592231  53.4222844  20.2573170
  31.6806888  54.7041840  20.0112438  31.4913179  54.1277374  20.5076328
  26.7304876  49.4463543  22.0767027  26.5347658  50.0538278  21.4827330
  26.9539221  48.7531487  21.5958701  26.7339517  49.4341068  21.9183108
  25.1283406  46.3318281  22.1947896  25.8506058  46.4959439  21.7351701
  24.6491398  47.0527946  22.0887235  25.1647136  46.4616510  22.1113510
  33.0876913  42.6682080  27.5744580  32.2488014  42.6943359  27.3382844
  33.1581281  43.3152815  28.1549927  32.9745307  42.7678206  27.6253697
  22.7791022  48.7376353  31.3002035  23.2912119  49.0160607  30.6510795
  22.4927365  49.4765647  31.6664848  22.8125885  48.8878707  31.2591913
  31.5346192  39.5667457  22.3072196  32.2372544  39.3675205  21.8292155
  31.2690380  38.7943399  22.6141040  31.5992824  39.4230423  22.2817638
  19.8657929  43.2446545  21.5965772  19.9674065  44.0472707  21.9246747
  20.6613815  43.0433881  21.2988852  19.9985834  43.3332444  21.6001127
  30.8360253  45.1960814  23.4831382  30.5894967  45.1156564  24.3168171
  31.1645376  44.4114281  23.2893909  30.8481497  45.0687079  23.5778905
  34.7308302  51.9044173  27.2718163  34.5922661  52.6025219  27.7766905
  33.9508300  51.7492829  26.9154345  34.5951529  51.9844340  27.2944437
  25.8685035  56.1220304  29.7615392  26.0174599  55.5623220  29.1088796
  26.6485037  56.2012306  30.1447910  26.0059129  56.0505869  29.7212341
  36.2261675  51.2622427  18.0334662  35.8468484  50.4759565  18.0263951
  35.5627920  51.8109284  17.8906306  36.0720150  51.2267251  18.0115459
  28.3938336  56.2934947  31.0399882  28.3182007  55.6243757  31.5950671
  28.3228195  56.9952735  31.5540549  28.3718943  56.2979854  31.1976731
  29.0508583  54.8135946  21.8723488  29.8158474  54.5445589  21.5506153
  28.9486673  54.3285956  22.5893551  29.1490078  54.7025510  21.9303316
  27.0861353  43.0160355  28.4116724  26.2957427  42.8351815  28.7334060
  27.4821976  42.2387308  28.3947019  27.0278229  42.8747816  28.4569272
  31.5727243  51.8448130  13.8523438  32.3400229  51.9048254  13.4429290
  31.1258552  51.2728571  13.3679756  31.6200671  51.7684705  13.7201148
  32.4705039  50.6502785  26.1376170  31.7950041  50.4188018  26.6389557
  32.4797415  50.0423968  25.5118275  32.3723544  50.5261711  26.1192322
  34.4721774  53.5067918  18.3686348  34.5541611  54.3134904  18.0447799
  34.9571516  53.5263877  19.0927121  34.5558931  53.6288580  18.4273247
  28.2818277  48.1852754  27.0356426  27.8580526  48.3857253  26.2995444
  28.1063132  47.3381602  27.1480726  28.1929157  48.0901535  26.9430116
  27.7829970  59.7003267  29.4977883  28.2725901  59.0014056  29.3153548
  27.2114203  59.4027137  30.0853941  27.7714500  59.5529490  29.5578924
  23.5700722  48.6804805  22.4684398  23.7265341  48.6151608  23.3240391
  23.9101315  49.4553358  22.2563078  23.6433957  48.7854003  22.5638993
  30.1079866  48.0562689  21.3377762  30.6495412  47.5533070  21.8016382
  30.4226425  48.0027883  20.5267247  30.2344264  47.9742110  21.2861574
  28.2766316  53.4480040  18.6217790  28.3459136  52.5894579  18.7610790
  29.0554771  53.6651921  18.2936814  28.4019166  53.3532904  18.5934947
  32.6673804  55.8717741  22.8354283  32.2753595  55.5684457  22.1177149
  32.8226876  56.7086831  22.6459237  32.6327394  55.9501578  22.7010780
  20.1434983  45.8639756  22.7845166  20.5233948  46.2824300  22.1205433
  19.5690348  46.4453211  23.0914009  20.1146308  46.0117614  22.7321907
  32.8313479  52.4367730  22.7760314  32.4728133  52.6082373  23.5524346
  32.3452189  52.8980936  22.2188312  32.7072175  52.5306701  22.8085583
  27.6201844  48.1166896  15.3160548  27.9094369  48.8931778  15.5904122
  27.7073643  47.6055627  16.0175047  27.6756100  48.1558814  15.4603046
  23.7865785  47.4300160  27.4160660  22.9453791  47.3304034  27.6239554
  23.9955793  48.1995641  27.7674981  23.6930477  47.5292204  27.4987975
  21.2641352  45.0519697  25.2445411  20.8698050  45.1262709  24.4695520
  20.7081469  45.4377644  25.7953772  21.1244164  45.1201472  25.2113070
  27.5982450  45.3581559  26.6658258  27.2945587  44.8037548  27.2668665
  26.8961871  45.5373769  26.1786292  27.4498660  45.3026342  26.6827963
  26.6548547  42.6682079  21.2302959  26.9308281  41.9500992  20.8180527
  27.2547216  43.2666999  21.0224065  26.7841811  42.6502450  21.1383721
  25.6600801  52.5731280  31.3730355  25.5521156  52.5833342  32.2392413
  25.8696582  53.3986061  31.1835309  25.6750912  52.6972355  31.4734447
  36.1539986  38.5832756  24.4052055  35.5414300  39.0703158  24.7905787
  36.2504161  37.9076246  24.9489706  36.0777884  38.5551064  24.5430913
  30.1559067  40.3395597  19.5049554  30.6102814  40.5106157  20.2297399
  30.6299113  39.7263707  19.1047330  30.2927387  40.2746482  19.5523316
  23.6774593  49.8243923  28.8352293  23.0862526  50.4653421  28.8055308
  24.4395616  50.2481540  28.8083592  23.7022853  49.9819761  28.8267440
  24.0735216  40.9845920  29.5020311  24.5336697  41.0584850  30.2395434
  24.1191322  41.7827174  29.1520132  24.1485771  41.1140067  29.5593067
  27.4972087  47.0438131  20.6094562  28.2414132  47.4312407  20.8477512
  27.6432784  46.1995556  20.7735049  27.6282672  46.9768604  20.6688531
  30.4849963  42.6163604  26.5088481  30.0109917  42.0905366  27.0193792
  30.8568099  42.0693077  25.9403343  30.4699852  42.4579601  26.5003628
  32.4133463  43.5100159  19.5714235  31.8856481  43.5928903  18.8819944
  32.8729171  44.2518030  19.5678879  32.4035313  43.6320821  19.4688930
  24.2224779  43.4377560  28.5382445  23.5977849  43.4495952  27.9308398
  23.8870374  43.9137735  29.1873685  24.0810271  43.5096077  28.5439013
  24.4066528  41.7802679  14.5955130  24.0579332  42.4322404  15.0586679
  23.9262974  41.7659792  13.8679001  24.2836772  41.8745732  14.5566221
  20.9350455  51.4978020  29.9786209  20.4050379  50.8070459  30.0281184
  21.2075548  51.4888205  29.1498918  20.8975177  51.3945152  29.8633625
  31.9670545  52.0803722  18.7023892  32.6904744  52.5461835  18.5588465
  31.5271136  52.1477332  17.9521489  32.0086238  52.1587559  18.5708673
  31.1356700  48.9401265  29.9524581  30.5213694  48.3959315  30.2473216
  31.6523985  48.4265501  29.4730397  31.1212363  48.7837674  29.9248809
  30.3752998  50.0105535  27.6868879  29.9480606  49.3855253  27.2534315
  30.3677942  49.7280457  28.5127887  30.3112139  49.8758315  27.7448707
  23.4915525  45.0470708  30.7557313  23.6509011  44.2914032  31.1609035
  23.3108418  45.5961647  31.4098051  23.4880884  45.0164522  30.9120019
  28.7038707  40.8874289  27.9011413  28.7281194  40.3534402  27.2124193
  28.9550181  40.3791598  28.5637004  28.7448626  40.7335193  27.8976058
  16.2146297  48.1705784  27.3354558  16.1089746  48.1252629  26.4706642
  15.4646517  48.5159565  27.6168842  16.0881900  48.2146692  27.2491887
  24.9840029  39.6145108  27.2817158  25.0238401  40.1154314  27.9951865
  24.1589694  39.7055501  27.0123081  24.8679555  39.7026924  27.3467696
  26.4054393  46.1305617  29.5791057  25.5746323  46.2979435  29.3726305
  26.3505910  45.7541568  30.3639942  26.2743808  46.0995349  29.6639585
  24.7790437  44.4061209  20.1081174  24.9193398  44.9033673  20.8109816
  25.2772970  43.7047503  20.2495388  24.8731518  44.3763188  20.2332754
  24.8090659  45.2728320  17.4373751  25.4435739  45.8688745  17.3723213
  24.8916270  44.9731778  18.2519621  24.9147210  45.3169228  17.5476838
  26.3869642  41.2042295  17.4119193  26.7085483  40.7245378  16.7578456
  26.6496586  42.0141941  17.2210005  26.4735667  41.2532193  17.2874685
  21.3143647  47.4696161  20.7063297  21.8235876  48.0660668  21.0874603
  21.7877919  47.2022134  20.0239717  21.4587023  47.5181976  20.6617820
  32.2274395  56.1424427  18.8621953  31.5103705  55.9685290  18.3969190
  32.8781133  55.9077000  18.3297439  32.2176246  56.0820220  18.7151171
  34.8122366  45.0189016  22.6063258  34.1413556  45.5618718  22.4776324
  35.5062117  45.4883871  22.3644953  34.8151234  45.1687287  22.5518786
  28.8609100  57.1585728  27.8375016  28.6374754  56.4004557  28.2059043
  28.3718943  57.1883749  27.1155456  28.7552549  57.0507952  27.7851757
  34.9750494  41.4744900  25.5153631  35.3278104  41.0474622  26.1899430
  34.1165295  41.3895743  25.6454708  34.8999938  41.3989640  25.6348642
  23.6734179  44.1052419  23.5736478  22.9546168  44.5216552  23.8409341
  24.0446541  44.6706658  23.0228116  23.6226111  44.2501701  23.5319285
  27.5087557  57.3786186  25.2912101  27.0947956  56.7160316  24.9015943
  28.1934931  57.5264045  24.7707795  27.5485929  57.3026844  25.1568598
  30.8752851  56.5376271  26.0435717  30.4769134  56.6478542  25.2756538
  30.2604071  56.7458338  26.6262277  30.7251740  56.5849839  26.0167017
  29.4480753  43.1450419  18.9109857  28.8545592  43.4667416  18.3594424
  29.4856031  42.2991515  18.7030963  29.3655142  43.0674747  18.7992628
  32.3238570  43.1029924  22.3411607  32.0952263  43.1262625  21.4989966
  32.5836646  42.2787391  22.4606618  32.3284758  42.9846004  22.2336805
  25.3783332  41.6406470  23.6365803  25.8540698  42.0023550  23.0015984
  24.8771932  42.2962938  23.9165946  25.3748691  41.7900659  23.5842544
  18.3525577  46.3048838  29.8527559  17.8052297  45.6349483  29.9708428
  19.1417956  45.9378685  29.9171027  18.3877761  46.1513824  29.8796260
  27.4209985  43.7847670  17.0039187  27.8008950  43.8027299  16.2190302
  26.6802581  44.2301659  16.8830034  27.3678823  43.8529444  16.8702755
  35.0495276  42.0929861  22.5914766  35.0489502  41.9378518  23.4499042
  34.8451456  42.9392848  22.5356151  35.0195054  42.1950482  22.7102705
  17.1112547  45.5169645  27.0073582  16.9334308  45.0646254  27.7328498
  16.8231569  46.3195807  27.1912060  17.0425500  45.5692203  27.1417085
  28.2194739  50.6225176  18.3947977  27.4106062  50.2991850  18.3481287
  28.7269648  49.9158398  18.3276226  28.1744406  50.4706492  18.3778271
  18.8485017  48.0497369  24.1195341  17.9830536  48.0383060  24.0078113
  18.9483833  47.8627592  24.9666481  18.7359184  48.0203430  24.2284286
  24.4742027  57.8195268  27.6925447  24.7888586  58.6331656  27.7003229
  24.8835440  57.4345486  28.3607606  24.5810125  57.8823970  27.7929539
  31.4266546  53.2365314  25.2629259  31.8977724  53.9505577  25.4319244
  31.7626725  52.6364065  25.7989128  31.5461661  53.2536779  25.3661635
  27.4129156  40.0109198  19.6866819  28.2344850  40.1807511  19.4448513
  26.9498807  40.1656459  18.9633116  27.4660318  40.0590931  19.5438463
  21.8155047  51.7668376  27.3404055  22.4199904  51.7264210  26.7117876
  21.6082359  52.6139528  27.3708111  21.8743944  51.8856379  27.2520172
  17.0506329  50.7502994  27.2102978  16.9530607  49.9399265  27.5193035
  17.8335199  50.7294787  26.8249247  17.1522465  50.6270084  27.1989841
  35.6853294  70.3137542  22.0399331  34.9336193  69.9353080  21.8115376
  36.1339305  70.3455976  21.2918141  35.6402961  70.2623149  21.8956833
  44.6105871  67.0461350  35.8822556  45.3172638  66.5513380  36.0109490
  44.7993806  67.4870431  35.1525214  44.7433776  67.0379700  35.7931601
  41.1378254  70.7362911  17.4684878  40.8029622  71.4139833  17.0329100
  41.6505124  70.3468223  16.8801750  41.1643835  70.7787490  17.3171670
  40.6782545  72.6877180  23.4095990  41.0621924  73.2564079  22.8700765
  40.6141686  71.9626690  22.9301806  40.7255972  72.6652644  23.2589852
  44.1463975  62.8366868  28.9193751  44.6919935  63.5151955  28.9787721
  44.0880851  62.6954329  28.0595333  44.2179889  62.9158870  28.8005812
  37.2638050  70.3255934  24.3062104  37.3648413  69.5156288  24.6159231
  36.6679795  70.2312880  23.6761782  37.1910589  70.1920962  24.2588342
  45.9229044  64.2651475  19.7927479  45.8068570  65.0159161  20.2219617
  46.7184930  64.0075428  20.0423566  46.0233633  64.3386322  19.8931571
  37.1038790  75.2433523  25.7076960  37.7476245  75.6846687  26.0973118
  37.4295045  74.4386949  25.6207218  37.2470618  75.1898718  25.7522437
  30.4603094  66.3476221  23.9314437  30.2253279  65.5143873  23.8246706
  30.5988735  66.6280886  23.1175638  30.4458757  66.2659724  23.7956792
  37.8059369  68.2545498  21.0796821  38.1275210  68.7950705  20.4758129
  38.4531466  67.6842269  21.2119111  37.9485424  68.2504673  21.0103857
  39.8561077  60.2561493  21.1631208  40.5541242  60.4349621  21.6552671
  40.1713410  59.7331832  20.5401597  40.0056415  60.2055265  21.1433218
  40.0449013  66.6431938  21.1510999  40.4842648  66.0349039  21.5965772
  39.8953676  66.2639311  20.3796464  40.0870478  66.4970409  21.1030167
  40.0506747  68.0830856  28.0036718  40.3329990  67.2882262  27.7823473
  40.7792907  68.5611443  28.0241779  40.1996311  68.0365453  27.9739733
  43.6458349  64.9959119  18.1041769  43.5609644  65.8520086  18.2491338
  44.1342733  64.7203443  18.7723928  43.7047247  65.0816441  18.2243850
  44.5776782  61.6143914  19.6039504  44.0488254  61.8303547  20.2636810
  45.1001802  62.3080052  19.5240473  44.5765235  61.7487050  19.6895103
  36.4676390  65.5107130  18.4046972  35.8833606  66.0157162  18.8112836
  36.0646485  65.2849517  17.6643564  36.3215694  65.5515379  18.3551997
  32.0220419  71.2261891  25.2070643  31.5387997  71.9512381  25.1830227
  32.8343737  71.5238021  25.3180801  32.0711167  71.3764245  25.2197923
  38.0934573  70.0194072  27.8120458  37.5761515  69.6601487  27.2081766
  38.7908964  69.4956247  27.8226524  38.1200154  69.8891760  27.7250717
  41.7498165  70.4688886  33.7736631  41.8381511  70.2815027  34.6214841
  42.1787877  69.8226316  33.3741478  41.8260267  70.3451894  33.8408382
  39.3168625  69.7520046  32.7554293  38.7539460  69.3392656  33.2793954
  40.0789648  69.6772952  33.1747436  39.3463073  69.6797447  32.8947293
  40.9253605  61.7572782  16.8815892  41.1649608  61.9650766  16.0691236
  41.2469446  60.9530291  16.9904837  41.0090763  61.6686884  16.7776445
  36.2343895  53.6866178  20.7275430  36.9889863  54.0544495  20.4892481
  36.0571430  54.0605732  21.4954610  36.3198373  53.7964366  20.8060319
  34.5900960  56.0936497  17.4253543  34.4076533  56.3108378  16.5994536
  35.4526573  56.2075510  17.4812158  34.6905549  56.1426395  17.3108030
  34.2015392  67.9324419  24.8676531  35.0404291  68.1647352  24.9150293
  34.2327161  67.0628731  24.7983567  34.3297109  67.8381366  24.8641176
  34.8268095  68.3525295  29.1689837  35.3666320  68.2096426  29.8393209
  34.1438041  68.7522045  29.5373863  34.8060249  68.3904965  29.3224258
  44.2508980  64.0316295  24.3634861  45.0066495  64.4647810  24.4023770
  44.3571304  63.3821065  24.9369497  44.3779150  63.9993779  24.4532887
  47.2889151  67.8589572  25.1137264  46.8524383  67.8626315  25.8696236
  46.9552066  68.5395071  24.6816842  47.1751771  67.9602028  25.1618097
  41.8618224  69.8997905  36.4380414  42.6458641  70.0128753  36.8036157
  41.6614819  69.0739042  36.6339100  41.9484250  69.7944625  36.5214800
  34.1362987  59.3710670  15.9376016  33.4221164  59.0848849  16.3498449
  34.6206955  59.7107296  16.5782404  34.1022350  59.3792319  16.0931651
  42.0188618  71.8108007  30.0846870  41.2203863  71.5707507  30.3420739
  42.4674629  71.8622400  30.8313918  41.9663229  71.7830398  30.2331794
  41.3110305  67.8740624  16.3137825  41.7261453  67.5425648  15.6222320
  40.4802234  67.6409526  16.1857961  41.2498313  67.7911880  16.1928672
  30.6398653  65.3584365  26.6036003  30.4574227  65.3331251  25.7508295
  31.3748322  65.8283303  26.6424911  30.7212717  65.4245727  26.4833921
  46.7098328  65.5935875  23.7468890  46.9453917  65.7381074  22.9195741
  46.8587891  66.3578283  24.1400404  46.7664131  65.7274929  23.6832494
  48.5388784  64.4337541  21.5838494  48.8697001  64.9665181  20.9778589
  49.1121872  64.4876428  22.2400445  48.6722463  64.5207109  21.5916276
  41.0789354  65.5568452  37.9767058  40.2862335  65.8711964  38.1619678
  41.1938282  65.7719921  37.1387843  40.9784765  65.6352289  37.8805393
  43.7520673  62.2802443  22.2662074  43.8467528  63.0191737  22.7201700
  43.1279517  61.8519919  22.6996639  43.6729704  62.3263764  22.3970222
  42.0073147  65.4588656  32.9152355  42.5812009  64.8215900  33.0700919
  41.9287951  65.4592738  32.0462013  42.0806382  65.3653767  32.8098766
  44.0043695  64.1251183  15.4999026  43.9223857  64.1953370  16.3654013
  44.6423415  64.6880927  15.3082767  44.0863532  64.2190154  15.5988976
  37.3636866  63.8911921  24.9673552  37.1056110  63.0583656  24.9404852
  37.4185349  64.1169534  24.1266053  37.3336644  63.8009692  24.8393689
  36.3371578  61.4449684  25.4538447  35.7621169  61.6041852  26.0902408
  35.9607254  60.8085093  24.9906898  36.1974390  61.3747496  25.4793006
  26.0828397  61.0889758  23.4682888  26.1688649  60.7121627  24.2496418
  26.7104194  60.7150204  22.9902846  26.1884948  60.9775240  23.5128365
  41.1083805  64.1471637  18.5107633  41.9224444  64.4386530  18.3990404
  41.0442946  63.4931500  17.9365926  41.2186544  64.0936832  18.4096470
  47.3293295  66.8297634  32.9237208  47.0931932  65.9985698  32.8049269
  47.9736524  66.7783241  33.5092052  47.3887966  66.6995322  32.9923102
  36.9791713  67.6193155  23.6379945  37.6165660  67.3804902  24.1831738
  37.4046785  67.8230314  22.9033105  37.1367879  67.6144165  23.6097102
  31.6704356  69.8581491  27.5214248  31.7108501  70.1296342  26.6934028
  32.2298880  70.3823399  27.9372036  31.7587701  69.9757246  27.4606137
  37.6194528  62.8395445  17.9754834  38.0039681  62.6203151  18.7271379
  37.3706149  63.6658390  18.1055910  37.6396601  62.9293591  18.1055910
  39.3613185  68.0965577  25.3173731  39.4352193  67.9340749  26.1715581
  40.1782691  68.2855767  25.0734213  39.4929544  68.1002320  25.4071756
  33.1218942  68.4423440  22.3468174  32.2957059  68.6885178  22.2202453
  33.1830933  68.3635521  23.2130232  33.0093109  68.4668389  22.4557119
  37.9017771  71.0600321  20.0487204  38.1916069  70.6689302  19.3246431
  38.6321252  71.2417025  20.4892480  38.0524655  71.0294134  20.0070011
  38.4912516  65.8618066  31.1340335  37.9924210  66.5733834  31.2125223
  39.3012740  66.1818733  31.0958497  38.5368623  66.0144915  31.1396903
  35.8423686  73.0367703  23.1147354  35.6223982  72.7465058  23.9074021
  35.6218208  72.3782658  22.5865266  35.7771281  72.8967411  23.1536263
  34.7540634  65.1241019  25.3803056  34.4653882  64.4978491  25.9148783
  35.6223982  65.0661307  25.4467736  34.8400886  65.0228564  25.4694010
  38.0091642  74.4097093  21.8978046  38.6615700  73.8773535  22.1269072
  37.3117251  74.0565745  22.2845920  38.0022360  74.2786616  21.9890214
  34.9572907  66.7636271  21.3045421  35.7118875  67.1449310  21.5180883
  34.3643520  67.2147414  21.7592117  34.9809621  66.8865098  21.4028299
  46.0031560  66.7301507  21.2409026  46.5689593  67.3894717  21.1567569
  45.3559464  67.0751205  21.7125428  45.9910317  66.8783448  21.2981782
  36.2771134  67.9344832  26.6785536  35.7551887  68.0745124  27.3637401
  36.6645154  67.1755496  26.8687653  36.2574835  67.8430356  26.8086613
  33.2662318  57.9850641  20.7480491  32.9787113  57.6151911  20.0112438
  33.9532786  58.4545496  20.4864196  33.3251215  57.9997610  20.5995567
  42.4738139  69.6740291  20.6646105  42.2324814  68.9408152  20.2573170
  42.6539471  70.2227148  20.0112438  42.4645763  69.6462682  20.5076328
  37.7037459  64.9648851  22.0767027  37.5080242  65.5723585  21.4827330
  37.9271805  64.2716795  21.5958701  37.7072100  64.9526376  21.9183108
  36.1015989  61.8503589  22.1947896  36.8238641  62.0144747  21.7351701
  35.6223982  62.5713254  22.0887235  36.1379720  61.9801818  22.1113510
  30.8390512  58.7631853  21.5965772  30.9406649  59.5658014  21.9246747
  31.6346399  58.5619189  21.2988852  30.9718418  58.8517752  21.6001127
  45.7040886  67.4229481  27.2718163  45.5655245  68.1210527  27.7766905
  44.9240883  67.2678137  26.9154345  45.5684112  67.5029647  27.2944437
  44.0418971  63.7225856  33.5240545  44.0367009  62.8505673  33.5282971
  44.7479965  63.9214025  33.0510000  44.1463975  63.6229730  33.4547580
  36.8417619  71.6405612  29.7615392  36.9907183  71.0808528  29.1088796
  37.6217621  71.7197614  30.1447910  36.9791713  71.5691177  29.7212341
  47.1994258  66.7807735  18.0334662  46.8201067  65.9944873  18.0263951
  46.5360504  67.3294592  17.8906306  47.0452733  66.7452559  18.0115459
  39.3670920  71.8120255  31.0399882  39.2914591  71.1429065  31.5950671
  39.2960779  72.5138043  31.5540549  39.3451526  71.8165162  31.1976731
  40.0241167  70.3321254  21.8723488  40.7891058  70.0630897  21.5506153
  39.9219256  69.8471264  22.5893551  40.1222662  70.2210818  21.9303316
  42.5459827  67.3633437  13.8523438  43.3132812  67.4233562  13.4429290
  42.0991136  66.7913879  13.3679756  42.5933254  67.2870013  13.7201148
  43.4437623  66.1688093  26.1376170  42.7682624  65.9373326  26.6389557
  43.4529999  65.5609276  25.5118275  43.3456127  66.0447018  26.1192322
  45.4454357  69.0253226  18.3686348  45.5274195  69.8320212  18.0447799
  45.9304099  69.0449185  19.0927121  45.5291515  69.1473888  18.4273247
  39.2550860  63.7038062  27.0356426  38.8313110  63.9042561  26.2995444
  39.0795716  62.8566910  27.1480726  39.1661741  63.6086843  26.9430116
  38.7562554  75.2188575  29.4977883  39.2458484  74.5199364  29.3153548
  38.1846786  74.9212445  30.0853941  38.7447084  75.0714798  29.5578924
  34.5433305  64.1990113  22.4684398  34.6997925  64.1336916  23.3240391
  34.8833899  64.9738666  22.2563078  34.6166540  64.3039311  22.5638993
  41.0812450  63.5747997  21.3377762  41.6227996  63.0718378  21.8016382
  41.3959009  63.5213191  20.5267247  41.2076847  63.4927418  21.2861574
  44.9529557  67.7850644  38.4504674  45.7664423  67.5135793  38.6109806
  44.7924524  67.4858184  37.6464870  45.0499506  67.7005570  38.3550080
  39.2498900  68.9665348  18.6217790  39.3191720  68.1079887  18.7610790
  40.0287355  69.1837229  18.2936814  39.3751750  68.8718212  18.5934947
  43.6406387  71.3903049  22.8354283  43.2486179  71.0869765  22.1177149
  43.7959460  72.2272139  22.6459237  43.6059977  71.4686886  22.7010780
  31.1167567  61.3825063  22.7845166  31.4966532  61.8009608  22.1205433
  30.5422932  61.9638519  23.0914009  31.0878892  61.5302922  22.7321907
  43.8046062  67.9553038  22.7760314  43.4460717  68.1267681  23.5524346
  43.3184773  68.4166244  22.2188312  43.6804759  68.0492009  22.8085583
  38.5934427  63.6352204  15.3160548  38.8826952  64.4117086  15.5904122
  38.6806226  63.1240935  16.0175047  38.6488684  63.6744122  15.4603046
  44.9650801  68.8456934  33.7227514  45.6030522  68.3517130  33.3889971
  44.3224893  68.7734335  33.1379741  44.9645028  68.7615943  33.5869869
  45.0205058  69.5376742  30.3632871  45.8097436  69.1865807  30.4834953
  45.1948656  70.3513131  30.1009505  45.1625340  69.6062600  30.3420739
  32.2373935  60.5705005  25.2445411  31.8430633  60.6448017  24.4695520
  31.6814052  60.9562952  25.7953772  32.0976748  60.6386780  25.2113070
  37.6281130  58.1867387  21.2302959  37.9040865  57.4686300  20.8180527
  38.2279800  58.7852307  21.0224065  37.7574395  58.1687758  21.1383721
  36.6333384  68.0916588  31.3730355  36.5253739  68.1018650  32.2392413
  36.8429166  68.9171369  31.1835309  36.6483495  68.2157663  31.4734447
  44.4096693  70.7938542  26.2684317  44.2116381  71.2829357  25.5740529
  43.7884404  70.9979784  26.8468451  44.2884257  70.8955080  26.2507541
  38.4704671  62.5623439  20.6094562  39.2146716  62.9497715  20.8477512
  38.6165367  61.7180864  20.7735049  38.6015256  62.4953912  20.6688531
  46.3270494  64.3602694  31.8029566  47.0504693  63.9075221  31.6240586
  46.0620457  64.6407360  31.0201894  46.3951768  64.3353663  31.6608281
  35.3799112  57.2987986  14.5955130  35.0311916  57.9507712  15.0586679
  34.8995557  57.2845099  13.8679001  35.2569356  57.3931040  14.5566221
  42.9403129  67.5989030  18.7023892  43.6637328  68.0647143  18.5588465
  42.5003720  67.6662640  17.9521489  42.9818821  67.6772867  18.5708673
  42.1089284  64.4586573  29.9524581  41.4946277  63.9144623  30.2473216
  42.6256569  63.9450809  29.4730397  42.0944946  64.3022982  29.9248809
  41.3485581  65.5290843  27.6868879  40.9213189  64.9040561  27.2534315
  41.3410526  65.2465765  28.5127887  41.2844722  65.3943623  27.7448707
  27.1878881  63.6891092  27.3354558  27.0822330  63.6437937  26.4706642
  26.4379101  64.0344873  27.6168842  27.0614484  63.7332000  27.2491887
  38.1402226  64.6991155  35.3837452  37.2897857  64.8362870  35.5195097
  38.3030354  63.9654934  35.8285154  38.0386089  64.6105257  35.4693052
  35.7523020  59.9246517  20.1081174  35.8925981  60.4218981  20.8109816
  36.2505553  59.2232811  20.2495388  35.8464101  59.8948496  20.2332754
  35.7823243  60.7913628  17.4373751  36.4168322  61.3874053  17.3723213
  35.8648853  60.4917085  18.2519621  35.8879794  60.8354536  17.5476838
  37.3602226  56.7227603  17.4119193  37.6818067  56.2430686  16.7578456
  37.6229169  57.5327249  17.2210005  37.4468251  56.7717501  17.2874685
  40.5899198  67.7446478  30.9318009  40.0824289  68.2982324  31.3758640
  40.2925845  67.8054768  30.1136784  40.4704083  67.8352789  30.8766466
  32.2876231  62.9881469  20.7063297  32.7968460  63.5845976  21.0874603
  32.7610503  62.7207442  20.0239717  32.4319606  63.0367284  20.6617820
  43.2006979  71.6609735  18.8621953  42.4836288  71.4870598  18.3969190
  43.8513716  71.4262308  18.3297439  43.1908829  71.6005528  18.7151171
  39.8341684  72.6771036  27.8375016  39.6107338  71.9189865  28.2059043
  39.3451527  72.7069057  27.1155456  39.7285133  72.5693260  27.7851757
  34.6466762  59.6237727  23.5736478  33.9278751  60.0401860  23.8409341
  35.0179125  60.1891966  23.0228116  34.5958694  59.7687009  23.5319285
  41.8912673  66.8452768  35.3886950  41.8508528  66.2002445  34.8032106
  42.7035991  66.7889385  35.7012362  42.0055827  66.7411735  35.3483899
  38.4820141  72.8971494  25.2912101  38.0680539  72.2345624  24.9015943
  39.1667515  73.0449353  24.7707795  38.5218512  72.8212152  25.1568598
  41.8485435  72.0561579  26.0435717  41.4501718  72.1663850  25.2756538
  41.2336654  72.2643646  26.6262277  41.6984324  72.1035147  26.0167017
  40.4213337  58.6635727  18.9109857  39.8278176  58.9852724  18.3594424
  40.4588614  57.8176822  18.7030963  40.3387726  58.5860055  18.7992628
  49.5827277  66.6313546  19.4278808  49.9660883  67.3804902  19.6576905
  48.7871391  66.8779366  19.1690797  49.5221060  66.7783240  19.4236382
  29.3258161  61.8234145  29.8527559  28.7784880  61.1534791  29.9708428
  30.1150539  61.4563993  29.9171027  29.3610345  61.6699132  29.8796260
  38.3942569  59.3032978  17.0039187  38.7741534  59.3212607  16.2190302
  37.6535165  59.7486967  16.8830034  38.3411407  59.3714752  16.8702755
  28.0845130  61.0354953  27.0073582  27.9066891  60.5831562  27.7328498
  27.7964153  61.8381115  27.1912060  28.0158084  61.0877511  27.1417085
  43.7468711  62.2912671  26.2450973  44.2422377  61.5735666  26.2054993
  42.9368487  61.9883468  26.1305460  43.7012605  62.1410317  26.2224698
  39.1927323  66.1410484  18.3947977  38.3838646  65.8177157  18.3481287
  39.7002232  65.4343706  18.3276226  39.1476990  65.9891800  18.3778271
  29.8217600  63.5682677  24.1195341  28.9563120  63.5568368  24.0078113
  29.9216416  63.3812900  24.9666481  29.7091767  63.5388738  24.2284286
  42.3999130  68.7550622  25.2629259  42.8710308  69.4690885  25.4319244
  42.7359308  68.1549373  25.7989128  42.5194245  68.7722087  25.3661635
  44.4876114  70.3651936  37.4421331  44.5973080  69.5760496  37.7978078
  44.8167011  70.2757872  36.6395669  44.5528520  70.2357789  37.3763722
  43.0373076  68.5468557  32.0256952  42.4894022  67.9226440  31.7577017
  43.4986105  68.7362829  31.3101031  43.0240286  68.4827607  31.8807383
  38.3861740  55.5294506  19.6866819  39.2077434  55.6992819  19.4448513
  37.9231391  55.6841767  18.9633116  38.4392902  55.5776239  19.5438463
  32.7887630  67.2853684  27.3404055  33.3932488  67.2449518  26.7117876
  32.5814943  68.1324836  27.3708111  32.8476528  67.4041687  27.2520172
  42.6031402  69.5519629  28.5566293  43.4229776  69.4082595  28.8182588
  42.3225480  70.1765828  29.0982731  42.6828146  69.6229981  28.6754232
  28.0238913  66.2688302  27.2102978  27.9263191  65.4584573  27.5193035
  28.8067782  66.2480095  26.8249247  28.1255049  66.1455392  27.1989841
  52.2744738  76.2960132  26.2762099  51.4182633  76.4568630  26.3271216
  52.3212391  75.4252196  26.2967161  52.1543849  76.1910934  26.2868165
  55.5838454  82.5646658  35.8822556  56.2905221  82.0698688  36.0109490
  55.7726390  83.0055739  35.1525214  55.7166360  82.5565008  35.7931601
  55.1196559  78.3552176  28.9193751  55.6652519  79.0337263  28.9787721
  55.0613435  78.2139637  28.0595333  55.1912473  78.4344178  28.8005812
  43.7325765  74.0347259  26.8298745  43.1130797  73.4439906  26.6608760
  43.6309629  74.6258694  26.1963068  43.6263441  74.0351342  26.7103734
  50.8293661  75.7746801  21.1631208  51.5273826  75.9534929  21.6552671
  51.1445993  75.2517140  20.5401597  50.9788998  75.7240573  21.1433218
  43.4594898  77.5799541  29.0742314  43.3353595  78.1661986  29.7092133
  44.1113183  77.0859737  29.3754589  43.5368548  77.5938345  29.2128243
  48.4853239  80.7561258  28.3529825  49.1302242  80.2633701  28.0340773
  48.7255016  80.8986044  29.1795903  48.6163824  80.7038700  28.4279358
  51.0239331  83.6016164  28.0036718  51.3062573  82.8067569  27.7823473
  51.7525491  84.0796751  28.0241779  51.1728894  83.5550761  27.9739733
  49.0020524  71.1439198  25.2452483  48.6723855  71.5950341  24.5756181
  48.3265526  71.0655361  25.7925489  48.8530961  71.1990333  25.2275706
  56.2096932  67.1324721  23.4902093  55.8950373  67.8228199  23.9222516
  55.6923874  67.0769503  22.7887594  56.0861403  67.2259609  23.4499042
  47.2076479  69.2051486  20.7275430  47.9622447  69.5729803  20.4892481
  47.0304013  69.5791040  21.4954610  47.2930957  69.3149674  20.8060319
  60.5011377  75.3545927  28.7722970  59.6639798  75.4248114  29.0070564
  60.4699608  75.3570421  27.8997272  60.3729660  75.3656154  28.6782518
  46.8976106  77.4978962  34.4871338  47.0696610  77.3884857  35.3356620
  47.4345464  78.1433368  34.2502531  47.0021110  77.5770964  34.5776435
  45.5633543  71.6121805  17.4253543  45.3809116  71.8293686  16.5994536
  46.4259156  71.7260818  17.4812158  45.6638133  71.6611703  17.3108030
  51.2433262  68.6148216  20.4602567  51.9719423  68.4364171  20.0140723
  51.3328155  69.4566296  20.6709745  51.3639924  68.7132094  20.4256085
  55.2241563  79.5501603  24.3634861  55.9799078  79.9833117  24.4023770
  55.3303888  78.9006373  24.9369497  55.3511734  79.5179087  24.4532887
  41.2037823  80.0910893  29.3224258  40.9376238  79.2750010  29.4815249
  41.2176387  80.1364049  28.4519774  41.1662546  79.9767798  29.2177740
  58.1819217  70.4188708  27.3566692  58.8245126  70.4886813  27.9428607
  58.4342238  69.7517931  26.8546234  58.3141349  70.3315057  27.3693971
  45.1095570  74.8895978  15.9376016  44.3953747  74.6034157  16.3498449
  45.5939539  75.2292603  16.5782404  45.0754934  74.8977627  16.0931651
  45.9536430  73.6289272  31.9691266  45.2608226  73.1586251  32.2151998
  46.5696757  73.4027576  32.5432973  45.9420960  73.5256403  32.0900419
  41.6131237  80.8769673  26.6036003  41.4306810  80.8516559  25.7508295
  42.3480906  81.3468610  26.6424911  41.6945301  80.9431035  26.4833921
  44.6776989  77.5954676  33.1118111  45.4016961  77.5807706  33.5983006
  44.7793125  78.3050031  32.6140079  44.7995198  77.6979379  33.1096898
  52.0521938  81.0753760  37.9767058  51.2594919  81.3897272  38.1619678
  52.1670865  81.2905229  37.1387843  51.9517349  81.1537597  37.8805393
  54.7253257  77.7987751  22.2662074  54.8200111  78.5377045  22.7201700
  54.1012101  77.3705227  22.6996639  54.6462287  77.8449072  22.3970222
  52.9805731  80.9773964  32.9152355  53.5544592  80.3401208  33.0700919
  52.9020535  80.9778046  32.0462013  53.0538966  80.8839075  32.8098766
  41.5802147  77.7563173  26.7535069  42.1575650  77.6199624  27.3927315
  40.8816209  77.2998957  27.0080654  41.5623169  77.6685440  26.8857359
  48.3369449  79.4097229  24.9673552  48.0788694  78.5768964  24.9404852
  48.3917932  79.6354842  24.1266053  48.3069227  79.3195000  24.8393689
  53.4170500  71.5125680  25.0677645  52.7126826  71.0234865  25.2261564
  53.4655474  71.5248154  24.1966089  53.3200551  71.4415328  24.9616985
  47.3104162  76.9634991  25.4538447  46.7353753  77.1227160  26.0902408
  46.9339838  76.3270401  24.9906898  47.1706974  76.8932804  25.4793006
  50.9777450  75.4358341  30.3130826  50.5891883  75.0112559  29.6583017
  50.3132149  75.6840490  30.8207852  50.8224378  75.4097062  30.2918694
  60.6200719  75.1933345  23.0878656  60.3637284  74.3813287  22.8976538
  61.4630033  75.2010913  22.8608843  60.7066745  75.0745343  23.0263473
  37.0560980  76.6075066  23.4682888  37.1421232  76.2306935  24.2496418
  37.6836778  76.2335512  22.9902846  37.1617531  76.4960548  23.5128365
  54.8003812  69.1332970  27.8254810  55.1814324  68.4511141  28.2122684
  53.9967096  68.8442572  27.6430474  54.7380273  68.9900018  27.8558866
  47.9524297  83.1378463  23.6379945  48.5898244  82.8990210  24.1831738
  48.3779368  83.3415622  22.9033105  48.1100463  83.1329473  23.6097102
  48.5927112  78.3580753  17.9754834  48.9772264  78.1388459  18.7271379
  48.3438732  79.1843698  18.1055910  48.6129184  78.4478899  18.1055910
  48.7595652  71.6387168  37.6917418  48.4449093  72.4086731  37.4286981
  48.4385585  71.0757424  37.1069645  48.6654571  71.6697436  37.5658768
  50.3345769  83.6150885  25.3173731  50.4084777  83.4526057  26.1715581
  51.1515275  83.8041075  25.0734213  50.4662127  83.6187628  25.4071756
  46.3127549  70.0277689  23.3063615  45.4449975  70.1000289  23.3721224
  46.6002753  70.8299768  23.4951590  46.2267297  70.1571836  23.3438381
  55.4360438  70.1755549  31.6374936  56.1814030  69.9865359  31.2238362
  55.0197743  70.7013787  31.0788793  55.4845412  70.2257694  31.4939510
  62.8122709  77.5464777  26.5880441  63.3630630  76.9132846  26.8277533
  62.7966824  78.0780170  27.2795946  62.8907905  77.5313725  26.7259300
  49.4645100  81.3803374  31.1340335  48.9656793  82.0919142  31.2125223
  50.2745324  81.7004041  31.0958497  49.5101206  81.5330223  31.1396903
  45.7273217  80.6426327  25.3803056  45.4386466  80.0163799  25.9148783
  46.5956565  80.5846615  25.4467736  45.8133469  80.5413872  25.4694010
  56.5151115  75.7861111  25.6985038  56.1715881  75.0651446  26.0492287
  56.6144158  75.5774962  24.8563396  56.4793158  75.6485314  25.6256718
  45.9305491  82.2821578  21.3045421  46.6851459  82.6634618  21.5180883
  45.3376103  82.7332722  21.7592117  45.9542204  82.4050406  21.4028299
  48.3912158  74.2384419  36.4302633  47.5811933  74.5442199  36.3192475
  48.8686844  74.9590001  36.5455217  48.3415636  74.3899020  36.4309704
  44.2394901  73.5035949  20.7480491  43.9519697  73.1337219  20.0112438
  44.9265369  73.9730804  20.4864196  44.2983799  73.5182918  20.5995567
  48.6770043  80.4834159  22.0767027  48.4812825  81.0908893  21.4827330
  48.9004388  79.7902103  21.5958701  48.6804684  80.4711684  21.9183108
  47.0748573  77.3688897  22.1947896  47.7971225  77.5330055  21.7351701
  46.5956566  78.0898562  22.0887235  47.1112303  77.4987126  22.1113510
  55.0342080  73.7052696  27.5744580  54.1953181  73.7313974  27.3382844
  55.1046448  74.3523431  28.1549927  54.9210474  73.8048821  27.6253697
  44.7256189  79.7746969  31.3002035  45.2377286  80.0531222  30.6510795
  44.4392532  80.5136263  31.6664848  44.7591053  79.9249323  31.2591913
  53.4811359  70.6038073  22.3072196  54.1837711  70.4045821  21.8292155
  53.2155547  69.8314015  22.6141040  53.5457991  70.4601039  22.2817638
  58.9099604  78.9120682  24.8605822  58.8233579  79.0676108  25.7140601
  58.4550084  79.5558758  24.4865227  58.8302861  79.0296437  24.9312929
  41.8123096  74.2817161  21.5965772  41.9139232  75.0843322  21.9246747
  42.6078983  74.0804497  21.2988852  41.9451001  74.3703060  21.6001127
  48.2439915  71.8673358  31.3603077  48.0523112  71.8828492  32.2102500
  49.0938511  72.0637032  31.3369732  48.3415637  71.8987709  31.4826372
  42.6286828  74.3964339  29.3386893  42.4872320  73.5448280  29.4631401
  42.9127391  74.4393000  28.5149099  42.6494674  74.2764089  29.2354517
  52.7825420  76.2331429  23.4831382  52.5360135  76.1527180  24.3168171
  53.1110543  75.4484897  23.2893909  52.7946664  76.1057695  23.5778905
  55.0151554  79.2411164  33.5240545  55.0099593  78.3690981  33.5282971
  55.7212548  79.4399333  33.0510000  55.1196558  79.1415038  33.4547580
  48.7422448  78.9688148  32.8954365  48.8865823  79.5489356  32.2597475
  49.0898096  79.3464445  33.6004219  48.8149909  79.1108852  32.9053360
  50.9142365  78.1678316  30.6779496  50.1665679  78.3609331  30.2727774
  51.0683890  77.3423536  30.4403618  50.8264792  78.0743428  30.5824902
  51.1544142  72.0628867  31.5674900  51.6116756  72.7952841  31.6947692
  51.2300471  71.6395332  32.3262156  51.2335112  72.1086105  31.6975977
  43.3977133  72.3094687  32.6564344  42.8619323  71.6975045  32.9725111
  43.4594898  72.8842823  33.3098010  43.3272766  72.3041615  32.7999771
  55.6271468  65.2418742  25.4368743  55.7455036  65.6995206  24.7036046
  55.4533644  64.4364004  25.1504961  55.6190639  65.1912514  25.2869677
  49.0326520  74.0530971  28.4116724  48.2422595  73.8722431  28.7334060
  49.4287143  73.2757924  28.3947019  48.9743396  73.9118432  28.4569272
  54.4170206  81.6873401  26.1376170  53.7415208  81.4558633  26.6389557
  54.4262582  81.0794584  25.5118275  54.3188711  81.5632326  26.1192322
  51.5464350  76.5291230  32.8940223  51.4823491  77.3901187  32.7660360
  51.6861538  76.2123223  32.0935774  51.5579820  76.6091397  32.7568436
  50.2283444  79.2223369  27.0356426  49.8045693  79.4227869  26.2995444
  50.0528299  78.3752217  27.1480726  50.1394325  79.1272151  26.9430116
  45.5165889  79.7175421  22.4684398  45.6730508  79.6522224  23.3240391
  45.8566482  80.4923973  22.2563078  45.5899124  79.8224619  22.5638993
  52.0545034  79.0933305  21.3377762  52.5960579  78.5903686  21.8016382
  52.3691593  79.0398499  20.5267247  52.1809431  79.0112725  21.2861574
  53.2034303  73.9869609  31.3900062  53.4176273  73.3480523  30.8363416
  52.5868202  74.4315433  30.9607924  53.1439632  73.9579753  31.2450493
  42.0900151  76.9010371  22.7845166  42.4699115  77.3194916  22.1205433
  41.5155515  77.4823827  23.0914009  42.0611475  77.0488230  22.7321907
  55.3673391  75.5958674  32.3283369  54.5550073  75.2884565  32.4096542
  55.8263326  75.1157674  32.8926081  55.3153776  75.4795167  32.4237963
  52.4626899  77.0018746  37.1112072  52.9326530  77.6260862  37.4979946
  52.5088779  76.3335721  37.6705286  52.5394774  76.9953426  37.2512143
  49.6198172  69.1075773  27.8360875  49.1036661  68.4155965  27.9612454
  49.0592101  69.7746550  27.7823474  49.4604685  69.1039031  27.8466941
  51.6890406  69.6468733  29.6653728  51.3022159  69.6717765  30.4467258
  51.2023343  69.0810412  29.2128244  51.5602915  69.5664484  29.7141632
  57.6640385  76.2131388  28.2893430  57.2367993  76.1257737  27.5341530
  57.0266438  76.3209164  28.8748274  57.5069992  76.2164048  28.2638872
  51.1561462  71.3206913  34.2290399  51.9834892  71.0492062  34.2849014
  51.1769308  72.1167755  34.5854218  51.2814312  71.3986668  34.2905582
  45.7330952  78.4670776  27.4160660  44.8918959  78.3674650  27.6239554
  45.9420960  79.2366256  27.7674981  45.6395645  78.5662819  27.4987975
  43.2106519  76.0890313  25.2445411  42.8163217  76.1633325  24.4695520
  42.6546636  76.4748259  25.7953772  43.0709331  76.1572088  25.2113070
  54.8471466  69.0671607  24.9249290  55.0521059  68.9993915  25.7706287
  54.5197890  69.8730428  24.8570467  54.8286714  69.1757548  25.0408945
  49.5447617  76.3952175  26.6658258  49.2410754  75.8408164  27.2668665
  48.8427038  76.5744385  26.1786292  49.3963827  76.3396958  26.6827963
  48.6013714  73.7052695  21.2302959  48.8773448  72.9871608  20.8180527
  49.2012383  74.3037615  21.0224065  48.7306979  73.6873066  21.1383721
  58.1005153  69.6203371  24.4052055  57.4879467  70.1073774  24.7905787
  58.1969328  68.9446862  24.9489706  58.0243051  69.5921680  24.5430913
  52.1024234  71.3766213  19.5049554  52.5567981  71.5476773  20.2297399
  52.5764280  70.7634323  19.1047330  52.2392555  71.3117098  19.5523316
  45.6239760  80.8614538  28.8352293  45.0327693  81.5024037  28.8055308
  46.3860783  81.2852156  28.8083592  45.6488021  81.0190377  28.8267440
  46.0200383  72.0216536  29.5020311  46.4801864  72.0955466  30.2395434
  46.0656489  72.8197790  29.1520132  46.0950938  72.1510683  29.5593067
  47.6683732  72.6883231  34.0692338  47.2769298  72.0416578  34.5048115
  47.8369595  73.2794666  34.6886593  47.6354643  72.6797499  34.2255044
  49.4437254  78.0808747  20.6094562  50.1879299  78.4683023  20.8477512
  49.5897951  77.2366172  20.7735049  49.5747840  78.0139220  20.6688531
  51.3616830  69.8759006  25.6426423  50.5152875  70.0481814  25.5167773
  51.3587962  69.0708350  25.9792251  51.2363980  69.7820035  25.6737550
  52.4315130  73.6534220  26.5088481  51.9575085  73.1275982  27.0193792
  52.8033266  73.1063693  25.9403343  52.4165019  73.4950217  26.5003628
  42.8088160  75.6505727  31.8772027  43.6713774  75.5501436  31.7909357
  42.4779944  75.0700436  31.3157599  42.8873357  75.5497354  31.7817433
  58.6951861  78.7136596  27.9195262  58.4550084  77.8743011  27.9237688
  59.1743868  78.7936763  28.6436035  58.7304045  78.6017996  28.0270064
  54.3598630  74.5470775  19.5714235  53.8321649  74.6299519  18.8819944
  54.8194338  75.2888646  19.5678879  54.3500480  74.6691437  19.4688930
  60.6957048  75.4938053  25.8724521  60.4566818  75.4533887  25.0345305
  60.8590949  76.3409205  25.9990242  60.6847351  75.6130138  25.7678003
  57.3003078  79.8788002  31.8029566  58.0237277  79.4260529  31.6240586
  57.0353040  80.1592668  31.0201894  57.3684351  79.8538971  31.6608281
  46.1689946  74.4748176  28.5382445  45.5443017  74.4866568  27.9308398
  45.8335541  74.9508351  29.1873685  46.0275438  74.5466693  28.5439013
  46.3531695  72.8173294  14.5955130  46.0044499  73.4693020  15.0586679
  45.8728141  72.8030407  13.8679001  46.2301939  72.9116348  14.5566221
  53.0821868  79.9771881  29.9524581  52.4678861  79.4329931  30.2473216
  53.5989153  79.4636117  29.4730397  53.0677530  79.8208290  29.9248809
  52.3218165  81.0476151  27.6868879  51.8945773  80.4225869  27.2534315
  52.3143109  80.7651072  28.5127887  52.2577306  80.9128931  27.7448707
  45.4380692  76.0841324  30.7557313  45.5974179  75.3284648  31.1609035
  45.2573585  76.6332263  31.4098051  45.4346051  76.0535137  30.9120019
  53.3800995  68.2502559  31.3108103  52.8841556  68.4466233  30.6199670
  54.1370057  68.6495227  31.1396905  53.4187820  68.3380293  31.1828240
  50.6503874  71.9244905  27.9011413  50.6746362  71.3905017  27.2124193
  50.9015348  71.4162214  28.5637004  50.6913793  71.7705809  27.8976058
  46.9305197  70.6515723  27.2817158  46.9703568  71.1524930  27.9951865
  46.1054861  70.7426117  27.0123081  46.8144723  70.7397540  27.3467696
  49.1134810  80.2176463  35.3837452  48.2630440  80.3548178  35.5195097
  49.2762937  79.4840242  35.8285154  49.0118673  80.1290565  35.4693052
  48.3519560  77.1676233  29.5791057  47.5211490  77.3350051  29.3726305
  48.2971077  76.7912184  30.3639942  48.2208975  77.1365965  29.6639585
  46.1603343  70.6585126  35.2147467  46.7856047  70.1147259  35.4876900
  45.7053823  70.1780044  34.6455258  46.1851604  70.5074607  35.1709061
  46.7255604  75.4431825  20.1081174  46.8658565  75.9404289  20.8109816
  47.2238137  74.7418119  20.2495388  46.8196685  75.4133804  20.2332754
  46.7555826  76.3098936  17.4373751  47.3900906  76.9059361  17.3723213
  46.8381437  76.0102393  18.2519621  46.8612377  76.3539844  17.5476838
  59.7338392  78.8414413  30.3060115  60.3256232  79.4811664  30.3378314
  60.1697387  78.1437450  30.5952182  59.8856823  78.8332764  30.3540948
  48.3334809  72.2412911  17.4119193  48.6550650  71.7615994  16.7578456
  48.5961753  73.0512557  17.2210005  48.4200835  72.2902809  17.2874685
  51.5631782  83.2631786  30.9318009  51.0556873  83.8167632  31.3758640
  51.2658428  83.3240075  30.1136784  51.4436667  83.3538097  30.8766466
  53.7293964  71.6285105  29.7742672  54.1549036  71.1757632  29.1626199
  53.1150957  71.0745176  30.0507460  53.7022609  71.4799081  29.7247698
  43.2608814  78.5066777  20.7063297  43.7701043  79.1031284  21.0874603
  43.7343086  78.2392750  20.0239717  43.4052190  78.5552592  20.6617820
  52.1688187  68.1000205  23.1833249  51.5256505  67.9497851  23.7518388
  51.8287594  67.8542550  22.4182354  52.0233264  68.0412327  23.1536265
  56.7587533  76.0559632  22.6063258  56.0878723  76.5989334  22.4776324
  57.4527284  76.5254487  22.3644953  56.7616401  76.2057903  22.5518786
  56.9215661  72.5115515  25.5153631  57.2743271  72.0845238  26.1899430
  56.0630462  72.4266359  25.6454708  56.8465106  72.4360256  25.6348642
  45.6199346  75.1423035  23.5736478  44.9011335  75.5587168  23.8409341
  45.9911708  75.7077274  23.0228116  45.5691278  75.2872317  23.5319285
  54.9198927  75.7750884  29.4638473  54.8996854  75.5934179  30.3173252
  54.9678127  76.6462903  29.4398057  54.9233568  75.8767422  29.5861768
  52.8645257  82.3638076  35.3886950  52.8241111  81.7187753  34.8032106
  53.6768575  82.3074693  35.7012362  52.9788410  82.2597043  35.3483899
  51.3945920  74.1821035  18.9109857  50.8010760  74.5038031  18.3594424
  51.4321198  73.3362130  18.7030963  51.3120309  74.1045363  18.7992628
  58.3539721  67.6333927  26.4437944  57.8470586  66.9263067  26.3759121
  59.1507155  67.3027116  26.5739020  58.3966960  67.4807079  26.4536939
  54.2703737  74.1400539  22.3411607  54.0417430  74.1633241  21.4989966
  54.5301813  73.3158007  22.4606618  54.2749925  74.0216619  22.2336805
  48.5522965  75.9935013  31.9436708  48.0401868  75.3856196  32.3021739
  48.3802461  76.7091605  32.4110683  48.4512602  76.0098312  32.0652931
  43.3988680  74.4372588  34.5939069  43.2291270  75.0973963  34.0487276
  42.9554630  74.6479149  35.3151559  43.3088014  74.5658570  34.6200699
  47.3248499  72.6777086  23.6365803  47.8005866  73.0394166  23.0015984
  46.8237099  73.3333553  23.9165946  47.3213858  72.8271275  23.5842544
  52.4292036  73.9159257  34.3838963  52.9863466  73.6873067  33.7517429
  52.1053101  74.6764923  34.1074176  52.4638446  73.9943094  34.2495460
  40.2990744  77.3419453  29.8527559  39.7517464  76.6720099  29.9708428
  41.0883123  76.9749301  29.9171027  40.3342928  77.1884440  29.8796260
  50.1475153  77.0026910  35.3490970  50.8986480  77.3178587  35.6630524
  50.3397729  76.8006081  34.5224892  50.2866567  77.0194292  35.2734366
  49.3675152  74.8218286  17.0039187  49.7474117  74.8397915  16.2190302
  48.6267749  75.2672274  16.8830034  49.3143990  74.8900060  16.8702755
  56.9960443  73.1300477  22.5914766  56.9954669  72.9749133  23.4499042
  56.7916623  73.9763464  22.5356151  56.9660221  73.2321098  22.7102705
  39.0577714  76.5540261  27.0073582  38.8799475  76.1016870  27.7328498
  38.7696736  77.3566423  27.1912060  38.9890667  76.6062819  27.1417085
  54.7201295  77.8097979  26.2450973  55.2154960  77.0920974  26.2054993
  53.9101071  77.5068776  26.1305460  54.6745188  77.6595625  26.2224698
  40.7950184  79.0867985  24.1195341  39.9295703  79.0753675  24.0078113
  40.8949000  78.8998208  24.9666481  40.6824351  79.0574046  24.2284286
  56.7853114  80.5601666  28.9328101  57.2108185  80.0376088  28.3798526
  56.4210034  81.1582504  28.4116724  56.7939716  80.5711893  28.7737111
  53.3731713  84.2735930  25.2629259  53.8442892  84.9876193  25.4319244
  53.7091892  83.6734681  25.7989128  53.4926828  84.2907395  25.3661635
  50.2901208  69.0463401  32.2187354  50.4229114  68.2494394  32.5468329
  50.6746361  69.5729804  32.7985629  50.3657537  69.0063318  32.3530857
  54.0105660  84.0653865  32.0256952  53.4626606  83.4411748  31.7577017
  54.4718688  84.2548137  31.3101031  53.9972869  84.0012915  31.8807383
  56.8199524  72.1339219  29.4108144  56.2362513  72.6348425  28.9985711
  57.1403818  71.6268775  28.7772467  56.7812699  72.1331054  29.2566651
  49.3594323  71.0479814  19.6866819  50.1810018  71.2178127  19.4448513
  48.8963974  71.2027075  18.9633116  49.4125485  71.0961547  19.5438463
  47.9489655  69.0422576  30.4665247  48.4934068  68.7013703  31.0569589
  48.0026591  69.9008038  30.6086532  48.0378774  69.1177835  30.5747121
  22.3591527  12.9468865  22.8162602  23.0658295  12.4520896  22.9449537
  22.5479463  13.3877947  22.0865260  22.4919433  12.9387215  22.7271648
  19.4983822  16.3696402  20.7076678  19.5867168  16.1822542  21.5554888
  19.9273534  15.7233831  20.3081524  19.5745924  16.2459409  20.7748429
  17.0654282  15.6527561  19.6894340  16.5025116  15.2400171  20.2134001
  17.8275305  15.5780467  20.1087483  17.0948730  15.5804962  19.8287340
  13.6729180   7.8801170  21.4211385  13.8449683   7.7707064  22.2696667
  14.2098537   8.5255575  21.1842577  13.7774183   7.9593171  21.5116482
  19.6103881  15.8005421  23.3720461  20.3944298  15.9136268  23.7376203
  19.4100476  14.9746558  23.5679147  19.6969906  15.6952140  23.4554847
  19.7674274  17.7115523  17.0186917  18.9689520  17.4715023  17.2760785
  20.2160286  17.7629916  17.7653965  19.7148886  17.6837914  17.1671841
  18.8275011  11.4575968  24.9107105  18.0347992  11.7719479  25.0959725
  18.9423938  11.6727436  24.0727890  18.7270422  11.5359804  24.8145440
  19.7558804  11.3596171  19.8492402  20.3297666  10.7223415  20.0040966
  19.6773608  11.3600254  18.9802059  19.8292039  11.2661283  19.7438813
  25.0778952  12.7305149  19.8577255  24.8417589  11.8993214  19.7389316
  25.7222181  12.6790756  20.4432099  25.1373623  12.6002837  19.9263149
  26.1015372  12.5149598  15.9205549  25.7961190  13.2477654  16.2818865
  25.3821588  12.1087527  15.6398336  25.9502715  12.5631331  15.9318687
  31.8017165   9.1542598  15.2473894  31.7341665   9.1738557  14.3776480
  31.7872827   9.9972926  15.4729564  31.7895921   9.2816333  15.1526371
  16.2398173  11.7625582  18.0680382  15.7409866  12.4741349  18.1465270
  17.0498397  12.0826248  18.0298544  16.2854280  11.9152430  18.0736950
  15.1665231   4.6206626  23.3642680  14.3565007   4.9264406  23.2532522
  15.6439918   5.3412209  23.4795264  15.1168710   4.7721227  23.3649751
  21.7904627   9.6233372  20.4580591  21.7852666   8.7513188  20.4623018
  22.4965621   9.8221541  19.9850047  21.8949631   9.5237246  20.3887627
  15.5175521   9.3510355  19.8294412  15.6618897   9.9311564  19.1937522
  15.8651169   9.7286652  20.5344266  15.5902982   9.4931059  19.8393407
  14.5903276  17.5413127  16.6955438  14.7392840  16.9816043  16.0428843
  15.3703278  17.6205129  17.0787957  14.7277369  17.4698693  16.6552388
  17.1156576  17.7127770  17.9739929  17.0400247  17.0436581  18.5290717
  17.0446436  18.4145558  18.4880595  17.0937183  17.7172677  18.1316777
  16.5048211  21.1196090  16.4317930  16.9944141  20.4206879  16.2493595
  15.9332443  20.8219960  17.0193987  16.4932741  20.9722314  16.4918971
  22.7015214  13.6858159  25.3844721  23.5150080  13.4143308  25.5449853
  22.5410181  13.3865699  24.5804917  22.7985163  13.6013085  25.2890127
  22.1426464   5.9780882  19.2623416  21.3303146   5.6706772  19.3436589
  22.6016399   5.4979882  19.8266128  22.0906849   5.8617374  19.3578010
  19.2379972   7.3840953  24.0452118  19.7079603   8.0083069  24.4319992
  19.2841852   6.7157929  24.6045333  19.3147848   7.3775633  24.1852190
  22.7136458  14.7464450  20.6567561  23.3516179  14.2524645  20.3230017
  22.0710550  14.6741850  20.0719788  22.7130685  14.6623458  20.5209916
  22.7690715  15.4384258  17.2972918  23.5583093  15.0873323  17.4175000
  22.9434313  16.2520646  17.0349552  22.9110996  15.5070115  17.2760786
  14.3819041  13.9924103  18.3070402  14.2739396  14.0026166  19.1732460
  14.5914823  14.8178884  18.1175356  14.3969152  14.1165178  18.4074494
  28.5183255  11.0742516  16.7669618  28.5766378  11.5229164  17.5129595
  27.8849722  11.4841328  16.3299698  28.4334550  11.2016250  16.8122166
  22.1582349  16.6946057  13.2024364  21.9602038  17.1836872  12.5080576
  21.5370060  16.8987299  13.7808498  22.0369914  16.7962596  13.1847587
  24.0756151  10.2610210  18.7369613  24.7990350   9.8082736  18.5580632
  23.8106114  10.5414875  17.9541940  24.1437425  10.2361178  18.5948328
  15.8887883  10.5998671  22.3177499  15.0383513  10.7370385  22.4535144
  16.0516010   9.8662449  22.7625201  15.7871746  10.5112772  22.4033098
  26.5091465   9.2236621  17.2400162  27.1009306   9.8633871  17.2718360
  26.9450460   8.5259657  17.5292229  26.6609896   9.2154971  17.2880995
  18.3384855  13.6453993  17.8658056  17.8309946  14.1989840  18.3098687
  18.0411501  13.7062283  17.0476831  18.2189740  13.7360304  17.8106513
  17.5827340  18.5778551  14.7715063  17.3592995  17.8197380  15.1399089
  17.0937184  18.6076572  14.0495503  17.4770789  18.4700776  14.7191804
  19.6398330  12.7460283  22.3226997  19.5994185  12.1009960  21.7372153
  20.4521648  12.6896901  22.6352409  19.7541483  12.6419250  22.2823946
  19.2045109   4.2981465  21.3179010  19.7616539   4.0695274  20.6857475
  18.8806174   5.0587130  21.0414222  19.2391519   4.3765301  21.1835507
  16.9228226   7.3849118  22.2831017  17.6739553   7.7000795  22.5970571
  17.1150803   7.1828289  21.4564939  17.0619640   7.4016500  22.2074413
  23.5606187  10.9423873  15.8668148  23.9861259  10.4198295  15.3138573
  23.1963107  11.5404711  15.3456771  23.5692790  10.9534101  15.7077158
  13.1960267  19.2388091  14.6265494  13.5106826  20.0524479  14.6343275
  13.6053680  18.8538310  15.2947653  13.3028365  19.3016793  14.7269585
  22.2361771  16.2659451  24.3761378  22.3458737  15.4768012  24.7318125
  22.5652668  16.1765387  23.5735716  22.3014177  16.1365304  24.3103768
  20.7858733  14.4476072  18.9596998  20.2379679  13.8233956  18.6917064
  21.2471762  14.6370344  18.2441078  20.7725942  14.3835122  18.8147429
  20.3517059  15.4527145  15.4906340  21.1715433  15.3090111  15.7522635
  20.0711137  16.0773343  16.0322777  20.4313803  15.5237497  15.6094279
  36.8230710  23.1091996   8.4549216  36.7924714  23.9636633   8.6267485
  37.4212058  22.8087289   9.0135359  36.9067867  23.1908493   8.5624018
  30.0230394  22.1967647  13.2102146  29.1668290  22.3576146  13.2611263
  30.0698048  21.3259711  13.2307207  29.9029506  22.0918449  13.2208212
  24.4071534  31.7330365   8.9739378  23.6554434  31.3545904   8.7455423
  24.8557546  31.7648799   8.2258188  24.3621201  31.6815972   8.8296880
  29.8596494  32.1555735   4.4024925  29.5247862  32.8332656   3.9669147
  30.3723364  31.7661046   3.8141797  29.8862075  32.1980313   4.2511716
  29.4000785  34.1070003  10.3436037  29.7840165  34.6756902   9.8040812
  29.3359927  33.3819514   9.8641853  29.4474213  34.0845467  10.1929899
  32.8682215  24.2559691  15.8533798  33.4138175  24.9344778  15.9127768
  32.8099092  24.1147152  14.9935379  32.9398130  24.3351693  15.7345859
  25.9856290  31.7448757  11.2402150  26.0866653  30.9349111  11.5499278
  25.3898036  31.6505704  10.6101829  25.9128829  31.6113785  11.1928389
  34.6447284  25.6844298   6.7267526  34.5286810  26.4351984   7.1559664
  35.4403171  25.4268252   6.9763613  34.7451874  25.7579145   6.8271617
  25.8257030  36.6626347  12.6417006  26.4694485  37.1039511  13.0313165
  26.1513285  35.8579773  12.5547265  25.9688859  36.6091541  12.6862484
  19.1821335  27.7669044  10.8654484  18.9471519  26.9336696  10.7586753
  19.3206975  28.0473710  10.0515685  19.1676997  27.6852547  10.7296839
  21.4811422  19.9354775  13.7638792  20.8616454  19.3447422  13.5948807
  21.3795286  20.5266210  13.1303115  21.3749098  19.9358857  13.6443781
  26.5277610  29.6738321   8.0136868  26.8493451  30.2143529   7.4098176
  27.1749706  29.1035093   8.1459158  26.6703665  29.6697497   7.9443903
  28.5779318  21.6754316   8.0971255  29.2759482  21.8542444   8.5892718
  28.8931650  21.1524656   7.4741644  28.7274655  21.6248088   8.0773265
  21.2080555  23.4807056  16.0082361  21.0839252  24.0669502  16.6432180
  21.8598840  22.9867252  16.3094636  21.2854204  23.4945861  16.1468290
  26.2338896  26.6568773  15.2869872  26.8787899  26.1641216  14.9680820
  26.4740673  26.7993560  16.1135950  26.3649481  26.6046215  15.3619405
  28.7724987  29.5023679  14.9376764  29.0548230  28.7075085  14.7163520
  29.5011148  29.9804266  14.9581825  28.9214551  29.4558276  14.9079780
  26.7506181  17.0446713  12.1792529  26.4209511  17.4957857  11.5096228
  26.0751183  16.9662876  12.7265536  26.6016618  17.0997848  12.1615753
  32.3676590  26.4151943   5.0381816  32.2827885  27.2712909   5.1831384
  32.8560973  26.1396267   5.7063975  32.4265487  26.5009264   5.1583897
  33.9582589  13.0332236  10.4242140  33.6436030  13.7235714  10.8562562
  33.4409531  12.9777018   9.7227641  33.8347059  13.1267124  10.3839089
  33.2995023  23.0336737   6.5379551  32.7706494  23.2496370   7.1976857
  33.8220043  23.7272875   6.4580520  33.2983476  23.1679874   6.6235150
  38.7543076  28.6083041  11.9112595  37.9240779  28.8193685  12.0746012
  38.7052328  27.7820096  11.6354879  38.6249811  28.5172648  11.8949961
  20.7438659  32.6454715  12.1410690  20.2606238  33.3705204  12.1170274
  21.5561978  32.9430845  12.2520848  20.7929407  32.7957068  12.1537969
  26.8152813  31.4386895  14.7460505  26.2979755  31.0794310  14.1421813
  27.5127205  30.9149070  14.7566571  26.8418394  31.3084583  14.6590763
  28.0386865  31.1712869  19.6894340  27.4757700  30.7585479  20.2134001
  28.8007889  31.0965775  20.1087483  28.0681314  31.0990270  19.8287340
  23.5982857  33.1610891  12.2930970  24.3003436  32.6462880  12.3503727
  23.5180340  33.4885042  13.0977845  23.6906617  33.1325117  12.4203762
  38.2497034  21.2553442  15.7063017  37.4125455  21.3255629  15.9410611
  38.2185265  21.2577937  14.8337319  38.1215316  21.2663669  15.6122564
  24.6461763  23.3986478  21.4211385  24.8182267  23.2892372  22.2696667
  25.1831121  24.0440883  21.1842577  24.7506767  23.4778479  21.5116482
  22.9233632  29.3517243  11.8016578  23.7622531  29.5840175  11.8490340
  22.9545401  28.4821554  11.7323613  23.0515350  29.2574189  11.7981223
  23.5486335  29.7718118  16.1029884  24.0884560  29.6289249  16.7733256
  22.8656281  30.1714869  16.4713910  23.5278489  29.8097789  16.2564305
  32.9727220  25.4509118  11.2974908  33.7284735  25.8840633  11.3363817
  33.0789544  24.8013888  11.8709544  33.0997390  25.4186602  11.3872934
  36.0107391  29.2782396  12.0477311  35.5742623  29.2819138  12.8036282
  35.6770306  29.9587895  11.6156888  35.8970011  29.3794851  12.0958143
  18.9523480  25.9918409  16.2564305  18.6861895  25.1757525  16.4155295
  18.9662044  26.0371564  15.3859821  18.9148202  25.8775313  16.1517787
  35.9304874  16.3196223  14.2906739  36.5730782  16.3894328  14.8768654
  36.1827895  15.6525446  13.7886281  36.0627006  16.2322572  14.3034018
  23.7022086  19.5296787  18.9031313  23.0093883  19.0593767  19.1492044
  24.3182414  19.3035091  19.4773020  23.6906616  19.4263919  19.0240465
  30.7406858  33.2300831  17.0186917  29.9422104  32.9900331  17.2760785
  31.1892869  33.2815223  17.7653965  30.6881469  33.2023222  17.1671841
  39.1451737  25.9963316  10.9396948  39.8068171  25.4353984  10.8392857
  38.5043149  25.5015346  11.2649639  39.1480605  25.8399725  10.9729288
  30.0328545  29.2933447   3.2477871  30.4479693  28.9618471   2.5562367
  29.2020475  29.0602349   3.1198008  29.9716554  29.2104703   3.1268719
  19.3616894  26.7777188  13.5376049  19.1792467  26.7524074  12.6848342
  20.0966563  27.2476126  13.5764958  19.4430958  26.8438550  13.4173968
  35.4316568  27.0128698  10.6808937  35.6672157  27.1573897   9.8535788
  35.5806132  27.7771106  11.0740451  35.4882371  27.1467752  10.6172541
  22.4262645  23.4962191  20.0458158  23.1502618  23.4815221  20.5323053
  22.5278782  24.2057546  19.5480126  22.5480854  23.5986894  20.0436945
  37.2607025  25.8530364   8.5178541  37.5915242  26.3858004   7.9118636
  37.8340113  25.9069252   9.1740492  37.3940704  25.9399933   8.5256322
  32.4738914  23.6995267   9.2002121  32.5685768  24.4384561   9.6541746
  31.8497757  23.2712742   9.6336685  32.3947944  23.7456587   9.3310268
  30.7291388  26.8781479  19.8492402  31.3030249  26.2408723  20.0040966
  30.6506191  26.8785562  18.9802059  30.8024622  26.7846591  19.7438813
  19.3287804  23.6570689  13.6875116  19.9061307  23.5207139  14.3267361
  18.6301866  23.2006473  13.9420700  19.3108825  23.5692955  13.8197406
  26.0855106  25.3104744  11.9013599  25.8274351  24.4776479  11.8744899
  26.1403589  25.5362357  11.0606100  26.0554884  25.2202516  11.7733736
  31.1656156  17.4133195  12.0017692  30.4612483  16.9242381  12.1601611
  31.2141131  17.4255669  11.1306136  31.0686208  17.3422843  11.8957032
  25.0589818  22.8642507  12.3878494  24.4839410  23.0234675  13.0242455
  24.6825495  22.2277916  11.9246945  24.9192631  22.7940320  12.4133052
  28.7263107  21.3365856  17.2470872  28.3377540  20.9120074  16.5923064
  28.0617805  21.5848006  17.7547899  28.5710035  21.3104577  17.2258740
  38.3686376  21.0940861  10.0218702  38.1122941  20.2820802   9.8316585
  39.2115690  21.1018428   9.7948890  38.4552402  20.9752858   9.9603520
  32.5489469  15.0340485  14.7594857  32.9299980  14.3518656  15.1462731
  31.7452753  14.7450087  14.5770521  32.4865930  14.8907533  14.7898913
  29.8302045  25.5664461   5.4447679  30.6442684  25.8579353   5.3330451
  29.7661187  24.9124323   4.8705972  29.9404784  25.5129655   5.3436517
  25.7009954  29.0385978  10.5719991  26.3383900  28.7997726  11.1171785
  26.1265025  29.2423137   9.8373152  25.8586120  29.0336988  10.5437149
  20.3922596  31.2774315  14.4554295  20.4326741  31.5489166  13.6274075
  20.9517120  31.8016223  14.8712083  20.4805942  31.3950070  14.3946183
  26.5081309  17.5394683  24.6257465  26.1934750  18.3094246  24.3627028
  26.1871242  16.9764939  24.0409692  26.4140228  17.5704952  24.4998815
  37.0747956  28.0334906  15.9205549  36.7693773  28.7662962  16.2818865
  36.3554172  27.6272835  15.6398336  36.9235298  28.0816639  15.9318687
  28.0831425  29.5158401  12.2513778  28.1570434  29.3533573  13.1055628
  28.9000932  29.7048590  12.0074259  28.2147784  29.5195143  12.3411803
  42.7749748  24.6727906  15.2473894  42.7074248  24.6923865  14.3776480
  42.7605411  25.5158233  15.4729564  42.7628505  24.8001641  15.1526371
  21.8437182  29.8616264   9.2808221  21.0175300  30.1078001   9.1542500
  21.9049173  29.7828344  10.1470279  21.7311349  29.8861213   9.3897166
  33.1846095  16.0763064  18.5714983  33.9299687  15.8872874  18.1578409
  32.7683399  16.6021302  18.0128840  33.2331069  16.1265209  18.4279556
  26.6236011  32.4793144   6.9827251  26.9134310  32.0882125   6.2586478
  27.3539492  32.6609849   7.4232526  26.7742895  32.4486958   6.9410058
  40.5608366  23.4472292  13.5220488  41.1116287  22.8140361  13.7617580
  40.5452481  23.9787685  14.2135992  40.6393562  23.4321241  13.6599346
  27.2130756  27.2810890  18.0680382  26.7142450  27.9926657  18.1465270
  28.0230981  27.6011556  18.0298544  27.2586863  27.4337738  18.0736950
  24.5641927  34.4560526  10.0487401  24.3442222  34.1657881  10.8414068
  24.3436449  33.7975481   9.5205313  24.4989521  34.3160235  10.0876310
  23.4758874  26.5433843  12.3143102  23.1872123  25.9171314  12.8488830
  24.3442222  26.4854130  12.3807783  23.5619126  26.4421387  12.4034057
  34.2636772  21.6868626  12.6325084  33.9201538  20.9658961  12.9832334
  34.3629814  21.4782477  11.7903443  34.2278815  21.5492829  12.5596764
  26.7309883  35.8289916   8.8318093  27.3833941  35.2966358   9.0609119
  26.0335491  35.4758568   9.2185967  26.7240600  35.6979439   8.9230261
  23.6791147  28.1829094   8.2385468  24.4337115  28.5642133   8.4520930
  23.0861760  28.6340237   8.6932164  23.7027861  28.3057921   8.3368346
  34.7249801  28.1494330   8.1749072  35.2907833  28.8087540   8.0907615
  34.0777704  28.4944028   8.6465475  34.7128557  28.2976271   8.2321829
  26.1397814  20.1391934  23.3642680  25.3297590  20.4449714  23.2532522
  26.6172501  20.8597516  23.4795264  26.0901293  20.2906535  23.3649751
  24.9989374  29.3537655  13.6125583  24.4770127  29.4937947  14.2977448
  25.3863394  28.5948319  13.8027700  24.9793075  29.2623179  13.7426659
  31.1956379  31.0933114   7.5986152  30.9543055  30.3600975   7.1913217
  31.3757712  31.6419971   6.9452485  31.1864003  31.0655506   7.4416375
  26.4255700  26.3841674   9.0107074  26.2298482  26.9916409   8.4167377
  26.6490045  25.6909618   8.5298748  26.4290341  26.3719200   8.8523155
  24.8234230  23.2696412   9.1287942  25.5456881  23.4337570   8.6691748
  24.3442222  23.9906077   9.0227282  24.8597960  23.3994642   9.0453556
  32.7827737  19.6060211  14.5084627  31.9438838  19.6321490  14.2722891
  32.8532104  20.2530946  15.0889974  32.6696131  19.7056337  14.5593744
  22.4741846  25.6754484  18.2342082  22.9862943  25.9538738  17.5850842
  22.1878189  26.4143779  18.6004895  22.5076709  25.8256838  18.1931960
  31.2297015  16.5045588   9.2412243  31.9323368  16.3053336   8.7632201
  30.9641204  15.7321530   9.5481087  31.2943648  16.3608554   9.2157685
  36.6585261  24.8128198  11.7945869  36.5719236  24.9683624  12.6480648
  36.2035741  25.4566273  11.4205274  36.5788518  24.9303953  11.8652976
  25.9925572  17.7680873  18.2943124  25.8008769  17.7836007  19.1442547
  26.8424168  17.9644547  18.2709779  26.0901294  17.7995224  18.4166419
  20.3772485  20.2971855  16.2726940  20.2357977  19.4455795  16.3971448
  20.6613048  20.3400515  15.4489146  20.3980331  20.1771605  16.1694564
  30.5311077  22.1338945  10.4171428  30.2845791  22.0534696  11.2508217
  30.8596200  21.3492413  10.2233956  30.5432321  22.0065210  10.5118952
  34.4259126  28.8422304  14.2058210  34.2873485  29.5403350  14.7106952
  33.6459124  28.6870961  13.8494392  34.2902353  28.9222471  14.2284484
  26.4908104  24.8695663  19.8294412  26.6351480  25.4496871  19.1937522
  26.8383753  25.2471960  20.5344266  26.5635566  25.0116367  19.8393407
  28.6628022  24.0685832  17.6119543  27.9151336  24.2616846  17.2067821
  28.8169547  23.2431051  17.3743664  28.5750449  23.9750943  17.5164949
  25.5635859  33.0598435  16.6955438  25.7125423  32.5001351  16.0428843
  26.3435861  33.1390437  17.0787957  25.7009953  32.9884001  16.6552388
  35.9212499  28.2000558   4.9674709  35.5419307  27.4137696   4.9603998
  35.2578744  28.7487415   4.8246353  35.7670974  28.1645382   4.9455506
  28.0889160  33.2313078  17.9739929  28.0132831  32.5621889  18.5290717
  28.0179019  33.9330866  18.4880595  28.0669767  33.2357985  18.1316777
  28.9029799  17.9636382  18.5014947  29.3602413  18.6960357  18.6287739
  28.9786128  17.5402848  19.2602203  28.9820769  18.0093621  18.6316023
  21.1462790  18.2102202  19.5904391  20.6104979  17.5982560  19.9065158
  21.2080555  18.7850338  20.2438057  21.0758423  18.2049130  19.7339817
  33.3757125  11.1426258  12.3708790  33.4940693  11.6002721  11.6376093
  33.2019300  10.3371519  12.0845007  33.3676296  11.0920030  12.2209723
  28.7459407  31.7514077   8.8063535  29.5109298  31.4823721   8.4846199
  28.6437497  31.2664087   9.5233598  28.8440902  31.6403642   8.8643363
  26.7812177  19.9538486  15.3456771  25.9908251  19.7729946  15.6674107
  27.1772799  19.1765439  15.3287065  26.7229053  19.8125947  15.3909319
  32.1655863  27.5880917  13.0716217  31.4900865  27.3566149  13.5729604
  32.1748239  26.9802099  12.4458322  32.0674367  27.4639842  13.0532369
  29.2950007  22.4298745  19.8280270  29.2309148  23.2908702  19.7000407
  29.4347195  22.1130739  19.0275821  29.3065477  22.5098912  19.6908483
  34.1672598  30.4446049   5.3026395  34.2492435  31.2513035   4.9787846
  34.6522340  30.4642008   6.0267168  34.2509755  30.5666711   5.3613293
  27.9769101  25.1230885  13.9696473  27.5531350  25.3235384  13.2335491
  27.8013956  24.2759733  14.0820773  27.8879981  25.0279666  13.8770163
  27.4780794  36.6381398  16.4317930  27.9676725  35.9392187  16.2493595
  26.9065027  36.3405268  17.0193987  27.4665324  36.4907621  16.4918971
  23.2651546  25.6182936   9.4024445  23.4216165  25.5529739  10.2580437
  23.6052139  26.3931489   9.1903125  23.3384781  25.7232134   9.4979039
  29.8030690  24.9940820   8.2717808  30.3446236  24.4911201   8.7356429
  30.1177249  24.9406015   7.4607294  29.9295087  24.9120241   8.2201621
  27.9717140  30.3858171   5.5557836  28.0409960  29.5272710   5.6950837
  28.7505595  30.6030052   5.2276861  28.0969990  30.2911035   5.5274994
  30.9519960  19.8877124  18.3240109  31.1661929  19.2488039  17.7703463
  30.3353859  20.3322948  17.8947971  30.8925289  19.8587268  18.1790540
  32.3624628  32.8095873   9.7694330  31.9704419  32.5062588   9.0517196
  32.5177700  33.6464963   9.5799284  32.3278218  32.8879709   9.6350827
  33.1159048  21.4966190  19.2623416  32.3035729  21.1892080  19.3436589
  33.5748982  21.0165190  19.8266128  33.0639433  21.3802682  19.3578010
  32.5264302  29.3745861   9.7100360  32.1678957  29.5460504  10.4864393
  32.0403013  29.8359067   9.1528359  32.4022999  29.4684833   9.7425629
  30.3434688  12.9977060  13.3127452  29.4728246  12.9715781  13.2660761
  30.5975030  12.8254252  12.4953297  30.2528249  12.9687204  13.1847588
  30.2112555  22.9026261  24.0452118  30.6812186  23.5268377  24.4319992
  30.2574435  22.2343236  24.6045333  30.2880431  22.8960941  24.1852190
  27.3683829  15.0083288  14.7700922  26.8522318  14.3163480  14.8952501
  26.8077758  15.6754065  14.7163521  27.2090342  15.0046546  14.7806988
  29.4376062  15.5476248  16.5993775  29.0507816  15.5725280  17.3807305
  28.9509000  14.9817927  16.1468291  29.3088571  15.4671999  16.6481678
  35.4126042  22.1138903  15.2233477  34.9853650  22.0265252  14.4681576
  34.7752095  22.2216679  15.8088321  35.2555649  22.1171563  15.1978918
  29.1033204  12.4343234  18.8904035  29.7326322  12.9703534  18.6125105
  29.2719067  12.3420593  19.7417600  29.2210999  12.5004596  18.9752563
  28.9047119  17.2214429  21.1630446  29.7320548  16.9499578  21.2189061
  28.9254965  18.0175270  21.5194264  29.0299969  17.2994183  21.2245629
  33.7423298  30.9569566  17.2972918  34.5315677  30.6058630  17.4175000
  33.9166896  31.7705954  17.0349552  33.8843580  31.0255423  17.2760786
  23.4816609  24.3678291  14.3500707  22.6404615  24.2682166  14.5579601
  23.6906617  25.1373772  14.7015028  23.3881301  24.4670335  14.4328022
  20.9592176  21.9897828  12.1785458  20.5648874  22.0640840  11.4035567
  20.4032293  22.3755775  12.7293819  20.8194988  22.0579603  12.1453117
  32.5957123  14.9679122  11.8589336  32.8006716  14.9001430  12.7046334
  32.2683547  15.7737944  11.7910514  32.5772370  15.0765063  11.9748992
  27.2933274  22.2959691  13.5998304  26.9896411  21.7415679  14.2008712
  26.5912694  22.4751901  13.1126339  27.1449483  22.2404473  13.6168010
  25.3551625  29.5109411  18.3070402  25.2471980  29.5211473  19.1732460
  25.5647406  30.3364192  18.1175356  25.3701736  29.6350486  18.4074494
  35.8490810  15.5210887  11.3392102  35.2365124  16.0081289  11.7245834
  35.9454985  14.8454378  11.8829753  35.7728708  15.4929195  11.4770960
  23.3725417  26.7622054  15.7692340  22.7813350  27.4031552  15.7395355
  24.1346440  27.1859671  15.7423639  23.3973677  26.9197892  15.7607487
  23.7686039  17.9224052  16.4360357  24.2287521  17.9962981  17.1735481
  23.8142146  18.7205306  16.0860179  23.8436595  18.0518199  16.4933114
  25.4169389  18.5890746  21.0032384  25.0254954  17.9424094  21.4388162
  25.5855252  19.1802182  21.6226640  25.3840300  18.5805014  21.1595090
  39.4915838  26.5927823  16.7669618  39.5498962  27.0414472  17.5129595
  38.8582306  27.0026636  16.3299698  39.4067133  26.7201558  16.8122166
  33.1314933  32.2131365  13.2024364  32.9334622  32.7022180  12.5080576
  32.5102644  32.4172607  13.7808498  33.0102497  32.3147904  13.1847587
  27.1922911  23.9816262   7.5434608  27.9364956  24.3690538   7.7817558
  27.3383607  23.1373688   7.7075096  27.3233496  23.9146735   7.6028578
  29.1102487  15.7766521  12.5766470  28.2638532  15.9489329  12.4507820
  29.1073619  14.9715865  12.9132298  28.9849637  15.6827550  12.6077597
  30.1800787  19.5541735  13.4428528  29.7060741  19.0283498  13.9533839
  30.5518923  19.0071208  12.8743389  30.1650676  19.3957732  13.4343675
  20.5573817  21.5513242  18.8112074  21.4199430  21.4508951  18.7249403
  20.2265600  20.9707951  18.2497646  20.6359014  21.4504869  18.7157479
  36.4437518  24.6144111  14.8535308  36.2035741  23.7750526  14.8577735
  36.9229525  24.6944278  15.5776082  36.4789701  24.5025511  14.9610111
  38.4442705  21.3945568  12.8064567  38.2052475  21.3541403  11.9685352
  38.6076606  22.2416720  12.9330289  38.4333008  21.5137653  12.7018049
  35.0488735  25.7795518  18.7369613  35.7722934  25.3268044  18.5580632
  34.7838697  26.0600183  17.9541940  35.1170008  25.7546486  18.5948328
  23.9175603  20.3755691  15.4722492  23.2928673  20.3874083  14.8648444
  23.5821198  20.8515866  16.1213732  23.7761095  20.4474208  15.4779060
  20.6301279  28.4356151  16.9126256  20.1001203  27.7448590  16.9621231
  20.9026372  28.4266337  16.0838965  20.5926001  28.3323283  16.7973672
  31.6621369  29.0181854   5.6363939  32.3855568  29.4839967   5.4928512
  31.2221960  29.0855463   4.8861536  31.7037062  29.0965690   5.5048720
  30.8307524  25.8779396  16.8864628  30.2164517  25.3337446  17.1813263
  31.3474809  25.3643632  16.4070444  30.8163187  25.7215805  16.8588856
  30.0703822  26.9483666  14.6208926  29.6431430  26.3233385  14.1874362
  30.0628766  26.6658588  15.4467933  30.0062963  26.8136447  14.6788754
  23.1866349  21.9848839  17.6897360  23.3459835  21.2292163  18.0949082
  23.0059242  22.5339779  18.3438098  23.1831708  21.9542653  17.8460066
  31.1286652  14.1510075  18.2448150  30.6327213  14.3473749  17.5539716
  31.8855714  14.5502743  18.0736951  31.1673476  14.2387808  18.1168286
  28.3989531  17.8252420  14.8351460  28.4232018  17.2912533  14.1464240
  28.6501005  17.3169729  15.4977051  28.4399450  17.6713324  14.8316105
  15.9097121  25.1083915  14.2694604  15.8040570  25.0630760  13.4046688
  15.1597341  25.4537696  14.5508889  15.7832724  25.1524824  14.1831934
  24.6790853  16.5523239  14.2157205  24.7189225  17.0532445  14.9291912
  23.8540518  16.6433632  13.9463128  24.5630379  16.6405055  14.2807743
  26.8620466  26.1183979  22.3177499  26.0116097  26.2555693  22.4535144
  27.0248594  25.3847757  22.7625201  26.7604330  26.0298080  22.4033098
  26.1005217  23.0683749  16.5131104  25.2697146  23.2357566  16.3066352
  26.0456734  22.6919699  17.2979989  25.9694632  23.0373480  16.5979632
  23.9089000  16.5592641  22.1487514  24.5341703  16.0154774  22.4216947
  23.4539480  16.0787559  21.5795305  23.9337261  16.4082123  22.1049108
  37.4824049  24.7421928  17.2400162  38.0741889  25.3819179  17.2718360
  37.9183043  24.0444965  17.5292229  37.6342480  24.7340279  17.2880995
  29.3117439  29.1639301  17.8658056  28.8042530  29.7175148  18.3098687
  29.0144085  29.2247591  17.0476831  29.1922324  29.2545612  17.8106513
  31.4779621  17.5292620  16.7082719  31.9034692  17.0765147  16.0966246
  30.8636614  16.9752691  16.9847507  31.4508266  17.3806597  16.6587744
  31.9225219  33.0802559   5.7962000  31.2054529  32.9063421   5.3309237
  32.5731957  32.8455131   5.2637486  31.9127069  33.0198351   5.6491218
  34.5073190  21.9567147   9.5403305  33.8364380  22.4996849   9.4116370
  35.2012940  22.4262002   9.2985000  34.5102058  22.1065418   9.4858833
  28.5559924  34.0963859  14.7715063  28.3325578  33.3382688  15.1399089
  28.0669767  34.1261880  14.0495503  28.4503373  33.9886084  14.7191804
  34.6701318  18.4123031  12.4493678  35.0228928  17.9852754  13.1239477
  33.8116119  18.3273874  12.5794754  34.5950762  18.3367771  12.5688688
  23.3685003  21.0430550  10.5076525  22.6496992  21.4594683  10.7749388
  23.7397365  21.6084789   9.9568163  23.3176934  21.1879832  10.4659332
  32.6684583  21.6758399  16.3978520  32.6482511  21.4941694  17.2513299
  32.7163784  22.5470418  16.3738104  32.6719224  21.7774938  16.5201815
  30.6130913  28.2645591  22.3226997  30.5726768  27.6195268  21.7372153
  31.4254232  28.2082209  22.6352409  30.7274067  28.1604558  22.2823946
  27.2038381  34.3164317  12.2252148  26.7898780  33.6538447  11.8355989
  27.8885755  34.4642176  11.7047842  27.2436753  34.2404975  12.0908645
  30.5703675  33.4754402  12.9775764  30.1719958  33.5856673  12.2096585
  29.9554895  33.6836469  13.5602324  30.4202564  33.5227971  12.9507064
  36.1025378  13.5341443  13.3777991  35.5956242  12.8270582  13.3099168
  36.8992811  13.2034631  13.5079067  36.1452617  13.3814594  13.3876985
  32.0189394  20.0408055   9.2751654  31.7903087  20.0640756   8.4330012
  32.2787470  19.2165522   9.3946665  32.0235582  19.9224135   9.1676852
  26.3008622  21.8942528  18.8776754  25.7887525  21.2863711  19.2361786
  26.1288118  22.6099120  19.3450730  26.1998259  21.9105827  18.9992978
  21.1474337  20.3380103  21.5279116  20.9776927  20.9981478  20.9827323
  20.7040287  20.5486664  22.2491605  21.0573670  20.4666085  21.5540746
  25.0734156  18.5784601  10.5705850  25.5491522  18.9401681   9.9356031
  24.5722756  19.2341069  10.8505993  25.0699515  18.7278790  10.5182591
  38.3045518  28.0506369   6.3618855  38.6879123  28.7997725   6.5916952
  37.5089631  28.2972189   6.1030844  38.2439300  28.1976063   6.3576429
  30.1777692  19.8166773  21.3179010  30.7349123  19.5880582  20.6857475
  29.8538757  20.5772438  21.0414222  30.2124103  19.8950609  21.1835507
  18.0476401  23.2426969  16.7867606  17.5003121  22.5727614  16.9048474
  18.8368779  22.8756817  16.8511073  18.0828585  23.0891955  16.8136307
  27.8960810  22.9034426  22.2831017  28.6472137  23.2186103  22.5970571
  28.0883386  22.7013597  21.4564939  28.0352224  22.9201808  22.2074413
  34.7446100  19.0307992   9.5254813  34.7440326  18.8756649  10.3839089
  34.5402280  19.8770979   9.4696198  34.7145878  19.1328613   9.6442752
  16.8063371  22.4547777  13.9413629  16.6285132  22.0024386  14.6668545
  16.5182393  23.2573938  14.1252107  16.7376324  22.5070334  14.0757132
  32.4686952  23.7105494  13.1791019  32.9640617  22.9928489  13.1395040
  31.6586728  23.4076292  13.0645506  32.4230845  23.5603140  13.1564745
  27.9145563  27.5603307   5.3288024  27.1056886  27.2369981   5.2821333
  28.4220472  26.8536529   5.2616273  27.8695230  27.4084624   5.3118318
  18.5435841  24.9875500  11.0535388  17.6781360  24.9761191  10.9418159
  18.6434657  24.8005723  11.9006527  18.4310008  24.9581562  11.1624333
  34.5338771  26.4609181  15.8668148  34.9593842  25.9383603  15.3138573
  34.1695691  27.0590019  15.3456771  34.5425373  26.4719408  15.7077158
  24.1692851  34.7573399  14.6265494  24.4839409  35.5709787  14.6343275
  24.5786264  34.3723618  15.2947653  24.2760949  34.8202101  14.7269585
  31.1217370  30.1743446  12.1969306  31.5928548  30.8883708  12.3659291
  31.4577549  29.5742196  12.7329175  31.2412485  30.1914910  12.3001682
  28.0386865  14.9470916  19.1527400  28.1714771  14.1501910  19.4808376
  28.4232018  15.4737319  19.7325676  28.1143194  14.9070833  19.2870903
  31.7591316  29.9661380  18.9596998  31.2112262  29.3419263  18.6917064
  32.2204345  30.1555652  18.2441078  31.7458526  29.9020430  18.8147429
  31.1119220  11.8701242  15.7508494  30.3065184  11.7598972  16.0676332
  30.9825956  11.9713698  14.8938360  30.9739353  11.8684912  15.6716534
  34.5685181  18.0346734  16.3448191  33.9848170  18.5355941  15.9325758
  34.8889475  17.5276290  15.7112514  34.5298356  18.0338569  16.1906698
  25.6975312  14.9430091  17.4005294  26.2419725  14.6021218  17.9909636
  25.7512248  15.8015553  17.5426579  25.7864431  15.0185351  17.5087168
  21.5105871  28.7046507  14.2744102  22.1150728  28.6642342  13.6457923
  21.3033183  29.5517659  14.3048158  21.5694768  28.8234510  14.1860219
  31.3249643  30.9712453  15.4906340  32.1448017  30.8275419  15.7522635
  31.0443720  31.5958651  16.0322777  31.4046386  31.0422805  15.6094279
  16.7457153  27.6881125  14.1443025  16.6481431  26.8777396  14.4533082
  17.5286023  27.6672918  13.7589293  16.8473289  27.5648215  14.1329888
  47.7963293  38.6277304   8.4549216  47.7657298  39.4821941   8.6267485
  48.3944642  38.3272597   9.0135359  47.8800451  38.7093801   8.5624018
  40.9962978  37.7152955  13.2102146  40.1400874  37.8761453  13.2611263
  41.0430632  36.8445019  13.2307207  40.8762089  37.6103757  13.2208212
  35.3804118  47.2515673   8.9739378  34.6287017  46.8731211   8.7455423
  35.8290129  47.2834107   8.2258188  35.3353785  47.2001280   8.8296880
  40.8329078  47.6741043   4.4024925  40.4980446  48.3517964   3.9669147
  41.3455948  47.2846354   3.8141797  40.8594659  47.7165621   4.2511716
  40.3733369  49.6255311  10.3436037  40.7572748  50.1942210   9.8040812
  40.3092510  48.9004822   9.8641853  40.4206796  49.6030775  10.1929899
  43.8414799  39.7744999  15.8533798  44.3870759  40.4530086  15.9127768
  43.7831675  39.6332460  14.9935379  43.9130713  39.8537001  15.7345859
  36.9588874  47.2634065  11.2402150  37.0599237  46.4534419  11.5499278
  36.3630619  47.1691012  10.6101829  36.8861413  47.1299093  11.1928389
  45.6179868  41.2029606   6.7267526  45.5019394  41.9537292   7.1559664
  46.4135754  40.9453560   6.9763613  45.7184457  41.2764453   6.8271617
  36.7989614  52.1811654  12.6417006  37.4427069  52.6224818  13.0313165
  37.1245869  51.3765081  12.5547265  36.9421442  52.1276849  12.6862484
  30.1553918  43.2854352  10.8654484  29.9204103  42.4522004  10.7586753
  30.2939559  43.5659018  10.0515685  30.1409581  43.2037855  10.7296839
  32.4544006  35.4540082  13.7638792  31.8349037  34.8632730  13.5948807
  32.3527869  36.0451518  13.1303115  32.3481681  35.4544165  13.6443781
  37.5010193  45.1923629   8.0136868  37.8226034  45.7328837   7.4098176
  38.1482290  44.6220401   8.1459158  37.6436248  45.1882804   7.9443903
  39.5511901  37.1939624   8.0971255  40.2492066  37.3727752   8.5892718
  39.8664234  36.6709964   7.4741644  39.7007238  37.1433396   8.0773265
  32.1813139  38.9992364  16.0082361  32.0571836  39.5854810  16.6432180
  32.8331423  38.5052560  16.3094636  32.2586788  39.0131169  16.1468290
  39.7399837  43.5810069   8.0851046  40.1793472  42.9727170   8.5305819
  39.5904500  43.2017443   7.3136511  39.7821302  43.4348540   8.0370214
  37.2071480  42.1754081  15.2869872  37.8520482  41.6826524  14.9680820
  37.4473257  42.3178868  16.1135950  37.3382065  42.1231523  15.3619405
  39.7457571  45.0208987  14.9376764  40.0280814  44.2260393  14.7163520
  40.4743731  45.4989574  14.9581825  39.8947135  44.9743584  14.9079780
  37.7238765  32.5632021  12.1792529  37.3942095  33.0143164  11.5096228
  37.0483767  32.4848184  12.7265536  37.5749201  32.6183156  12.1615753
  43.3409173  41.9337251   5.0381816  43.2560468  42.7898217   5.1831384
  43.8293556  41.6581575   5.7063975  43.3998070  42.0194572   5.1583897
  44.9315173  28.5517544  10.4242140  44.6168614  29.2421022  10.8562562
  44.4142114  28.4962326   9.7227641  44.8079643  28.6452432  10.3839089
  44.2727606  38.5522045   6.5379551  43.7439078  38.7681678   7.1976857
  44.7952626  39.2458183   6.4580520  44.2716059  38.6865182   6.6235150
  49.7275659  44.1268349  11.9112595  48.8973362  44.3378993  12.0746012
  49.6784912  43.3005404  11.6354879  49.5982395  44.0357955  11.8949961
  36.1627214  42.4485261   5.3387019  35.5784429  42.9535293   5.7452883
  35.7597309  42.2227648   4.5983611  36.0166518  42.4893510   5.2892044
  31.7171243  48.1640023  12.1410690  31.2338821  48.8890512  12.1170274
  32.5294561  48.4616153  12.2520848  31.7661991  48.3142376  12.1537969
  37.7885397  46.9572203  14.7460505  37.2712339  46.5979618  14.1421813
  38.4859788  46.4334378  14.7566571  37.8150978  46.8269891  14.6590763
  39.0119449  46.6898177  19.6894340  38.4490283  46.2770787  20.2134001
  39.7740472  46.6151083  20.1087483  39.0413897  46.6175578  19.8287340
  40.6204429  38.6950914   3.8155939  40.8600432  38.9028897   3.0031282
  40.9420270  37.8908422   3.9244884  40.7041587  38.6065015   3.7116492
  35.9294719  30.6244309   7.6615477  36.6840687  30.9922626   7.4232527
  35.7522254  30.9983864   8.4294657  36.0149197  30.7342497   7.7400366
  34.5715440  48.6796199  12.2930970  35.2736019  48.1648188  12.3503727
  34.4912923  49.0070350  13.0977845  34.6639201  48.6510425  12.4203762
  49.2229618  36.7738750  15.7063017  48.3858039  36.8440937  15.9410611
  49.1917849  36.7763245  14.8337319  49.0947900  36.7848977  15.6122564
  35.6194347  38.9171785  21.4211385  35.7914850  38.8077680  22.2696667
  36.1563704  39.5626191  21.1842577  35.7239351  38.9963787  21.5116482
  34.2851784  33.0314628   4.3593590  34.1027357  33.2486509   3.5334583
  35.1477397  33.1453641   4.4152205  34.3856373  33.0804526   4.2448077
  33.8966216  44.8702551  11.8016578  34.7355115  45.1025483  11.8490340
  33.9277985  44.0006862  11.7323613  34.0247933  44.7759497  11.7981223
  34.5218919  45.2903426  16.1029884  35.0617144  45.1474557  16.7733256
  33.8388865  45.6900177  16.4713910  34.5011072  45.3283097  16.2564305
  39.9651503  30.0341039   7.3942614  40.6937663  29.8556994   6.9480770
  40.0546396  30.8759119   7.6049792  40.0858165  30.1324917   7.3596132
  43.9459803  40.9694426  11.2974908  44.7017318  41.4025941  11.3363817
  44.0522128  40.3199196  11.8709544  44.0729974  40.9371910  11.3872934
  46.9839975  44.7967704  12.0477311  46.5475206  44.8004446  12.8036282
  46.6502890  45.4773203  11.6156888  46.8702595  44.8980159  12.0958143
  29.9256064  41.5103717  16.2564305  29.6594479  40.6942833  16.4155295
  29.9394628  41.5556872  15.3859821  29.8880786  41.3960621  16.1517787
  33.8313811  36.3088801   2.8716063  33.1171988  36.0226980   3.2838496
  34.3157779  36.6485427   3.5122451  33.7973174  36.3170451   3.0271698
  34.6754670  35.0482095  18.9031313  33.9826467  34.5779075  19.1492044
  35.2914997  34.8220399  19.4773020  34.6639200  34.9449227  19.0240465
  41.7139442  48.7486138  17.0186917  40.9154687  48.5085639  17.2760785
  42.1625453  48.8000531  17.7653965  41.6614053  48.7208530  17.1671841
  50.1184321  41.5148623  10.9396948  50.7800755  40.9539292  10.8392857
  49.4775733  41.0200654  11.2649639  50.1213188  41.3585033  10.9729288
  41.0061129  44.8118755   3.2477871  41.4212277  44.4803779   2.5562367
  40.1753058  44.5787657   3.1198008  40.9449137  44.7290011   3.1268719
  30.3349477  42.2962496  13.5376049  30.1525051  42.2709382  12.6848342
  31.0699146  42.7661434  13.5764958  30.4163541  42.3623858  13.4173968
  46.4049151  42.5314006  10.6808937  46.6404741  42.6759205   9.8535788
  46.5538715  43.2956414  11.0740451  46.4614955  42.6653060  10.6172541
  33.3995229  39.0147499  20.0458158  34.1235201  39.0000529  20.5323053
  33.5011365  39.7242854  19.5480126  33.5213438  39.1172202  20.0436945
  48.2339608  41.3715672   8.5178541  48.5647825  41.9043312   7.9118636
  48.8072696  41.4254560   9.1740492  48.3673287  41.4585241   8.5256322
  43.4471497  39.2180575   9.2002121  43.5418352  39.9569869   9.6541746
  42.8230341  38.7898050   9.6336685  43.3680527  39.2641895   9.3310268
  41.7023971  42.3966787  19.8492402  42.2762833  41.7594031  20.0040966
  41.6238775  42.3970870  18.9802059  41.7757206  42.3031899  19.7438813
  30.3020388  39.1755997  13.6875116  30.8793890  39.0392447  14.3267361
  29.6034449  38.7191781  13.9420700  30.2841409  39.0878263  13.8197406
  43.6994519  41.0629314   2.4339073  43.6174681  41.1331501   3.2994060
  44.3374239  41.6259058   2.2422814  43.7814356  41.1568285   2.5329022
  37.0587690  40.8290052  11.9013599  36.8006934  39.9961787  11.8744899
  37.1136173  41.0547665  11.0606100  37.0287468  40.7387824  11.7733736
  42.1388740  32.9318503  12.0017692  41.4345067  32.4427688  12.1601611
  42.1873714  32.9440977  11.1306136  42.0418792  32.8608151  11.8957032
  36.0322402  38.3827815  12.3878494  35.4571993  38.5419983  13.0242455
  35.6558078  37.7463224  11.9246945  35.8925214  38.3125628  12.4133052
  39.6995691  36.8551164  17.2470872  39.3110123  36.4305382  16.5923064
  39.0350389  37.1033314  17.7547899  39.5442618  36.8289885  17.2258740
  49.3418960  36.6126169  10.0218702  49.0855525  35.8006110   9.8316585
  50.1848274  36.6203736   9.7948890  49.4284985  36.4938166   9.9603520
  25.7779221  38.0267889  10.4022935  25.8639473  37.6499758  11.1836465
  26.4055018  37.6528335   9.9242893  25.8835772  37.9153372  10.4468412
  43.5222052  30.5525793  14.7594857  43.9032564  29.8703964  15.1462731
  42.7185336  30.2635395  14.5770521  43.4598514  30.4092841  14.7898913
  40.8034629  41.0849769   5.4447679  41.6175268  41.3764661   5.3330451
  40.7393770  40.4309631   4.8705972  40.9137368  41.0314963   5.3436517
  47.0244119  43.7675765  19.8577255  46.7882756  42.9363830  19.7389316
  47.6687348  43.7161372  20.4432099  47.0838790  43.6373453  19.9263149
  36.6742537  44.5571286  10.5719991  37.3116484  44.3183034  11.1171785
  37.0997609  44.7608445   9.8373152  36.8318703  44.5522296  10.5437149
  31.3655179  46.7959623  14.4554295  31.4059325  47.0674474  13.6274075
  31.9249704  47.3201531  14.8712083  31.4538525  46.9135378  14.3946183
  37.3145352  39.7773576   4.9094881  37.6990505  39.5581283   5.6611426
  37.0656972  40.6036521   5.0395957  37.3347425  39.8671722   5.0395957
  48.0480540  43.5520213  15.9205549  47.7426357  44.2848270  16.2818865
  47.3286755  43.1458143  15.6398336  47.8967882  43.6001946  15.9318687
  39.0564009  45.0343709  12.2513778  39.1303017  44.8718881  13.1055628
  39.8733515  45.2233898  12.0074259  39.1880368  45.0380451  12.3411803
  53.7482332  40.1913214  15.2473894  53.6806832  40.2109173  14.3776480
  53.7337994  41.0343541  15.4729564  53.7361088  40.3186949  15.1526371
  32.8169766  45.3801571   9.2808221  31.9907883  45.6263309   9.1542500
  32.8781757  45.3013652  10.1470279  32.7043933  45.4046520   9.3897166
  35.0345790  31.4470513  10.2403661  34.1668215  31.5193112  10.3061271
  35.3220994  32.2492591  10.4291636  34.9485538  31.5764660  10.2778428
  44.1578678  31.5948372  18.5714983  44.9032270  31.4058182  18.1578409
  43.7415983  32.1206610  18.0128840  44.2063652  31.6450517  18.4279556
  37.5968595  47.9978452   6.9827251  37.8866893  47.6067433   6.2586478
  38.3272076  48.1795157   7.4232526  37.7475479  47.9672266   6.9410058
  51.5340949  38.9657600  13.5220488  52.0848871  38.3325669  13.7617580
  51.5185064  39.4972993  14.2135992  51.6126145  38.9506549  13.6599346
  38.1863340  42.7996198  18.0680382  37.6875034  43.5111965  18.1465270
  38.9963564  43.1196864  18.0298544  38.2319447  42.9523046  18.0736950
  35.5374510  49.9745834  10.0487401  35.3174806  49.6843189  10.8414068
  35.3169032  49.3160789   9.5205313  35.4722105  49.8345543  10.0876310
  34.4491458  42.0619151  12.3143102  34.1604706  41.4356622  12.8488830
  35.3174806  42.0039438  12.3807783  34.5351709  41.9606695  12.4034057
  45.2369355  37.2053934  12.6325084  44.8934121  36.4844269  12.9832334
  45.3362398  36.9967785  11.7903443  45.2011398  37.0678137  12.5596764
  37.7042466  51.3475224   8.8318093  38.3566524  50.8151666   9.0609119
  37.0068075  50.9943876   9.2185967  37.6973184  51.2164747   8.9230261
  34.6523731  43.7014402   8.2385468  35.4069699  44.0827441   8.4520930
  34.0594344  44.1525545   8.6932164  34.6760445  43.8243229   8.3368346
  45.6982384  43.6679638   8.1749072  46.2640417  44.3272848   8.0907615
  45.0510288  44.0129336   8.6465475  45.6861141  43.8161579   8.2321829
  37.1130398  35.6577242  23.3642680  36.3030174  35.9635022  23.2532522
  37.5905085  36.3782824  23.4795264  37.0633877  35.8091843  23.3649751
  35.9721958  44.8722963  13.6125583  35.4502711  45.0123255  14.2977448
  36.3595978  44.1133627  13.8027700  35.9525658  44.7808487  13.7426659
  32.9613142  34.9228772   7.6820538  32.6737937  34.5530042   6.9452485
  33.6483610  35.3923627   7.4204243  33.0202039  34.9375741   7.5335613
  42.1688963  46.6118422   7.5986152  41.9275638  45.8786283   7.1913217
  42.3490295  47.1605279   6.9452485  42.1596586  46.5840813   7.4416375
  37.3988283  41.9026982   9.0107074  37.2031066  42.5101717   8.4167377
  37.6222629  41.2094926   8.5298748  37.4022924  41.8904508   8.8523155
  35.7966813  38.7881720   9.1287942  36.5189465  38.9522878   8.6691748
  35.3174806  39.5091385   9.0227282  35.8330544  38.9179950   9.0453556
  43.7560321  35.1245519  14.5084627  42.9171421  35.1506798  14.2722891
  43.8264688  35.7716254  15.0889974  43.6428714  35.2241645  14.5593744
  33.4474430  41.1939792  18.2342082  33.9595527  41.4724046  17.5850842
  33.1610772  41.9329086  18.6004895  33.4809293  41.3442146  18.1931960
  42.2029599  32.0230896   9.2412243  42.9055952  31.8238644   8.7632201
  41.9373788  31.2506838   9.5481087  42.2676231  31.8793862   9.2157685
  47.6317845  40.3313506  11.7945869  47.5451819  40.4868932  12.6480648
  47.1768325  40.9751581  11.4205274  47.5521101  40.4489261  11.8652976
  30.5341336  35.7009984   8.5305819  30.6357473  36.5036146   8.8586794
  31.3297223  35.4997320   8.2328899  30.6669242  35.7895883   8.5341174
  36.9658155  33.2866181  18.2943124  36.7741352  33.3021315  19.1442547
  37.8156751  33.4829855  18.2709779  37.0633877  33.3180532  18.4166419
  31.3505068  35.8157162  16.2726940  31.2090560  34.9641103  16.3971448
  31.6345632  35.8585823  15.4489146  31.3712914  35.6956912  16.1694564
  41.5043661  37.6524253  10.4171428  41.2578375  37.5720004  11.2508217
  41.8328784  36.8677721  10.2233956  41.5164904  37.5250518  10.5118952
  45.3991709  44.3607612  14.2058210  45.2606069  45.0588658  14.7106952
  44.6191707  44.2056268  13.8494392  45.2634936  44.4407779  14.2284484
  43.7369795  40.6603987  20.4580591  43.7317833  39.7883804  20.4623018
  44.4430788  40.8592157  19.9850047  43.8414799  40.5607862  20.3887627
  37.4640688  40.3880971  19.8294412  37.6084064  40.9682179  19.1937522
  37.8116336  40.7657268  20.5344266  37.5368149  40.5301675  19.8393407
  39.6360605  39.5871140  17.6119543  38.8883919  39.7802154  17.2067821
  39.7902131  38.7616359  17.3743664  39.5483033  39.4936251  17.5164949
  36.5368443  48.5783743  16.6955438  36.6858007  48.0186659  16.0428843
  37.3168445  48.6575745  17.0787957  36.6742537  48.5069309  16.6552388
  46.8945082  43.7185866   4.9674709  46.5151891  42.9323004   4.9603998
  46.2311328  44.2672723   4.8246353  46.7403557  43.6830690   4.9455506
  39.0621744  48.7498386  17.9739929  38.9865415  48.0807197  18.5290717
  38.9911603  49.4516174  18.4880595  39.0402350  48.7543293  18.1316777
  39.8762382  33.4821690  18.5014947  40.3334996  34.2145665  18.6287739
  39.9518711  33.0588156  19.2602203  39.9553352  33.5278928  18.6316023
  32.1195374  33.7287510  19.5904391  31.5837563  33.1167868  19.9065158
  32.1813138  34.3035646  20.2438057  32.0491006  33.7234438  19.7339817
  44.3489708  26.6611566  12.3708790  44.4673276  27.1188029  11.6376093
  44.1751884  25.8556827  12.0845007  44.3408879  26.6105338  12.2209723
  39.7191990  47.2699385   8.8063535  40.4841882  47.0009029   8.4846199
  39.6170080  46.7849395   9.5233598  39.8173486  47.1588949   8.8643363
  37.7544760  35.4723794  15.3456771  36.9640835  35.2915254  15.6674107
  38.1505383  34.6950747  15.3287065  37.6961636  35.3311255  15.3909319
  42.2410651  44.3011569   0.7863485  43.0083636  44.3611694   0.3769336
  41.7941960  43.7292010   0.3019803  42.2884078  44.2248144   0.6541195
  43.1388447  43.1066224  13.0716217  42.4633448  42.8751457  13.5729604
  43.1480823  42.4987407  12.4458322  43.0406951  42.9825150  13.0532369
  40.2682590  37.9484053  19.8280270  40.2041732  38.8094010  19.7000407
  40.4079778  37.6316047  19.0275821  40.2798061  38.0284220  19.6908483
  45.1405181  45.9631357   5.3026395  45.2225019  46.7698343   4.9787846
  45.6254923  45.9827316   6.0267168  45.2242339  46.0852019   5.3613293
  38.9501684  40.6416193  13.9696473  38.5263934  40.8420692  13.2335491
  38.7746540  39.7945041  14.0820773  38.8612565  40.5464974  13.8770163
  34.2384129  41.1368244   9.4024445  34.3948749  41.0715047  10.2580437
  34.5784722  41.9116797   9.1903125  34.3117364  41.2417442   9.4979039
  40.7763274  40.5126128   8.2717808  41.3178819  40.0096509   8.7356429
  41.0909833  40.4591322   7.4607294  40.9027671  40.4305549   8.2201621
  38.9449724  45.9043479   5.5557836  39.0142544  45.0458018   5.6950837
  39.7238179  46.1215360   5.2276861  39.0702574  45.8096343   5.5274994
  41.9252543  35.4062432  18.3240109  42.1394513  34.7673346  17.7703463
  41.3086443  35.8508256  17.8947971  41.8657873  35.3772576  18.1790540
  43.3357211  48.3281181   9.7694330  42.9437003  48.0247896   9.0517196
  43.4910283  49.1650271   9.5799284  43.3010801  48.4065017   9.6350827
  30.8118391  38.3203195   9.7185212  31.1917356  38.7387740   9.0545480
  30.2373756  38.9016650  10.0254056  30.7829716  38.4681053   9.6661953
  44.0891631  37.0151497  19.2623416  43.2768313  36.7077388  19.3436589
  44.5481566  36.5350498  19.8266128  44.0372016  36.8987990  19.3578010
  43.4996886  44.8931169   9.7100360  43.1411541  45.0645812  10.4864393
  43.0135597  45.3544375   9.1528359  43.3755583  44.9870140   9.7425629
  41.3167272  28.5162368  13.3127452  40.4460830  28.4901089  13.2660761
  41.5707613  28.3439560  12.4953297  41.2260832  28.4872512  13.1847588
  38.2885251  40.5730335   2.2500595  38.5777776  41.3495217   2.5244169
  38.3757050  40.0619066   2.9515094  38.3439508  40.6122253   2.3943093
  38.3416412  30.5268596  14.7700922  37.8254901  29.8348788  14.8952501
  37.7810341  31.1939373  14.7163521  38.1822926  30.5231854  14.7806988
  40.4108646  31.0661556  16.5993775  40.0240399  31.0910588  17.3807305
  39.9241583  30.5003235  16.1468291  40.2821155  30.9857307  16.6481678
  46.3858625  37.6324211  15.2233477  45.9586234  37.5450560  14.4681576
  45.7484678  37.7401987  15.8088321  46.2288233  37.6356871  15.1978918
  40.0765788  27.9528542  18.8904035  40.7058906  28.4888842  18.6125105
  40.2451650  27.8605901  19.7417600  40.1943582  28.0189904  18.9752563
  39.8779703  32.7399737  21.1630446  40.7053132  32.4684885  21.2189061
  39.8987549  33.5360578  21.5194264  40.0032553  32.8179491  21.2245629
  44.7155882  46.4754874  17.2972918  45.5048260  46.1243938  17.4175000
  44.8899480  47.2891262  17.0349552  44.8576164  46.5440731  17.2760786
  34.4549192  39.8863599  14.3500707  33.6137199  39.7867474  14.5579601
  34.6639200  40.6559080  14.7015028  34.3613885  39.9855643  14.4328022
  31.9324759  37.5083136  12.1785458  31.5381457  37.5826148  11.4035567
  31.3764876  37.8941083  12.7293819  31.7927572  37.5764911  12.1453117
  43.5689706  30.4864430  11.8589336  43.7739300  30.4186738  12.7046334
  43.2416130  31.2923252  11.7910514  43.5504954  30.5950371  11.9748992
  38.2665857  37.8144999  13.5998304  37.9628995  37.2600987  14.2008712
  37.5645278  37.9937209  13.1126339  38.1182067  37.7589781  13.6168010
  37.3231954  35.1245518   8.1643006  37.5991689  34.4064431   7.7520574
  37.9230624  35.7230438   7.9564112  37.4525219  35.1065889   8.0723767
  36.3284208  45.0294719  18.3070402  36.2204563  45.0396781  19.1732460
  36.5379990  45.8549500  18.1175356  36.3434319  45.1535794  18.4074494
  46.8223394  31.0396195  11.3392102  46.2097707  31.5266597  11.7245834
  46.9187569  30.3639685  11.8829753  46.7461291  31.0114503  11.4770960
  40.8242475  32.7959036   6.4389601  41.2786221  32.9669596   7.1637446
  41.2982521  32.1827146   6.0387377  40.9610795  32.7309921   6.4863363
  34.3458000  42.2807362  15.7692340  33.7545934  42.9216860  15.7395355
  35.1079024  42.7044979  15.7423639  34.3706261  42.4383200  15.7607487
  34.7418623  33.4409359  16.4360357  35.2020105  33.5148289  17.1735481
  34.7874730  34.2390613  16.0860179  34.8169178  33.5703507  16.4933114
  36.3901973  34.1076054  21.0032384  35.9987538  33.4609401  21.4388162
  36.5587836  34.6987490  21.6226640  36.3572883  34.0990322  21.1595090
  50.4648422  42.1113131  16.7669618  50.5231546  42.5599780  17.5129595
  49.8314889  42.5211944  16.3299698  50.3799717  42.2386866  16.8122166
  44.1047517  47.7316673  13.2024364  43.9067205  48.2207488  12.5080576
  43.4835228  47.9357915  13.7808498  43.9835081  47.8333212  13.1847587
  38.1655495  39.5001570   7.5434608  38.9097540  39.8875846   7.7817558
  38.3116191  38.6558995   7.7075096  38.2966080  39.4332043   7.6028578
  40.0835070  31.2951829  12.5766470  39.2371115  31.4674637  12.4507820
  40.0806203  30.4901173  12.9132298  39.9582220  31.2012858  12.6077597
  41.1533371  35.0727043  13.4428528  40.6793325  34.5468805  13.9533839
  41.5251507  34.5256516  12.8743389  41.1383260  34.9143040  13.4343675
  31.5306401  37.0698550  18.8112074  32.3932014  36.9694259  18.7249403
  31.1998184  36.4893259  18.2497646  31.6091597  36.9690177  18.7157479
  47.4170101  40.1329419  14.8535308  47.1768324  39.2935834  14.8577735
  47.8962108  40.2129586  15.5776082  47.4522285  40.0210819  14.9610111
  43.0816870  35.9663598   6.5054282  42.5539889  36.0492342   5.8159990
  43.5412579  36.7081469   6.5018926  43.0718721  36.0884260   6.4028977
  49.4175288  36.9130876  12.8064567  49.1785058  36.8726710  11.9685352
  49.5809190  37.7602028  12.9330289  49.4065592  37.0322961  12.7018049
  46.0221318  41.2980826  18.7369613  46.7455517  40.8453352  18.5580632
  45.7571281  41.5785491  17.9541940  46.0902592  41.2731794  18.5948328
  34.8908187  35.8940999  15.4722492  34.2661257  35.9059391  14.8648444
  34.5553782  36.3701174  16.1213732  34.7493679  35.9659516  15.4779060
  35.0749936  34.2366118   1.5295177  34.7262740  34.8885843   1.9926726
  34.5946381  34.2223231   0.8019048  34.9520179  34.3309171   1.4906268
  31.6033862  43.9541459  16.9126256  31.0733787  43.2633898  16.9621231
  31.8758956  43.9451645  16.0838965  31.5658585  43.8508591  16.7973672
  42.6353953  44.5367162   5.6363939  43.3588152  45.0025275   5.4928512
  42.1954544  44.6040771   4.8861536  42.6769645  44.6150998   5.5048720
  41.8040108  41.3964704  16.8864628  41.1897101  40.8522754  17.1813263
  42.3207393  40.8828940  16.4070444  41.7895770  41.2401113  16.8588856
  41.0436405  42.4668974  14.6208926  40.6164013  41.8418692  14.1874362
  41.0361349  42.1843896  15.4467933  40.9795546  42.3321754  14.6788754
  34.1598932  37.5034147  17.6897360  34.3192419  36.7477471  18.0949082
  33.9791826  38.0525086  18.3438098  34.1564291  37.4727961  17.8460066
  42.1019235  29.6695382  18.2448150  41.6059796  29.8659057  17.5539716
  42.8588297  30.0688051  18.0736951  42.1406060  29.7573116  18.1168286
  39.3722115  33.3437728  14.8351460  39.3964602  32.8097841  14.1464240
  39.6233588  32.8355037  15.4977051  39.4132033  33.1898632  14.8316105
  26.8829705  40.6269223  14.2694604  26.7773154  40.5816068  13.4046688
  26.1329925  40.9723004  14.5508889  26.7565308  40.6710132  14.1831934
  35.6523437  32.0708547  14.2157205  35.6921809  32.5717753  14.9291912
  34.8273102  32.1618940  13.9463128  35.5362963  32.1590363  14.2807743
  37.8353050  41.6369287  22.3177499  36.9848680  41.7741001  22.4535144
  37.9981178  40.9033065  22.7625201  37.7336913  41.5483388  22.4033098
  37.0737800  38.5869056  16.5131104  36.2429730  38.7542874  16.3066352
  37.0189318  38.2105007  17.2979989  36.9427215  38.5558788  16.5979632
  35.4473844  36.8624648   7.0421221  35.5876805  37.3597112   7.7449863
  35.9456377  36.1610942   7.1835435  35.5414925  36.8326627   7.1672800
  35.4774067  37.7291759   4.3713798  36.1119146  38.3252184   4.3063260
  35.5599677  37.4295217   5.1859668  35.5830618  37.7732667   4.4816885
  48.4556632  40.2607236  17.2400162  49.0474473  40.9004487  17.2718360
  48.8915627  39.5630273  17.5292229  48.6075064  40.2525587  17.2880995
  37.0553049  33.6605734   4.3459240  37.3768891  33.1808817   3.6918502
  37.3179993  34.4705380   4.1550052  37.1419075  33.7095632   4.2214732
  40.2850022  44.6824609  17.8658056  39.7775113  45.2360456  18.3098687
  39.9876668  44.7432899  17.0476831  40.1654907  44.7730920  17.8106513
  42.4512204  33.0477928  16.7082719  42.8767276  32.5950455  16.0966246
  41.8369198  32.4937999  16.9847507  42.4240850  32.8991905  16.6587744
  31.9827055  39.9259600   7.6403344  32.4919284  40.5224107   8.0214650
  32.4561327  39.6585573   6.9579764  32.1270430  39.9745415   7.5957867
  42.8957803  48.5987866   5.7962000  42.1787112  48.4248729   5.3309237
  43.5464540  48.3640439   5.2637486  42.8859653  48.5383659   5.6491218
  40.8906427  29.5193028  10.1173296  40.2474745  29.3690675  10.6858435
  40.5505834  29.2735373   9.3522401  40.7451505  29.4605151  10.0876311
  45.4805774  37.4752455   9.5403305  44.8096964  38.0182157   9.4116370
  46.1745524  37.9447310   9.2985000  45.4834641  37.6250726   9.4858833
  39.5292508  49.6149167  14.7715063  39.3058162  48.8567996  15.1399089
  39.0402351  49.6447188  14.0495503  39.4235957  49.5071392  14.7191804
  45.6433901  33.9308339  12.4493678  45.9961511  33.5038062  13.1239477
  44.7848703  33.8459182  12.5794754  45.5683346  33.8553079  12.5688688
  34.3417586  36.5615858  10.5076525  33.6229575  36.9779991  10.7749388
  34.7129949  37.1270097   9.9568163  34.2909518  36.7065140  10.4659332
  43.6417167  37.1943707  16.3978520  43.6215094  37.0127002  17.2513299
  43.6896368  38.0655726  16.3738104  43.6451808  37.2960246  16.5201815
  41.5863497  43.7830899  22.3226997  41.5459352  43.1380576  21.7372153
  42.3986815  43.7267517  22.6352409  41.7006650  43.6789866  22.2823946
  38.1770964  49.8349625  12.2252148  37.7631363  49.1723755  11.8355989
  38.8618339  49.9827484  11.7047842  38.2169336  49.7590283  12.0908645
  41.5436259  48.9939710  12.9775764  41.1452542  49.1041981  12.2096585
  40.9287478  49.2021777  13.5602324  41.3935148  49.0413278  12.9507064
  40.1164161  35.6013858   5.8449904  39.5229000  35.9230855   5.2934471
  40.1539438  34.7554954   5.6371010  40.0338550  35.5238186   5.7332675
  47.0757961  29.0526750  13.3777991  46.5688826  28.3455890  13.3099168
  47.8725395  28.7219939  13.5079067  47.1185201  28.8999902  13.3876985
  42.9921977  35.5593363   9.2751654  42.7635670  35.5826064   8.4330012
  43.2520053  34.7350830   9.3946665  42.9968165  35.4409443   9.1676852
  37.2741206  37.4127836  18.8776754  36.7620109  36.8049019  19.2361786
  37.1020702  38.1284428  19.3450730  37.1730843  37.4291135  18.9992978
  36.0466740  34.0969909  10.5705850  36.5224106  34.4586989   9.9356031
  35.5455339  34.7526377  10.8505993  36.0432099  34.2464098  10.5182591
  49.2778101  43.5691677   6.3618855  49.6611707  44.3183033   6.5916952
  48.4822215  43.8157497   6.1030844  49.2171883  43.7161371   6.3576429
  41.1510276  35.3352080  21.3179010  41.7081706  35.1065890  20.6857475
  40.8271341  36.0957746  21.0414222  41.1856686  35.4135917  21.1835507
  29.0208985  38.7612277  16.7867606  28.4735704  38.0912922  16.9048474
  29.8101363  38.3942125  16.8511073  29.0561169  38.6077263  16.8136307
  38.8693393  38.4219734  22.2831017  39.6204720  38.7371411  22.5970571
  39.0615970  38.2198905  21.4564939  39.0084807  38.4387116  22.2074413
  38.0893393  36.2411109   3.9379234  38.4692358  36.2590738   3.1530349
  37.3485989  36.6865098   3.8170081  38.0362231  36.3092883   3.8042802
  45.7178683  34.5493300   9.5254813  45.7172910  34.3941957  10.3839089
  45.5134863  35.3956287   9.4696198  45.6878461  34.6513921   9.6442752
  27.7795954  37.9733084  13.9413629  27.6017715  37.5209693  14.6668545
  27.4914976  38.7759246  14.1252107  27.7108907  38.0255642  14.0757132
  43.4419535  39.2290802  13.1791019  43.9373201  38.5113797  13.1395040
  42.6319311  38.9261600  13.0645506  43.3963429  39.0788448  13.1564745
  38.8878147  43.0788615   5.3288024  38.0789470  42.7555289   5.2821333
  39.3953056  42.3721837   5.2616273  38.8427814  42.9269931   5.3118318
  29.5168424  40.5060808  11.0535388  28.6513944  40.4946499  10.9418159
  29.6167240  40.3191031  11.9006527  29.4042591  40.4766869  11.1624333
  45.5071354  41.9794489  15.8668148  45.9326426  41.4568911  15.3138573
  45.1428274  42.5775327  15.3456771  45.5157957  41.9904716  15.7077158
  35.1425434  50.2758707  14.6265494  35.4571993  51.0895095  14.6343275
  35.5518847  49.8908926  15.2947653  35.2493532  50.3387409  14.7269585
  42.0949954  45.6928754  12.1969306  42.5661132  46.4069016  12.3659291
  42.4310132  45.0927504  12.7329175  42.2145069  45.7100218  12.3001682
  39.0119449  30.4656224  19.1527400  39.1447354  29.6687218  19.4808376
  39.3964601  30.9922627  19.7325676  39.0875778  30.4256141  19.2870903
  42.7323900  45.4846688  18.9596998  42.1844846  44.8604571  18.6917064
  43.1936929  45.6740960  18.2441078  42.7191110  45.4205738  18.8147429
  42.0851804  27.3886550  15.7508494  41.2797768  27.2784280  16.0676332
  41.9558539  27.4899006  14.8938360  41.9471937  27.3870220  15.6716534
  45.5417764  33.5532042  16.3448191  44.9580753  34.0541249  15.9325758
  45.8622058  33.0461598  15.7112514  45.5030940  33.5523877  16.1906698
  38.0812564  32.4672637   6.6206865  38.9028258  32.6370950   6.3788560
  37.6182214  32.6219898   5.8973163  38.1343726  32.5154370   6.4778510
  36.6707895  30.4615399  17.4005294  37.2152308  30.1206526  17.9909636
  36.7244831  31.3200861  17.5426579  36.7597015  30.5370659  17.5087168
  32.4838454  44.2231815  14.2744102  33.0883312  44.1827649  13.6457923
  32.2765767  45.0702967  14.3048158  32.5427352  44.3419818  14.1860219
  42.2982226  46.4897760  15.4906340  43.1180600  46.3460726  15.7522635
  42.0176304  47.1143959  16.0322777  42.3778970  46.5608112  15.6094279
  27.7189737  43.2066433  14.1443025  27.6214015  42.3962704  14.4533082
  28.5018606  43.1858226  13.7589293  27.8205873  43.0833523  14.1329888
  58.7695877  54.1462612   8.4549216  58.7389881  55.0007249   8.6267485
  59.3677225  53.8457905   9.0135359  58.8533035  54.2279109   8.5624018
  51.9695562  53.2338263  13.2102146  51.1133457  53.3946761  13.2611263
  52.0163215  52.3630327  13.2307207  51.8494673  53.1289065  13.2208212
  46.3536701  62.7700981   8.9739378  45.6019601  62.3916519   8.7455423
  46.8022713  62.8019415   8.2258188  46.3086368  62.7186588   8.8296880
  55.2789278  59.5024789  22.8162602  55.9856045  59.0076820  22.9449537
  55.4677214  59.9433870  22.0865260  55.4117184  59.4943139  22.7271648
  54.8147383  55.2930307  15.8533798  55.3603343  55.9715394  15.9127768
  54.7564259  55.1517768  14.9935379  54.8863297  55.3722309  15.7345859
  47.9321457  62.7819373  11.2402150  48.0331820  61.9719727  11.5499278
  47.3363203  62.6876320  10.6101829  47.8593996  62.6484401  11.1928389
  47.7722197  67.6996962  12.6417006  48.4159653  68.1410126  13.0313165
  48.0978453  66.8950389  12.5547265  47.9154026  67.6462157  12.6862484
  41.1286502  58.8039660  10.8654484  40.8936686  57.9707312  10.7586753
  41.2672142  59.0844325  10.0515685  41.1142164  58.7223163  10.7296839
  43.4276589  50.9725390  13.7638792  42.8081621  50.3818038  13.5948807
  43.3260453  51.5636826  13.1303115  43.3214265  50.9729473  13.6443781
  50.5244485  52.7124932   8.0971255  51.2224650  52.8913060   8.5892718
  50.8396817  52.1895272   7.4741644  50.6739822  52.6618704   8.0773265
  43.1545722  54.5177672  16.0082361  43.0304419  55.1040118  16.6432180
  43.8064007  54.0237868  16.3094636  43.2319372  54.5316477  16.1468290
  50.7132420  59.0995377   8.0851046  51.1526056  58.4912478   8.5305819
  50.5637083  58.7202751   7.3136511  50.7553886  58.9533848   8.0370214
  48.1804063  57.6939389  15.2869872  48.8253066  57.2011832  14.9680820
  48.4205840  57.8364176  16.1135950  48.3114648  57.6416831  15.3619405
  50.7190155  60.5394295  14.9376764  51.0013397  59.7445701  14.7163520
  51.4476315  61.0174882  14.9581825  50.8679718  60.4928892  14.9079780
  48.6971348  48.0817329  12.1792529  48.3674678  48.5328472  11.5096228
  48.0216350  48.0033492  12.7265536  48.5481785  48.1368464  12.1615753
  55.9047756  44.0702852  10.4242140  55.5901197  44.7606330  10.8562562
  55.3874698  44.0147634   9.7227641  55.7812227  44.1637740  10.3839089
  60.7008243  59.6453657  11.9112595  59.8705946  59.8564301  12.0746012
  60.6517495  58.8190712  11.6354879  60.5714978  59.5543263  11.8949961
  42.6903826  63.6825331  12.1410690  42.2071405  64.4075820  12.1170274
  43.5027145  63.9801461  12.2520848  42.7394574  63.8327684  12.1537969
  48.7617980  62.4757511  14.7460505  48.2444922  62.1164926  14.1421813
  49.4592372  61.9519686  14.7566571  48.7883562  62.3455199  14.6590763
  52.4181572  62.9252325  20.7076678  52.5064918  62.7378466  21.5554888
  52.8471285  62.2789755  20.3081524  52.4943675  62.8015333  20.7748429
  49.9852032  62.2083485  19.6894340  49.4222867  61.7956095  20.2134001
  50.7473056  62.1336391  20.1087483  50.0146481  62.1360886  19.8287340
  46.9027302  46.1429617   7.6615477  47.6573271  46.5107934   7.4232527
  46.7254837  46.5169172   8.4294657  46.9881781  46.2527805   7.7400366
  45.5448024  64.1981506  12.2930970  46.2468603  63.6833496  12.3503727
  45.4645507  64.5255658  13.0977845  45.6371784  64.1695733  12.4203762
  60.1962201  52.2924058  15.7063017  59.3590622  52.3626245  15.9410611
  60.1650432  52.2948553  14.8337319  60.0680484  52.3034285  15.6122564
  45.2584367  48.5499936   4.3593590  45.0759940  48.7671817   3.5334583
  46.1209980  48.6638949   4.4152205  45.3588957  48.5989834   4.2448077
  44.8698799  60.3887858  11.8016578  45.7087699  60.6210791  11.8490340
  44.9010568  59.5192170  11.7323613  44.9980517  60.2944805  11.7981223
  45.4951502  60.8088734  16.1029884  46.0349727  60.6659865  16.7733256
  44.8121448  61.2085484  16.4713910  45.4743656  60.8468405  16.2564305
  50.9384086  45.5526347   7.3942614  51.6670247  45.3742302   6.9480770
  51.0278979  46.3944427   7.6049792  51.0590748  45.6510225   7.3596132
  54.9192387  56.4879734  11.2974908  55.6749902  56.9211249  11.3363817
  55.0254711  55.8384504  11.8709544  55.0462558  56.4557218  11.3872934
  57.9572558  60.3153012  12.0477311  57.5207790  60.3189754  12.8036282
  57.6235474  60.9958511  11.6156888  57.8435178  60.4165467  12.0958143
  52.5301632  62.3561344  23.3720461  53.3142048  62.4692192  23.7376203
  52.3298226  61.5302481  23.5679147  52.6167657  62.2508064  23.4554847
  40.8988647  57.0289024  16.2564305  40.6327062  56.2128141  16.4155295
  40.9127211  57.0742180  15.3859821  40.8613370  56.9145929  16.1517787
  57.8770041  47.3566839  14.2906739  58.5195949  47.4264944  14.8768654
  58.1293062  46.6896062  13.7886281  58.0092173  47.2693188  14.3034018
  44.8046394  51.8274109   2.8716063  44.0904571  51.5412288   3.2838496
  45.2890363  52.1670735   3.5122451  44.7705757  51.8355759   3.0271698
  52.6872025  64.2671446  17.0186917  51.8887271  64.0270946  17.2760785
  53.1358037  64.3185839  17.7653965  52.6346636  64.2393838  17.1671841
  61.0916904  57.0333931  10.9396948  61.7533338  56.4724600  10.8392857
  60.4508316  56.5385962  11.2649639  61.0945772  56.8770340  10.9729288
  41.3082061  57.8147804  13.5376049  41.1257634  57.7894690  12.6848342
  42.0431730  58.2846742  13.5764958  41.3896125  57.8809166  13.4173968
  57.3781735  58.0499314  10.6808937  57.6137324  58.1944513   9.8535788
  57.5271299  58.8141722  11.0740451  57.4347538  58.1838368  10.6172541
  54.4204081  54.7365882   9.2002121  54.5150935  55.4755177   9.6541746
  53.7962924  54.3083358   9.6336685  54.3413111  54.7827203   9.3310268
  52.6756555  57.9152095  19.8492402  53.2495416  57.2779339  20.0040966
  52.5971358  57.9156177  18.9802059  52.7489790  57.8217206  19.7438813
  41.2752971  54.6941305  13.6875116  41.8526474  54.5577755  14.3267361
  40.5767033  54.2377089  13.9420700  41.2573993  54.6063571  13.8197406
  48.0320273  56.3475360  11.9013599  47.7739518  55.5147095  11.8744899
  48.0868756  56.5732973  11.0606100  48.0020051  56.2573131  11.7733736
  53.1121324  48.4503811  12.0017692  52.4077650  47.9612996  12.1601611
  53.1606298  48.4626285  11.1306136  53.0151375  48.3793459  11.8957032
  47.0054986  53.9013123  12.3878494  46.4304577  54.0605291  13.0242455
  46.6290662  53.2648532  11.9246945  46.8657798  53.8310936  12.4133052
  60.3151543  52.1311477  10.0218702  60.0588108  51.3191418   9.8316585
  61.1580857  52.1389044   9.7948890  60.4017569  52.0123474   9.9603520
  36.7511804  53.5453197  10.4022935  36.8372056  53.1685066  11.1836465
  37.3787602  53.1713643   9.9242893  36.8568355  53.4338680  10.4468412
  54.4954636  46.0711101  14.7594857  54.8765147  45.3889272  15.1462731
  53.6917920  45.7820703  14.5770521  54.4331097  45.9278149  14.7898913
  57.9976703  59.2861073  19.8577255  57.7615340  58.4549137  19.7389316
  58.6419932  59.2346680  20.4432099  58.0571373  59.1558761  19.9263149
  47.6475121  60.0756594  10.5719991  48.2849068  59.8368342  11.1171785
  48.0730192  60.2793753   9.8373152  47.8051287  60.0707604  10.5437149
  42.3387763  62.3144930  14.4554295  42.3791908  62.5859782  13.6274075
  42.8982287  62.8386839  14.8712083  42.4271109  62.4320686  14.3946183
  48.2877936  55.2958884   4.9094881  48.6723088  55.0766590   5.6611426
  48.0389556  56.1221829   5.0395957  48.3080008  55.3857030   5.0395957
  59.0213123  59.0705521  15.9205549  58.7158940  59.8033578  16.2818865
  58.3019339  58.6643451  15.6398336  58.8700466  59.1187254  15.9318687
  50.0296593  60.5529017  12.2513778  50.1035601  60.3904188  13.1055628
  50.8466099  60.7419206  12.0074259  50.1612951  60.5565759  12.3411803
  64.7214915  55.7098522  15.2473894  64.6539416  55.7294481  14.3776480
  64.7070578  56.5528849  15.4729564  64.7093672  55.8372257  15.1526371
  43.7902349  60.8986879   9.2808221  42.9640467  61.1448617   9.1542500
  43.8514341  60.8198960  10.1470279  43.6776516  60.9231828   9.3897166
  46.0078373  46.9655820  10.2403661  45.1400799  47.0378420  10.3061271
  46.2953577  47.7677899  10.4291636  45.9218121  47.0949968  10.2778428
  55.1311262  47.1133680  18.5714983  55.8764854  46.9243490  18.1578409
  54.7148566  47.6391918  18.0128840  55.1796236  47.1635825  18.4279556
  62.5073533  54.4842908  13.5220488  63.0581454  53.8510977  13.7617580
  62.4917648  55.0158301  14.2135992  62.5858729  54.4691856  13.6599346
  49.1595924  58.3181506  18.0680382  48.6607617  59.0297273  18.1465270
  49.9696148  58.6382172  18.0298544  49.2052030  58.4708354  18.0736950
  46.5107094  65.4931142  10.0487401  46.2907389  65.2028497  10.8414068
  46.2901616  64.8346097   9.5205313  46.4454688  65.3530850  10.0876310
  45.4224041  57.5804459  12.3143102  45.1337290  56.9541930  12.8488830
  46.2907389  57.5224746  12.3807783  45.5084293  57.4792003  12.4034057
  56.2101939  52.7239242  12.6325084  55.8666705  52.0029577  12.9832334
  56.3094981  52.5153093  11.7903443  56.1743982  52.5863445  12.5596764
  45.6256314  59.2199710   8.2385468  46.3802282  59.6012749   8.4520930
  45.0326927  59.6710853   8.6932164  45.6493028  59.3428537   8.3368346
  46.9454541  60.3908271  13.6125583  46.4235295  60.5308563  14.2977448
  47.3328561  59.6318935  13.8027700  46.9258242  60.2993795  13.7426659
  43.9345725  50.4414080   7.6820538  43.6470521  50.0715350   6.9452485
  44.6216193  50.9108935   7.4204243  43.9934622  50.4561049   7.5335613
  48.3720867  57.4212290   9.0107074  48.1763649  58.0287025   8.4167377
  48.5955212  56.7280234   8.5298748  48.3755508  57.4089816   8.8523155
  46.7699397  54.3067028   9.1287942  47.4922049  54.4708186   8.6691748
  46.2907390  55.0276693   9.0227282  46.8063127  54.4365258   9.0453556
  54.7292904  50.6430827  14.5084627  53.8904005  50.6692106  14.2722891
  54.7997272  51.2901562  15.0889974  54.6161298  50.7426953  14.5593744
  53.1762183  47.5416204   9.2412243  53.8788535  47.3423952   8.7632201
  52.9106371  46.7692146   9.5481087  53.2408815  47.3979170   9.2157685
  58.6050428  55.8498814  11.7945869  58.5184403  56.0054240  12.6480648
  58.1500908  56.4936889  11.4205274  58.5253685  55.9674569  11.8652976
  41.5073920  51.2195292   8.5305819  41.6090056  52.0221454   8.8586794
  42.3029806  51.0182628   8.2328899  41.6401825  51.3081191   8.5341174
  42.3237652  51.3342470  16.2726940  42.1823144  50.4826411  16.3971448
  42.6078215  51.3771131  15.4489146  42.3445498  51.2142220  16.1694564
  52.4776244  53.1709561  10.4171428  52.2310959  53.0905312  11.2508217
  52.8061367  52.3863028  10.2233956  52.4897488  53.0435826  10.5118952
  56.3724293  59.8792920  14.2058210  56.2338652  60.5773966  14.7106952
  55.5924291  59.7241576  13.8494392  56.2367520  59.9593087  14.2284484
  54.7102378  56.1789295  20.4580591  54.7050417  55.3069112  20.4623018
  55.4163372  56.3777464  19.9850047  54.8147382  56.0793169  20.3887627
  50.6093189  55.1056448  17.6119543  49.8616503  55.2987462  17.2067821
  50.7634714  54.2801667  17.3743664  50.5215616  55.0121559  17.5164949
  47.5101026  64.0969051  16.6955438  47.6590590  63.5371967  16.0428843
  48.2901029  64.1761053  17.0787957  47.6475120  64.0254616  16.6552388
  50.0354327  64.2683694  17.9739929  49.9597998  63.5992504  18.5290717
  49.9644186  64.9701482  18.4880595  50.0134934  64.2728601  18.1316777
  50.8494966  49.0006998  18.5014947  51.3067580  49.7330973  18.6287739
  50.9251295  48.5773464  19.2602203  50.9285936  49.0464236  18.6316023
  55.3222292  42.1796873  12.3708790  55.4405860  42.6373337  11.6376093
  55.1484468  41.3742135  12.0845007  55.3141463  42.1290646  12.2209723
  48.7277344  50.9909102  15.3456771  47.9373419  50.8100562  15.6674107
  49.1237967  50.2136055  15.3287065  48.6694220  50.8496563  15.3909319
  54.1121030  58.6251532  13.0716217  53.4366032  58.3936765  13.5729604
  54.1213406  58.0172715  12.4458322  54.0139535  58.5010458  13.0532369
  51.2415174  53.4669361  19.8280270  51.1774315  54.3279318  19.7000407
  51.3812362  53.1501355  19.0275821  51.2530644  53.5469528  19.6908483
  49.9234268  56.1601501  13.9696473  49.4996517  56.3606000  13.2335491
  49.7479123  55.3130349  14.0820773  49.8345149  56.0650282  13.8770163
  49.4245961  67.6752014  16.4317930  49.9141892  66.9762803  16.2493595
  48.8530194  67.3775884  17.0193987  49.4130491  67.5278237  16.4918971
  45.2116713  56.6553552   9.4024445  45.3681332  56.5900355  10.2580437
  45.5517306  57.4302105   9.1903125  45.2849948  56.7602750   9.4979039
  51.7495858  56.0311436   8.2717808  52.2911403  55.5281817   8.7356429
  52.0642417  55.9776630   7.4607294  51.8760255  55.9490857   8.2201621
  55.6212965  60.2414083  25.3844721  56.4347830  59.9699232  25.5449853
  55.4607931  59.9421623  24.5804917  55.7182913  60.1569009  25.2890127
  52.8985127  50.9247740  18.3240109  53.1127096  50.2858654  17.7703463
  52.2819026  51.3693564  17.8947971  52.8390456  50.8957884  18.1790540
  41.7850974  53.8388503   9.7185212  42.1649939  54.2573048   9.0545480
  41.2106339  54.4201958  10.0254056  41.7562299  53.9866361   9.6661953
  55.0624215  52.5336805  19.2623416  54.2500897  52.2262696  19.3436589
  55.5214150  52.0535806  19.8266128  55.0104600  52.4173298  19.3578010
  52.2899856  44.0347676  13.3127452  51.4193414  44.0086397  13.2660761
  52.5440197  43.8624868  12.4953297  52.1993416  44.0057820  13.1847588
  49.3148996  46.0453904  14.7700922  48.7987485  45.3534096  14.8952501
  48.7542925  46.7124681  14.7163521  49.1555509  46.0417162  14.7806988
  51.3841230  46.5846864  16.5993775  50.9972983  46.6095896  17.3807305
  50.8974167  46.0188543  16.1468291  51.2553738  46.5042615  16.6481678
  55.6334209  61.3020373  20.6567561  56.2713929  60.8080569  20.3230017
  54.9908301  61.2297774  20.0719788  55.6328435  61.2179382  20.5209916
  57.3591209  53.1509519  15.2233477  56.9318817  53.0635868  14.4681576
  56.7217262  53.2587295  15.8088321  57.2020816  53.1542179  15.1978918
  51.0498371  43.4713850  18.8904035  51.6791489  44.0074150  18.6125105
  51.2184234  43.3791209  19.7417600  51.1676166  43.5375212  18.9752563
  55.6888466  61.9940182  17.2972918  56.4780844  61.6429246  17.4175000
  55.8632063  62.8076570  17.0349552  55.8308747  62.0626039  17.2760786
  45.4281776  55.4048907  14.3500707  44.5869783  55.3052782  14.5579601
  45.6371784  56.1744388  14.7015028  45.3346469  55.5040951  14.4328022
  42.9057343  53.0268444  12.1785458  42.5114041  53.1011456  11.4035567
  42.3497460  53.4126391  12.7293819  42.7660155  53.0950219  12.1453117
  54.5422290  46.0049738  11.8589336  54.7471883  45.9372046  12.7046334
  54.2148714  46.8108560  11.7910514  54.5237538  46.1135679  11.9748992
  49.2398441  53.3330307  13.5998304  48.9361578  52.7786295  14.2008712
  48.5377862  53.5122516  13.1126339  49.0914651  53.2775089  13.6168010
  48.2964538  50.6430826   8.1643006  48.5724272  49.9249739   7.7520574
  48.8963207  51.2415746   7.9564112  48.4257803  50.6251197   8.0723767
  47.3016792  60.5480027  18.3070402  47.1937147  60.5582089  19.1732460
  47.5112573  61.3734808  18.1175356  47.3166903  60.6721102  18.4074494
  57.7955977  46.5581503  11.3392102  57.1830291  47.0451905  11.7245834
  57.8920152  45.8824993  11.8829753  57.7193875  46.5299811  11.4770960
  51.7975058  48.3144344   6.4389601  52.2518805  48.4854904   7.1637446
  52.2715104  47.7012454   6.0387377  51.9343379  48.2495229   6.4863363
  45.3190584  57.7992670  15.7692340  44.7278517  58.4402168  15.7395355
  46.0811607  58.2230287  15.7423639  45.3438844  57.9568508  15.7607487
  45.7151207  48.9594667  16.4360357  46.1752688  49.0333597  17.1735481
  45.7607313  49.7575921  16.0860179  45.7901762  49.0888814  16.4933114
  61.4381005  57.6298439  16.7669618  61.4964129  58.0785088  17.5129595
  60.8047473  58.0397252  16.3299698  61.3532301  57.7572174  16.8122166
  55.0780100  63.2501981  13.2024364  54.8799789  63.7392796  12.5080576
  54.4567811  63.4543223  13.7808498  54.9567665  63.3518519  13.1847587
  49.1388078  55.0186878   7.5434608  49.8830123  55.4061154   7.7817558
  49.2848775  54.1744303   7.7075096  49.2698664  54.9517351   7.6028578
  51.0567654  46.8137137  12.5766470  50.2103699  46.9859945  12.4507820
  51.0538786  46.0086481  12.9132298  50.9314804  46.7198166  12.6077597
  52.1265954  50.5912351  13.4428528  51.6525909  50.0654113  13.9533839
  52.4984090  50.0441824  12.8743389  52.1115843  50.4328348  13.4343675
  58.3902685  55.6514727  14.8535308  58.1500908  54.8121142  14.8577735
  58.8694692  55.7314894  15.5776082  58.4254869  55.5396127  14.9610111
  54.0549454  51.4848906   6.5054282  53.5272473  51.5677650   5.8159990
  54.5145162  52.2266777   6.5018926  54.0451304  51.6069568   6.4028977
  60.3907872  52.4316184  12.8064567  60.1517642  52.3912018  11.9685352
  60.5541773  53.2787336  12.9330289  60.3798175  52.5508269  12.7018049
  56.9953902  56.8166133  18.7369613  57.7188101  56.3638660  18.5580632
  56.7303864  57.0970799  17.9541940  57.0635175  56.7917102  18.5948328
  45.8640770  51.4126307  15.4722492  45.2393841  51.4244699  14.8648444
  45.5286365  51.8886482  16.1213732  45.7226262  51.4844824  15.4779060
  46.0482519  49.7551426   1.5295177  45.6995323  50.4071151   1.9926726
  45.5678965  49.7408539   0.8019048  45.9252763  49.8494479   1.4906268
  42.5766446  59.4726767  16.9126256  42.0466370  58.7819206  16.9621231
  42.8491539  59.4636952  16.0838965  42.5391168  59.3693899  16.7973672
  52.7772692  56.9150012  16.8864628  52.1629685  56.3708062  17.1813263
  53.2939976  56.4014248  16.4070444  52.7628354  56.7586421  16.8588856
  52.0168989  57.9854282  14.6208926  51.5896597  57.3604000  14.1874362
  52.0093933  57.7029204  15.4467933  51.9528130  57.8507062  14.6788754
  45.1331516  53.0219455  17.6897360  45.2925003  52.2662779  18.0949082
  44.9524409  53.5710394  18.3438098  45.1296875  52.9913269  17.8460066
  53.0751819  45.1880690  18.2448150  52.5792380  45.3844365  17.5539716
  53.8320881  45.5873359  18.0736951  53.1138643  45.2758424  18.1168286
  50.3454698  48.8623036  14.8351460  50.3697186  48.3283149  14.1464240
  50.5966172  48.3540345  15.4977051  50.3864617  48.7083940  14.8316105
  46.6256021  47.5893855  14.2157205  46.6654392  48.0903061  14.9291912
  45.8005685  47.6804248  13.9463128  46.5095547  47.6775671  14.2807743
  48.0470384  54.1054364  16.5131104  47.2162314  54.2728182  16.3066352
  47.9921901  53.7290315  17.2979989  47.9159799  54.0744096  16.5979632
  46.4206428  52.3809956   7.0421221  46.5609389  52.8782420   7.7449863
  46.9188961  51.6796250   7.1835435  46.5147509  52.3511935   7.1672800
  46.4506650  53.2477067   4.3713798  47.0851730  53.8437492   4.3063260
  46.5332261  52.9480525   5.1859668  46.5563201  53.2917975   4.4816885
  59.4289216  55.7792544  17.2400162  60.0207056  56.4189795  17.2718360
  59.8648210  55.0815581  17.5292229  59.5807647  55.7710895  17.2880995
  48.0285633  49.1791042   4.3459240  48.3501474  48.6994125   3.6918502
  48.2912577  49.9890688   4.1550052  48.1151658  49.2280940   4.2214732
  51.2582606  60.2009917  17.8658056  50.7507697  60.7545764  18.3098687
  50.9609252  60.2618207  17.0476831  51.1387491  60.2916228  17.8106513
  53.4244788  48.5663236  16.7082719  53.8499860  48.1135763  16.0966246
  52.8101781  48.0123307  16.9847507  53.3973433  48.4177213  16.6587744
  42.9559638  55.4444908   7.6403344  43.4651867  56.0409415   8.0214650
  43.4293910  55.1770881   6.9579764  43.1003014  55.4930723   7.5957867
  51.8639011  45.0378336  10.1173296  51.2207329  44.8875982  10.6858435
  51.5238418  44.7920681   9.3522401  51.7184088  44.9790459  10.0876311
  56.4538357  52.9937763   9.5403305  55.7829547  53.5367465   9.4116370
  57.1478108  53.4632618   9.2985000  56.4567225  53.1436034   9.4858833
  50.5025091  65.1334475  14.7715063  50.2790746  64.3753304  15.1399089
  50.0134934  65.1632496  14.0495503  50.3968540  65.0256699  14.7191804
  56.6166485  49.4493647  12.4493678  56.9694095  49.0223370  13.1239477
  55.7581286  49.3644490  12.5794754  56.5415929  49.3738387  12.5688688
  45.3150170  52.0801166  10.5076525  44.5962159  52.4965299  10.7749388
  45.6862532  52.6455405   9.9568163  45.2642102  52.2250448  10.4659332
  54.6149751  52.7129015  16.3978520  54.5947678  52.5312310  17.2513299
  54.6628951  53.5841034  16.3738104  54.6184392  52.8145553  16.5201815
  52.5596080  59.3016207  22.3226997  52.5191935  58.6565884  21.7372153
  53.3719399  59.2452825  22.6352409  52.6739234  59.1975174  22.2823946
  49.1503548  65.3534933  12.2252148  48.7363947  64.6909063  11.8355989
  49.8350922  65.5012792  11.7047842  49.1901920  65.2775591  12.0908645
  52.5168842  64.5125018  12.9775764  52.1185125  64.6227289  12.2096585
  51.9020062  64.7207085  13.5602324  52.3667731  64.5598586  12.9507064
  51.0896744  51.1199166   5.8449904  50.4961583  51.4416163   5.2934471
  51.1272022  50.2740262   5.6371010  51.0071133  51.0423494   5.7332675
  58.0490545  44.5712058  13.3777991  57.5421410  43.8641198  13.3099168
  58.8457979  44.2405247  13.5079067  58.0917784  44.4185210  13.3876985
  53.9654561  51.0778671   9.2751654  53.7368254  51.1011372   8.4330012
  54.2252637  50.2536138   9.3946665  53.9700749  50.9594751   9.1676852
  47.0199323  49.6155217  10.5705850  47.4956690  49.9772297   9.9356031
  46.5187923  50.2711685  10.8505993  47.0164682  49.7649406  10.5182591
  52.1242860  50.8537388  21.3179010  52.6814290  50.6251198  20.6857475
  51.8003925  51.6143054  21.0414222  52.1589270  50.9321225  21.1835507
  49.0625976  51.7596417   3.9379234  49.4424941  51.7776046   3.1530349
  48.3218572  52.2050406   3.8170081  49.0094814  51.8278191   3.8042802
  56.6911267  50.0678608   9.5254813  56.6905493  49.9127265  10.3839089
  56.4867447  50.9141595   9.4696198  56.6611045  50.1699229   9.6442752
  38.7528538  53.4918392  13.9413629  38.5750299  53.0395001  14.6668545
  38.4647560  54.2944554  14.1252107  38.6841491  53.5440950  14.0757132
  54.4152119  54.7476110  13.1791019  54.9105784  54.0299105  13.1395040
  53.6051895  54.4446907  13.0645506  54.3696012  54.5973756  13.1564745
  40.4901008  56.0246116  11.0535388  39.6246527  56.0131807  10.9418159
  40.5899824  55.8376339  11.9006527  40.3775175  55.9952177  11.1624333
  56.4803938  57.4979797  15.8668148  56.9059009  56.9754219  15.3138573
  56.1160858  58.0960635  15.3456771  56.4890540  57.5090024  15.7077158
  46.1158018  65.7944015  14.6265494  46.4304577  66.6080403  14.6343275
  46.5251431  65.4094233  15.2947653  46.2226116  65.8572717  14.7269585
  53.0682537  61.2114062  12.1969306  53.5393715  61.9254324  12.3659291
  53.4042716  60.6112812  12.7329175  53.1877652  61.2285526  12.3001682
  55.1559522  62.8215375  24.3761378  55.2656487  62.0323935  24.7318125
  55.4850419  62.7321311  23.5735716  55.2211928  62.6921228  24.3103768
  49.9852032  45.9841532  19.1527400  50.1179938  45.1872526  19.4808376
  50.3697185  46.5107935  19.7325676  50.0608361  45.9441449  19.2870903
  53.7056484  61.0031996  18.9596998  53.1577430  60.3789879  18.6917064
  54.1669512  61.1926268  18.2441078  53.6923693  60.9391046  18.8147429
  53.0584387  42.9071858  15.7508494  52.2530351  42.7969588  16.0676332
  52.9291123  43.0084314  14.8938360  52.9204520  42.9055528  15.6716534
  56.5150348  49.0717350  16.3448191  55.9313337  49.5726557  15.9325758
  56.8354642  48.5646906  15.7112514  56.4763523  49.0709185  16.1906698
  49.0545147  47.9857945   6.6206865  49.8760841  48.1556258   6.3788560
  48.5914798  48.1405206   5.8973163  49.1076309  48.0339678   6.4778510
  47.6440479  45.9800707  17.4005294  48.1884892  45.6391834  17.9909636
  47.6977415  46.8386169  17.5426579  47.7329598  46.0555967  17.5087168
  43.4571038  59.7417123  14.2744102  44.0615895  59.7012957  13.6457923
  43.2498350  60.5888275  14.3048158  43.5159935  59.8605126  14.1860219
  53.2714810  62.0083068  15.4906340  54.0913184  61.8646034  15.7522635
  52.9908888  62.6329267  16.0322777  53.3511553  62.0793420  15.6094279
  38.6922320  58.7251741  14.1443025  38.5946598  57.9148012  14.4533082
  39.4751190  58.7043534  13.7589293  38.7938457  58.6018831  14.1329888
  54.1278306  70.0362980  16.0082361  54.0037003  70.6225425  16.6432180
  54.7796590  69.5423176  16.3094636  54.2051955  70.0501784  16.1468290
  57.5659514  69.9542401  21.4211385  57.7380018  69.8448296  22.2696667
  58.1028871  70.5996807  21.1842577  57.6704518  70.0334403  21.5116482
  56.6219837  66.0852711  18.9031313  55.9291634  65.6149690  19.1492044
  57.2380164  65.8591015  19.4773020  56.6104367  65.9819842  19.0240465
  55.3460396  70.0518115  20.0458158  56.0700368  70.0371145  20.5323053
  55.4476533  70.7613470  19.5480126  55.4678605  70.1542818  20.0436945
  62.7205346  73.5317199  24.9107105  61.9278326  73.8460711  25.0959725
  62.8354273  73.7468668  24.0727890  62.6200756  73.6101036  24.8145440
  61.6460858  67.8921780  17.2470872  61.2575290  67.4675998  16.5923064
  60.9815556  68.1403930  17.7547899  61.4907786  67.8660501  17.2258740
  59.4279060  64.0950607  24.6257465  59.1132501  64.8650170  24.3627028
  59.1068992  63.5320863  24.0409692  59.3337979  64.1260876  24.4998815
  66.1043845  62.6318988  18.5714983  66.8497437  62.4428798  18.1578409
  65.6881150  63.1577226  18.0128840  66.1528820  62.6821133  18.4279556
  59.0595565  66.6947858  23.3642680  58.2495341  67.0005638  23.2532522
  59.5370252  67.4153440  23.4795264  59.0099044  66.8462459  23.3649751
  55.3939597  72.2310408  18.2342082  55.9060694  72.5094662  17.5850842
  55.1075940  72.9699702  18.6004895  55.4274460  72.3812762  18.1931960
  58.9123322  64.3236797  18.2943124  58.7206519  64.3391931  19.1442547
  59.7621918  64.5200471  18.2709779  59.0099044  64.3551148  18.4166419
  53.2970235  66.8527778  16.2726940  53.1555727  66.0011719  16.3971448
  53.5810799  66.8956439  15.4489146  53.3178082  66.7327528  16.1694564
  59.4105855  71.4251587  19.8294412  59.5549231  72.0052795  19.1937522
  59.7581504  71.8027884  20.5344266  59.4833316  71.5672291  19.8393407
  61.8227549  64.5192306  18.5014947  62.2800164  65.2516281  18.6287739
  61.8983878  64.0958771  19.2602203  61.9018519  64.5649544  18.6316023
  54.0660541  64.7658126  19.5904391  53.5302730  64.1538484  19.9065158
  54.1278305  65.3406262  20.2438057  53.9956173  64.7605054  19.7339817
  59.7009927  66.5094410  15.3456771  58.9106002  66.3285870  15.6674107
  60.0970550  65.7321363  15.3287065  59.6426804  66.3681871  15.3909319
  62.2147758  68.9854669  19.8280270  62.1506899  69.8464626  19.7000407
  62.3544945  68.6686662  19.0275821  62.2263228  69.0654836  19.6908483
  63.8717711  66.4433048  18.3240109  64.0859680  65.8043962  17.7703463
  63.2551610  66.8878872  17.8947971  63.8123040  66.4143192  18.1790540
  66.0356799  68.0522113  19.2623416  65.2233480  67.7448004  19.3436589
  66.4946733  67.5721113  19.8266128  65.9837183  67.9358606  19.3578010
  63.1310306  69.4582185  24.0452118  63.6009937  70.0824301  24.4319992
  63.1772186  68.7899160  24.6045333  63.2078182  69.4516865  24.1852190
  60.2881580  61.5639212  14.7700922  59.7720068  60.8719404  14.8952501
  59.7275509  62.2309989  14.7163521  60.1288093  61.5602470  14.7806988
  62.3573813  62.1032172  16.5993775  61.9705566  62.1281204  17.3807305
  61.8706750  61.5373851  16.1468291  62.2286322  62.0227923  16.6481678
  62.0230955  58.9899158  18.8904035  62.6524073  59.5259458  18.6125105
  62.1916818  58.8976517  19.7417600  62.1408749  59.0560520  18.9752563
  61.8244870  63.7770352  21.1630446  62.6518299  63.5055501  21.2189061
  61.8452716  64.5731194  21.5194264  61.9497720  63.8550107  21.2245629
  56.6883790  64.4779975  16.4360357  57.1485272  64.5518905  17.1735481
  56.7339897  65.2761229  16.0860179  56.7634346  64.6074122  16.4933114
  58.3367140  65.1446670  21.0032384  57.9452705  64.4980017  21.4388162
  58.5053003  65.7358105  21.6226640  58.3038050  65.1360938  21.1595090
  53.4771568  68.1069166  18.8112074  54.3397181  68.0064875  18.7249403
  53.1463351  67.5263875  18.2497646  53.5556764  68.0060793  18.7157479
  56.8373354  66.9311615  15.4722492  56.2126424  66.9430007  14.8648444
  56.5018949  67.4071790  16.1213732  56.6958846  67.0030132  15.4779060
  56.1064099  68.5404763  17.6897360  56.2657586  67.7848087  18.0949082
  55.9256993  69.0895702  18.3438098  56.1029458  68.5098577  17.8460066
  64.0484402  60.7065998  18.2448150  63.5524964  60.9029673  17.5539716
  64.8053464  61.1058667  18.0736951  64.0871227  60.7943732  18.1168286
  57.5988604  63.1079163  14.2157205  57.6386976  63.6088369  14.9291912
  56.7738269  63.1989556  13.9463128  57.4828130  63.1960979  14.2807743
  59.7818217  72.6739902  22.3177499  58.9313848  72.8111617  22.4535144
  59.9446345  71.9403681  22.7625201  59.6802081  72.5854004  22.4033098
  56.8286751  63.1148565  22.1487514  57.4539454  62.5710698  22.4216947
  56.3737231  62.6343483  21.5795305  56.8535011  62.9638047  22.1049108
  64.3977372  64.0848544  16.7082719  64.8232443  63.6321071  16.0966246
  63.7834365  63.5308615  16.9847507  64.3706017  63.9362520  16.6587744
  63.5328664  74.8201515  22.3226997  63.4924519  74.1751192  21.7372153
  64.3451982  74.7638132  22.6352409  63.6471818  74.7160482  22.2823946
  59.2206373  68.4498452  18.8776754  58.7085276  67.8419635  19.2361786
  59.0485869  69.1655044  19.3450730  59.1196010  68.4661751  18.9992978
  54.0672088  66.8936027  21.5279116  53.8974678  67.5537402  20.9827323
  53.6238037  67.1042588  22.2491605  53.9771421  67.0222009  21.5540746
  63.0975443  66.3722696  21.3179010  63.6546873  66.1436506  20.6857475
  62.7736508  67.1328362  21.0414222  63.1321853  66.4506533  21.1835507
  50.9674152  69.7982893  16.7867606  50.4200871  69.1283538  16.9048474
  51.7566530  69.4312740  16.8511073  51.0026336  69.6447879  16.8136307
  60.8158560  69.4590350  22.2831017  61.5669887  69.7742026  22.5970571
  61.0081137  69.2569521  21.4564939  60.9549975  69.4757731  22.2074413
  49.7261121  69.0103700  13.9413629  49.5482883  68.5580309  14.6668545
  49.4380144  69.8129862  14.1252107  49.6574075  69.0626258  14.0757132
  60.9584616  61.5026840  19.1527400  61.0912521  60.7057833  19.4808376
  61.3429769  62.0293243  19.7325676  61.0340945  61.4626757  19.2870903
  64.0316971  58.4257166  15.7508494  63.2262935  58.3154896  16.0676332
  63.9023706  58.5269622  14.8938360  63.8937104  58.4240836  15.6716534
  58.6173063  61.4986015  17.4005294  59.1617476  61.1577142  17.9909636
  58.6709998  62.3571477  17.5426579  58.7062182  61.5741274  17.5087168
  44.0007518  20.9217612   9.7502649  44.7074286  20.4269643   9.8789584
  44.1895454  21.3626694   9.0205307  44.1335424  20.9135962   9.6611695
  36.4940437  29.1189786  -0.4242947  37.1377893  29.5602950  -0.0346788
  36.8196693  28.3143212  -0.5112688  36.6372266  29.0654980  -0.3797469
  41.1399813  24.3445149   7.6416725  41.2283159  24.1571289   8.4894935
  41.5689525  23.6982578   7.2421571  41.2161915  24.2208156   7.7088476
  38.7070273  23.6276309   6.6234387  38.1441107  23.2148918   7.1474048
  39.4691296  23.5529214   7.0427530  38.7364721  23.5553709   6.7627387
  35.3145171  15.8549917   8.3551432  35.4865674  15.7455811   9.2036713
  35.8514528  16.5004322   8.1182624  35.4190175  15.9341918   8.4456529
  41.2519872  23.7754168  10.3060508  42.0360289  23.8885015  10.6716250
  41.0516467  22.9495305  10.5019194  41.3385898  23.6700887  10.3894894
  41.4090265  25.6864270   3.9526964  40.6105511  25.4463770   4.2100832
  41.8576277  25.7378663   4.6994011  41.3564877  25.6586661   4.1011888
  40.4691002  19.4324715  11.8447152  39.6763983  19.7468226  12.0299772
  40.5839929  19.6476183  11.0067936  40.3686413  19.5108551  11.7485487
  41.3974795  19.3344918   6.7832449  41.9713657  18.6972163   6.9381012
  41.3189599  19.3349001   5.9142106  41.4708030  19.2410030   6.6778859
  46.7194943  20.7053896   6.7917302  46.4833580  19.8741961   6.6729362
  47.3638172  20.6539503   7.3772146  46.7789614  20.5751584   6.8603195
  37.1764716   9.9958122  11.5597512  36.8618158  10.7657685  11.2967075
  36.8554649   9.4328378  10.9749739  37.0823636  10.0268391  11.4338862
  47.7431364  20.4898345   2.8545596  47.4377181  21.2226402   3.2158912
  47.0237579  20.0836274   2.5738382  47.5918706  20.5380078   2.8658733
  53.4433156  17.1291345   2.1813941  53.3757656  17.1487304   1.3116527
  53.4288818  17.9721673   2.4069611  53.4311912  17.2565080   2.0866417
  37.8814164  19.7374329   5.0020428  37.3825858  20.4490097   5.0805317
  38.6914388  20.0574995   4.9638591  37.9270271  19.8901177   5.0076997
  36.8081222  12.5955373  10.2982727  35.9980998  12.9013153  10.1872569
  37.2855909  13.3160956  10.4135311  36.7584701  12.7469974  10.2989798
  45.0942533  21.2985743   1.1398257  44.9556893  21.9966789   1.6446999
  44.3142531  21.1434400   0.7834438  44.9585760  21.3785910   1.1624531
  43.4320619  17.5982119   7.3920638  43.4268657  16.7261935   7.3963065
  44.1381612  17.7970288   6.9190094  43.5365623  17.4985993   7.3227674
  37.1591512  17.3259102   6.7634458  37.3034888  17.9060311   6.1277568
  37.5067160  17.7035399   7.4684313  37.2318973  17.4679806   6.7733453
  36.2319267  25.5161874   3.6295485  36.3808831  24.9564790   2.9768890
  37.0119269  25.5953876   4.0128004  36.3693360  25.4447440   3.5892434
  38.7572567  25.6876517   4.9079976  38.6816239  25.0185328   5.4630764
  38.6862427  26.3894305   5.4220642  38.7353174  25.6921424   5.0656824
  38.1464202  29.0944837   3.3657977  38.6360132  28.3955626   3.1833641
  37.5748434  28.7968707   3.9534034  38.1348732  28.9471061   3.4259018
  44.3431205  21.6606906  12.3184768  45.1566071  21.3892055  12.4789900
  44.1826172  21.3614446  11.5144963  44.4401154  21.5761832  12.2230173
  43.7842455  13.9529629   6.1963463  42.9719137  13.6455519   6.2776636
  44.2432390  13.4728629   6.7606175  43.7322840  13.8366121   6.2918057
  40.8795963  15.3589700  10.9792165  41.3495594  15.9831816  11.3660039
  40.9257843  14.6906676  11.5385380  40.9563839  15.3524380  11.1192237
  44.3552449  22.7213197   7.5907608  44.9932170  22.2273392   7.2570064
  43.7126541  22.6490597   7.0059835  44.3546676  22.6372205   7.4549963
  44.4106706  23.4133005   4.2312965  45.1999084  23.0622070   4.3515046
  44.5850304  24.2269393   3.9689599  44.5526988  23.4818862   4.2100833
  36.0235032  21.9672850   5.2410449  35.9155387  21.9774913   6.1072507
  36.2330814  22.7927631   5.0515403  36.0385143  22.0913925   5.3414541
  50.1599246  19.0491263   3.7009665  50.2182369  19.4977911   4.4469641
  49.5265713  19.4590075   3.2639745  50.0750541  19.1764997   3.7462213
  43.7998340  24.6694804   0.1364411  43.6018029  25.1585619  -0.5579378
  43.1786052  24.8736046   0.7148544  43.6785905  24.7711343   0.1187634
  45.7172142  18.2358957   5.6709659  46.4406341  17.7831483   5.4920679
  45.4522105  18.5163622   4.8881987  45.7853416  18.2109925   5.5288375
  41.4990932  18.3342835   3.8204674  40.8847925  17.7900885   4.1153310
  42.0158217  17.8207071   3.3410491  41.4846594  18.1779244   3.7928903
  37.5303874  18.5747418   9.2517546  36.6799504  18.7119132   9.3875191
  37.6932002  17.8411196   9.6965248  37.4287737  18.4861519   9.3373145
  48.1507456  17.1985368   4.1740209  48.7425297  17.8382618   4.2058407
  48.5866451  16.5008404   4.4632276  48.3025888  17.1903718   4.2221042
  39.9800846  21.6202740   4.7998103  39.4725937  22.1738587   5.2438734
  39.6827492  21.6811030   3.9816878  39.8605731  21.7109051   4.7446560
  39.2243331  26.5527298   1.7055110  39.0008986  25.7946127   2.0739136
  38.7353175  26.5825319   0.9835550  39.1186780  26.4449523   1.6531851
  41.2814321  20.7209030   9.2567044  41.2410176  20.0758707   8.6712200
  42.0937639  20.6645648   9.5692456  41.3957474  20.6167997   9.2163993
  41.2387083  25.9317842  -0.0884189  40.8403366  26.0420112  -0.8563369
  40.6238302  26.1399908   0.4942371  41.0885972  25.9791410  -0.1152889
  40.8461100  12.2730212   8.2519057  41.4032530  12.0444021   7.6197522
  40.5222165  13.0335877   7.9754269  40.8807510  12.3514048   8.1175554
  38.5644217  15.3597865   9.2171064  39.3155544  15.6749542   9.5310618
  38.7566794  15.1577036   8.3904986  38.7035631  15.3765247   9.1414460
  45.2022178  18.9172621   2.8008195  45.6277250  18.3947042   2.2478620
  44.8379098  19.5153458   2.2796818  45.2108781  18.9282848   2.6417205
  34.8376258  27.2136838   1.5605541  35.1522817  28.0273226   1.5683322
  35.2469671  26.8287057   2.2287700  34.9444356  27.2765540   1.6609632
  43.8777762  24.2408198  11.3101425  43.9874728  23.4516759  11.6658172
  44.2068659  24.1514134  10.5075763  43.9430168  24.1114051  11.2443815
  42.4274724  22.4224819   5.8937045  41.8795670  21.7982703   5.6257110
  42.8887753  22.6119091   5.1781125  42.4141933  22.3583869   5.7487476
  41.9933050  23.4275892   2.4246386  42.8131424  23.2838858   2.6862682
  41.7127128  24.0522091   2.9662824  42.0729794  23.4986244   2.5434326
  51.6646386  30.1716394   0.1442193  50.8084281  30.3324893   0.1951310
  51.7114039  29.3008458   0.1647254  51.5445497  30.0667196   0.1548259
  46.0487525  39.7079112  -4.0920575  45.2970425  39.3294651  -4.3204530
  46.4973537  39.7397546  -4.8401765  46.0037192  39.6564719  -4.2363073
  54.9740102  36.4402920   9.7502649  55.6806869  35.9454951   9.8789584
  55.1628038  36.8812001   9.0205307  55.1068008  36.4321270   9.6611695
  54.5098207  32.2308438   2.7873845  55.0554167  32.9093525   2.8467814
  54.4515083  32.0895899   1.9275426  54.5814121  32.3100440   2.6685905
  47.6272281  39.7197504  -1.8257803  47.7282644  38.9097858  -1.5160675
  47.0314027  39.6254451  -2.4558124  47.5544820  39.5862532  -1.8731564
  47.4673021  44.6375094  -0.4242947  48.1110476  45.0788258  -0.0346788
  47.7929277  43.8328520  -0.5112688  47.6104850  44.5840288  -0.3797469
  40.8237326  35.7417791  -2.2005469  40.5887510  34.9085443  -2.3073200
  40.9622966  36.0222457  -3.0144268  40.8092988  35.6601294  -2.3363114
  43.1227413  27.9103522   0.6978839  42.5032445  27.3196169   0.5288853
  43.0211277  28.5014957   0.0643162  43.0165089  27.9107604   0.5783828
  50.2195309  29.6503063  -4.9688698  50.9175473  29.8291191  -4.4767235
  50.5347641  29.1273403  -5.5918309  50.3690646  29.5996835  -4.9886688
  42.8496546  31.4555803   2.9422408  42.7255243  32.0418249   3.5772226
  43.5014831  30.9615999   3.2434683  42.9270196  31.4694608   3.0808337
  50.4083244  36.0373508  -4.9808907  50.8476880  35.4290609  -4.5354134
  50.2587907  35.6580882  -5.7523442  50.4504710  35.8911979  -5.0289740
  47.8754887  34.6317520   2.2209919  48.5203890  34.1389963   1.9020867
  48.1156664  34.7742307   3.0475997  48.0065472  34.5794962   2.2959452
  50.4140979  37.4772426   1.8716811  50.6964221  36.6823832   1.6503567
  51.1427139  37.9553014   1.8921872  50.5630542  37.4307023   1.8419826
  48.3922172  25.0195460  -0.8867424  48.0625502  25.4706604  -1.5563725
  47.7167174  24.9411623  -0.3394417  48.2432609  25.0746595  -0.9044200
  60.3959067  36.5831788  -1.1547358  59.5656770  36.7942432  -0.9913941
  60.3468319  35.7568843  -1.4305074  60.2665802  36.4921395  -1.1709993
  42.3854650  40.6203462  -0.9249263  41.9022229  41.3453951  -0.9489679
  43.1977969  40.9179592  -0.8139105  42.4345398  40.7705815  -0.9121984
  48.4568804  39.4135642   1.6800551  47.9395746  39.0543057   1.0761860
  49.1543196  38.8897817   1.6906618  48.4834386  39.2833330   1.5930810
  52.1132396  39.8630457   7.6416725  52.2015742  39.6756597   8.4894935
  52.5422109  39.2167886   7.2421571  52.1894499  39.7393464   7.7088476
  49.6802856  39.1461616   6.6234387  49.1173691  38.7334226   7.1474048
  50.4423880  39.0714522   7.0427530  49.7097305  39.0739017   6.7627387
  45.2398848  41.1359638  -0.7728983  45.9419427  40.6211627  -0.7156227
  45.1596331  41.4633789   0.0317892  45.3322608  41.1073864  -0.6456191
  59.8913025  29.2302189   2.6403063  59.0541446  29.3004376   2.8750658
  59.8601256  29.2326684   1.7677366  59.7631308  29.2412416   2.5462611
  46.2877754  31.3735225   8.3551432  46.4598258  31.2641119   9.2036713
  46.8247112  32.0189630   8.1182624  46.3922758  31.4527226   8.4456529
  44.5649623  37.3265990  -1.2643375  45.4038522  37.5588922  -1.2169614
  44.5961392  36.4570301  -1.3336340  44.6931341  37.2322936  -1.2678730
  45.1902326  37.7466865   3.0369930  45.7300551  37.6037996   3.7073303
  44.5072272  38.1463616   3.4053957  45.1694480  37.7846536   3.1904352
  54.6143211  33.4257865  -1.7685045  55.3700726  33.8589380  -1.7296136
  54.7205535  32.7762635  -1.1950409  54.7413382  33.3935349  -1.6787020
  57.6523382  37.2531143  -1.0182642  57.2158614  37.2567885  -0.2623671
  57.3186298  37.9336642  -1.4503065  57.5386002  37.3543598  -0.9701810
  52.2252456  39.2939476  10.3060508  53.0092872  39.4070323  10.6716250
  52.0249050  38.4680613  10.5019194  52.3118481  39.1886195  10.3894894
  40.5939471  33.9667156   3.1904352  40.3277886  33.1506272   3.3495342
  40.6078035  34.0120311   2.3199867  40.5564193  33.8524060   3.0857834
  57.5720865  24.2944971   1.2246786  58.2146773  24.3643075   1.8108701
  57.8243886  23.6274193   0.7226328  57.7042997  24.2071319   1.2374065
  45.3438078  27.5045534   5.8371360  44.6509874  27.0342514   6.0832091
  45.9598405  27.2783838   6.4113067  45.3322607  27.4012666   5.9580512
  52.3822849  41.2049578   3.9526964  51.5838095  40.9649078   4.2100832
  52.8308861  41.2563970   4.6994011  52.3297460  41.1771969   4.1011888
  60.7867728  33.9712063  -2.1263005  61.4484162  33.4102731  -2.2267097
  60.1459140  33.4764093  -1.8010314  60.7896596  33.8148472  -2.0930665
  41.0032885  34.7525935   0.4716096  40.8208458  34.7272821  -0.3811612
  41.7382554  35.2224873   0.5105005  41.0846949  34.8187297   0.3514015
  57.0732559  34.9877445  -2.3851016  57.3088148  35.1322644  -3.2124166
  57.2222123  35.7519853  -1.9919503  57.1298362  35.1216499  -2.4487412
  44.0678636  31.4710938   6.9798205  44.7918609  31.4563969   7.4663100
  44.1694773  32.1806293   6.4820173  44.1896846  31.5735641   6.9776992
  51.4423586  34.9510022  11.8447152  50.6496567  35.2653534  12.0299772
  51.5572513  35.1661491  11.0067936  51.3418996  35.0293859  11.7485487
  54.1154905  31.6744014  -3.8657832  54.2101759  32.4133308  -3.4118207
  53.4913748  31.2461489  -3.4323268  54.0363935  31.7205334  -3.7349685
  52.3707379  34.8530226   6.7832449  52.9446240  34.2157470   6.9381012
  52.2922182  34.8534309   5.9142106  52.4440614  34.7595338   6.6778859
  40.9703795  31.6319436   0.6215163  41.5477298  31.4955886   1.2607408
  40.2717857  31.1755220   0.8760747  40.9524817  31.5441702   0.7537452
  47.7271097  33.2853491  -1.1646354  47.4690342  32.4525226  -1.1915055
  47.7819580  33.5111104  -2.0053854  47.6970875  33.1951263  -1.2926217
  52.8072147  25.3881942  -1.0642261  52.1028474  24.8991128  -0.9058342
  52.8557122  25.4004416  -1.9353817  52.7102199  25.3171590  -1.1702922
  46.7005809  30.8391254  -0.6781459  46.1255401  30.9983422  -0.0417498
  46.3241486  30.2026663  -1.1413009  46.5608622  30.7689067  -0.6526901
  50.3679098  29.3114603   4.1810919  49.9793531  28.8868821   3.5263110
  49.7033796  29.5596753   4.6887946  50.2126026  29.2853324   4.1598787
  54.1905460  23.0089232   1.6934903  54.5715971  22.3267403   2.0802778
  53.3868744  22.7198834   1.5110568  54.1281921  22.8656280   1.7238959
  57.6927527  36.2239204   6.7917302  57.4566164  35.3927269   6.6729362
  58.3370755  36.1724811   7.3772146  57.7522197  36.0936892   6.8603195
  47.3425945  37.0134725  -2.4939962  47.9799892  36.7746473  -1.9488168
  47.7681016  37.2171884  -3.2286801  47.5002111  37.0085735  -2.5222804
  42.0338587  39.2523062   1.3894342  42.0742732  39.5237913   0.5614122
  42.5933111  39.7764970   1.8052130  42.1221933  39.3698817   1.3286230
  48.1497300  25.5143430  11.5597512  47.8350741  26.2842993  11.2967075
  47.8287233  24.9513686  10.9749739  48.0556219  25.5453699  11.4338862
  58.7163947  36.0083653   2.8545596  58.4109764  36.7411709   3.2158912
  57.9970163  35.6021582   2.5738382  58.5651289  36.0565386   2.8658733
  49.7247417  37.4907148  -0.8146176  49.7986425  37.3282320   0.0395674
  50.5416923  37.6797337  -1.0585694  49.8563775  37.4943890  -0.7248150
  64.4165739  32.6476653   2.1813941  64.3490240  32.6672612   1.3116527
  64.4021402  33.4906980   2.4069611  64.4044496  32.7750388   2.0866417
  43.4853173  37.8365011  -3.7851732  42.6591291  38.0826748  -3.9117453
  43.5465164  37.7577091  -2.9189674  43.3727340  37.8609960  -3.6762788
  54.8262086  24.0511811   5.5055030  55.5715678  23.8621621   5.0918455
  54.4099390  24.5770049   4.9468886  54.8747060  24.1013956   5.3619603
  62.2024357  31.4221039   0.4560535  62.7532278  30.7889109   0.6957627
  62.1868472  31.9536432   1.1476039  62.2809553  31.4069988   0.5939393
  48.8546747  35.2559637   5.0020428  48.3558441  35.9675404   5.0805317
  49.6646972  35.5760303   4.9638591  48.9002854  35.4086485   5.0076997
  46.2057918  42.4309273  -3.0172552  45.9858213  42.1406628  -2.2245885
  45.9852440  41.7724228  -3.5454640  46.1405512  42.2908982  -2.9783644
  45.1174865  34.5182590  -0.7516851  44.8288114  33.8920061  -0.2171123
  45.9858213  34.4602877  -0.6852170  45.2035117  34.4170134  -0.6625896
  55.9052763  29.6617373  -0.4334869  55.5617529  28.9407708  -0.0827619
  56.0045805  29.4531224  -1.2756511  55.8694806  29.5241576  -0.5063189
  45.3207138  36.1577841  -4.8274486  46.0753106  36.5390880  -4.6139023
  44.7277751  36.6088984  -4.3727789  45.3443852  36.2806668  -4.7291607
  47.7813805  28.1140681  10.2982727  46.9713581  28.4198461  10.1872569
  48.2588492  28.8346264  10.4135311  47.7317284  28.2655282  10.2989798
  46.6405365  37.3286402   0.5465630  46.1186119  37.4686694   1.2317494
  47.0279385  36.5697066   0.7367747  46.6209066  37.2371926   0.6766706
  48.0671691  34.3590421  -4.0552879  47.8714473  34.9665156  -4.6492576
  48.2906036  33.6658365  -4.5361205  48.0706332  34.3467947  -4.2136798
  46.4650221  31.2445159  -3.9372011  47.1872873  31.4086317  -4.3968205
  45.9858213  31.9654824  -4.0432671  46.5013951  31.3743389  -4.0206397
  54.4243728  27.5808958   1.4424674  53.5854829  27.6070237   1.2062937
  54.4948096  28.2279693   2.0230021  54.3112122  27.6805084   1.4933791
  44.1157837  33.6503231   5.1682129  44.6278934  33.9287485   4.5190889
  43.8294180  34.3892526   5.5344942  44.1492701  33.8005585   5.1272007
  58.3001252  32.7876945  -1.2714084  58.2135227  32.9432371  -0.4179305
  57.8451732  33.4315020  -1.6454679  58.2204509  32.9052700  -1.2006977
  47.6341563  25.7429620   5.2283171  47.4424760  25.7584755   6.0782594
  48.4840159  25.9393294   5.2049825  47.7317285  25.7743971   5.3506465
  42.0188476  28.2720602   3.2066987  41.8773968  27.4204542   3.3311495
  42.3029039  28.3149262   2.3829193  42.0396322  28.1520352   3.1034611
  52.1727068  30.1087692  -2.6488525  51.9261782  30.0283443  -1.8151736
  52.5012191  29.3241160  -2.8425997  52.1848312  29.9813957  -2.5541002
  56.0675117  36.8171051   1.1398257  55.9289476  37.5152097   1.6446999
  55.2875115  36.6619708   0.7834438  55.9318344  36.8971218   1.1624531
  54.4053202  33.1167426   7.3920638  54.4001241  32.2447243   7.3963065
  55.1114196  33.3155596   6.9190094  54.5098206  33.0171301   7.3227674
  48.1324095  32.8444410   6.7634458  48.2767471  33.4245619   6.1277568
  48.4799744  33.2220707   7.4684313  48.2051557  32.9865114   6.7733453
  50.3044013  32.0434579   4.5459590  49.5567327  32.2365593   4.1407868
  50.4585538  31.2179798   4.3083711  50.2166440  31.9499690   4.4504996
  47.2051850  41.0347182   3.6295485  47.3541414  40.4750098   2.9768890
  47.9851853  41.1139184   4.0128004  47.3425944  40.9632748   3.5892434
  49.7305151  41.2061825   4.9079976  49.6548822  40.5370636   5.4630764
  49.6595010  41.9079613   5.4220642  49.7085758  41.2106732   5.0656824
  50.5445790  25.9385129   5.4354994  51.0018404  26.6709104   5.5627786
  50.6202119  25.5151595   6.1942250  50.6236760  25.9842368   5.5656070
  42.7878781  26.1850949   6.5244437  42.2520971  25.5731307   6.8405205
  42.8496546  26.7599085   7.1778104  42.7174414  26.1797877   6.6679864
  48.4228168  27.9287233   2.2796818  47.6324243  27.7478693   2.6014154
  48.8188791  27.1514186   2.2627112  48.3645044  27.7874694   2.3249366
  53.8071854  35.5629664   0.0056264  53.1316856  35.3314896   0.5069651
  53.8164230  34.9550846  -0.6201631  53.7090359  35.4388589  -0.0127584
  50.9365998  30.4047493   6.7620317  50.8725139  31.2657449   6.6340453
  51.0763186  30.0879486   5.9615868  50.9481468  30.4847659   6.6248530
  49.6185092  33.0979632   0.9036520  49.1947341  33.2984131   0.1675538
  49.4429947  32.2508480   1.0160819  49.5295973  33.0028413   0.8110210
  49.1196785  44.6130145   3.3657977  49.6092716  43.9140934   3.1833641
  48.5481018  44.3154015   3.9534034  49.1081315  44.4656368   3.4259018
  44.9067537  33.5931683  -3.6635508  45.0632156  33.5278486  -2.8079516
  45.2468130  34.3680236  -3.8756828  44.9800772  33.6980881  -3.5680914
  51.4446681  32.9689567  -4.7942145  51.9862227  32.4659948  -4.3303524
  51.7593241  32.9154762  -5.6052659  51.5711079  32.8868988  -4.8458333
  55.3163789  37.1792214  12.3184768  56.1298654  36.9077363  12.4789900
  55.1558755  36.8799754  11.5144963  55.4133737  37.0947140  12.2230173
  52.5935951  27.8625871   5.2580156  52.8077920  27.2236786   4.7043510
  51.9769850  28.3071695   4.8288018  52.5341280  27.8336015   5.1130587
  41.4801798  30.7766634  -3.3474741  41.8600763  31.1951179  -4.0114473
  40.9057163  31.3580089  -3.0405897  41.4513123  30.9244493  -3.3998000
  54.7575039  29.4714937   6.1963463  53.9451721  29.1640827   6.2776636
  55.2164973  28.9913937   6.7606175  54.7055424  29.3551429   6.2918057
  51.9850680  20.9725807   0.2467499  51.1144237  20.9464528   0.2000808
  52.2391021  20.8002999  -0.5706656  51.8944240  20.9435951   0.1187635
  51.8528546  30.8775008  10.9792165  52.3228178  31.5017124  11.3660039
  51.8990427  30.2091984  11.5385380  51.9296422  30.8709688  11.1192237
  49.0099820  22.9832035   1.7040969  48.4938309  22.2912227   1.8292548
  48.4493749  23.6502813   1.6503568  48.8506333  22.9795293   1.7147035
  51.0792053  23.5224995   3.5333822  50.6923807  23.5474027   4.3147351
  50.5924991  22.9566674   3.0808338  50.9504562  23.4420746   3.5821725
  55.3285033  38.2398504   7.5907608  55.9664753  37.7458700   7.2570064
  54.6859124  38.1675905   7.0059835  55.3279259  38.1557513   7.4549963
  57.0542033  30.0887650   2.1573524  56.6269641  30.0013999   1.4021623
  56.4168086  30.1965426   2.7428368  56.8971640  30.0920310   2.1318965
  50.7449195  20.4091981   5.8244081  51.3742313  20.9452281   5.5465152
  50.9135058  20.3169340   6.6757647  50.8626990  20.4753343   5.9092610
  50.5463110  25.1963176   8.0970493  51.3736539  24.9248325   8.1529107
  50.5670956  25.9924017   8.4534311  50.6715960  25.2742930   8.1585676
  55.3839289  38.9318313   4.2312965  56.1731668  38.5807377   4.3515046
  55.5582887  39.7454701   3.9689599  55.5259571  39.0004170   4.2100833
  45.1232600  32.3427038   1.2840754  44.2820606  32.2430913   1.4919648
  45.3322608  33.1122519   1.6355074  45.0297292  32.4419082   1.3668069
  42.6008167  29.9646575  -0.8874496  42.2064865  30.0389587  -1.6624386
  42.0448284  30.3504522  -0.3366134  42.4610979  30.0328350  -0.9206836
  54.2373114  22.9427869  -1.2070617  54.4422707  22.8750177  -0.3613620
  53.9099538  23.7486691  -1.2749439  54.2188362  23.0513810  -1.0910962
  48.9349265  30.2708438   0.5338351  48.6312402  29.7164426   1.1348759
  48.2328686  30.4500648   0.0466385  48.7865475  30.2153220   0.5508057
  46.9967616  37.4858158   5.2410449  46.8887971  37.4960221   6.1072507
  47.2063397  38.3112939   5.0515403  47.0117727  37.6099233   5.3414541
  45.0141408  34.7370801   2.7032387  44.4229341  35.3780299   2.6735402
  45.7762431  35.1608418   2.6763686  45.0389668  34.8946639   2.6947534
  45.4102031  25.8972799   3.3700404  45.8703512  25.9711728   4.1075528
  45.4558137  26.6954053   3.0200226  45.4852586  26.0266946   3.4273161
  47.0585380  26.5639493   7.9372431  46.6670945  25.9172841   8.3728209
  47.2271243  27.1550929   8.5566687  47.0256291  26.5553761   8.0935137
  61.1331829  34.5676570   3.7009665  61.1914953  35.0163219   4.4469641
  60.4998297  34.9775383   3.2639745  61.0483124  34.6950305   3.7462213
  54.7730924  40.1880112   0.1364411  54.5750613  40.6770927  -0.5579378
  54.1518635  40.3921354   0.7148544  54.6518488  40.2896651   0.1187634
  48.8338902  31.9565009  -5.5225345  49.5780947  32.3439286  -5.2842395
  48.9799599  31.1122435  -5.3584857  48.9649487  31.8895482  -5.4631375
  50.7518478  23.7515268  -0.4893483  49.9054523  23.9238076  -0.6152133
  50.7489610  22.9464612  -0.1527655  50.6265628  23.6576297  -0.4582356
  51.8216778  27.5290483   0.3768575  51.3476732  27.0032245   0.8873886
  52.1934914  26.9819955  -0.1916564  51.8066667  27.3706479   0.3683722
  42.1989808  29.5261989   5.7452120  43.0615421  29.4257698   5.6589450
  41.8681591  28.9456699   5.1837693  42.2775005  29.4253616   5.6497526
  58.0853509  32.5892858   1.7875355  57.8451732  31.7499273   1.7917782
  58.5645516  32.6693025   2.5116129  58.1205692  32.4774258   1.8950157
  60.0858696  29.3694315  -0.2595386  59.8468466  29.3290150  -1.0974601
  60.2492597  30.2165467  -0.1329665  60.0748999  29.4886400  -0.3641904
  56.6904726  33.7544265   5.6709659  57.4138925  33.3016791   5.4920679
  56.4254688  34.0348930   4.8881987  56.7585999  33.7295233   5.5288375
  45.5591594  28.3504438   2.4062539  44.9344665  28.3622830   1.7988491
  45.2237189  28.8264613   3.0553779  45.4177086  28.4222955   2.4119107
  42.2717270  36.4104898   3.8466303  41.7417194  35.7197337   3.8961278
  42.5442363  36.4015084   3.0179011  42.2341992  36.3072030   3.7313719
  52.4723515  33.8528143   3.8204674  51.8580509  33.3086193   4.1153310
  52.9890800  33.3392379   3.3410491  52.4579178  33.6964552   3.7928903
  51.7119813  34.9232413   1.5548973  51.2847421  34.2982132   1.1214409
  51.7044757  34.6407335   2.3807980  51.6478954  34.7885194   1.6128801
  44.8282340  29.9597586   4.6237407  44.9875826  29.2040910   5.0289129
  44.6475233  30.5088526   5.2778145  44.8247699  29.9291400   4.7800113
  52.7702643  22.1258822   5.1788197  52.2743204  22.3222496   4.4879763
  53.5271705  22.5251490   5.0076998  52.8089467  22.2136555   5.0508333
  50.0405522  25.8001167   1.7691507  50.0648009  25.2661280   1.0804287
  50.2916996  25.2918476   2.4317098  50.0815441  25.6462071   1.7656152
  37.5513112  33.0832662   1.2034651  37.4456561  33.0379507   0.3386735
  36.8013332  33.4286443   1.4848936  37.4248715  33.1273571   1.1171981
  46.3206845  24.5271986   1.1497251  46.3605216  25.0281192   1.8631959
  45.4956509  24.6182379   0.8803174  46.2046370  24.6153802   1.2147790
  48.5036457  34.0932726   9.2517546  47.6532088  34.2304440   9.3875191
  48.6664585  33.3596504   9.6965248  48.4020321  34.0046827   9.3373145
  47.7421208  31.0432496   3.4471150  46.9113138  31.2106314   3.2406399
  47.6872725  30.6668446   4.2320036  47.6110623  31.0122227   3.5319679
  45.5504991  24.5341388   9.0827561  46.1757695  23.9903521   9.3556993
  45.0955471  24.0536306   8.5135352  45.5753252  24.3830870   9.0389155
  59.1240040  32.7170676   4.1740209  59.7157880  33.3567926   4.2058407
  59.5599034  32.0193712   4.4632276  59.2758471  32.7089026   4.2221042
  50.9533430  37.1388048   4.7998103  50.4458521  37.6923895   5.2438734
  50.6560076  37.1996338   3.9816878  50.8338315  37.2294359   4.7446560
  53.1195612  25.5041368   3.6422766  53.5450684  25.0513894   3.0306292
  52.5052605  24.9501438   3.9187554  53.0924257  25.3555344   3.5927791
  56.1489181  29.9315894  -3.5256648  55.4780371  30.4745596  -3.6543583
  56.8428932  30.4010749  -3.7674954  56.1518049  30.0814165  -3.5801121
  50.1975915  42.0712606   1.7055110  49.9741569  41.3131435   2.0739136
  49.7085758  42.1010627   0.9835550  50.0919364  41.9634831   1.6531851
  56.3117309  26.3871778  -0.6166275  56.6644919  25.9601501   0.0579524
  55.4532110  26.3022621  -0.4865199  56.2366753  26.3116518  -0.4971265
  45.0100994  29.0179297  -2.5583429  44.2912983  29.4343430  -2.2910565
  45.3813356  29.5833536  -3.1091790  44.9592926  29.1628579  -2.6000622
  54.3100575  29.6507146   3.3318567  54.2898502  29.4690442   4.1853346
  54.3579775  30.5219165   3.3078151  54.3135216  29.7523685   3.4541862
  52.2546904  36.2394338   9.2567044  52.2142759  35.5944015   8.6712200
  53.0670223  36.1830956   9.5692456  52.3690058  36.1353305   9.2163993
  48.8454372  42.2913064  -0.8407805  48.4314771  41.6287194  -1.2303964
  49.5301746  42.4390923  -1.3612111  48.8852744  42.2153722  -0.9751308
  52.2119666  41.4503150  -0.0884189  51.8135949  41.5605420  -0.8563369
  51.5970886  41.6585216   0.4942371  52.0618555  41.4976718  -0.1152889
  53.6605385  28.0156802  -3.7908299  53.4319078  28.0389503  -4.6329941
  53.9203461  27.1914269  -3.6713288  53.6651573  27.8972882  -3.8983101
  47.9424613  29.8691275   5.8116801  47.4303516  29.2612458   6.1701833
  47.7704109  30.5847867   6.2790777  47.8414250  29.8854574   5.9333025
  42.7890328  28.3128850   8.4619163  42.6192918  28.9730225   7.9167370
  42.3456278  28.5235411   9.1831652  42.6989661  28.4414832   8.4880793
  46.7150147  26.5533348  -2.4954103  47.1907513  26.9150428  -3.1303922
  46.2138747  27.2089816  -2.2153960  46.7115506  26.7027537  -2.5477362
  51.8193683  27.7915520   8.2519057  52.3765114  27.5629329   7.6197522
  51.4954749  28.5521185   7.9754269  51.8540094  27.8699356   8.1175554
  39.6892392  31.2175716   3.7207653  39.1419112  30.5476361   3.8388521
  40.4784771  30.8505564   3.7851120  39.7244576  31.0640702   3.7476353
  49.5376801  30.8783173   9.2171064  50.2888128  31.1934850   9.5310618
  49.7299377  30.6762344   8.3904986  49.6768215  30.8950555   9.1414460
  38.4479362  30.4296524   0.8753676  38.2701123  29.9773133   1.6008592
  38.1598384  31.2322685   1.0592154  38.3792315  30.4819081   1.0097179
  54.1102943  31.6854241   0.1131066  54.6056608  30.9677236   0.0735087
  53.3002719  31.3825039  -0.0014447  54.0646836  31.5351887   0.0904792
  40.1851832  32.9624247  -2.0124565  39.3197351  32.9509938  -2.1241794
  40.2850648  32.7754470  -1.1653426  40.0725999  32.9330309  -1.9035621
  56.1754762  34.4357928   2.8008195  56.6009833  33.9132350   2.2478620
  55.8111682  35.0338766   2.2796818  56.1841364  34.4468155   2.6417205
  45.8108842  42.7322146   1.5605541  46.1255401  43.5458534   1.5683322
  46.2202255  42.3472365   2.2287700  45.9176940  42.7950848   1.6609632
  52.7633361  38.1492193  -0.8690647  53.2344539  38.8632455  -0.7000662
  53.0993540  37.5490943  -0.3330778  52.8828476  38.1663657  -0.7658272
  54.8510346  39.7593506  11.3101425  54.9607311  38.9702067  11.6658172
  55.1801242  39.6699442  10.5075763  54.9162752  39.6299359  11.2443815
  49.6802856  22.9219663   6.0867447  49.8130762  22.1250657   6.4148423
  50.0648009  23.4486066   6.6665723  49.7559185  22.8819580   6.2210950
  53.4007308  37.9410127   5.8937045  52.8528254  37.3168010   5.6257110
  53.8620336  38.1304399   5.1781125  53.3874517  37.8769177   5.7487476
  52.7535211  19.8449989   2.6848541  51.9481175  19.7347719   3.0016379
  52.6241947  19.9462445   1.8278406  52.6155344  19.8433659   2.6056581
  56.2101172  26.0095481   3.2788237  55.6264161  26.5104688   2.8665805
  56.5305466  25.5025038   2.6452561  56.1714347  26.0087316   3.1246745
  47.3391303  22.9178838   4.3345341  47.8835716  22.5769965   4.9249683
  47.3928239  23.7764300   4.4766626  47.4280422  22.9934098   4.4427214
  43.1521862  36.6795254   1.2084149  43.7566719  36.6391089   0.5797970
  42.9449174  37.5266406   1.2388205  43.2110759  36.7983257   1.1200265
  52.9665634  38.9461200   2.4246386  53.7864008  38.8024166   2.6862682
  52.6859712  39.5707398   2.9662824  53.0462377  39.0171552   2.5434326
  38.3873144  35.6629872   1.0783072  38.2897422  34.8526143   1.3873129
  39.1702014  35.6421665   0.6929340  38.4889281  35.5396962   1.0669935
  54.0959997  43.4288829   0.6978839  53.4765028  42.8381477   0.5288853
  53.9943860  44.0200265   0.0643162  53.9897672  43.4292912   0.5783828
  53.8229130  46.9741111   2.9422408  53.6987827  47.5603557   3.5772226
  54.4747414  46.4801307   3.2434683  53.9002779  46.9879916   3.0808337
  57.2610338  46.8920532   8.3551432  57.4330841  46.7826427   9.2036713
  57.7979695  47.5374938   8.1182624  57.3655342  46.9712534   8.4456529
  63.1985039  54.8124783  10.3060508  63.9825456  54.9255631  10.6716250
  62.9981634  53.9865921  10.5019194  63.2851065  54.7071503  10.3894894
  51.5672055  49.4852464   3.1904352  51.3010470  48.6691580   3.3495342
  51.5810619  49.5305619   2.3199867  51.5296777  49.3709368   3.0857834
  56.3170661  43.0230842   5.8371360  55.6242458  42.5527822   6.0832091
  56.9330988  42.7969146   6.4113067  56.3055191  42.9197974   5.9580512
  55.0411220  46.9896246   6.9798205  55.7651192  46.9749276   7.4663100
  55.1427357  47.6991601   6.4820173  55.1629429  47.0920949   6.9776992
  62.4156169  50.4695330  11.8447152  61.6229150  50.7838842  12.0299772
  62.5305097  50.6846799  11.0067936  62.3151580  50.5479167  11.7485487
  61.3411682  44.8299911   4.1810919  60.9526114  44.4054129   3.5263110
  60.6766380  45.0782061   4.6887946  61.1858609  44.8038632   4.1598787
  65.1638043  38.5274540   1.6934903  65.5448555  37.8452711   2.0802778
  64.3601328  38.2384142   1.5110568  65.1014505  38.3841588   1.7238959
  59.1229884  41.0328738  11.5597512  58.8083325  41.8028301  11.2967075
  58.8019816  40.4698994  10.9749739  59.0288803  41.0639007  11.4338862
  65.7994669  39.5697119   5.5055030  66.5448261  39.3806929   5.0918455
  65.3831974  40.0955357   4.9468886  65.8479644  39.6199264   5.3619603
  58.7546389  43.6325989  10.2982727  57.9446165  43.9383769  10.1872569
  59.2321076  44.3531571  10.4135311  58.7049868  43.7840590  10.2989798
  55.0890421  49.1688539   5.1682129  55.6011518  49.4472793   4.5190889
  54.8026764  49.9077834   5.5344942  55.1225284  49.3190893   5.1272007
  58.6074146  41.2614928   5.2283171  58.4157343  41.2770062   6.0782594
  59.4572742  41.4578602   5.2049825  58.7049868  41.2929279   5.3506465
  52.9921059  43.7905910   3.2066987  52.8506551  42.9389850   3.3311495
  53.2761623  43.8334570   2.3829193  53.0128905  43.6705660   3.1034611
  59.1056679  48.3629718   6.7634458  59.2500055  48.9430926   6.1277568
  59.4532328  48.7406015   7.4684313  59.1784140  48.5050422   6.7733453
  61.5178373  41.4570437   5.4354994  61.9750988  42.1894412   5.5627786
  61.5934702  41.0336903   6.1942250  61.5969343  41.5027675   5.5656070
  53.7611365  41.7036257   6.5244437  53.2253554  41.0916615   6.8405205
  53.8229129  42.2784393   7.1778104  53.6906997  41.6983185   6.6679864
  59.3960751  43.4472541   2.2796818  58.6056826  43.2664001   2.6014154
  59.7921374  42.6699494   2.2627112  59.3377628  43.3060002   2.3249366
  61.9098582  45.9232800   6.7620317  61.8457723  46.7842757   6.6340453
  62.0495769  45.6064794   5.9615868  61.9214052  46.0032967   6.6248530
  66.2896372  52.6977522  12.3184768  67.1031238  52.4262671  12.4789900
  66.1291339  52.3985062  11.5144963  66.3866321  52.6132448  12.2230173
  63.5668534  43.3811179   5.2580156  63.7810504  42.7422094   4.7043510
  62.9502434  43.8257003   4.8288018  63.5073864  43.3521323   5.1130587
  65.7307622  44.9900244   6.1963463  64.9184304  44.6826135   6.2776636
  66.1897557  44.5099245   6.7606175  65.6788007  44.8736737   6.2918057
  62.9583263  36.4911115   0.2467499  62.0876821  36.4649836   0.2000808
  63.2123604  36.3188307  -0.5706656  62.8676823  36.4621259   0.1187635
  62.8261130  46.3960316  10.9792165  63.2960761  47.0202432  11.3660039
  62.8723010  45.7277291  11.5385380  62.9029006  46.3894996  11.1192237
  59.9832404  38.5017343   1.7040969  59.4670892  37.8097535   1.8292548
  59.4226332  39.1688120   1.6503568  59.8238917  38.4980601   1.7147035
  62.0524637  39.0410303   3.5333822  61.6656390  39.0659335   4.3147351
  61.5657574  38.4751982   3.0808338  61.9237146  38.9606054   3.5821725
  61.7181779  35.9277289   5.8244081  62.3474897  36.4637589   5.5465152
  61.8867641  35.8354648   6.6757647  61.8359573  35.9938651   5.9092610
  61.5195694  40.7148484   8.0970493  62.3469123  40.4433633   8.1529107
  61.5403540  41.5109325   8.4534311  61.6448544  40.7928238   8.1585676
  56.3834614  41.4158106   3.3700404  56.8436096  41.4897036   4.1075528
  56.4290721  42.2139361   3.0200226  56.4585169  41.5452254   3.4273161
  58.0317964  42.0824801   7.9372431  57.6403529  41.4358148   8.3728209
  58.2003827  42.6736237   8.5566687  57.9988874  42.0739069   8.0935137
  53.1722392  45.0447297   5.7452120  54.0348005  44.9443006   5.6589450
  52.8414175  44.4642006   5.1837693  53.2507588  44.9438924   5.6497526
  56.5324178  43.8689746   2.4062539  55.9077248  43.8808138   1.7988491
  56.1969773  44.3449921   3.0553779  56.3909670  43.9408263   2.4119107
  55.8014923  45.4782894   4.6237407  55.9608410  44.7226218   5.0289129
  55.6207817  46.0273833   5.2778145  55.7980282  45.4476708   4.7800113
  63.7435226  37.6444130   5.1788197  63.2475788  37.8407804   4.4879763
  64.5004288  38.0436798   5.0076998  63.7822051  37.7321863   5.0508333
  61.0138106  41.3186475   1.7691507  61.0380593  40.7846588   1.0804287
  61.2649579  40.8103784   2.4317098  61.0548025  41.1647379   1.7656152
  57.2939428  40.0457294   1.1497251  57.3337800  40.5466500   1.8631959
  56.4689093  40.1367687   0.8803174  57.1778954  40.1339110   1.2147790
  59.4769041  49.6118034   9.2517546  58.6264672  49.7489748   9.3875191
  59.6397169  48.8781812   9.6965248  59.3752905  49.5232135   9.3373145
  58.7153792  46.5617803   3.4471150  57.8845721  46.7291621   3.2406399
  58.6605309  46.1853754   4.2320036  58.5843206  46.5307535   3.5319679
  56.5237575  40.0526696   9.0827561  57.1490278  39.5088829   9.3556993
  56.0688055  39.5721614   8.5135352  56.5485835  39.9016178   9.0389155
  64.0928196  41.0226675   3.6422766  64.5183267  40.5699202   3.0306292
  63.4785189  40.4686746   3.9187554  64.0656841  40.8740652   3.5927791
  63.2279488  51.7579646   9.2567044  63.1875343  51.1129323   8.6712200
  64.0402806  51.7016264   9.5692456  63.3422642  51.6538613   9.2163993
  58.9157197  45.3876583   5.8116801  58.4036100  44.7797766   6.1701833
  58.7436693  46.1033175   6.2790777  58.8146834  45.4039882   5.9333025
  53.7622911  43.8314158   8.4619163  53.5925502  44.4915533   7.9167370
  53.3188861  44.0420719   9.1831652  53.6722245  43.9600140   8.4880793
  62.7926267  43.3100827   8.2519057  63.3497697  43.0814637   7.6197522
  62.4687332  44.0706493   7.9754269  62.8272677  43.3884664   8.1175554
  50.6624976  46.7361024   3.7207653  50.1151695  46.0661669   3.8388521
  51.4517354  46.3690872   3.7851120  50.6977160  46.5826010   3.7476353
  60.5109384  46.3968481   9.2171064  61.2620711  46.7120158   9.5310618
  60.7031961  46.1947652   8.3904986  60.6500798  46.4135863   9.1414460
  49.4211945  45.9481832   0.8753676  49.2433707  45.4958440   1.6008592
  49.1330968  46.7507993   1.0592154  49.3524899  46.0004389   1.0097179
  60.6535440  38.4404971   6.0867447  60.7863345  37.6435965   6.4148423
  61.0380593  38.9671374   6.6665723  60.7291769  38.4004888   6.2210950
  63.7267795  35.3635297   2.6848541  62.9213759  35.2533027   3.0016379
  63.5974530  35.4647753   1.8278406  63.5887928  35.3618967   2.6056581
  58.3123887  38.4364146   4.3345341  58.8568300  38.0955273   4.9249683
  58.3660822  39.2949608   4.4766626  58.4013006  38.5119406   4.4427214
   2.0348724  58.8842629  36.2827407   1.7202165  59.5746107  36.7147829
   1.5175665  58.8287411  35.5812908   1.9113194  58.9777517  36.2424356
   6.3263169  67.1063835  41.5648283   5.4891590  67.1766022  41.7995878
   6.2951400  67.1088330  40.6922586   6.1981451  67.1174062  41.4707831
   4.0071009  62.1706616  40.1492006   4.6496917  62.2404721  40.7353921
   4.2594029  61.5035839  39.6471548   4.1393141  62.0832965  40.1619285
   6.4452511  66.9451254  35.8803969   6.1889076  66.1331195  35.6901852
   7.2881825  66.9528821  35.6534157   6.5318536  66.8263251  35.8188786
   1.2612229  61.9273457  44.4300250   2.0065821  61.7383267  44.0163675
   0.8449534  62.4531695  43.8714106   1.3097204  61.9775602  44.2864823
   8.6374500  69.2982685  39.3805755   9.1882422  68.6650754  39.6202847
   8.6218616  69.8298078  40.0721259   8.7159697  69.2831633  39.5184613
   2.3402906  67.5379019  38.4910351   1.9967672  66.8169354  38.8417601
   2.4395949  67.3292870  37.6488709   2.3044949  67.4003222  38.4182031
   1.4523259  56.9936650  38.2294057   1.5706827  57.4513114  37.4961359
   1.2785435  56.1881912  37.9430274   1.4442430  56.9430423  38.0794990
   3.9256945  61.3721280  37.1977369   3.3131259  61.8591682  37.5831101
   4.0221120  60.6964770  37.7415020   3.8494843  61.3439588  37.3356227
   6.5208839  67.2455961  38.6649834   6.2818609  67.2051795  37.8270619
   6.6842741  68.0927113  38.7915555   6.5099143  67.3648046  38.5603316
   2.7467452  64.2633424  38.3078945   3.0995062  63.8363146  38.9824744
   1.8882254  64.1784267  38.4380021   2.6716897  64.1878164  38.4273955
   4.1791512  59.3851835  39.2363257   3.6722377  58.6780975  39.1684435
   4.9758946  59.0545024  39.3664334   4.2218752  59.2324987  39.2462252
   2.8212234  64.8818385  35.3840079   2.8206461  64.7267042  36.2424356
   2.6168415  65.7281372  35.3281465   2.7912012  64.9839006  35.5028019
   2.6451316  63.8857127  42.2033457   2.0614304  64.3866334  41.7911025
   2.9655610  63.3786683  41.5697781   2.6064491  63.8848962  42.0491965
   4.5947668  45.8980520  21.2474529   4.5641673  46.7525157  21.4192799
   5.1929017  45.5975813  21.8060673   4.6784826  45.9797017  21.3549332
   1.1041070  51.2542697  35.6087916   1.8107837  50.7594728  35.7374850
   1.2929005  51.6951778  34.8790574   1.2368975  51.2461047  35.5196962
   2.4164243  48.4732822  19.5192839   2.3003769  49.2240508  19.9484977
   3.2120129  48.2156776  19.7688926   2.5168832  48.5467669  19.6196931
   1.7299548  35.8220760  23.2167454   1.4152989  36.5124238  23.6487876
   1.2126489  35.7665542  22.5152954   1.6064018  35.9155648  23.1764403
   6.5260034  51.3971565  24.7037909   5.6957738  51.6082209  24.8671325
   6.4769287  50.5708620  24.4280192   6.3966770  51.3061172  24.6875274
   6.0213993  44.0441966  28.4988330   5.1842414  44.1144153  28.7335925
   5.9902224  44.0466461  27.6262632   5.8932275  44.0552193  28.4047878
   0.7444178  48.2397642  24.0900222   1.5001694  48.6729157  24.1289130
   0.8506503  47.5902412  24.6634858   0.8714349  48.2075126  24.1798247
   3.7824350  52.0670920  24.8402625   3.3459581  52.0707662  25.5961596
   3.4487265  52.7476419  24.4082202   3.6686970  52.1683375  24.8883457
   3.7021832  39.1084748  27.0832053   4.3447741  39.1782852  27.6693968
   3.9544853  38.4413970  26.5811594   3.8343965  39.0211096  27.0959332
   6.9168696  48.7851840  23.7322262   7.5785130  48.2242508  23.6318170
   6.2760108  48.2903870  24.0574953   6.9197563  48.6288249  23.7654602
   3.2033527  49.8017222  23.4734251   3.4389116  49.9462421  22.6461101
   3.3523090  50.5659630  23.8665764   3.2599330  49.9356276  23.4097854
   5.0323983  48.6418888  21.3103854   5.3632200  49.1746528  20.7043949
   5.6057071  48.6957776  21.9665805   5.1657662  48.7288457  21.3181636
   6.1403335  43.8829385  22.8144016   5.8839900  43.0709326  22.6241899
   6.9832649  43.8906952  22.5874203   6.2269360  43.7641382  22.7528833
   3.8228494  51.0378981  32.6502569   3.5867131  50.2067046  32.5314629
   4.4671723  50.9864588  33.2357413   3.8823165  50.9076669  32.7188462
   4.8464915  50.8223430  28.7130863   4.5410732  51.5551486  29.0744179
   4.1271130  50.4161359  28.4323649   4.6952257  50.8705163  28.7244000
  10.5466707  47.4616430  28.0399207  10.4791207  47.4812389  27.1701794
  10.5322369  48.3046757  28.2654878  10.5345463  47.5890165  27.9451684
   2.0353730  44.4757150  25.4250398   1.6918496  43.7547485  25.7757648
   2.1346773  44.2671001  24.5828756   1.9995773  44.3381353  25.3522078
   2.4966759  50.9382854  20.9674386   3.0624792  51.5976064  20.8832929
   1.8494663  51.2832552  21.4390788   2.4845516  51.0864796  21.0247143
   4.4302220  47.6016722  24.5871183   4.3436194  47.7572148  25.4405961
   3.9752700  48.2454797  24.2130588   4.3505476  47.7192477  24.6578289
   2.1976084  51.6310828  26.9983523   2.0590444  52.3291874  27.5032266
   1.4176082  51.4759485  26.6419705   2.0619311  51.7110995  27.0209798
   3.6929457  50.9889082  17.7600023   3.3136266  50.2026220  17.7529312
   3.0295703  51.5375939  17.6171667   3.5387932  50.9533906  17.7380819
   1.1474083  33.9314782  25.1634104   1.2657651  34.3891245  24.4301406
   0.9736259  33.1260043  24.8770321   1.1393254  33.8808554  25.0135037
   1.9389556  53.2334573  18.0951708   2.0209394  54.0401559  17.7713159
   2.4239298  53.2530532  18.8192482   2.0226714  53.3555235  18.1538607
   1.4464756  51.9931991  38.1770034   2.2599622  51.7217140  38.3375167
   1.2859723  51.6939531  37.3730230   1.5434705  51.9086917  38.0815440
   1.4586000  53.0538281  33.4492875   2.0965721  52.5598477  33.1155331
   0.8160092  52.9815682  32.8645102   1.4580227  52.9697290  33.3135230
   3.1843000  44.9027427  28.0158791   2.7570609  44.8153776  27.2606890
   2.5469053  45.0105203  28.6013635   3.0272608  44.9060087  27.9904232
   1.5140257  53.7458090  30.0898232   2.3032635  53.3947154  30.2100313
   1.6883855  54.5594478  29.8274865   1.6560539  53.8143947  30.0686100
   3.6207769  38.3099411  24.1317416   3.0082083  38.7969813  24.5171147
   3.7171944  37.6342902  24.6755067   3.5445667  38.2817719  24.2696274
   7.2632797  49.3816347  29.5594932   7.3215921  49.8302996  30.3054908
   6.6299264  49.7915160  29.1225012   7.1784092  49.5090082  29.6047480
   4.2154476  47.4032635  27.6460622   3.9752699  46.5639050  27.6503048
   4.6946484  47.4832802  28.3701395   4.2506660  47.2914035  27.7535424
   6.2159663  44.1834092  25.5989881   5.9769433  44.1429927  24.7610666
   6.3793565  45.0305244  25.7255602   6.2049967  44.3026177  25.4943363
   2.8205693  48.5684042  31.5294926   3.5439892  48.1156568  31.3505946
   2.5555656  48.8488707  30.7467254   2.8886967  48.5435010  31.3873642
   5.2541007  47.5310453  30.0325476   5.8458848  48.1707703  30.0643674
   5.6900002  46.8333489  30.3217543   5.4059439  47.5228803  30.0806309
   2.2790149  44.7455671  22.3328618   1.6081339  45.2885373  22.2041684
   2.9729899  45.2150526  22.0910313   2.2819016  44.8953942  22.2784146
   2.4418276  41.2011555  25.2418992   2.7945886  40.7741278  25.9164790
   1.5833078  41.1162398  25.3720068   2.3667721  41.1256295  25.3614002
   3.8742336  36.3229967  26.1703304   3.3673201  35.6159106  26.1024482
   4.6709770  35.9923155  26.3004381   3.9169576  36.1703118  26.1802299
   6.0762476  50.8394893  19.1544169   6.4596082  51.5886249  19.3842266
   5.2806590  51.0860713  18.8956158   6.0156259  50.9864587  19.1501742
   2.5163058  41.8196516  22.3180126   2.5157285  41.6645173  23.1764403
   2.3119238  42.6659503  22.2621512   2.4862836  41.9217137  22.4368066
   2.3055729  49.2497705  28.6593462   2.7310801  48.7272127  28.1063887
   1.9412649  49.8478543  28.1382085   2.3142332  49.2607932  28.5002472
   0.9811313  54.5733283  37.1686691   1.0908279  53.7841844  37.5243439
   1.3102210  54.4839219  36.3661029   1.0463719  54.4439136  37.1029082
   2.3402139  40.8235258  29.1373504   1.7565128  41.3244465  28.7251072
   2.6606434  40.3164815  28.5037828   2.3015315  40.8227093  28.9832011
  15.5680252  61.4165828  21.2474529  15.5374256  62.2710465  21.4192799
  16.1661601  61.1161121  21.8060673  15.6517410  61.4982325  21.3549332
   8.7679937  60.5041479  26.0027460   7.9117832  60.6649978  26.0536577
   8.8147590  59.6333543  26.0232521   8.6479048  60.3992281  26.0133526
  12.0773653  66.7728005  35.6087916  12.7840420  66.2780036  35.7374850
  12.2661589  67.2137086  34.8790574  12.2101559  66.7646355  35.5196962
  11.6131758  62.5633523  28.6459112  12.1587718  63.2418610  28.7053081
  11.5548634  62.4220984  27.7860693  11.6847672  62.6425525  28.5271172
  13.3896826  63.9918130  19.5192839  13.2736352  64.7425816  19.9484977
  14.1852713  63.7342084  19.7688926  13.4901416  64.0652977  19.6196931
   7.3228860  59.9828148  20.8896568   8.0209025  60.1616276  21.3818032
   7.6381192  59.4598488  20.2666958   7.4724197  59.9321920  20.8698579
   7.5116795  66.3698593  20.8776360   7.9510431  65.7615694  21.3231133
   7.3621458  65.9905967  20.1061825   7.5538261  66.2237064  20.8295527
   4.9788438  64.9642605  28.0795185   5.6237441  64.4715048  27.7606134
   5.2190215  65.1067392  28.9061264   5.1099023  64.9120047  28.1544719
   7.5174530  67.8097511  27.7302078   7.7997772  67.0148917  27.5088834
   8.2460690  68.2878098  27.7507139   7.6664093  67.7632108  27.7005093
   5.4955723  55.3520545  24.9717843   5.1659054  55.8031688  24.3021542
   4.8200725  55.2736708  25.5190850   5.3466160  55.4071680  24.9541066
  11.1126132  64.7225775  17.8307129  11.0277427  65.5786741  17.9756698
  11.6010515  64.4470099  18.4989288  11.1715029  64.8083096  17.9509211
  12.7032131  51.3406068  23.2167454  12.3885572  52.0309546  23.6487876
  12.1859073  51.2850850  22.5152954  12.5796602  51.4340956  23.1764403
  12.0444565  61.3410569  19.3304864  11.5156037  61.5570202  19.9902171
  12.5669585  62.0346707  19.2505834  12.0433018  61.4753706  19.4160464
  17.4992618  66.9156873  24.7037909  16.6690321  67.1267517  24.8671325
  17.4501870  66.0893928  24.4280192  17.3699353  66.8246479  24.6875274
   9.2165948  70.1955541  33.5001991   9.3049293  70.0081682  34.3480202
   9.6455660  69.5492971  33.1006838   9.2928050  70.0718549  33.5673743
   8.3921387  61.4839438  16.6081253   8.6317391  61.6917421  15.7956596
   8.7137228  60.6796946  16.7170197   8.4758545  61.3953539  16.5041806
   3.7011678  53.4132833  20.4540791   4.4557646  53.7811150  20.2157841
   3.5239212  53.7872388  21.2219970   3.7866156  53.5231021  20.5325679
  16.9946576  59.5627274  28.4988330  16.1574997  59.6329461  28.7335925
  16.9634807  59.5651769  27.6262632  16.8664859  59.5737501  28.4047878
   3.3911305  61.7060309  34.2136699   3.5631809  61.5966204  35.0621980
   3.9280663  62.3514715  33.9767891   3.4956309  61.7852311  34.3041795
   2.0568742  55.8203152  17.1518904   1.8744315  56.0375033  16.3259897
   2.9194355  55.9342165  17.2077518   2.1573332  55.8693050  17.0373391
   7.7368461  52.8229563  20.1867928   8.4654622  52.6445518  19.7406084
   7.8263354  53.6647643  20.3975106   7.8575123  52.9213441  20.1521445
  11.7176762  63.7582950  24.0900222  12.4734277  64.1914465  24.1289130
  11.8239087  63.1087720  24.6634858  11.8446933  63.7260434  24.1798247
  14.7556933  67.5856228  24.8402625  14.3192165  67.5892970  25.5961596
  14.4219849  68.2661727  24.4082202  14.6419553  67.6868683  24.8883457
   9.3286007  69.6264560  36.1645775  10.1126423  69.7395408  36.5301517
   9.1282601  68.8005698  36.3604461   9.4152032  69.5211280  36.2480161
  14.6754416  54.6270055  27.0832053  15.3180325  54.6968160  27.6693968
  14.9277437  53.9599278  26.5811594  14.8076548  54.5396404  27.0959332
   2.4471629  57.8370619  31.6956626   1.7543425  57.3667599  31.9417358
   3.0631956  57.6108923  32.2698334   2.4356159  57.7337751  31.8165779
  17.8901279  64.3037147  23.7322262  18.5517713  63.7427816  23.6318170
  17.2492691  63.8089178  24.0574953  17.8930147  64.1473557  23.7654602
  14.1766110  65.3202530  23.4734251  14.4121699  65.4647729  22.6461101
  14.3255674  66.0844938  23.8665764  14.2331913  65.4541584  23.4097854
   1.1712188  61.8036023  32.8383472   1.8952160  61.7889053  33.3248366
   1.2728324  62.5131378  32.3405440   1.2930397  61.9060726  32.8362258
  16.0056567  64.1604196  21.3103854  16.3364784  64.6931836  20.7043949
  16.5789655  64.2143084  21.9665805  16.1390246  64.2473765  21.3181636
   8.5457137  65.2835107  37.7032419   7.7530118  65.5978619  37.8885038
   8.6606064  65.4986576  36.8653203   8.4452548  65.3618944  37.6070753
  11.2188456  62.0069099  21.9927435  11.3135310  62.7458393  22.4467060
  10.5947299  61.5786574  22.4261999  11.1397486  62.0530419  22.1235582
   9.4740930  65.1855311  32.6417715  10.0479791  64.5482555  32.7966279
   9.3955734  65.1859394  31.7727373   9.5474165  65.0920423  32.5364126
  11.4711477  63.8517838  15.2264387  11.3891640  63.9220025  16.0919374
  12.1091198  64.4147582  15.0348127  11.5531315  63.9456809  15.3254336
   4.8304648  63.6178576  24.6938913   4.5723893  62.7850311  24.6670212
   4.8853131  63.8436189  23.8531413   4.8004426  63.5276348  24.5659050
   9.9105699  55.7207027  24.7943005   9.2062025  55.2316212  24.9526925
   9.9590673  55.7329501  23.9231450   9.8135750  55.6496675  24.6882345
   3.8039361  61.1716339  25.1803808   3.2288952  61.3308507  25.8167769
   3.4275037  60.5351748  24.7172258   3.6642173  61.1014152  25.2058366
   7.4712649  59.6439688  30.0396186   7.0827082  59.2193906  29.3848377
   6.8067348  59.8921838  30.5473213   7.3159577  59.6178409  30.0184054
  17.1135918  59.4014693  22.8144016  16.8572483  58.5894634  22.6241899
  17.9565232  59.4092260  22.5874203  17.2001944  59.2826690  22.7528833
  11.2939011  53.3414317  27.5520170  11.6749523  52.6592488  27.9388044
  10.4902295  53.0523919  27.3695835  11.2315472  53.1981365  27.5824226
   8.5751587  63.8738293  18.2372993   9.3892226  64.1653185  18.1255764
   8.5110729  63.2198155  17.6631286   8.6854326  63.8203487  18.1361830
  14.7961078  66.5564289  32.6502569  14.5599715  65.7252354  32.5314629
  15.4404307  66.5049896  33.2357413  14.8555748  66.4261977  32.7188462
   4.4459496  67.3459810  23.3645305   5.0833443  67.1071558  23.9097098
   4.8714567  67.5496969  22.6298466   4.6035662  67.3410820  23.3362462
   5.2530851  55.8468515  37.4182779   4.9384292  56.6168078  37.1552341
   4.9320784  55.2838771  36.8335006   5.1589770  55.8778784  37.2924129
  15.8197498  66.3408738  28.7130863  15.5143315  67.0736794  29.0744179
  15.1003714  65.9346667  28.4323649  15.6684841  66.3890471  28.7244000
   6.8280968  67.8232233  25.0439091   6.9019976  67.6607405  25.8980941
   7.6450474  68.0122422  24.7999573   6.9597326  67.8268975  25.1337117
  21.5199290  62.9801738  28.0399207  21.4523791  62.9997697  27.1701794
  21.5054953  63.8232065  28.2654878  21.5078047  63.1075473  27.9451684
   2.8062748  54.2359037  23.0328975   1.9385174  54.3081636  23.0986584
   3.0937952  55.0381115  23.2216950   2.7202496  54.3653184  23.0703742
  11.9295637  54.3836896  31.3640297  12.6749229  54.1946706  30.9503722
  11.5132941  54.9095134  30.8054153  11.9780611  54.4339041  31.2204870
  19.3057908  61.7546124  26.3145802  19.8565829  61.1214193  26.5542894
  19.2902023  62.2861517  27.0061306  19.3843104  61.7395073  26.4524660
   5.9580299  65.5884722  30.8605695   5.4591992  66.3000489  30.9390584
   6.7680523  65.9085388  30.8223858   6.0036405  65.7411570  30.8662264
   2.2208416  64.8507675  25.1068416   1.9321665  64.2245146  25.6414143
   3.0891764  64.7927962  25.1733097   2.3068668  64.7495219  25.1959371
  13.0086314  59.9942458  25.4250398  12.6651080  59.2732793  25.7757648
  13.1079357  59.7856309  24.5828756  12.9728357  59.8566661  25.3522078
  13.4699343  66.4568162  20.9674386  14.0357376  67.1161372  20.8832929
  12.8227246  66.8017860  21.4390788  13.4578099  66.6050103  21.0247143
   4.8847357  58.4465766  36.1567993   4.0747132  58.7523546  36.0457836
   5.3622043  59.1671348  36.2720578   4.8350835  58.5980367  36.1575065
   3.7438916  67.6611487  26.4050897   3.2219670  67.8011779  27.0902761
   4.1312936  66.9022151  26.5953014   3.7242617  67.5697011  26.5351973
   5.1705242  64.6915506  21.8032388   4.9748024  65.2990241  21.2092691
   5.3939587  63.9983450  21.3224062   5.1739883  64.6793032  21.6448468
   3.5683772  61.5770244  21.9213256   4.2906424  61.7411402  21.4617062
   3.0891765  62.2979909  21.8152596   3.6047502  61.7068474  21.8378870
  11.5277279  57.9134043  27.3009941  10.6888380  57.9395322  27.0648204
  11.5981647  58.5604778  27.8815288  11.4145673  58.0130169  27.3519058
   1.2191388  63.9828316  31.0267396   1.7312485  64.2612570  30.3776156
   0.9327731  64.7217611  31.3930209   1.2526252  64.1330670  30.9857274
   9.9746558  54.8119420  22.0337557  10.6772910  54.6127168  21.5557515
   9.7090746  54.0395362  22.3406400  10.0393190  54.6682386  22.0082998
  15.4034803  63.1202030  24.5871183  15.3168778  63.2757456  25.4405961
  14.9485283  63.7640105  24.2130588  15.3238060  63.2377785  24.6578289
   4.7375114  56.0754705  31.0868437   4.5458311  56.0909839  31.9367861
   5.5873710  56.2718379  31.0635092   4.8350836  56.1069056  31.2091732
   9.2760619  60.4412777  23.2096742   9.0295334  60.3608528  24.0433531
   9.6045742  59.6566245  23.0159270   9.2881863  60.3139042  23.3044265
  13.1708668  67.1496136  26.9983523  13.0323027  67.8477182  27.5032266
  12.3908666  66.9944793  26.6419705  13.0351895  67.2296303  27.0209798
  11.5086753  63.4492511  33.2505905  11.5034792  62.5772328  33.2548332
  12.2147747  63.6480681  32.7775361  11.6131757  63.3496386  33.1812940
   5.2357647  63.1769495  32.6219725   5.3801022  63.7570703  31.9862835
   5.5833295  63.5545792  33.3269580   5.3085108  63.3190199  32.6318720
   7.4077564  62.3759664  30.4044857   6.6600878  62.5690678  29.9993135
   7.5619089  61.5504883  30.1668978   7.3199991  62.2824775  30.3090263
  14.6662041  66.5074390  17.7600023  14.2868850  65.7211528  17.7529312
  14.0028286  67.0561247  17.6171667  14.5120516  66.4719214  17.7380819
   7.6479341  56.2710214  31.2940261   8.1051955  57.0034189  31.4213053
   7.7235670  55.8476680  32.0527516   7.7270311  56.3167452  31.4241337
  12.1206667  49.4500090  25.1634104  12.2390235  49.9076553  24.4301406
  11.9468843  48.6445351  24.8770321  12.1125838  49.3993862  25.0135037
   5.5261719  58.2612318  28.1382085   4.7357794  58.0803778  28.4599420
   5.9222342  57.4839271  28.1212379   5.4678595  58.1199779  28.1834633
  10.9105405  65.8954748  25.8641530  10.2350407  65.6639981  26.3654918
  10.9197781  65.2875931  25.2383636  10.8123910  65.7713674  25.8457683
   8.0399549  60.7372577  32.6205584   7.9758690  61.5982534  32.4925720
   8.1796737  60.4204571  31.8201135   8.0515019  60.8172744  32.4833796
  12.9122140  68.7519881  18.0951708  12.9941977  69.5586867  17.7713159
  13.3971882  68.7715840  18.8192482  12.9959298  68.8740543  18.1538607
   6.7218643  63.4304717  26.7621786   6.2980892  63.6309216  26.0260805
   6.5463498  62.5833565  26.8746086   6.6329524  63.3353498  26.6695476
   2.0101088  63.9256768  22.1949759   2.1665707  63.8603571  23.0505751
   2.3501681  64.7005321  21.9828439   2.0834323  64.0305966  22.2904353
   8.5480233  63.3014652  21.0643122   9.0895778  62.7985033  21.5281743
   8.8626792  63.2479846  20.2532607   8.6744630  63.2194073  21.0126934
  12.4197340  67.5117299  38.1770034  13.2332205  67.2402448  38.3375167
  12.2592306  67.2124839  37.3730230  12.5167288  67.4272225  38.0815440
   9.6969502  58.1950956  31.1165423   9.9111472  57.5561871  30.5628777
   9.0803401  58.6396780  30.6873284   9.6374831  58.1661100  30.9715854
  11.8608590  59.8040021  32.0548730  11.0485272  59.4965912  32.1361902
  12.3198525  59.3239022  32.6191442  11.8088975  59.6876514  32.1503324
  11.2713845  67.6819693  22.5025674  10.9128499  67.8534336  23.2789706
  10.7852555  68.1432899  21.9453673  11.1472542  67.7758665  22.5350943
   9.0884231  51.3050892  26.1052765   8.2177789  51.2789613  26.0586075
   9.3424572  51.1328084  25.2878611   8.9977791  51.2761036  25.9772902
   8.9562097  61.2100093  36.8377432   9.4261729  61.8342209  37.2245306
   9.0023978  60.5417068  37.3970647   9.0329973  61.2034773  36.9777503
   6.1133371  53.3157120  27.5626236   5.5971860  52.6237312  27.6877815
   5.5527300  53.9827897  27.5088835   5.9539884  53.3120378  27.5732302
   8.1825605  53.8550080  29.3919088   7.7957358  53.8799112  30.1732618
   7.6958542  53.2891759  28.9393605   8.0538113  53.7745831  29.4406992
  12.4318584  68.5723589  33.4492875  13.0698305  68.0783785  33.1155331
  11.7892676  68.5000990  32.8645102  12.4312811  68.4882598  33.3135230
  14.1575584  60.4212735  28.0158791  13.7303192  60.3339084  27.2606890
  13.5201637  60.5290511  28.6013635  14.0005191  60.4245395  27.9904232
   7.8482746  50.7417066  31.6829348   8.4775864  51.2777366  31.4050419
   8.0168609  50.6494425  32.5342914   7.9660541  50.8078428  31.7677876
   7.6496661  55.5288261  33.9555760   8.4770091  55.2573409  34.0114374
   7.6704507  56.3249102  34.3119578   7.7749511  55.6068015  34.0170943
  12.4872841  69.2643398  30.0898232  13.2765219  68.9132462  30.2100313
  12.6616438  70.0779786  29.8274865  12.6293122  69.3329255  30.0686100
   2.2266151  62.6752123  27.1426020   1.3854158  62.5755998  27.3504914
   2.4356159  63.4447604  27.4940341   2.1330844  62.7744167  27.2253335
  11.3406665  53.2752954  24.6514650  11.5456258  53.2075262  25.4971647
  11.0133089  54.0811776  24.5835827  11.3221913  53.3838895  24.7674305
   6.0382816  60.6033523  26.3923618   5.7345953  60.0489511  26.9934026
   5.3362237  60.7825733  25.9051652   5.8899026  60.5478305  26.4093324
   5.0948913  57.9134042  20.9568320   5.3708647  57.1952955  20.5445887
   5.6947582  58.5118962  20.7489426   5.2242178  57.8954413  20.8649081
  14.5940352  53.8284719  24.1317416  13.9814666  54.3155121  24.5171147
  14.6904527  53.1528209  24.6755067  14.5178250  53.8003027  24.2696274
   8.5959433  55.5847560  19.2314915   9.0503180  55.7558120  19.9562759
   9.0699479  54.9715670  18.8312691   8.7327754  55.5198445  19.2788676
   2.1174959  65.0695886  28.5617653   1.5262892  65.7105384  28.5320668
   2.8795982  65.4933503  28.5348953   2.1423220  65.2271724  28.5532801
   4.1618931  56.8964578  33.7957698   3.7704497  56.2497925  34.2313476
   4.3304794  57.4876014  34.4151953   4.1289842  56.8878846  33.9520404
  18.2365380  64.9001655  29.5594932  18.2948504  65.3488304  30.3054908
  17.6031848  65.3100468  29.1225012  18.1516676  65.0275390  29.6047480
  11.8764475  70.5205197  25.9949678  11.6784164  71.0096012  25.3005889
  11.2552186  70.7246439  26.5733811  11.7552040  70.6221736  25.9772901
   5.9372453  62.2890094  20.3359922   6.6814498  62.6764370  20.5742872
   6.0833150  61.4447519  20.5000410   6.0683039  62.2220567  20.3953892
   7.8552029  54.0840353  25.3691784   7.0088074  54.2563161  25.2433133
   7.8523161  53.2789697  25.7057612   7.7299179  53.9901382  25.4002910
   8.9250329  57.8615567  26.2353841   8.4510284  57.3357329  26.7459152
   9.2968465  57.3145040  25.6668703   8.9100218  57.7031564  26.2268989
  15.1887060  62.9217943  27.6460622  14.9485283  62.0824358  27.6503048
  15.6679067  63.0018110  28.3701395  15.2239244  62.8099343  27.7535424
  10.8533829  58.7552122  19.2979595  10.3256848  58.8380866  18.6085304
  11.3129537  59.4969993  19.2944240  10.8435679  58.8772784  19.1954290
  17.1892247  59.7019400  25.5989881  16.9502017  59.6615234  24.7610666
  17.3526148  60.5490552  25.7255602  17.1782550  59.8211485  25.4943363
  13.7938277  64.0869350  31.5294926  14.5172476  63.6341876  31.3505946
  13.5288239  64.3674015  30.7467254  13.8619550  64.0620318  31.3873642
   2.6625145  58.6829523  28.2647805   2.0378216  58.6947915  27.6573758
   2.3270740  59.1589698  28.9139046   2.5210637  58.7548040  28.2704374
  10.4070911  67.3255686  18.4289252  11.1305110  67.7913799  18.2853826
   9.9671503  67.3929295  17.6786849  10.4486604  67.4039522  18.2974034
   9.5757067  64.1853228  29.6789941   8.9614060  63.6411278  29.9738577
  10.0924352  63.6717464  29.1995757   9.5612729  64.0289637  29.6514170
   8.8153364  65.2557498  27.4134240   8.3880972  64.6307217  26.9799675
   8.8078308  64.9732420  28.2393247   8.7512505  65.1210279  27.4714067
   1.9315891  60.2922671  30.4822674   2.0909378  59.5365995  30.8874396
   1.7508784  60.8413610  31.1363412   1.9281250  60.2616485  30.6385380
   9.8736194  52.4583907  31.0373463   9.3776755  52.6547581  30.3465030
  10.6305256  52.8576575  30.8662265   9.9123019  52.5461640  30.9093600
   7.1439073  56.1326252  27.6276774   7.1681561  55.5986365  26.9389554
   7.3950547  55.6243561  28.2902365   7.1848992  55.9787156  27.6241419
   3.4240396  54.8597071  27.0082518   3.4638767  55.3606277  27.7217226
   2.5990060  54.9507464  26.7388441   3.3079922  54.9478887  27.0733056
   5.6070009  64.4257811  35.1102813   4.7565639  64.5629525  35.2460458
   5.7698136  63.6921589  35.5550515   5.5053872  64.3371912  35.1958412
   4.8454759  61.3757580  29.3056417   4.0146689  61.5431398  29.0991665
   4.7906276  60.9993531  30.0905303   4.7144174  61.3447312  29.3904945
   2.6538542  54.8666473  34.9412828   3.2791246  54.3228606  35.2142260
   2.1989022  54.3861391  34.3720618   2.6786803  54.7155955  34.8974422
   3.2190803  59.6513172  19.8346535   3.3593764  60.1485636  20.5375176
   3.7173336  58.9499466  19.9760749   3.3131884  59.6215151  19.9598114
  16.2273591  63.0495760  30.0325476  16.8191431  63.6893011  30.0643674
  16.6632586  62.3518797  30.3217543  16.3792022  63.0414111  30.0806309
   4.8270008  56.4494258  17.1384554   5.1485849  55.9697341  16.4843816
   5.0896952  57.2593905  16.9475365   4.9136034  56.4984156  17.0140046
   8.0566981  67.4713133  30.6583370   7.5492072  68.0248980  31.1024000
   7.7593627  67.5321423  29.8402144   7.9371866  67.5619444  30.6031827
  10.2229163  55.8366452  29.5008033  10.6484235  55.3838979  28.8891559
   9.6086156  55.2826523  29.7772820  10.1957808  55.6880429  29.4513058
   8.6623386  52.3081552  22.9098610   8.0191704  52.1579199  23.4783748
   8.3222793  52.0623897  22.1447714   8.5168463  52.2493675  22.8801625
  13.2522732  60.2640979  22.3328618  12.5813922  60.8070681  22.2041684
  13.9462483  60.7335834  22.0910313  13.2551600  60.4139250  22.2784146
  13.4150860  56.7196863  25.2418992  13.7678470  56.2926586  25.9164790
  12.5565661  56.6347706  25.3720068  13.3400305  56.6441603  25.3614002
   2.1134545  59.3504382  23.3001838   1.3946534  59.7668515  23.5674702
   2.4846907  59.9158621  22.7493476   2.0626477  59.4953664  23.2584645
  11.4134126  59.9832231  29.1903834  11.3932053  59.8015526  30.0438613
  11.4613326  60.8544250  29.1663418  11.4168767  60.0848770  29.3127129
   9.3580456  66.5719423  35.1152310   9.3176310  65.9269100  34.5297466
  10.1703774  66.5156041  35.4277723   9.4723609  66.4678390  35.0749260
   7.8881119  58.3902382  18.6375218   7.2945959  58.7119379  18.0859785
   7.9256397  57.5443478  18.4296324   7.8055508  58.3126711  18.5257989
  14.8474920  51.8415275  26.1703304  14.3405785  51.1344414  26.1024482
  15.6442354  51.5108463  26.3004381  14.8902159  51.6888426  26.1802299
  10.7638936  58.3481887  22.0676968  10.5352629  58.3714588  21.2255326
  11.0237012  57.5239354  22.1871978  10.7685124  58.2297967  21.9602166
   5.0458164  60.2016360  31.6702068   4.5337067  59.5937543  32.0287099
   4.8737660  60.9172952  32.1376044   4.9447801  60.2179659  31.7918292
   3.8183698  56.8858433  23.3631164   4.2941065  57.2475513  22.7281345
   3.3172298  57.5414901  23.6431306   3.8149057  57.0352622  23.3107905
  17.0495060  66.3580201  19.1544169  17.4328666  67.1071557  19.3842266
  16.2539173  66.6046021  18.8956158  16.9888842  66.5049895  19.1501742
   8.9227235  58.1240604  34.1104324   9.4798665  57.8954414  33.4782789
   8.5988300  58.8846270  33.8339536   8.9573645  58.2024441  33.9760821
   6.6410352  61.2108258  35.0756331   7.3921679  61.5259935  35.3895885
   6.8332928  61.0087429  34.2490253   6.7801766  61.2275640  34.9999727
   5.8610351  59.0299633  16.7304548   6.2409316  59.0479262  15.9455662
   5.1202948  59.4753622  16.6095395   5.8079189  59.0981407  16.5968116
  13.4895642  57.3381824  22.3180126  13.4889868  57.1830481  23.1764403
  13.2851822  58.1844811  22.2621512  13.4595420  57.4402445  22.4368066
  11.2136494  62.0179326  25.9716333  11.7090159  61.3002321  25.9320353
  10.4036270  61.7150124  25.8570820  11.1680387  61.8676972  25.9490059
  13.2788313  64.7683013  28.6593462  13.7043384  64.2457435  28.1063887
  12.9145233  65.3663851  28.1382085  13.2874915  64.7793240  28.5002472
   9.8666912  68.4817278  24.9894619  10.3378091  69.1957540  25.1584605
  10.2027091  67.8816028  25.5254489   9.9862027  68.4988742  25.0926995
  10.5040859  68.2735212  31.7522312   9.9561805  67.6493095  31.4842377
  10.9653887  68.4629484  31.0366391  10.4908068  68.2094262  31.6072743
   9.8568762  50.1775074  28.5433807   9.0514726  50.0672804  28.8601646
   9.7275498  50.2787530  27.6863673   9.7188895  50.1758744  28.4641848
  13.3134723  56.3420566  29.1373504  12.7297712  56.8429773  28.7251072
  13.6339017  55.8350122  28.5037828  13.2747898  56.3412401  28.9832011
   5.8529522  55.2561161  19.4132179   6.6745217  55.4259474  19.1713874
   5.3899173  55.4108422  18.6898477   5.9060684  55.3042894  19.2703823
   4.4424854  53.2503923  30.1930608   4.9869267  52.9095050  30.7834950
   4.4961790  54.1089385  30.3351892   4.5313973  53.3259183  30.3012481
  10.0699185  69.2786284  28.2831653  10.8897559  69.1349251  28.5447948
   9.7893263  69.9032483  28.8248091  10.1495928  69.3496637  28.4019593
  16.4688307  70.8705853  24.9717843  16.1391637  71.3216996  24.3021542
  15.7933309  70.7922016  25.5190850  16.3198743  70.9256988  24.9541066
  23.6764715  66.8591376  23.2167454  23.3618156  67.5494854  23.6487876
  23.1591656  66.8036158  22.5152954  23.5529185  66.9526264  23.1764403
  14.6744261  68.9318141  20.4540791  15.4290229  69.2996458  20.2157841
  14.4971796  69.3057696  21.2219970  14.7598740  69.0416329  20.5325679
  27.9679160  75.0812582  28.4988330  27.1307581  75.1514769  28.7335925
  27.9367391  75.0837077  27.6262632  27.8397442  75.0922809  28.4047878
  13.0301326  71.3388460  17.1518904  12.8476899  71.5560341  16.3259897
  13.8926939  71.4527473  17.2077518  13.1305915  71.3878358  17.0373391
  18.7101045  68.3414871  20.1867928  19.4387205  68.1630826  19.7406084
  18.7995938  69.1832951  20.3975106  18.8307707  68.4398749  20.1521445
  25.6487000  70.1455363  27.0832053  26.2912908  70.2153468  27.6693968
  25.9010020  69.4784586  26.5811594  25.7809132  70.0581712  27.0959332
  20.8838282  71.2392335  24.7943005  20.1794609  70.7501520  24.9526925
  20.9323256  71.2514809  23.9231450  20.7868334  71.1681983  24.6882345
  28.0868502  74.9200001  22.8144016  27.8305067  74.1079942  22.6241899
  28.9297816  74.9277568  22.5874203  28.1734527  74.8011998  22.7528833
  22.2671594  68.8599625  27.5520170  22.6482106  68.1777796  27.9388044
  21.4634879  68.5709227  27.3695835  22.2048056  68.7166673  27.5824226
  16.2263435  71.3653823  37.4182779  15.9116876  72.1353386  37.1552341
  15.9053367  70.8024079  36.8335006  16.1322354  71.3964092  37.2924129
  13.7795332  69.7544344  23.0328975  12.9117757  69.8266944  23.0986584
  14.0670536  70.5566423  23.2216950  13.6935080  69.8838492  23.0703742
  22.9028220  69.9022204  31.3640297  23.6481812  69.7132014  30.9503722
  22.4865525  70.4280442  30.8054153  22.9513195  69.9524349  31.2204870
  22.5009863  73.4319351  27.3009941  21.6620964  73.4580630  27.0648204
  22.5714230  74.0790086  27.8815288  22.3878256  73.5315477  27.3519058
  20.9479141  70.3304728  22.0337557  21.6505494  70.1312476  21.5557515
  20.6823330  69.5580670  22.3406400  21.0125774  70.1867694  22.0082998
  15.7107697  71.5940013  31.0868437  15.5190894  71.6095147  31.9367861
  16.5606293  71.7903687  31.0635092  15.8083419  71.6254364  31.2091732
  18.6211924  71.7895522  31.2940261  19.0784539  72.5219497  31.4213053
  18.6968253  71.3661988  32.0527516  18.7002894  71.8352760  31.4241337
  23.0939250  64.9685398  25.1634104  23.2122819  65.4261861  24.4301406
  22.9201426  64.1630659  24.8770321  23.0858421  64.9179170  25.0135037
  20.0616814  66.8236200  26.1052765  19.1910372  66.7974921  26.0586075
  20.3157155  66.6513392  25.2878611  19.9710374  66.7946344  25.9772902
  17.0865955  68.8342428  27.5626236  16.5704443  68.1422620  27.6877815
  16.5259884  69.5013205  27.5088835  16.9272468  68.8305686  27.5732302
  19.1558188  69.3735388  29.3919088  18.7689941  69.3984420  30.1732618
  18.6691125  68.8077067  28.9393605  19.0270697  69.2931139  29.4406992
  18.8215330  66.2602374  31.6829348  19.4508448  66.7962674  31.4050419
  18.9901193  66.1679733  32.5342914  18.9393124  66.3263736  31.7677876
  18.6229245  71.0473569  33.9555760  19.4502674  70.7758717  34.0114374
  18.6437091  71.8434410  34.3119578  18.7482095  71.1253323  34.0170943
  22.3139248  68.7938262  24.6514650  22.5188842  68.7260570  25.4971647
  21.9865672  69.5997084  24.5835827  22.2954496  68.9024203  24.7674305
  25.5672936  69.3470027  24.1317416  24.9547250  69.8340429  24.5171147
  25.6637111  68.6713517  24.6755067  25.4910834  69.3188335  24.2696274
  19.5692017  71.1032868  19.2314915  20.0235764  71.2743428  19.9562759
  20.0432063  70.4900978  18.8312691  19.7060337  71.0383753  19.2788676
  18.8284613  69.6025661  25.3691784  17.9820658  69.7748469  25.2433133
  18.8255745  68.7975005  25.7057612  18.7031762  69.5086690  25.4002910
  19.8982913  73.3800875  26.2353841  19.4242867  72.8542637  26.7459152
  20.2701049  72.8330348  25.6668703  19.8832802  73.2216872  26.2268989
  28.1624831  75.2204708  25.5989881  27.9234600  75.1800542  24.7610666
  28.3258732  76.0675860  25.7255602  28.1515134  75.3396793  25.4943363
  20.8468777  67.9769214  31.0373463  20.3509339  68.1732889  30.3465030
  21.6037839  68.3761883  30.8662265  20.8855602  68.0646948  30.9093600
  18.1171657  71.6511560  27.6276774  18.1414144  71.1171673  26.9389554
  18.3683131  71.1428869  28.2902365  18.1581576  71.4972464  27.6241419
  14.3972979  70.3782379  27.0082518  14.4371351  70.8791585  27.7217226
  13.5722644  70.4692772  26.7388441  14.2812505  70.4664195  27.0733056
  13.6271126  70.3851781  34.9412828  14.2523829  69.8413914  35.2142260
  13.1721606  69.9046699  34.3720618  13.6519386  70.2341263  34.8974422
  21.1961747  71.3551760  29.5008033  21.6216818  70.9024287  28.8891559
  20.5818740  70.8011831  29.7772820  21.1690392  71.2065737  29.4513058
  19.6355970  67.8266860  22.9098610  18.9924287  67.6764507  23.4783748
  19.2955376  67.5809205  22.1447714  19.4901047  67.7678983  22.8801625
  24.3883443  72.2382171  25.2418992  24.7411054  71.8111894  25.9164790
  23.5298245  72.1533014  25.3720068  24.3132888  72.1626911  25.3614002
  25.8207504  67.3600582  26.1703304  25.3138368  66.6529722  26.1024482
  26.6174937  67.0293771  26.3004381  25.8634743  67.2073734  26.1802299
  21.7371519  73.8667195  22.0676968  21.5085212  73.8899896  21.2255326
  21.9969596  73.0424662  22.1871978  21.7417707  73.7483275  21.9602166
  24.4628226  72.8567132  22.3180126  24.4622452  72.7015789  23.1764403
  24.2584406  73.7030119  22.2621512  24.4328003  72.9587753  22.4368066
  17.7568991  68.7730056  31.9452714  17.8896896  67.9761050  32.2733690
  18.1414144  69.2996459  32.5250990  17.8325320  68.7329973  32.0796217
  20.8301346  65.6960382  28.5433807  20.0247310  65.5858112  28.8601646
  20.7008082  65.7972838  27.6863673  20.6921479  65.6944052  28.4641848
  24.2867307  71.8605874  29.1373504  23.7030295  72.3615081  28.7251072
  24.6071601  71.3535430  28.5037828  24.2480482  71.8597709  28.9832011
  16.8262106  70.7746469  19.4132179  17.6477800  70.9444782  19.1713874
  16.3631757  70.9293730  18.6898477  16.8793268  70.8228202  19.2703823
  15.4157438  68.7689231  30.1930608  15.9601851  68.4280358  30.7834950
  15.4694373  69.6274693  30.3351892  15.5046557  68.8444491  30.3012481
   0.7991894  28.1920828  22.5427963   1.5058661  27.6972859  22.6714897
   0.9879829  28.6329910  21.8130621   0.9319799  28.1839178  22.4537008
   3.5179318  27.9757112  19.5842615   3.2817955  27.1445177  19.4654676
   4.1622547  27.9242719  20.1697460   3.5773989  27.8454800  19.6528509
   4.5415739  27.7601561  15.6470910   4.2361556  28.4929618  16.0084226
   3.8221954  27.3539490  15.3663696   4.3903081  27.8083294  15.6584047
  10.2417531  24.3994561  14.9739254  10.1742031  24.4190521  14.1041841
  10.2273193  25.2424889  15.1994925  10.2296287  24.5268296  14.8791731
   1.1415580  28.9310122  25.1110081   1.9550446  28.6595271  25.2715214
   0.9810547  28.6317662  24.3070277   1.2385529  28.8465048  25.0155487
   1.2091081  30.6836221  17.0238278   1.9983459  30.3325286  17.1440360
   1.3834679  31.4972609  16.7614912   1.3511363  30.7522078  17.0026146
   6.9583621  26.3194479  16.4934978   7.0166745  26.7681127  17.2394955
   6.3250088  26.7293291  16.0565058   6.8734916  26.4468213  16.5387527
   2.5156517  25.5062173  18.4634973   3.2390716  25.0534699  18.2845993
   2.2506480  25.7866839  17.6807301   2.5837791  25.4813141  18.3213688
   4.9491831  24.4688584  16.9665523   5.5409672  25.1085834  16.9983721
   5.3850826  23.7711620  17.2557590   5.1010263  24.4606934  17.0146355
   2.0006553  26.1875837  15.5933509   2.4261625  25.6650258  15.0403934
   1.6363473  26.7856674  15.0722132   2.0093156  26.1986064  15.4342518
   0.6762137  31.5111414  24.1026738   0.7859103  30.7219975  24.4583485
   1.0053034  31.4217350  23.3001076   0.7414543  31.3817267  24.0369129
  15.2631076  38.3543959   8.1814576  15.2325080  39.2088596   8.3532846
  15.8612424  38.0539252   8.7400720  15.3468234  38.4360456   8.2889379
   8.4630761  37.4419610  12.9367507   7.6068656  37.6028109  12.9876624
   8.5098414  36.5711674  12.9572568   8.3429872  37.3370412  12.9473573
  11.7724477  43.7106136  22.5427963  12.4791244  43.2158167  22.6714897
  11.9612413  44.1515218  21.8130621  11.9052383  43.7024486  22.4537008
   7.8401151  49.3521966  10.0701397   8.2240531  49.9208865   9.5306172
   7.7760293  48.6271477   9.5907213   7.8874579  49.3297430   9.9195260
  11.3082582  39.5011654  15.5799158  11.8538542  40.1796741  15.6393128
  11.2499458  39.3599115  14.7200740  11.3798496  39.5803656  15.4611219
   4.4256656  46.9900720  10.9667511   4.5267019  46.1801074  11.2764639
   3.8298402  46.8957667  10.3367189   4.3529195  46.8565749  10.9193749
  13.0847650  40.9296261   6.4532886  12.9687176  41.6803948   6.8825024
  13.8803537  40.6720215   6.7028973  13.1852240  41.0031108   6.5536978
   4.2657396  51.9078310  12.3682367   4.9094852  52.3491474  12.7578525
   4.5913652  51.1031736  12.2812626   4.4089225  51.8543504  12.4127844
   7.0179684  36.9206279   7.8236615   7.7159849  37.0994407   8.3158079
   7.3332016  36.3976619   7.2007005   7.1675021  36.8700052   7.8038625
   7.2067619  43.3076724   7.8116407   7.6461255  42.6993825   8.2571180
   7.0572282  42.9284098   7.0401872   7.2489085  43.1615196   7.7635574
   4.6739262  41.9020736  15.0135232   5.3188265  41.4093179  14.6946181
   4.9141039  42.0445523  15.8401311   4.8049847  41.8498178  15.0884765
   7.2125354  44.7475642  14.6642125   7.4948596  43.9527048  14.4428881
   7.9411514  45.2256230  14.6847186   7.3614917  44.7010239  14.6345140
   5.1906547  32.2898676  11.9057890   4.8609877  32.7409820  11.2361589
   4.5151549  32.2114839  12.4530896   5.0416984  32.3449811  11.8881113
  10.8076956  41.6603906   4.7647176  10.7228251  42.5164872   4.9096745
  11.2961339  41.3848230   5.4329335  10.8665853  41.7461227   4.8849258
  11.7395389  38.2788700   6.2644911  11.2106860  38.4948333   6.9242217
  12.2620409  38.9724838   6.1845880  11.7383842  38.4131837   6.3500510
  17.1943442  43.8535004  11.6377956  16.3641145  44.0645648  11.8011372
  17.1452694  43.0272059  11.3620239  17.0650177  43.7624611  11.6215321
   5.2553179  46.6838859  14.4725865   4.7380121  46.3246274  13.8687173
   5.9527571  46.1601033  14.4831931   5.2818761  46.5536546  14.3856124
   8.9116771  47.1333673  20.4342038   9.0000117  46.9459813  21.2820248
   9.3406484  46.4871102  20.0346885   8.9878874  47.0096680  20.5013790
   6.4787231  46.4164833  19.4159700   5.9158066  46.0037442  19.9399362
   7.2408255  46.3417738  19.8352844   6.5081680  46.3442233  19.5552701
   2.0383223  48.4062854  12.0196330   2.7403802  47.8914843  12.0769087
   1.9580706  48.7337005  12.8243206   2.1306983  48.3777080  12.1469123
  16.6897400  36.5005405  15.4328377  15.8525821  36.5707592  15.6675971
  16.6585631  36.5029900  14.5602679  16.5615683  36.5115632  15.3387925
   3.0862129  38.6438441  21.1476746   3.2582633  38.5344335  21.9962027
   3.6231487  39.2892846  20.9107938   3.1907133  38.7230442  21.2381842
   1.3633998  44.5969206  11.5281939   2.2022898  44.8292138  11.5755700
   1.3945767  43.7273517  11.4588974   1.4915716  44.5026152  11.5246583
   1.9886701  45.0170081  15.8295244   2.5284926  44.8741212  16.4998616
   1.3056647  45.4166832  16.1979270   1.9678855  45.0549752  15.9829666
  11.4127586  40.6961082  11.0240268  12.1685101  41.1292596  11.0629177
  11.5189910  40.0465851  11.5974904  11.5397757  40.6638565  11.1138294
  14.4507757  44.5234359  11.7742671  14.0142989  44.5271101  12.5301643
  14.1170673  45.2039858  11.3422249  14.3370377  44.6246815  11.8223504
   9.0236831  46.5642692  23.0985822   9.8077247  46.6773539  23.4641564
   8.8233425  45.7383829  23.2944508   9.1102856  46.4589411  23.1820208
  14.3705240  31.5648187  14.0172099  15.0131148  31.6346291  14.6034015
  14.6228261  30.8977410  13.5151641  14.5027372  31.4774535  14.0299379
   2.1422453  34.7748750  18.6296673   1.4494249  34.3045730  18.8757405
   2.7582780  34.5487055  19.2038380   2.1306982  34.6715882  18.7505826
   9.1807224  48.4752794  16.7452277   8.3822470  48.2352294  17.0026146
   9.6293236  48.5267187  17.4919325   9.1281835  48.4475185  16.8937202
  17.5852103  41.2415279  10.6662309  18.2468537  40.6805947  10.5658217
  16.9443515  40.7467309  10.9915000  17.5880971  41.0851688  10.6994649
  13.8716934  42.2580661  10.4074297  14.1072523  42.4025860   9.5801148
  14.0206498  43.0223069  10.8005811  13.9282737  42.3919715  10.3437901
   0.8663012  38.7414154  19.7723518   1.5902984  38.7267185  20.2588413
   0.9679148  39.4509509  19.2745487   0.9881221  38.8438857  19.7702305
  15.7007391  41.0982327   8.2443901  16.0315608  41.6309967   7.6383996
  16.2740479  41.1521215   8.9005852  15.8341070  41.1851896   8.2521683
   8.2407961  42.2213239  24.6372465   7.4480942  42.5356750  24.8225085
   8.3556888  42.4364707  23.7993250   8.1403371  42.2997075  24.5410800
  10.9139280  38.9447230   8.9267481  11.0086134  39.6836524   9.3807107
  10.2898123  38.5164705   9.3602046  10.8348310  38.9908550   9.0575629
   9.1691754  42.1233442  19.5757762   9.7430615  41.4860687  19.7306326
   9.0906557  42.1237525  18.7067420   9.2424989  42.0298554  19.4704173
   4.5255472  40.5556707  11.6278960   4.2674717  39.7228442  11.6010259
   4.5803955  40.7814320  10.7871460   4.4955250  40.4654479  11.4999096
   9.6056523  32.6585158  11.7283052   8.9012849  32.1694344  11.8866971
   9.6541497  32.6707633  10.8571497   9.5086574  32.5874806  11.6222392
   3.4990185  38.1094470  12.1143854   2.9239776  38.2686638  12.7507815
   3.1225861  37.4729879  11.6512305   3.3592997  38.0392283  12.1398413
   7.1663473  36.5817819  16.9736233   6.7777906  36.1572037  16.3188424
   6.5018172  36.8299969  17.4813259   7.0110401  36.5556540  16.9524101
  16.8086742  36.3392824   9.7484063  16.5523307  35.5272765   9.5581946
  17.6516056  36.3470391   9.5214250  16.8952768  36.2204821   9.6868880
  10.9889835  30.2792448  14.4860217  11.3700346  29.5970619  14.8728091
  10.1853119  29.9902050  14.3035881  10.9266296  30.1359496  14.5164273
   8.2702411  40.8116424   5.1713040   9.0843050  41.1031317   5.0595811
   8.2061553  40.1576286   4.5971333   8.3805150  40.7581619   5.0701877
  14.4911902  43.4942420  19.5842615  14.2550539  42.6630485  19.4654676
  15.1355131  43.4428027  20.1697460  14.5506572  43.3640108  19.6528509
   4.1410320  44.2837941  10.2985352   4.7784267  44.0449689  10.8437145
   4.5665391  44.4875100   9.5638512   4.2986486  44.2788951  10.2702509
   4.9481675  32.7846646  24.3522825   4.6335116  33.5546209  24.0892388
   4.6271608  32.2216902  23.7675052   4.8540594  32.8156915  24.2264175
  15.5148322  43.2786869  15.6470910  15.2094139  44.0114926  16.0084226
  14.7954538  42.8724798  15.3663696  15.3635664  43.3268602  15.6584047
   6.5231792  44.7610364  11.9779138   6.5970800  44.5985536  12.8320988
   7.3401298  44.9500553  11.7339620   6.6548150  44.7647106  12.0677164
  21.2150114  39.9179869  14.9739254  21.1474615  39.9375829  14.1041841
  21.2005777  40.7610197  15.1994925  21.2028871  40.0453604  14.8791731
  11.6246461  31.3215027  18.2980344  12.3700053  31.1324837  17.8843769
  11.2083765  31.8473265  17.7394200  11.6731435  31.3717172  18.1544917
  19.0008732  38.6924256  13.2485849  19.5516653  38.0592325  13.4882941
  18.9852847  39.2239648  13.9401353  19.0793928  38.6773204  13.3864707
   5.6531123  42.5262853  17.7945742   5.1542816  43.2378621  17.8730630
   6.4631347  42.8463519  17.7563904   5.6987229  42.6789701  17.8002311
   1.9159240  41.7885806  12.0408463   1.6272489  41.1623277  12.5754190
   2.7842588  41.7306093  12.1073143   2.0019492  41.6873350  12.1299417
  12.7037138  36.9320589  12.3590445  12.3601904  36.2110924  12.7097694
  12.8030180  36.7234440  11.5168803  12.6679181  36.7944792  12.2862125
  13.1650167  43.3946293   7.9014433  13.7308200  44.0539503   7.8172976
  12.5178070  43.7395991   8.3730835  13.1528923  43.5428235   7.9587189
   4.5798181  35.3843897  23.0908040   3.7697956  35.6901677  22.9797883
   5.0572867  36.1049480  23.2060624   4.5301659  35.5358498  23.0915111
   3.4389740  44.5989618  13.3390943   2.9170494  44.7389910  14.0242808
   3.8263760  43.8400283  13.5293061   3.4193441  44.5075142  13.4692020
   9.6356745  46.3385078   7.3251512   9.3943421  45.6052938   6.9178577
   9.8158078  46.8871934   6.6717845   9.6264369  46.3107469   7.1681735
   4.8656066  41.6293637   8.7372434   4.6698848  42.2368372   8.1432737
   5.0890411  40.9361581   8.2564108   4.8690707  41.6171163   8.5788515
   3.2634596  38.5148375   8.8553303   3.9857248  38.6789533   8.3957109
   2.7842588  39.2358040   8.7492643   3.2998326  38.6446605   8.7718917
  11.2228103  34.8512174  14.2349988  10.3839204  34.8773453  13.9988251
  11.2932471  35.4982909  14.8155334  11.1096497  34.9508300  14.2859105
   9.6697382  31.7497551   8.9677604  10.3723734  31.5505299   8.4897562
   9.4041570  30.9773493   9.2746447   9.7344014  31.6060517   8.9423045
  15.0985627  40.0580161  11.5211229  15.0119602  40.2135587  12.3746008
  14.6436107  40.7018236  11.1470634  15.0188884  40.1755916  11.5918336
   4.4325938  33.0132836  18.0208484   4.2409135  33.0287971  18.8707908
   5.2824534  33.2096510  17.9975139   4.5301660  33.0447187  18.1431779
   8.9711443  37.3790908  10.1436789   8.7246157  37.2986659  10.9773578
   9.2996566  36.5944376   9.9499316   8.9832687  37.2517173  10.2384312
  12.8659492  44.0874267  13.9323570  12.7273851  44.7855313  14.4372313
  12.0859490  43.9322924  13.5759752  12.7302719  44.1674434  13.9549844
  11.2037577  40.3870643  20.1845952  11.1985616  39.5150459  20.1888378
  11.9098571  40.5858812  19.7115408  11.3082581  40.2874517  20.1152987
   4.9308470  40.1147626  19.5559772   5.0751846  40.6948835  18.9202882
   5.2784119  40.4923923  20.2609627   5.0035932  40.2568331  19.5658767
   7.1028388  39.3137795  17.3384904   6.3551702  39.5068809  16.9333182
   7.2569913  38.4883014  17.1009025   7.0150815  39.2202906  17.2430309
   4.0036225  48.3050398  16.4220799   4.1525789  47.7453314  15.7694203
   4.7836228  48.3842400  16.8053318   4.1410319  48.2335964  16.3817748
  14.3612865  43.4452521   4.6940069  13.9819674  42.6589659   4.6869359
  13.6979110  43.9939378   4.5511714  14.2071340  43.4097345   4.6720866
   6.5289526  48.4765041  17.7005290   6.4533197  47.8073852  18.2556078
   6.4579385  49.1782829  18.2145956   6.5070133  48.4809949  17.8582138
   7.3430165  33.2088346  18.2280307   7.8002779  33.9412320  18.3553100
   7.4186494  32.7854811  18.9867563   7.4221135  33.2545584  18.3581384
  11.8157491  26.3878221  12.0974150  11.9341059  26.8454684  11.3641453
  11.6419667  25.5823482  11.8110368  11.8076662  26.3371993  11.9475084
   7.1859773  46.9966040   8.5328896   7.9509664  46.7275684   8.2111560
   7.0837863  46.5116050   9.2498958   7.2841268  46.8855605   8.5908723
   5.2212543  35.1990449  15.0722131   4.4308618  35.0181910  15.3939467
   5.6173166  34.4217402  15.0552426   5.1629419  35.0577910  15.1174680
  10.6056229  42.8332880  12.7981577   9.9301231  42.6018112  13.2994964
  10.6148605  42.2254063  12.1723682  10.5074734  42.7091805  12.7797730
   7.7350373  37.6750709  19.5545630   7.6709514  38.5360665  19.4265767
   7.8747561  37.3582702  18.7541182   7.7465843  37.7550875  19.4173843
  12.6072964  45.6898012   5.0291755  12.6892801  46.4964998   4.7053206
  13.0922706  45.7093971   5.7532529  12.6910122  45.8118674   5.0878654
   6.4169467  40.3682848  13.6961833   5.9931716  40.5687347  12.9600852
   6.2414322  39.5211696  13.8086133   6.3280348  40.2731629  13.6035523
   5.9181160  51.8833361  16.1583290   6.4077091  51.1844150  15.9758955
   5.3465393  51.5857231  16.7459348   5.9065690  51.7359585  16.2184331
   1.7051912  40.8634899   9.1289806   1.8616531  40.7981702   9.9845798
   2.0452505  41.6383452   8.9168485   1.7785147  40.9684098   9.2244400
   8.2431057  40.2392783   7.9983169   8.7846602  39.7363164   8.4621790
   8.5577616  40.1857978   7.1872654   8.3695454  40.1572204   7.9466981
  12.1148164  44.4495430  25.1110081  12.9283029  44.1780579  25.2715214
  11.9543130  44.1502970  24.3070277  12.2118112  44.3650356  25.0155487
   9.3920326  35.1329087  18.0505469   9.6062295  34.4940002  17.4968823
   8.7754225  35.5774911  17.6213331   9.3325655  35.1039231  17.9055901
  10.8024994  48.0547836   9.4959690  10.4104786  47.7514551   8.7782556
  10.9578066  48.8916926   9.3064644  10.7678584  48.1331672   9.3616187
  11.5559414  36.7418153  18.9888776  10.7436096  36.4344043  19.0701949
  12.0149349  36.2617153  19.5531489  11.5039799  36.6254645  19.0843371
  10.9664669  44.6197825   9.4365721  10.6079323  44.7912467  10.2129753
  10.4803379  45.0811030   8.8793719  10.8423365  44.7136796   9.4690990
   8.7835055  28.2429023  13.0392812   7.9128613  28.2167744  12.9926122
   9.0375396  28.0706215  12.2218658   8.6928615  28.2139167  12.9112949
   8.6512921  38.1478224  23.7717479   9.1212553  38.7720340  24.1585353
   8.6974802  37.4795200  24.3310693   8.7280797  38.1412904  23.9117550
   5.8084195  30.2535252  14.4966283   5.2922684  29.5615443  14.6217862
   5.2478124  30.9206029  14.4428881   5.6490708  30.2498509  14.5072349
   7.8776429  30.7928212  16.3259135   7.4908182  30.8177243  17.1072665
   7.3909366  30.2269890  15.8733652   7.7488937  30.7123962  16.3747039
  12.1269408  45.5101721  20.3832922  12.7649128  45.0161916  20.0495378
  11.4843500  45.4379121  19.7985149  12.1263634  45.4260729  20.2475277
  13.8526408  37.3590867  14.9498837  13.4254016  37.2717215  14.1946937
  13.2152461  37.4668642  15.5353681  13.6956015  37.3623526  14.9244279
   7.5433570  27.6795197  18.6169395   8.1726688  28.2155497  18.3390465
   7.7119433  27.5872556  19.4682961   7.6611365  27.7456559  18.7017923
   7.3447485  32.4666392  20.8895807   8.1720914  32.1951541  20.9454421
   7.3655331  33.2627233  21.2459625   7.4700335  32.5446146  20.9510990
  12.1823665  46.2021529  17.0238278  12.9716043  45.8510594  17.1440360
  12.3567262  47.0157917  16.7614912  12.3243946  46.2707386  17.0026146
   1.9216975  39.6130255  14.0766067   1.0804982  39.5134129  14.2844961
   2.1306983  40.3825735  14.4280388   1.8281668  39.7122298  14.1593382
  11.0357489  30.2131086  11.5854697  11.2407082  30.1453393  12.4311694
  10.7083913  31.0189907  11.5175874  11.0172737  30.3217026  11.7014352
   5.7333640  37.5411654  13.3263665   5.4296777  36.9867642  13.9274072
   5.0313061  37.7203864  12.8391699   5.5849850  37.4856436  13.3433370
   3.7951991  44.7561374  18.0335763   3.6872346  44.7663437  18.8997821
   4.0047772  45.5816155  17.8440716   3.8102102  44.8802449  18.1339854
  14.2891176  30.7662850  11.0657462  13.6765490  31.2533252  11.4511194
  14.3855351  30.0906341  11.6095114  14.2129074  30.7381159  11.2036321
   1.8125783  42.0074017  15.4957700   1.2213716  42.6483515  15.4660715
   2.5746806  42.4311634  15.4689000   1.8374043  42.1649855  15.4872847
   2.2086406  33.1676015  16.1625718   2.6687887  33.2414944  16.9000842
   2.2542512  33.9657269  15.8125539   2.2836961  33.2970162  16.2198474
   3.8569755  33.8342710  20.7297745   3.4655320  33.1876057  21.1653523
   4.0255618  34.4254145  21.3492000   3.8240666  33.8256977  20.8860451
  17.9316204  41.8379787  16.4934978  17.9899328  42.2866435  17.2394955
  17.2982672  42.2478599  16.0565058  17.8467499  41.9653521  16.5387527
  11.5715299  47.4583328  12.9289725  11.3734988  47.9474143  12.2345936
  10.9503010  47.6624570  13.5073858  11.4502864  47.5599867  12.9112948
   5.6323277  39.2268225   7.2699969   6.3765322  39.6142502   7.5082919
   5.7783974  38.3825651   7.4340457   5.7633863  39.1598698   7.3293939
   7.5502853  31.0218484  12.3031830   6.7038898  31.1941292  12.1773180
   7.5473985  30.2167828  12.6397659   7.4250003  30.9279513  12.3342957
   8.6201153  34.7993699  13.1693888   8.1461108  34.2735461  13.6799199
   8.9919289  34.2523171  12.6008750   8.6051042  34.6409695  13.1609035
  14.8837884  39.8596074  14.5800669  14.6436107  39.0202489  14.5843095
  15.3629891  39.9396241  15.3041442  14.9190068  39.7477474  14.6875471
  16.8843071  36.6397531  12.5329928  16.6452841  36.5993366  11.6950713
  17.0476972  37.4868684  12.6595649  16.8733374  36.7589616  12.4283410
  13.4889101  41.0247481  18.4634973  14.2123300  40.5720007  18.2845993
  13.2239063  41.3052146  17.6807301  13.5570374  40.9998449  18.3213688
   2.3575969  35.6207654  15.1987852   1.7329040  35.6326046  14.5913805
   2.0221564  36.0967829  15.8479092   2.2161461  35.6926171  15.2044421
  10.1021735  44.2633817   5.3629299  10.8255934  44.7291930   5.2193872
   9.6622326  44.3307426   4.6126896  10.1437428  44.3417653   5.2314081
   9.2707890  41.1231359  16.6129988   8.6564884  40.5789409  16.9078623
   9.7875175  40.6095596  16.1335804   9.2563553  40.9667768  16.5854216
   8.5104188  42.1935629  14.3474287   8.0831796  41.5685348  13.9139722
   8.5029132  41.9110551  15.1733294   8.4463329  42.0588410  14.4054114
   1.6266715  37.2300802  17.4162721   1.7860201  36.4744126  17.8214443
   1.4459608  37.7791742  18.0703458   1.6232074  37.1994616  17.5725427
   9.5687018  29.3962038  17.9713510   9.0727579  29.5925712  17.2805077
  10.3256080  29.7954706  17.8002312   9.6073842  29.4839771  17.8433647
   6.8389897  33.0704384  14.5616821   6.8632385  32.5364496  13.8729601
   7.0901371  32.5621692  15.2242411   6.8799816  32.9165288  14.5581465
   3.1191220  31.7975202  13.9422565   3.1589591  32.2984408  14.6557272
   2.2940884  31.8885596  13.6728488   3.0030746  31.8857018  14.0073103
   5.3020832  41.3635942  22.0442860   4.4516463  41.5007656  22.1800505
   5.4648960  40.6299720  22.4890561   5.2004696  41.2750043  22.1298459
   4.5405583  38.3135712  16.2396464   3.7097513  38.4809530  16.0331712
   4.4857100  37.9371662  17.0245349   4.4094998  38.2825443  16.3244992
  15.9224415  39.9873892  16.9665523  16.5142255  40.6271142  16.9983721
  16.3583409  39.2896928  17.2557590  16.0742846  39.9792242  17.0146355
   7.7517805  44.4091264  17.5923417   7.2442896  44.9627111  18.0364047
   7.4544451  44.4699554  16.7742191   7.6322690  44.4997575  17.5371873
   9.9179987  32.7744584  16.4348080  10.3435059  32.3217110  15.8231606
   9.3036980  32.2204654  16.7112867   9.8908632  32.6258560  16.3853105
  12.9473556  37.2019110   9.2668665  12.2764746  37.7448812   9.1381731
  13.6413307  37.6713966   9.0250360  12.9502424  37.3517381   9.2124193
   6.9960290  49.3415822  14.4980424   6.7725945  48.5834652  14.8664450
   6.5070133  49.3713843  13.7760863   6.8903739  49.2338047  14.4457165
  13.1101684  33.6574994  12.1759038  13.4629294  33.2304717  12.8504837
  12.2516485  33.5725837  12.3060115  13.0351128  33.5819735  12.2954049
   1.8085369  36.2882514  10.2341885   1.0897358  36.7046646  10.5014749
   2.1797731  36.8536752   9.6833523   1.7577301  36.4331795  10.1924692
  11.1084950  36.9210362  16.1243881  11.0882877  36.7393658  16.9778660
  11.1564150  37.7922381  16.1003464  11.1119591  37.0226901  16.2467175
   9.0531279  43.5097554  22.0492357   9.0127134  42.8647231  21.4637513
   9.8654598  43.4534172  22.3617769   9.1674433  43.4056521  22.0089306
   5.6438747  49.5616280  11.9517508   5.2299146  48.8990411  11.5621350
   6.3286121  49.7094139  11.4313202   5.6837119  49.4856939  11.8174005
   9.0104041  48.7206366  12.7041125   8.6120324  48.8308636  11.9361945
   8.3955261  48.9288432  13.2867685   8.8602930  48.7679934  12.6772424
  14.5425744  28.7793406  13.1043351  14.0356609  28.0722545  13.0364528
  15.3393178  28.4486595  13.2344428  14.5852983  28.6266557  13.1142346
  10.4589760  35.2860018   9.0017015  10.2303453  35.3092719   8.1595373
  10.7187836  34.4617485   9.1212025  10.4635948  35.1676098   8.8942212
   4.7408988  37.1394491  18.6042115   4.2287891  36.5315674  18.9627146
   4.5688484  37.8551084  19.0716091   4.6398625  37.1557790  18.7258339
   3.5134522  33.8236564  10.2971210   3.9891889  34.1853644   9.6621392
   3.0123122  34.4793032  10.5771353   3.5099881  33.9730753  10.2447951
  16.7445884  43.2958332   6.0884215  17.1279490  44.0449688   6.3182312
  15.9489997  43.5424152   5.8296204  16.6839666  43.4428026   6.0841789
   8.6178059  35.0618736  21.0444370   9.1749489  34.8332545  20.4122836
   8.2939124  35.8224401  20.7679583   8.6524469  35.1402572  20.9100868
   6.3361176  38.1486389  22.0096378   7.0872503  38.4638066  22.3235932
   6.5283752  37.9465560  21.1830299   6.4752590  38.1653771  21.9339773
  13.1846466  34.2759955   9.2520173  13.1840692  34.1208612  10.1104449
  12.9802646  35.1222942   9.1961559  13.1546244  34.3780576   9.3708112
  10.9087318  38.9557457  12.9056380  11.4040983  38.2380452  12.8660400
  10.0987094  38.6528255  12.7910867  10.8631211  38.8055103  12.8830106
  12.9739137  41.7061145  15.5933509  13.3994208  41.1835566  15.0403934
  12.6096057  42.3041982  15.0722132  12.9825739  41.7171372  15.4342518
   2.6093217  50.0025362  14.3530854   2.9239776  50.8161750  14.3608636
   3.0186630  49.6175581  15.0213013   2.7161315  50.0654064  14.4534946
   9.5617736  45.4195409  11.9234666  10.0328914  46.1335671  12.0924651
   9.8977915  44.8194159  12.4594536   9.6812851  45.4366873  12.0267042
  11.6494721  47.0296722  24.1026738  11.7591686  46.2405283  24.4583485
  11.9785617  46.9402658  23.3001076  11.7147127  46.9002575  24.0369129
   6.4787231  30.1922879  18.8792761   6.6115137  29.3953873  19.2073736
   6.8632384  30.7189282  19.4591037   6.5543560  30.1522796  19.0136264
   9.5519586  27.1153206  15.4773854   8.7465550  27.0050935  15.7941693
   9.4226322  27.2165661  14.6203720   9.4139719  27.1136876  15.3981895
  13.0085547  33.2798697  16.0713551  12.4248536  33.7807904  15.6591118
  13.3289841  32.7728254  15.4377874  12.9698722  33.2790532  15.9172058
   4.1375678  30.1882054  17.1270655   4.6820091  29.8473181  17.7174996
   4.1912614  31.0467516  17.2691939   4.2264797  30.2637314  17.2352528
   9.7650009  46.2164416  15.2171700  10.5848383  46.0727382  15.4787995
   9.4844087  46.8410615  15.7588138   9.8446752  46.2874768  15.3359639
  26.2363659  53.8729267   8.1814576  26.2057664  54.7273904   8.3532846
  26.8345008  53.5724560   8.7400720  26.3200817  53.9545764   8.2889379
  19.4363344  52.9604918  12.9367507  18.5801240  53.1213417  12.9876624
  19.4830998  52.0896982  12.9572568  19.3162456  52.8555720  12.9473573
  22.7457061  59.2291444  22.5427963  23.4523828  58.7343475  22.6714897
  22.9344996  59.6700525  21.8130621  22.8784966  59.2209794  22.4537008
  18.8133735  64.8707274  10.0701397  19.1973114  65.4394173   9.5306172
  18.7492876  64.1456785   9.5907213  18.8607162  64.8482738   9.9195260
  22.2815165  55.0196962  15.5799158  22.8271125  55.6982049  15.6393128
  22.2232041  54.8784423  14.7200740  22.3531080  55.0988964  15.4611219
  15.3989240  62.5086028  10.9667511  15.4999603  61.6986382  11.2764639
  14.8030985  62.4142975  10.3367189  15.3261779  62.3751056  10.9193749
  24.0580234  56.4481569   6.4532886  23.9419760  57.1989255   6.8825024
  24.8536121  56.1905523   6.7028973  24.1584823  56.5216416   6.5536978
  15.2389980  67.4263618  12.3682367  15.8827435  67.8676782  12.7578525
  15.5646235  66.6217044  12.2812626  15.3821808  67.3728812  12.4127844
  10.8944372  50.6992046  13.4904152  10.2749403  50.1084693  13.3214167
  10.7928235  51.2903481  12.8568475  10.7882047  50.6996128  13.3709142
  17.9912267  52.4391587   7.8236615  18.6892432  52.6179715   8.3158079
  18.3064600  51.9161927   7.2007005  18.1407605  52.3885359   7.8038625
  10.6213505  54.2444327  15.7347721  10.4972202  54.8306773  16.3697540
  11.2731789  53.7504523  16.0359996  10.6987154  54.2583132  15.8733650
  18.1800203  58.8262032   7.8116407  18.6193838  58.2179133   8.2571180
  18.0304866  58.4469406   7.0401872  18.2221668  58.6800504   7.7635574
  15.6471846  57.4206044  15.0135232  16.2920848  56.9278487  14.6946181
  15.8873623  57.5630831  15.8401311  15.7782431  57.3683486  15.0884765
  18.1857937  60.2660950  14.6642125  18.4681180  59.4712356  14.4428881
  18.9144098  60.7441538  14.6847186  18.3347501  60.2195547  14.6345140
  16.1639131  47.8083984  11.9057890  15.8342461  48.2595128  11.2361589
  15.4884133  47.7300147  12.4530896  16.0149567  47.8635119  11.8881113
  21.7809539  57.1789214   4.7647176  21.6960834  58.0350180   4.9096745
  22.2693923  56.9033538   5.4329335  21.8398437  57.2646535   4.8849258
  23.3715539  43.7969507  10.1507501  23.0568980  44.4872986  10.5827923
  22.8542480  43.7414289   9.4493001  23.2480009  43.8904395  10.1104450
  22.7127973  53.7974008   6.2644911  22.1839444  54.0133641   6.9242217
  23.2352993  54.4910146   6.1845880  22.7116426  53.9317145   6.3500510
  28.1676025  59.3720312  11.6377956  27.3373729  59.5830956  11.8011372
  28.1185278  58.5457367  11.3620239  28.0382761  59.2809919  11.6215321
  16.2285763  62.2024166  14.4725865  15.7112705  61.8431581  13.8687173
  16.9260154  61.6786341  14.4831931  16.2551344  62.0721854  14.3856124
  19.8849355  62.6518981  20.4342038  19.9732701  62.4645121  21.2820248
  20.3139068  62.0056410  20.0346885  19.9611457  62.5281988  20.5013790
  17.4519815  61.9350140  19.4159700  16.8890650  61.5222750  19.9399362
  18.2140838  61.8603046  19.8352844  17.4814263  61.8627541  19.5552701
  19.0604795  53.9402877   3.5421300  19.3000798  54.1480860   2.7296643
  19.3820636  53.1360385   3.6510244  19.1441953  53.8516978   3.4381853
  14.3695085  45.8696272   7.3880838  15.1241053  46.2374589   7.1497888
  14.1922620  46.2435827   8.1560017  14.4549563  45.9794460   7.4665726
  13.0115806  63.9248162  12.0196330  13.7136386  63.4100151  12.0769087
  12.9313289  64.2522313  12.8243206  13.1039567  63.8962388  12.1469123
  27.6629984  52.0190713  15.4328377  26.8258405  52.0892900  15.6675971
  27.6318215  52.0215208  14.5602679  27.5348266  52.0300940  15.3387925
  14.0594713  54.1623749  21.1476746  14.2315217  54.0529643  21.9962027
  14.5964070  54.8078154  20.9107938  14.1639717  54.2415750  21.2381842
  12.7252150  48.2766591   4.0858951  12.5427723  48.4938472   3.2599943
  13.5877763  48.3905604   4.1417565  12.8256739  48.3256489   3.9713438
  12.3366582  60.1154514  11.5281939  13.1755481  60.3477446  11.5755700
  12.3678351  59.2458825  11.4588974  12.4648299  60.0211460  11.5246583
  12.9619285  60.5355389  15.8295244  13.5017510  60.3926520  16.4998616
  12.2789231  60.9352140  16.1979270  12.9411439  60.5735060  15.9829666
  18.4051869  45.2793002   7.1207974  19.1338029  45.1008957   6.6746131
  18.4946762  46.1211082   7.3315153  18.5258531  45.3776880   7.0861492
  22.3860170  56.2146389  11.0240268  23.1417685  56.6477904  11.0629177
  22.4922494  55.5651159  11.5974904  22.5130340  56.1823873  11.1138294
  25.4240341  60.0419667  11.7742671  24.9875573  60.0456409  12.5301643
  25.0903256  60.7225166  11.3422249  25.3102961  60.1432123  11.8223504
  19.9969414  62.0828000  23.0985822  20.7809831  62.1958847  23.4641564
  19.7966009  61.2569137  23.2944508  20.0835440  61.9774719  23.1820208
   8.3656430  56.7555680  15.9829666   8.0994845  55.9394796  16.1420656
   8.3794994  56.8008835  15.1125181   8.3281152  56.6412584  15.8783148
  25.3437824  47.0833495  14.0172099  25.9863732  47.1531599  14.6034015
  25.5960844  46.4162717  13.5151641  25.4759956  46.9959843  14.0299379
  13.1155036  50.2934058  18.6296673  12.4226833  49.8231038  18.8757405
  13.7315363  50.0672362  19.2038380  13.1039566  50.1901190  18.7505826
  20.1539808  63.9938102  16.7452277  19.3555053  63.7537602  17.0026146
  20.6025819  64.0452494  17.4919325  20.1014419  63.9660493  16.8937202
  28.5584687  56.7600587  10.6662309  29.2201121  56.1991255  10.5658217
  27.9176099  56.2652617  10.9915000  28.5613554  56.6036996  10.6994649
   8.7749843  57.5414459  13.2641410   8.5925417  57.5161345  12.4113702
   9.5099512  58.0113397  13.3030319   8.8563907  57.6075821  13.1439328
  24.8449518  57.7765969  10.4074297  25.0805107  57.9211168   9.5801148
  24.9939081  58.5408377  10.8005811  24.9015321  57.9105023  10.3437901
  11.8395595  54.2599462  19.7723518  12.5635567  54.2452493  20.2588413
  11.9411732  54.9694817  19.2745487  11.9613804  54.3624165  19.7702305
  26.6739974  56.6167635   8.2443901  27.0048191  57.1495275   7.6383996
  27.2473062  56.6706523   8.9005852  26.8073653  56.7037204   8.2521683
  19.2140545  57.7398547  24.6372465  18.4213525  58.0542058  24.8225085
  19.3289472  57.9550015  23.7993250  19.1135955  57.8182383  24.5410800
  21.8871863  54.4632538   8.9267481  21.9818718  55.2021832   9.3807107
  21.2630707  54.0350013   9.3602046  21.8080894  54.5093858   9.0575629
  20.1424337  57.6418750  19.5757762  20.7163199  57.0045994  19.7306326
  20.0639141  57.6422833  18.7067420  20.2157572  57.5483862  19.4704173
   8.7420754  54.4207960  13.4140476   9.3194256  54.2844410  14.0532722
   8.0434815  53.9643744  13.6686061   8.7241775  54.3330226  13.5462766
  22.1394885  56.3081277   2.1604433  22.0575047  56.3783465   3.0259420
  22.7774605  56.8711021   1.9688174  22.2214722  56.4020249   2.2594383
  15.4988056  56.0742015  11.6278960  15.2407300  55.2413750  11.6010259
  15.5536539  56.2999628  10.7871460  15.4687834  55.9839787  11.4999096
  20.5789106  48.1770466  11.7283052  19.8745433  47.6879652  11.8866971
  20.6274080  48.1892941  10.8571497  20.4819158  48.1060114  11.6222392
  14.4722768  53.6279778  12.1143854  13.8972359  53.7871946  12.7507815
  14.0958444  52.9915187  11.6512305  14.3325580  53.5577591  12.1398413
  18.1396057  52.1003127  16.9736233  17.7510489  51.6757345  16.3188424
  17.4750755  52.3485277  17.4813259  17.9842985  52.0741848  16.9524101
  27.7819326  51.8578132   9.7484063  27.5255891  51.0458073   9.5581946
  28.6248640  51.8655699   9.5214250  27.8685351  51.7390129   9.6868880
  21.9622418  45.7977756  14.4860217  22.3432930  45.1155927  14.8728091
  21.1585703  45.5087358  14.3035881  21.8998880  45.6544804  14.5164273
  19.2434995  56.3301732   5.1713040  20.0575634  56.6216625   5.0595811
  19.1794136  55.6761594   4.5971333  19.3537734  56.2766926   5.0701877
  25.4644485  59.0127728  19.5842615  25.2283123  58.1815793  19.4654676
  26.1087714  58.9613335  20.1697460  25.5239156  58.8825416  19.6528509
  15.1142903  59.8023249  10.2985352  15.7516850  59.5634997  10.8437145
  15.5397975  60.0060408   9.5638512  15.2719069  59.7974259  10.2702509
   9.8055546  62.0411586  14.1819656   9.8459691  62.3126437  13.3539435
  10.3650070  62.5653494  14.5977444   9.8938892  62.1587341  14.1211544
  15.9214259  48.3031954  24.3522825  15.6067700  49.0731517  24.0892388
  15.6004191  47.7402210  23.7675052  15.8273178  48.3342223  24.2264175
  26.4880906  58.7972177  15.6470910  26.1826723  59.5300233  16.0084226
  25.7687121  58.3910106  15.3663696  26.3368248  58.8453910  15.6584047
  17.4964375  60.2795672  11.9779138  17.5703383  60.1170844  12.8320988
  18.3133882  60.4685861  11.7339620  17.6280734  60.2832414  12.0677164
  32.1882698  55.4365177  14.9739254  32.1207198  55.4561136  14.1041841
  32.1738360  56.2795505  15.1994925  32.1761454  55.5638912  14.8791731
  13.4746156  46.6922476   9.9669022  12.6068581  46.7645075  10.0326631
  13.7621360  47.4944555  10.1556997  13.3885904  46.8216623  10.0043788
  22.5979044  46.8400335  18.2980344  23.3432636  46.6510145  17.8843769
  22.1816349  47.3658573  17.7394200  22.6464019  46.8902480  18.1544917
  29.9741315  54.2109564  13.2485849  30.5249237  53.5777633  13.4882941
  29.9585431  54.7424956  13.9401353  30.0526512  54.1958512  13.3864707
  16.6263706  58.0448161  17.7945742  16.1275400  58.7563928  17.8730630
  17.4363930  58.3648827  17.7563904  16.6719813  58.1975009  17.8002311
  12.8891824  57.3071114  12.0408463  12.6005072  56.6808585  12.5754190
  13.7575172  57.2491401  12.1073143  12.9752076  57.2058658  12.1299417
  23.6769721  52.4505897  12.3590445  23.3334487  51.7296232  12.7097694
  23.7762764  52.2419748  11.5168803  23.6411764  52.3130100  12.2862125
  24.1382751  58.9131601   7.9014433  24.7040783  59.5724811   7.8172976
  23.4910654  59.2581299   8.3730835  24.1261507  59.0613543   7.9587189
  15.5530764  50.9029205  23.0908040  14.7430540  51.2086985  22.9797883
  16.0305451  51.6234788  23.2060624  15.5034243  51.0543806  23.0915111
  14.4122324  60.1174926  13.3390943  13.8903077  60.2575218  14.0242808
  14.7996344  59.3585590  13.5293061  14.3926025  60.0260450  13.4692020
  11.4013508  50.1680735   7.4085898  11.1138303  49.7982005   6.6717845
  12.0883976  50.6375590   7.1469603  11.4602405  50.1827704   7.2600974
  20.6089329  61.8570385   7.3251512  20.3676005  61.1238246   6.9178577
  20.7890662  62.4057242   6.6717845  20.5996953  61.8292777   7.1681735
  15.8388649  57.1478945   8.7372434  15.6431432  57.7553680   8.1432737
  16.0622995  56.4546889   8.2564108  15.8423290  57.1356471   8.5788515
  14.2367179  54.0333683   8.8553303  14.9589831  54.1974841   8.3957109
  13.7575172  54.7543348   8.7492643  14.2730910  54.1631913   8.7718917
  22.1960687  50.3697482  14.2349988  21.3571788  50.3958761  13.9988251
  22.2665054  51.0168217  14.8155334  22.0829080  50.4693608  14.2859105
  11.8874796  56.4391756  17.9607443  12.3995893  56.7176009  17.3116202
  11.6011139  57.1781050  18.3270256  11.9209659  56.5894109  17.9197321
  20.6429965  47.2682859   8.9677604  21.3456318  47.0690607   8.4897562
  20.3774154  46.4958801   9.2746447  20.7076597  47.1245825   8.9423045
  26.0718211  55.5765469  11.5211229  25.9852185  55.7320895  12.3746008
  25.6168691  56.2203544  11.1470634  25.9921467  55.6941224  11.5918336
   8.9741702  50.9461947   8.2571179   9.0757839  51.7488109   8.5852155
   9.7697589  50.7449283   7.9594260   9.1069608  51.0347846   8.2606534
  15.4058521  48.5318144  18.0208484  15.2141718  48.5473279  18.8707908
  16.2557117  48.7281818  17.9975139  15.5034243  48.5632495  18.1431779
   9.7905434  51.0609126  15.9992301   9.6490926  50.2093066  16.1236809
  10.0745998  51.1037786  15.1754507   9.8113280  50.9408876  15.8959925
  19.9444027  52.8976216  10.1436789  19.6978741  52.8171967  10.9773578
  20.2729150  52.1129684   9.9499316  19.9565270  52.7702481  10.2384312
  23.8392076  59.6059575  13.9323570  23.7006435  60.3040621  14.4372313
  23.0592073  59.4508232  13.5759752  23.7035302  59.6859742  13.9549844
  22.1770161  55.9055951  20.1845952  22.1718199  55.0335767  20.1888378
  22.8831155  56.1044120  19.7115408  22.2815165  55.8059825  20.1152987
  15.9041054  55.6332934  19.5559772  16.0484430  56.2134143  18.9202882
  16.2516703  56.0109231  20.2609627  15.9768515  55.7753638  19.5658767
  18.0760971  54.8323103  17.3384904  17.3284285  55.0254117  16.9333182
  18.2302497  54.0068322  17.1009025  17.9883399  54.7388214  17.2430309
  14.9768809  63.8235706  16.4220799  15.1258373  63.2638622  15.7694203
  15.7568811  63.9027708  16.8053318  15.1142903  63.7521272  16.3817748
  25.3345448  58.9637829   4.6940069  24.9552257  58.1774967   4.6869359
  24.6711694  59.5124686   4.5511714  25.1803923  58.9282653   4.6720866
  17.5022110  63.9950349  17.7005290  17.4265781  63.3259160  18.2556078
  17.4311969  64.6968137  18.2145956  17.4802717  63.9995256  17.8582138
  18.3162748  48.7273653  18.2280307  18.7735363  49.4597628  18.3553100
  18.3919077  48.3040119  18.9867563  18.3953718  48.7730892  18.3581384
  10.5595740  48.9739473  19.3169751  10.0237929  48.3619831  19.6330518
  10.6213504  49.5487609  19.9703418  10.4891372  48.9686401  19.4605178
  22.7890074  41.9063529  12.0974150  22.9073642  42.3639992  11.3641453
  22.6152250  41.1008790  11.8110368  22.7809245  41.8557301  11.9475084
  18.1592357  62.5151348   8.5328896  18.9242248  62.2460992   8.2111560
  18.0570447  62.0301358   9.2498958  18.2573852  62.4040913   8.5908723
  16.1945126  50.7175757  15.0722131  15.4041201  50.5367218  15.3939467
  16.5905749  49.9402710  15.0552426  16.1362003  50.5763218  15.1174680
  21.5788813  58.3518188  12.7981577  20.9033814  58.1203420  13.2994964
  21.5881189  57.7439370  12.1723682  21.4807317  58.2277113  12.7797730
  18.7082957  53.1936017  19.5545630  18.6442098  54.0545973  19.4265767
  18.8480144  52.8768010  18.7541182  18.7198427  53.2736183  19.4173843
  23.5805547  61.2083320   5.0291755  23.6625385  62.0150306   4.7053206
  24.0655289  61.2279279   5.7532529  23.6642705  61.3303982   5.0878654
  17.3902051  55.8868156  13.6961833  16.9664300  56.0872655  12.9600852
  17.2146906  55.0397004  13.8086133  17.3012931  55.7916937  13.6035523
  16.8913744  67.4018669  16.1583290  17.3809674  66.7029458  15.9758955
  16.3197976  67.1042539  16.7459348  16.8798274  67.2544893  16.2184331
  12.6784496  56.3820207   9.1289806  12.8349115  56.3167010   9.9845798
  13.0185089  57.1568760   8.9168485  12.7517730  56.4869405   9.2244400
  19.2163640  55.7578091   7.9983169  19.7579186  55.2548472   8.4621790
  19.5310199  55.7043286   7.1872654  19.3428037  55.6757512   7.9466981
  23.0880748  59.9680738  25.1110081  23.9015613  59.6965887  25.2715214
  22.9275714  59.6688278  24.3070277  23.1850696  59.8835664  25.0155487
  20.3652909  50.6514395  18.0505469  20.5794879  50.0125310  17.4968823
  19.7486809  51.0960219  17.6213331  20.3058239  50.6224539  17.9055901
  21.7757577  63.5733144   9.4959690  21.3837369  63.2699859   8.7782556
  21.9310650  64.4102234   9.3064644  21.7411167  63.6516980   9.3616187
   9.2518757  53.5655158   9.4450573   9.6317722  53.9839703   8.7810840
   8.6774122  54.1468613   9.7519416   9.2230082  53.7133017   9.3927314
  22.5291997  52.2603461  18.9888776  21.7168679  51.9529351  19.0701949
  22.9881932  51.7802461  19.5531489  22.4772382  52.1439953  19.0843371
  21.9397252  60.1383133   9.4365721  21.5811907  60.3097775  10.2129753
  21.4535963  60.5996338   8.8793719  21.8155949  60.2322104   9.4690990
  19.7567638  43.7614331  13.0392812  18.8861196  43.7353052  12.9926122
  20.0107979  43.5891523  12.2218658  19.6661198  43.7324475  12.9112949
  19.6245505  53.6663532  23.7717479  20.0945136  54.2905648  24.1585353
  19.6707385  52.9980508  24.3310693  19.7013381  53.6598212  23.9117550
  16.7816779  45.7720559  14.4966283  16.2655267  45.0800751  14.6217862
  16.2210708  46.4391337  14.4428881  16.6223292  45.7683817  14.5072349
  18.8509012  46.3113520  16.3259135  18.4640765  46.3362551  17.1072665
  18.3641949  45.7455198  15.8733652  18.7221521  46.2309270  16.3747039
  23.1001992  61.0287029  20.3832922  23.7381712  60.5347224  20.0495378
  22.4576083  60.9564429  19.7985149  23.0996218  60.9446037  20.2475277
  24.8258992  52.8776174  14.9498837  24.3986600  52.7902523  14.1946937
  24.1885045  52.9853950  15.5353681  24.6688599  52.8808834  14.9244279
  18.5166154  43.1980505  18.6169395  19.1459272  43.7340805  18.3390465
  18.6852017  43.1057864  19.4682961  18.6343948  43.2641867  18.7017923
  18.3180069  47.9851700  20.8895807  19.1453498  47.7136849  20.9454421
  18.3387915  48.7812541  21.2459625  18.4432919  48.0631454  20.9510990
  23.1556248  61.7206837  17.0238278  23.9448626  61.3695902  17.1440360
  23.3299846  62.5343225  16.7614912  23.2976530  61.7892694  17.0026146
  12.8949559  55.1315563  14.0766067  12.0537565  55.0319437  14.2844961
  13.1039566  55.9011043  14.4280388  12.8014251  55.2307606  14.1593382
  10.3725125  52.7535099  11.9050818   9.9781823  52.8278111  11.1300928
   9.8165242  53.1393046  12.4559180  10.2327938  52.8216874  11.8718478
  22.0090072  45.7316393  11.5854697  22.2139666  45.6638701  12.4311694
  21.6816496  46.5375215  11.5175874  21.9905320  45.8402334  11.7014352
  16.7066223  53.0596962  13.3263665  16.4029361  52.5052950  13.9274072
  16.0045644  53.2389172  12.8391699  16.5582433  53.0041744  13.3433370
  15.7632321  50.3697482   7.8908367  16.0392055  49.6516394   7.4785934
  16.3630990  50.9682401   7.6829473  15.8925585  50.3517852   7.7989128
  14.7684574  60.2746682  18.0335763  14.6604929  60.2848745  18.8997821
  14.9780356  61.1001463  17.8440716  14.7834685  60.3987757  18.1339854
  25.2623760  46.2848158  11.0657462  24.6498074  46.7718560  11.4511194
  25.3587935  45.6091649  11.6095114  25.1861658  46.2566466  11.2036321
  19.2642841  48.0410999   6.1654962  19.7186588  48.2121559   6.8902806
  19.7382887  47.4279110   5.7652737  19.4011161  47.9761884   6.2128723
  12.7858366  57.5259325  15.4957700  12.1946300  58.1668823  15.4660715
  13.5479390  57.9496942  15.4689000  12.8106627  57.6835163  15.4872847
  13.1818989  48.6861323  16.1625718  13.6420471  48.7600252  16.9000842
  13.2275096  49.4842577  15.8125539  13.2569545  48.8155470  16.2198474
  14.8302339  49.3528017  20.7297745  14.4387904  48.7061365  21.1653523
  14.9988202  49.9439453  21.3492000  14.7973249  49.3442285  20.8860451
  28.9048788  57.3565095  16.4934978  28.9631912  57.8051743  17.2394955
  28.2715256  57.7663907  16.0565058  28.8200083  57.4838829  16.5387527
  22.5447883  62.9768636  12.9289725  22.3467571  63.4659451  12.2345936
  21.9235594  63.1809878  13.5073858  22.4235447  63.0785175  12.9112948
  16.6055861  54.7453533   7.2699969  17.3497906  55.1327810   7.5082919
  16.7516557  53.9010959   7.4340457  16.7366446  54.6784006   7.3293939
  18.5235436  46.5403792  12.3031830  17.6771482  46.7126600  12.1773180
  18.5206569  45.7353136  12.6397659  18.3982586  46.4464821  12.3342957
  19.5933737  50.3179007  13.1693888  19.1193691  49.7920769  13.6799199
  19.9651873  49.7708479  12.6008750  19.5783626  50.1595003  13.1609035
   9.9706767  52.3150513  18.5377434  10.8332380  52.2146222  18.4514764
   9.6398550  51.7345223  17.9763006  10.0491963  52.2142140  18.4422840
  25.8570467  55.3781382  14.5800669  25.6168690  54.5387797  14.5843095
  26.3362475  55.4581549  15.3041442  25.8922651  55.2662782  14.6875471
  21.5217237  51.2115561   6.2319642  20.9940255  51.2944305   5.5425351
  21.9812945  51.9533433   6.2284287  21.5119087  51.3336224   6.1294337
  27.8575654  52.1582839  12.5329928  27.6185424  52.1178674  11.6950713
  28.0209556  53.0053991  12.6595649  27.8465958  52.2774924  12.4283410
  24.4621685  56.5432789  18.4634973  25.1855883  56.0905315  18.2845993
  24.1971647  56.8237454  17.6807301  24.5302958  56.5183757  18.3213688
  13.3308553  51.1392962  15.1987852  12.7061623  51.1511354  14.5913805
  12.9954148  51.6153137  15.8479092  13.1894045  51.2111479  15.2044421
  10.0434229  59.1993422  16.6391617   9.5134153  58.5085861  16.6886591
  10.3159322  59.1903608  15.8104325  10.0058951  59.0960554  16.5239032
  21.0754319  59.7819125   5.3629299  21.7988518  60.2477238   5.2193872
  20.6354910  59.8492734   4.6126896  21.1170011  59.8602961   5.2314081
  20.2440474  56.6416667  16.6129988  19.6297467  56.0974717  16.9078623
  20.7607759  56.1280903  16.1335804  20.2296137  56.4853076  16.5854216
  19.4836771  57.7120937  14.3474287  19.0564379  57.0870656  13.9139722
  19.4761716  57.4295859  15.1733294  19.4195912  57.5773718  14.4054114
  12.5999298  52.7486110  17.4162721  12.7592785  51.9929434  17.8214443
  12.4192192  53.2977050  18.0703458  12.5964657  52.7179924  17.5725427
  20.5419601  44.9147346  17.9713510  20.0460163  45.1111020  17.2805077
  21.2988663  45.3140014  17.8002312  20.5806426  45.0025079  17.8433647
  17.8122481  48.5889692  14.5616821  17.8364968  48.0549804  13.8729601
  18.0633955  48.0807000  15.2242411  17.8532400  48.4350595  14.5581465
  14.0923803  47.3160510  13.9422565  14.1322175  47.8169716  14.6557272
  13.2673468  47.4070903  13.6728488  13.9763329  47.4042326  14.0073103
  16.2753416  56.8821250  22.0442860  15.4249047  57.0192964  22.1800505
  16.4381544  56.1485028  22.4890561  16.1737280  56.7935351  22.1298459
  15.5138167  53.8321020  16.2396464  14.6830096  53.9994838  16.0331712
  15.4589684  53.4556970  17.0245349  15.3827581  53.8010751  16.3244992
  13.3221950  47.3229913  21.8752875  13.9474653  46.7792045  22.1482307
  12.8672430  46.8424830  21.3060665  13.3470210  47.1719394  21.8314469
  13.8874210  52.1076611   6.7686582  14.0277171  52.6049075   7.4715223
  14.3856743  51.4062906   6.9100795  13.9815291  52.0778590   6.8938161
  26.8956999  55.5059200  16.9665523  27.4874839  56.1456450  16.9983721
  27.3315993  54.8082236  17.2557590  27.0475430  55.4977550  17.0146355
  15.4953416  48.9057698   4.0724601  15.8169257  48.4260780   3.4183863
  15.7580359  49.7157344   3.8815412  15.5819441  48.9547595   3.9480093
  18.7250388  59.9276572  17.5923417  18.2175479  60.4812419  18.0364047
  18.4277035  59.9884862  16.7742191  18.6055273  60.0182883  17.5371873
  20.8912571  48.2929892  16.4348080  21.3167642  47.8402418  15.8231606
  20.2769564  47.7389962  16.7112867  20.8641216  48.1443868  16.3853105
  19.3306793  44.7644991   9.8438657  18.6875111  44.6142638  10.4123795
  18.9906200  44.5187337   9.0787761  19.1851871  44.7057114   9.8141672
  23.9206140  52.7204418   9.2668665  23.2497330  53.2634120   9.1381731
  24.6145890  53.1899273   9.0250360  23.9235007  52.8702689   9.2124193
  17.9692874  64.8601130  14.4980424  17.7458528  64.1019959  14.8664450
  17.4802717  64.8899151  13.7760863  17.8636323  64.7523355  14.4457165
  24.0834267  49.1760302  12.1759038  24.4361877  48.7490025  12.8504837
  23.2249069  49.0911145  12.3060115  24.0083712  49.1005042  12.2954049
  12.7817952  51.8067821  10.2341885  12.0629942  52.2231954  10.5014749
  13.1530315  52.3722060   9.6833523  12.7309884  51.9517103  10.1924692
  22.0817533  52.4395670  16.1243881  22.0615461  52.2578966  16.9778660
  22.1296734  53.3107689  16.1003464  22.0852174  52.5412209  16.2467175
  20.0263863  59.0282862  22.0492357  19.9859718  58.3832539  21.4637513
  20.8387181  58.9719480  22.3617769  20.1407017  58.9241829  22.0089306
  16.6171331  65.0801588  11.9517508  16.2031729  64.4175719  11.5621350
  17.3018705  65.2279447  11.4313202  16.6569702  65.0042246  11.8174005
  19.9836625  64.2391674  12.7041125  19.5852908  64.3493944  11.9361945
  19.3687844  64.4473740  13.2867685  19.8335514  64.2865242  12.6772424
  18.5564527  50.8465821   5.5715264  17.9629366  51.1682818   5.0199832
  18.5939804  50.0006917   5.3636371  18.4738916  50.7690150   5.4598036
  25.5158327  44.2978714  13.1043351  25.0089192  43.5907853  13.0364528
  26.3125761  43.9671902  13.2344428  25.5585567  44.1451865  13.1142346
  21.4322343  50.8045326   9.0017015  21.2036036  50.8278027   8.1595373
  21.6920420  49.9802793   9.1212025  21.4368531  50.6861406   8.8942212
  15.7141572  52.6579799  18.6042115  15.2020475  52.0500982  18.9627146
  15.5421068  53.3736391  19.0716091  15.6131209  52.6743098  18.7258339
  10.5607286  51.1017374  21.2544477  10.3909877  51.7618749  20.7092683
  10.1173236  51.3123935  21.9756966  10.4706620  51.2303356  21.2806106
  14.4867106  49.3421872  10.2971210  14.9624472  49.7038952   9.6621392
  13.9855705  49.9978340  10.5771353  14.4832465  49.4916061  10.2447951
  27.7178467  58.8143640   6.0884215  28.1012073  59.5634996   6.3182312
  26.9222581  59.0609460   5.8296204  27.6572250  58.9613334   6.0841789
  19.5910642  50.5804044  21.0444370  20.1482072  50.3517853  20.4122836
  19.2671707  51.3409709  20.7679583  19.6257052  50.6587880  20.9100868
   7.4609351  54.0064240  16.5132967   6.9136070  53.3364885  16.6313835
   8.2501729  53.6394088  16.5776434   7.4961535  53.8529226  16.5401667
  17.3093759  53.6671697  22.0096378  18.0605086  53.9823374  22.3235932
  17.5016336  53.4650868  21.1830299  17.4485174  53.6839079  21.9339773
  16.5293759  51.4863072   3.6644594  16.9092724  51.5042701   2.8795709
  15.7886355  51.9317061   3.5435442  16.4762597  51.5544847   3.5308163
  24.1579050  49.7945263   9.2520173  24.1573276  49.6393920  10.1104449
  23.9535230  50.6408250   9.1961559  24.1278827  49.8965884   9.3708112
   6.2196320  53.2185048  13.6678990   6.0418082  52.7661657  14.3933905
   5.9315343  54.0211209  13.8517467   6.1509274  53.2707605  13.8022492
  21.8819902  54.4742765  12.9056380  22.3773567  53.7565760  12.8660400
  21.0719677  54.1713563  12.7910867  21.8363795  54.3240411  12.8830106
  23.9471720  57.2246452  15.5933509  24.3726792  56.7020874  15.0403934
  23.5828640  57.8227290  15.0722132  23.9558323  57.2356680  15.4342518
  13.5825800  65.5210670  14.3530854  13.8972359  66.3347058  14.3608636
  13.9919214  65.1360889  15.0213013  13.6893898  65.5839372  14.4534946
  20.5350320  60.9380717  11.9234666  21.0061498  61.6520979  12.0924651
  20.8710498  60.3379467  12.4594536  20.6545435  60.9552181  12.0267042
  22.6227304  62.5482030  24.1026738  22.7324270  61.7590591  24.4583485
  22.9518201  62.4587966  23.3001076  22.6879710  62.4187883  24.0369129
  17.4519815  45.7108187  18.8792761  17.5847720  44.9139181  19.2073736
  17.8364968  46.2374590  19.4591037  17.5276144  45.6708104  19.0136264
  21.1724266  60.7298651  18.6862359  20.6245212  60.1056535  18.4182424
  21.6337295  60.9192923  17.9706438  21.1591476  60.6657701  18.5412790
  20.5252170  42.6338513  15.4773854  19.7198134  42.5236243  15.7941693
  20.3958905  42.7350969  14.6203720  20.3872303  42.6322184  15.3981895
  23.9818131  48.7984005  16.0713551  23.3981119  49.2993212  15.6591118
  24.3022425  48.2913562  15.4377874  23.9431306  48.7975840  15.9172058
  16.5212930  47.7124600   6.3472226  17.3428624  47.8822913   6.1053921
  16.0582581  47.8671861   5.6238523  16.5744092  47.7606333   6.2043870
  15.1108262  45.7067362  17.1270655  15.6552675  45.3658489  17.7174996
  15.1645197  46.5652824  17.2691939  15.1997381  45.7822622  17.2352528
  10.9238820  59.4683778  14.0009463  11.5283678  59.4279613  13.3723283
  10.7166133  60.3154930  14.0313518  10.9827718  59.5871781  13.9125579
  20.7382593  61.7349724  15.2171700  21.5580966  61.5912690  15.4787995
  20.4576670  62.3595922  15.7588138  20.8179336  61.8060076  15.3359639
  37.2096243  69.3914575   8.1814576  37.1790247  70.2459212   8.3532846
  37.8077592  69.0909868   8.7400720  37.2933401  69.4731072   8.2889379
  30.4095928  68.4790226  12.9367507  29.5533823  68.6398725  12.9876624
  30.4563581  67.6082290  12.9572568  30.2895039  68.3741028  12.9473573
  33.7189644  74.7476752  22.5427963  34.4256412  74.2528783  22.6714897
  33.9077580  75.1885833  21.8130621  33.8517550  74.7395102  22.4537008
  33.2547749  70.5382270  15.5799158  33.8003709  71.2167357  15.6393128
  33.1964625  70.3969731  14.7200740  33.3263663  70.6174272  15.4611219
  21.8676955  66.2177354  13.4904152  21.2481987  65.6270001  13.3214167
  21.7660819  66.8088789  12.8568475  21.7614631  66.2181436  13.3709142
  28.9644851  67.9576895   7.8236615  29.6625016  68.1365023   8.3158079
  29.2797184  67.4347235   7.2007005  29.1140188  67.9070667   7.8038625
  21.5946088  69.7629635  15.7347721  21.4704785  70.3492081  16.3697540
  22.2464373  69.2689831  16.0359996  21.6719738  69.7768440  15.8733650
  26.6204429  72.9391352  15.0135232  27.2653432  72.4463795  14.6946181
  26.8606206  73.0816139  15.8401311  26.7515014  72.8868794  15.0884765
  29.1590521  75.7846258  14.6642125  29.4413764  74.9897664  14.4428881
  29.8876681  76.2626845  14.6847186  29.3080084  75.7380855  14.6345140
  27.1371715  63.3269292  11.9057890  26.8075045  63.7780436  11.2361589
  26.4616716  63.2485455  12.4530896  26.9882151  63.3820427  11.8881113
  34.3448122  59.3154815  10.1507501  34.0301563  60.0058293  10.5827923
  33.8275064  59.2599597   9.4493001  34.2212593  59.4089703  10.1104450
  25.3427669  61.3881580   7.3880838  26.0973637  61.7559897   7.1497888
  25.1655203  61.7621135   8.1560017  25.4282147  61.4979768   7.4665726
  38.6362567  67.5376021  15.4328377  37.7990988  67.6078208  15.6675971
  38.6050798  67.5400516  14.5602679  38.5080850  67.5486248  15.3387925
  25.0327296  69.6809057  21.1476746  25.2047800  69.5714951  21.9962027
  25.5696654  70.3263462  20.9107938  25.1372300  69.7601058  21.2381842
  23.6984733  63.7951899   4.0858951  23.5160307  64.0123780   3.2599943
  24.5610346  63.9090912   4.1417565  23.7989323  63.8441797   3.9713438
  29.3784452  60.7978310   7.1207974  30.1070613  60.6194265   6.6746131
  29.4679345  61.6396390   7.3315153  29.4991115  60.8962188   7.0861492
  33.3592753  71.7331697  11.0240268  34.1150268  72.1663212  11.0629177
  33.4655078  71.0836467  11.5974904  33.4862924  71.7009181  11.1138294
  36.3972924  75.5604975  11.7742671  35.9608156  75.5641717  12.5301643
  36.0635840  76.2410474  11.3422249  36.2835544  75.6617430  11.8223504
  30.9701998  77.6013307  23.0985822  31.7542414  77.7144155  23.4641564
  30.7698592  76.7754445  23.2944508  31.0568023  77.4960027  23.1820208
  19.3389013  72.2740988  15.9829666  19.0727429  71.4580104  16.1420656
  19.3527577  72.3194143  15.1125181  19.3013736  72.1597892  15.8783148
  36.3170407  62.6018802  14.0172099  36.9596316  62.6716907  14.6034015
  36.5693428  61.9348025  13.5151641  36.4492539  62.5145151  14.0299379
  24.0887620  65.8119366  18.6296673  23.3959416  65.3416346  18.8757405
  24.7047947  65.5857670  19.2038380  24.0772150  65.7086498  18.7505826
  39.5317270  72.2785895  10.6662309  40.1933705  71.7176563  10.5658217
  38.8908682  71.7837925  10.9915000  39.5346138  72.1222304  10.6994649
  19.7482427  73.0599767  13.2641410  19.5658000  73.0346653  12.4113702
  20.4832096  73.5298705  13.3030319  19.8296491  73.1261129  13.1439328
  22.8128179  69.7784770  19.7723518  23.5368151  69.7637800  20.2588413
  22.9144315  70.4880125  19.2745487  22.9346388  69.8809473  19.7702305
  30.1873128  73.2583854  24.6372465  29.3946109  73.5727366  24.8225085
  30.3022055  73.4735323  23.7993250  30.0868539  73.3367691  24.5410800
  32.8604447  69.9817846   8.9267481  32.9551301  70.7207140   9.3807107
  32.2363291  69.5535321   9.3602046  32.7813477  70.0279166   9.0575629
  31.1156921  73.1604058  19.5757762  31.6895783  72.5231302  19.7306326
  31.0371725  73.1608141  18.7067420  31.1890156  73.0669170  19.4704173
  19.7153337  69.9393268  13.4140476  20.2926840  69.8029718  14.0532722
  19.0167399  69.4829052  13.6686061  19.6974359  69.8515534  13.5462766
  26.4720639  71.5927323  11.6278960  26.2139884  70.7599058  11.6010259
  26.5269122  71.8184936  10.7871460  26.4420417  71.5025095  11.4999096
  31.5521690  63.6955774  11.7283052  30.8478016  63.2064960  11.8866971
  31.6006664  63.7078248  10.8571497  31.4551741  63.6245422  11.6222392
  25.4455352  69.1465086  12.1143854  24.8704943  69.3057254  12.7507815
  25.0691028  68.5100495  11.6512305  25.3058164  69.0762899  12.1398413
  29.1128640  67.6188435  16.9736233  28.7243073  67.1942653  16.3188424
  28.4483339  67.8670585  17.4813259  28.9575568  67.5927156  16.9524101
  38.7551909  67.3763440   9.7484063  38.4988474  66.5643381   9.5581946
  39.5981223  67.3841007   9.5214250  38.8417935  67.2575437   9.6868880
  32.9355002  61.3163064  14.4860217  33.3165514  60.6341235  14.8728091
  32.1318286  61.0272666  14.3035881  32.8731464  61.1730112  14.5164273
  36.4377069  74.5313036  19.5842615  36.2015706  73.7001101  19.4654676
  37.0820298  74.4798643  20.1697460  36.4971739  74.4010724  19.6528509
  26.0875487  75.3208557  10.2985352  26.7249434  75.0820305  10.8437145
  26.5130558  75.5245716   9.5638512  26.2451653  75.3159567  10.2702509
  26.8946842  63.8217262  24.3522825  26.5800283  64.5916825  24.0892388
  26.5736775  63.2587518  23.7675052  26.8005761  63.8527531  24.2264175
  37.4613489  74.3157485  15.6470910  37.1559306  75.0485541  16.0084226
  36.7419705  73.9095414  15.3663696  37.3100832  74.3639218  15.6584047
  28.4696959  75.7980980  11.9779138  28.5435967  75.6356152  12.8320988
  29.2866465  75.9871169  11.7339620  28.6013317  75.8017722  12.0677164
  43.1615281  70.9550485  14.9739254  43.0939782  70.9746444  14.1041841
  43.1470944  71.7980812  15.1994925  43.1494038  71.0824220  14.8791731
  24.4478739  62.2107784   9.9669022  23.5801165  62.2830383  10.0326631
  24.7353944  63.0129862  10.1556997  24.3618487  62.3401931  10.0043788
  33.5711628  62.3585643  18.2980344  34.3165220  62.1695453  17.8843769
  33.1548933  62.8843881  17.7394200  33.6196602  62.4087788  18.1544917
  27.5996290  73.5633469  17.7945742  27.1007983  74.2749236  17.8730630
  28.4096514  73.8834135  17.7563904  27.6452396  73.7160317  17.8002311
  23.8624407  72.8256422  12.0408463  23.5737656  72.1993893  12.5754190
  24.7307755  72.7676709  12.1073143  23.9484659  72.7243966  12.1299417
  34.6502305  67.9691205  12.3590445  34.3067071  67.2481540  12.7097694
  34.7495348  67.7605056  11.5168803  34.6144348  67.8315408  12.2862125
  26.5263348  66.4214513  23.0908040  25.7163123  66.7272293  22.9797883
  27.0038034  67.1420095  23.2060624  26.4766826  66.5729114  23.0915111
  25.3854907  75.6360234  13.3390943  24.8635661  75.7760526  14.0242808
  25.7728928  74.8770898  13.5293061  25.3658608  75.5445758  13.4692020
  22.3746091  65.6866043   7.4085898  22.0870887  65.3167313   6.6717845
  23.0616560  66.1560898   7.1469603  22.4334989  65.7013012   7.2600974
  26.8121233  72.6664253   8.7372434  26.6164015  73.2738988   8.1432737
  27.0355578  71.9732197   8.2564108  26.8155874  72.6541779   8.5788515
  25.2099763  69.5518991   8.8553303  25.9322415  69.7160149   8.3957109
  24.7307756  70.2728656   8.7492643  25.2463494  69.6817221   8.7718917
  33.1693270  65.8882790  14.2349988  32.3304371  65.9144069  13.9988251
  33.2397638  66.5353525  14.8155334  33.0561664  65.9878916  14.2859105
  22.8607380  71.9577063  17.9607443  23.3728477  72.2361317  17.3116202
  22.5743722  72.6966358  18.3270256  22.8942243  72.1079417  17.9197321
  31.6162549  62.7868167   8.9677604  32.3188902  62.5875915   8.4897562
  31.3506737  62.0144109   9.2746447  31.6809181  62.6431133   8.9423045
  37.0450794  71.0950777  11.5211229  36.9584769  71.2506203  12.3746008
  36.5901274  71.7388852  11.1470634  36.9654051  71.2126532  11.5918336
  19.9474286  66.4647255   8.2571179  20.0490422  67.2673417   8.5852155
  20.7430173  66.2634591   7.9594260  20.0802192  66.5533154   8.2606534
  26.3791105  64.0503452  18.0208484  26.1874302  64.0658586  18.8707908
  27.2289701  64.2467126  17.9975139  26.4766827  64.0817803  18.1431779
  20.7638018  66.5794434  15.9992301  20.6223510  65.7278374  16.1236809
  21.0478581  66.6223094  15.1754507  20.7845864  66.4594184  15.8959925
  30.9176610  68.4161524  10.1436789  30.6711325  68.3357275  10.9773578
  31.2461733  67.6314992   9.9499316  30.9297854  68.2887789  10.2384312
  34.8124659  75.1244883  13.9323570  34.6739018  75.8225929  14.4372313
  34.0324657  74.9693540  13.5759752  34.6767886  75.2045050  13.9549844
  33.1502744  71.4241258  20.1845952  33.1450783  70.5521075  20.1888378
  33.8563738  71.6229428  19.7115408  33.2547748  71.3245133  20.1152987
  26.8773638  71.1518242  19.5559772  27.0217013  71.7319450  18.9202882
  27.2249286  71.5294539  20.2609627  26.9501099  71.2938946  19.5658767
  29.0493555  70.3508411  17.3384904  28.3016869  70.5439425  16.9333182
  29.2035080  69.5253630  17.1009025  28.9615983  70.2573522  17.2430309
  29.2895332  64.2458961  18.2280307  29.7467946  64.9782936  18.3553100
  29.3651661  63.8225427  18.9867563  29.3686302  64.2916199  18.3581384
  21.5328323  64.4924781  19.3169751  20.9970513  63.8805139  19.6330518
  21.5946088  65.0672917  19.9703418  21.4623956  64.4871709  19.4605178
  33.7622658  57.4248837  12.0974150  33.8806226  57.8825300  11.3641453
  33.5884834  56.6194098  11.8110368  33.7541829  57.3742609  11.9475084
  27.1677710  66.2361065  15.0722131  26.3773785  66.0552525  15.3939467
  27.5638333  65.4588018  15.0552426  27.1094586  66.0948526  15.1174680
  32.5521396  73.8703496  12.7981577  31.8766398  73.6388728  13.2994964
  32.5613772  73.2624678  12.1723682  32.4539901  73.7462421  12.7797730
  29.6815540  68.7121324  19.5545630  29.6174681  69.5731281  19.4265767
  29.8212728  68.3953318  18.7541182  29.6931010  68.7921491  19.4173843
  28.3634634  71.4053464  13.6961833  27.9396883  71.6057963  12.9600852
  28.1879489  70.5582312  13.8086133  28.2745515  71.3102245  13.6035523
  23.6517079  71.9005515   9.1289806  23.8081698  71.8352318   9.9845798
  23.9917672  72.6754068   8.9168485  23.7250314  72.0054713   9.2244400
  30.1896224  71.2763399   7.9983169  30.7311769  70.7733780   8.4621790
  30.5042783  71.2228594   7.1872654  30.3160621  71.1942820   7.9466981
  34.0613331  75.4866046  25.1110081  34.8748196  75.2151195  25.2715214
  33.9008297  75.1873586  24.3070277  34.1583280  75.4020972  25.0155487
  31.3385493  66.1699703  18.0505469  31.5527463  65.5310618  17.4968823
  30.7219392  66.6145527  17.6213331  31.2790822  66.1409847  17.9055901
  20.2251341  69.0840466   9.4450573  20.6050305  69.5025011   8.7810840
  19.6506705  69.6653921   9.7519416  20.1962665  69.2318325   9.3927314
  33.5024581  67.7788769  18.9888776  32.6901263  67.4714659  19.0701949
  33.9614516  67.2987769  19.5531489  33.4504966  67.6625261  19.0843371
  30.7300222  59.2799639  13.0392812  29.8593780  59.2538360  12.9926122
  30.9840563  59.1076831  12.2218658  30.6393782  59.2509783  12.9112949
  30.5978089  69.1848840  23.7717479  31.0677720  69.8090956  24.1585353
  30.6439969  68.5165815  24.3310693  30.6745964  69.1783520  23.9117550
  27.7549362  61.2905867  14.4966283  27.2387851  60.5986059  14.6217862
  27.1943291  61.9576644  14.4428881  27.5955875  61.2869125  14.5072349
  29.8241596  61.8298827  16.3259135  29.4373349  61.8547859  17.1072665
  29.3374533  61.2640506  15.8733652  29.6954105  61.7494578  16.3747039
  34.0734575  76.5472336  20.3832922  34.7114296  76.0532532  20.0495378
  33.4308667  76.4749737  19.7985149  34.0728802  76.4631345  20.2475277
  35.7991575  68.3961482  14.9498837  35.3719183  68.3087831  14.1946937
  35.1617628  68.5039258  15.5353681  35.6421182  68.3994142  14.9244279
  29.4898737  58.7165813  18.6169395  30.1191855  59.2526113  18.3390465
  29.6584600  58.6243172  19.4682961  29.6076532  58.7827175  18.7017923
  29.2912652  63.5037008  20.8895807  30.1186082  63.2322157  20.9454421
  29.3120498  64.2997849  21.2459625  29.4165502  63.5816762  20.9510990
  34.1288832  77.2392145  17.0238278  34.9181210  76.8881209  17.1440360
  34.3032430  78.0528533  16.7614912  34.2709113  77.3078002  17.0026146
  23.8682142  70.6500870  14.0766067  23.0270149  70.5504745  14.2844961
  24.0772150  71.4196351  14.4280388  23.7746835  70.7492914  14.1593382
  21.3457709  68.2720407  11.9050818  20.9514407  68.3463419  11.1300928
  20.7897826  68.6578354  12.4559180  21.2060521  68.3402182  11.8718478
  32.9822656  61.2501701  11.5854697  33.1872249  61.1824009  12.4311694
  32.6549080  62.0560523  11.5175874  32.9637904  61.3587642  11.7014352
  27.6798807  68.5782270  13.3263665  27.3761944  68.0238258  13.9274072
  26.9778228  68.7574480  12.8391699  27.5315017  68.5227052  13.3433370
  26.7364904  65.8882789   7.8908367  27.0124638  65.1701702   7.4785934
  27.3363573  66.4867709   7.6829473  26.8658169  65.8703160   7.7989128
  36.2356344  61.8033466  11.0657462  35.6230657  62.2903868  11.4511194
  36.3320518  61.1276957  11.6095114  36.1594241  61.7751774  11.2036321
  30.2375425  63.5596307   6.1654962  30.6919171  63.7306867   6.8902806
  30.7115470  62.9464417   5.7652737  30.3743745  63.4947192   6.2128723
  23.7590950  73.0444633  15.4957700  23.1678883  73.6854131  15.4660715
  24.5211974  73.4682250  15.4689000  23.7839211  73.2020471  15.4872847
  24.1551573  64.2046630  16.1625718  24.6153054  64.2785560  16.9000842
  24.2007680  65.0027885  15.8125539  24.2302128  64.3340778  16.2198474
  25.8034923  64.8713325  20.7297745  25.4120488  64.2246672  21.1653523
  25.9720785  65.4624761  21.3492000  25.7705833  64.8627593  20.8860451
  39.8781372  72.8750402  16.4934978  39.9364495  73.3237051  17.2394955
  39.2447839  73.2849215  16.0565058  39.7932667  73.0024137  16.5387527
  27.5788445  70.2638841   7.2699969  28.3230490  70.6513117   7.5082919
  27.7249141  69.4196267   7.4340457  27.7099030  70.1969314   7.3293939
  29.4968020  62.0589100  12.3031830  28.6504065  62.2311908  12.1773180
  29.4939152  61.2538444  12.6397659  29.3715170  61.9650129  12.3342957
  30.5666320  65.8364314  13.1693888  30.0926275  65.3106077  13.6799199
  30.9384456  65.2893787  12.6008750  30.5516209  65.6780311  13.1609035
  20.9439351  67.8335821  18.5377434  21.8064964  67.7331530  18.4514764
  20.6131134  67.2530530  17.9763006  21.0224547  67.7327448  18.4422840
  36.8303051  70.8966690  14.5800669  36.5901274  70.0573105  14.5843095
  37.3095058  70.9766857  15.3041442  36.8655235  70.7848090  14.6875471
  32.4949820  66.7300869   6.2319642  31.9672839  66.8129613   5.5425351
  32.9545528  67.4718741   6.2284287  32.4851671  66.8521531   6.1294337
  38.8308238  67.6768147  12.5329928  38.5918008  67.6363981  11.6950713
  38.9942139  68.5239299  12.6595649  38.8198541  67.7960232  12.4283410
  35.4354268  72.0618097  18.4634973  36.1588467  71.6090623  18.2845993
  35.1704230  72.3422762  17.6807301  35.5035541  72.0369065  18.3213688
  24.3041137  66.6578270  15.1987852  23.6794207  66.6696662  14.5913805
  23.9686731  67.1338445  15.8479092  24.1626628  66.7296787  15.2044421
  31.2173058  72.1601975  16.6129988  30.6030051  71.6160025  16.9078623
  31.7340343  71.6466211  16.1335804  31.2028720  72.0038384  16.5854216
  30.4569355  73.2306245  14.3474287  30.0296963  72.6055964  13.9139722
  30.4494299  72.9481167  15.1733294  30.3928496  73.0959026  14.4054114
  23.5731882  68.2671418  17.4162721  23.7325369  67.5114742  17.8214443
  23.3924776  68.8162358  18.0703458  23.5697241  68.2365232  17.5725427
  31.5152185  60.4332654  17.9713510  31.0192746  60.6296328  17.2805077
  32.2721247  60.8325322  17.8002312  31.5539010  60.5210387  17.8433647
  28.7855065  64.1074999  14.5616821  28.8097552  63.5735112  13.8729601
  29.0366538  63.5992308  15.2242411  28.8264983  63.9535903  14.5581465
  25.0656387  62.8345818  13.9422565  25.1054758  63.3355024  14.6557272
  24.2406051  62.9256211  13.6728488  24.9495913  62.9227634  14.0073103
  27.2486000  72.4006558  22.0442860  26.3981630  72.5378272  22.1800505
  27.4114127  71.6670336  22.4890561  27.1469863  72.3120659  22.1298459
  26.4870750  69.3506328  16.2396464  25.6562680  69.5180145  16.0331712
  26.4322267  68.9742278  17.0245349  26.3560165  69.3196059  16.3244992
  24.2954533  62.8415220  21.8752875  24.9207237  62.2977353  22.1482307
  23.8405013  62.3610138  21.3060665  24.3202794  62.6904702  21.8314469
  24.8606794  67.6261919   6.7686582  25.0009755  68.1234383   7.4715223
  25.3589327  66.9248213   6.9100795  24.9547875  67.5963898   6.8938161
  37.8689582  71.0244507  16.9665523  38.4607422  71.6641758  16.9983721
  38.3048577  70.3267544  17.2557590  38.0208013  71.0162858  17.0146355
  26.4685999  64.4243005   4.0724601  26.7901840  63.9446088   3.4183863
  26.7312943  65.2342652   3.8815412  26.5552025  64.4732903   3.9480093
  29.6982972  75.4461880  17.5923417  29.1908063  75.9997727  18.0364047
  29.4009618  75.5070170  16.7742191  29.5787857  75.5368191  17.5371873
  31.8645154  63.8115199  16.4348080  32.2900226  63.3587726  15.8231606
  31.2502147  63.2575270  16.7112867  31.8373800  63.6629176  16.3853105
  30.3039377  60.2830299   9.8438657  29.6607695  60.1327946  10.4123795
  29.9638784  60.0372645   9.0787761  30.1584454  60.2242422   9.8141672
  34.8938723  68.2389726   9.2668665  34.2229913  68.7819428   9.1381731
  35.5878474  68.7084581   9.0250360  34.8967591  68.3887997   9.2124193
  35.0566851  64.6945610  12.1759038  35.4094461  64.2675333  12.8504837
  34.1981652  64.6096453  12.3060115  34.9816296  64.6190350  12.2954049
  23.7550536  67.3253129  10.2341885  23.0362525  67.7417262  10.5014749
  24.1262898  67.8907368   9.6833523  23.7042468  67.4702411  10.1924692
  33.0550117  67.9580978  16.1243881  33.0348044  67.7764273  16.9778660
  33.1029317  68.8292997  16.1003464  33.0584758  68.0597517  16.2467175
  30.9996447  74.5468170  22.0492357  30.9592301  73.9017847  21.4637513
  31.8119765  74.4904788  22.3617769  31.1139600  74.4427137  22.0089306
  29.5297110  66.3651129   5.5715264  28.9361950  66.6868126   5.0199832
  29.5672388  65.5192225   5.3636371  29.4471499  66.2875458   5.4598036
  36.4890911  59.8164022  13.1043351  35.9821776  59.1093161  13.0364528
  37.2858345  59.4857210  13.2344428  36.5318150  59.6637173  13.1142346
  32.4054927  66.3230634   9.0017015  32.1768620  66.3463335   8.1595373
  32.6653003  65.4988101   9.1212025  32.4101115  66.2046714   8.8942212
  26.6874155  68.1765107  18.6042115  26.1753058  67.5686290  18.9627146
  26.5153651  68.8921699  19.0716091  26.5863792  68.1928406  18.7258339
  21.5339870  66.6202682  21.2544477  21.3642460  67.2804057  20.7092683
  21.0905820  66.8309243  21.9756966  21.4439204  66.7488664  21.2806106
  25.4599689  64.8607180  10.2971210  25.9357056  65.2224260   9.6621392
  24.9588289  65.5163648  10.5771353  25.4565048  65.0101369  10.2447951
  30.5643226  66.0989351  21.0444370  31.1214656  65.8703161  20.4122836
  30.2404291  66.8595017  20.7679583  30.5989636  66.1773188  20.9100868
  18.4341935  69.5249548  16.5132967  17.8868654  68.8550193  16.6313835
  19.2234313  69.1579396  16.5776434  18.4694118  69.3714534  16.5401667
  28.2826343  69.1857005  22.0096378  29.0337670  69.5008682  22.3235932
  28.4748919  68.9836176  21.1830299  28.4217757  69.2024387  21.9339773
  27.5026343  67.0048380   3.6644594  27.8825307  67.0228009   2.8795709
  26.7618939  67.4502369   3.5435442  27.4495180  67.0730155   3.5308163
  35.1311633  65.3130571   9.2520173  35.1305860  65.1579228  10.1104449
  34.9267813  66.1593558   9.1961559  35.1011411  65.4151192   9.3708112
  17.1928904  68.7370356  13.6678990  17.0150665  68.2846965  14.3933905
  16.9047926  69.5396517  13.8517467  17.1241857  68.7892913  13.8022492
  32.8552485  69.9928073  12.9056380  33.3506150  69.2751068  12.8660400
  32.0452261  69.6898871  12.7910867  32.8096378  69.8425719  12.8830106
  34.9204304  72.7431760  15.5933509  35.3459376  72.2206182  15.0403934
  34.5561224  73.3412598  15.0722132  34.9290907  72.7541987  15.4342518
  31.5082903  76.4566025  11.9234666  31.9794082  77.1706287  12.0924651
  31.8443082  75.8564775  12.4594536  31.6278018  76.4737489  12.0267042
  33.5959888  78.0667338  24.1026738  33.7056854  77.2775899  24.4583485
  33.9250785  77.9773274  23.3001076  33.6612294  77.9373191  24.0369129
  28.4252398  61.2293495  18.8792761  28.5580304  60.4324489  19.2073736
  28.8097551  61.7559898  19.4591037  28.5008727  61.1893412  19.0136264
  32.1456850  76.2483959  18.6862359  31.5977796  75.6241842  18.4182424
  32.6069878  76.4378231  17.9706438  32.1324059  76.1843009  18.5412790
  31.4984754  58.1523821  15.4773854  30.6930717  58.0421551  15.7941693
  31.3691489  58.2536277  14.6203720  31.3604886  58.1507491  15.3981895
  34.9550714  64.3169313  16.0713551  34.3713703  64.8178520  15.6591118
  35.2755008  63.8098869  15.4377874  34.9163889  64.3161148  15.9172058
  27.4945513  63.2309908   6.3472226  28.3161208  63.4008221   6.1053921
  27.0315164  63.3857169   5.6238523  27.5476676  63.2791641   6.2043870
  26.0840845  61.2252670  17.1270655  26.6285258  60.8843797  17.7174996
  26.1377781  62.0838132  17.2691939  26.1729965  61.3007930  17.2352528
  31.7115176  77.2535032  15.2171700  32.5313550  77.1097998  15.4787995
  31.4309254  77.8781230  15.7588138  31.7911919  77.3245384  15.3359639
  37.8679426  79.3402570  24.3522825  37.5532867  80.1102133  24.0892388
  37.5469358  78.7772826  23.7675052  37.7738345  79.3712839  24.2264175
  44.5444212  77.8770951  18.2980344  45.2897804  77.6880761  17.8843769
  44.1281516  78.4029189  17.7394200  44.5929186  77.9273096  18.1544917
  37.3523689  79.5688760  18.0208484  37.1606886  79.5843894  18.8707908
  38.2022284  79.7652434  17.9975139  37.4499410  79.6003111  18.1431779
  40.2627916  79.7644269  18.2280307  40.7200530  80.4968244  18.3553100
  40.3384244  79.3410735  18.9867563  40.3418885  79.8101507  18.3581384
  38.7281946  76.8091175  14.4966283  38.2120434  76.1171367  14.6217862
  38.1675875  77.4761952  14.4428881  38.5688459  76.8054433  14.5072349
  40.7974179  77.3484135  16.3259135  40.4105932  77.3733167  17.1072665
  40.3107117  76.7825814  15.8733652  40.6686688  77.2679886  16.3747039
  40.4631321  74.2351121  18.6169395  41.0924439  74.7711421  18.3390465
  40.6317184  74.1428480  19.4682961  40.5809116  74.3012483  18.7017923
  40.2645236  79.0222316  20.8895807  41.0918665  78.7507464  20.9454421
  40.2853082  79.8183157  21.2459625  40.3898086  79.1002070  20.9510990
  42.4884768  75.9517961  17.9713510  41.9925330  76.1481636  17.2805077
  43.2453831  76.3510630  17.8002312  42.5271593  76.0395695  17.8433647
  36.0388970  78.3531126  13.9422565  36.0787342  78.8540332  14.6557272
  35.2138635  78.4441519  13.6728488  35.9228496  78.4412942  14.0073103
  35.2687117  78.3600528  21.8752875  35.8939820  77.8162661  22.1482307
  34.8137597  77.8795446  21.3060665  35.2935378  78.2090010  21.8314469
  42.8377738  79.3300507  16.4348080  43.2632809  78.8773034  15.8231606
  42.2234731  78.7760578  16.7112867  42.8106383  79.1814484  16.3853105
  39.3984982  76.7478803  18.8792761  39.5312888  75.9509797  19.2073736
  39.7830135  77.2745206  19.4591037  39.4741311  76.7078720  19.0136264
  42.4717337  73.6709129  15.4773854  41.6663301  73.5606859  15.7941693
  42.3424073  73.7721585  14.6203720  42.3337470  73.6692799  15.3981895
  37.0573429  76.7437978  17.1270655  37.6017842  76.4029105  17.7174996
  37.1110364  77.6023440  17.2691939  37.1462548  76.8193238  17.2352528
  22.4407885  36.1669575   9.4768010  23.1474652  35.6721606   9.6054944
  22.6295820  36.6078657   8.7470668  22.5735790  36.1587926   9.3877055
  19.5800179  39.5897112   7.3682085  19.6683525  39.4023252   8.2160295
  20.0089892  38.9434541   6.9686932  19.6562281  39.4660119   7.4353836
  17.1470639  38.8728272   6.3499747  16.5841474  38.4600881   6.8739408
  17.9091662  38.7981177   6.7692890  17.1765087  38.8005672   6.4892748
  13.7545537  31.1001880   8.0816792  13.9266040  30.9907774   8.9302074
  14.2914894  31.7456285   7.8447985  13.8590541  31.1793881   8.1721889
  19.6920238  39.0206131  10.0325869  20.4760655  39.1336979  10.3981611
  19.4916833  38.1947268  10.2284554  19.7786264  38.9152850  10.1160255
  19.8490632  40.9316233   3.6792324  19.0505877  40.6915733   3.9366193
  20.2976643  40.9830626   4.4259372  19.7965243  40.9038624   3.8277248
  18.9091368  34.6776678  11.5712512  18.1164349  34.9920190  11.7565132
  19.0240296  34.8928146  10.7333297  18.8086779  34.7560514  11.4750847
  19.8375161  34.5796881   6.5097809  20.4114023  33.9424126   6.6646373
  19.7589965  34.5800964   5.6407467  19.9108396  34.4861993   6.4044220
  25.1595309  35.9505859   6.5182662  24.9233946  35.1193924   6.3994723
  25.8038538  35.8991466   7.1037506  25.2189980  35.8203547   6.5868556
  15.6165083  25.2410085  11.2862872  15.3018524  26.0109648  11.0232435
  15.2955015  24.6780341  10.7015099  15.5224002  25.2720354  11.1604222
  26.1831730  35.7350308   2.5810957  25.8777547  36.4678365   2.9424272
  25.4637945  35.3288237   2.3003743  26.0319072  35.7832041   2.5924094
  31.8833522  32.3743308   1.9079301  31.8158022  32.3939268   1.0381888
  31.8689184  33.2173636   2.1334972  31.8712278  32.5017043   1.8131778
  16.3214530  34.9826292   4.7285789  15.8226224  35.6942060   4.8070677
  17.1314754  35.3026959   4.6903951  16.3670637  35.1353141   4.7342357
  15.2481588  27.8407336  10.0248087  14.4381364  28.1465116   9.9137929
  15.7256275  28.5612919  10.1400671  15.1985067  27.9921938  10.0255158
  23.5342900  36.5437706   0.8663617  23.3957259  37.2418752   1.3712359
  22.7542897  36.3886363   0.5099799  23.3986126  36.6237873   0.8889891
  21.8720985  32.8434082   7.1185999  21.8669023  31.9713898   7.1228425
  22.5781979  33.0422251   6.6455454  21.9765989  32.7437956   7.0493034
  15.5991878  32.5711066   6.4899819  15.7435254  33.1512274   5.8542929
  15.9467527  32.9487362   7.1949673  15.6719339  32.7131770   6.4998814
  14.6719633  40.7613837   3.3560846  14.8209197  40.2016753   2.7034250
  15.4519635  40.8405839   3.7393364  14.8093727  40.6899403   3.3157795
  17.1972934  40.9328480   4.6345336  17.1216605  40.2637291   5.1896125
  17.1262793  41.6346268   5.1486003  17.1753541  40.9373388   4.7922185
  16.5864568  44.3396800   3.0923337  17.0760498  43.6407589   2.9099002
  16.0148800  44.0420670   3.6799395  16.5749098  44.1923024   3.1524378
  22.7831571  36.9058869  12.0450128  23.5966437  36.6344018  12.2055260
  22.6226538  36.6066409  11.2410324  22.8801520  36.8213795  11.9495534
  22.2242821  29.1981592   5.9228823  21.4119503  28.8907482   6.0041996
  22.6832756  28.7180592   6.4871535  22.1723206  29.0818084   6.0183417
  19.3196329  30.6041663  10.7057526  19.7895960  31.2283780  11.0925400
  19.3658209  29.9358639  11.2650740  19.3964205  30.5976343  10.8457597
  22.7952815  37.9665160   7.3172968  23.4332536  37.4725355   6.9835425
  22.1526907  37.8942560   6.7325195  22.7947042  37.8824168   7.1815323
  22.8507072  38.6584968   3.9578325  23.6399450  38.3074033   4.0780407
  23.0250670  39.4721356   3.6954959  22.9927354  38.7270825   3.9366193
  14.4635398  37.2124814   4.9675809  14.3555753  37.2226876   5.8337867
  14.6731180  38.0379594   4.7780763  14.4785509  37.3365888   5.0679901
  28.5999612  34.2943226   3.4275025  28.6582736  34.7429874   4.1735002
  27.9666079  34.7042038   2.9905105  28.5150907  34.4216960   3.4727574
  22.2398707  39.9146768  -0.1370229  22.0418395  40.4037582  -0.8314017
  21.6186418  40.1188009   0.4413905  22.1186271  40.0163306  -0.1547005
  24.1572509  33.4810920   5.3975020  24.8806707  33.0283446   5.2186040
  23.8922471  33.7615586   4.6147348  24.2253782  33.4561888   5.2553735
  15.9704240  33.8199381   8.9782906  15.1199871  33.9571095   9.1140551
  16.1332368  33.0863159   9.4230608  15.8688104  33.7313482   9.0638506
  26.5907822  32.4437331   3.9005570  27.1825663  33.0834581   3.9323768
  27.0266817  31.7460367   4.1897636  26.7426254  32.4355681   3.9486402
  18.4201212  36.8654703   4.5263464  17.9126303  37.4190550   4.9704094
  18.1227859  36.9262993   3.7082238  18.3006097  36.9561014   4.4711920
  17.6643698  41.7979261   1.4320470  17.4409352  41.0398091   1.8004497
  17.1753541  41.8277283   0.7100910  17.5587147  41.6901486   1.3797211
  19.7214687  35.9660994   8.9832404  19.6810542  35.3210671   8.3977560
  20.5338005  35.9097611   9.2957816  19.8357841  35.8619960   8.9429353
  19.2861466  27.5182175   7.9784417  19.8432896  27.2895984   7.3462883
  18.9622531  28.2787840   7.7019630  19.3207876  27.5966011   7.8440914
  17.0044583  30.6049828   8.9436424  17.7555910  30.9201505   9.2575979
  17.1967160  30.4028999   8.1170346  17.1435997  30.6217210   8.8679820
  23.6422544  34.1624584   2.5273555  24.0677616  33.6399005   1.9743981
  23.2779464  34.7605421   2.0062178  23.6509147  34.1734811   2.3682565
  13.2776624  42.4588801   1.2870901  13.5923183  43.2725190   1.2948683
  13.6870038  42.0739020   1.9553060  13.3844722  42.5217504   1.3874993
  22.3178128  39.4860161  11.0366785  22.4275094  38.6968722  11.3923532
  22.6469025  39.3966097  10.2341123  22.3830534  39.3566014  10.9709176
  20.8675090  37.6676782   5.6202406  20.3196036  37.0434666   5.3522471
  21.3288119  37.8571054   4.9046485  20.8542300  37.6035832   5.4752837
  20.4333416  38.6727855   2.1511747  21.2531790  38.5290821   2.4128042
  20.1527494  39.2974054   2.6928185  20.5130160  38.7438207   2.2699686
  36.9047067  46.3292706  -4.8845377  36.8741071  47.1837343  -4.7127107
  37.5028416  46.0287999  -4.3259233  36.9884225  46.4109203  -4.7770575
  30.1046752  45.4168357  -0.1292446  29.2484647  45.5776856  -0.0783330
  30.1514405  44.5460421  -0.1087385  29.9845863  45.3119159  -0.1186380
  33.4140468  51.6854883   9.4768010  34.1207235  51.1906914   9.6054944
  33.6028404  52.1263965   8.7470668  33.5468374  51.6773233   9.3877055
  32.9498573  47.4760401   2.5139205  33.4954533  48.1545488   2.5733175
  32.8915449  47.3347862   1.6540787  33.0214487  47.5552403   2.3951266
  26.0672648  54.9649468  -2.0992442  26.1683010  54.1549821  -1.7895315
  25.4714393  54.8706414  -2.7292764  25.9945186  54.8314496  -2.1466204
  25.9073387  59.8827057  -0.6977586  26.5510843  60.3240221  -0.3081428
  26.2329643  59.0780483  -0.7847328  26.0505216  59.8292251  -0.6532109
  21.5627779  43.1555485   0.4244199  20.9432811  42.5648132   0.2554214
  21.4611643  43.7466920  -0.2091478  21.4565455  43.1559567   0.3049189
  28.6595675  44.8955026  -5.2423338  29.3575840  45.0743154  -4.7501875
  28.9748007  44.3725366  -5.8652949  28.8091012  44.8448799  -5.2621328
  21.2896912  46.7007766   2.6687768  21.1655609  47.2870212   3.3037587
  21.9415197  46.2067962   2.9700043  21.3670562  46.7146571   2.8073697
  28.8483610  51.2825471  -5.2543546  29.2877246  50.6742572  -4.8088774
  28.6988273  50.9032845  -6.0258081  28.8905076  51.1363943  -5.3024379
  26.3155253  49.8769483   1.9475279  26.9604256  49.3841926   1.6286228
  26.5557030  50.0194270   2.7741357  26.4465838  49.8246926   2.0224812
  28.8541345  52.7224389   1.5982172  29.1364588  51.9275795   1.3768927
  29.5827505  53.2004977   1.6187233  29.0030908  52.6758986   1.5685187
  26.8322539  40.2647423  -1.1602063  26.5025869  40.7158567  -1.8298365
  26.1567540  40.1863586  -0.6129057  26.6832975  40.3198558  -1.1778840
  34.0398946  36.2532946  -2.9152453  33.7252387  36.9436425  -2.4832030
  33.5225888  36.1977728  -3.6166952  33.9163417  36.3467835  -2.9555504
  38.8359433  51.8283751  -1.4281998  38.0057136  52.0394395  -1.2648581
  38.7868685  51.0020806  -1.7039714  38.7066168  51.7373358  -1.4444632
  26.8969171  54.6587606   1.4065912  26.3796112  54.2995021   0.8027220
  27.5943562  54.1349780   1.4171978  26.9234752  54.5285294   1.3196171
  30.5532763  55.1082420   7.3682085  30.6416108  54.9208560   8.2160295
  30.9822475  54.4619849   6.9686932  30.6294865  54.9845427   7.4353836
  28.1203222  54.3913580   6.3499747  27.5574057  53.9786189   6.8739408
  28.8824246  54.3166485   6.7692890  28.1497671  54.3190980   6.4892748
  23.6799214  56.3811601  -1.0463623  24.3819793  55.8663590  -0.9890866
  23.5996697  56.7085752  -0.2416748  23.7722974  56.3525827  -0.9190831
  38.3313391  44.4754152   2.3668424  37.4941812  44.5456339   2.6016018
  38.3001622  44.4778647   1.4942726  38.2031674  44.4864379   2.2727972
  24.7278120  46.6187188   8.0816792  24.8998624  46.5093082   8.9302074
  25.2647478  47.2641593   7.8447985  24.8323124  46.6979189   8.1721889
  23.0049989  52.5717953  -1.5378015  23.8438889  52.8040886  -1.4904253
  23.0361758  51.7022264  -1.6070979  23.1331707  52.4774899  -1.5413370
  23.6302692  52.9918828   2.7635291  24.1700917  52.8489959   3.4338663
  22.9472638  53.3915579   3.1319317  23.6094846  53.0298499   2.9169713
  33.0543577  48.6709829  -2.0419685  33.8101092  49.1041343  -2.0030776
  33.1605902  48.0214598  -1.4685049  33.1813748  48.6387312  -1.9521659
  36.0923748  52.4983106  -1.2917282  35.6558980  52.5019848  -0.5358310
  35.7586664  53.1788605  -1.7237704  35.9786368  52.5995562  -1.2436449
  30.6652822  54.5391439  10.0325869  31.4493238  54.6522286  10.3981611
  30.4649416  53.7132576  10.2284554  30.7518847  54.4338158  10.1160255
  19.0339837  49.2119119   2.9169712  18.7678253  48.3958235   3.0760703
  19.0478401  49.2572274   2.0465228  18.9964560  49.0976024   2.8123194
  36.0121231  39.5396934   0.9512146  36.6547140  39.6095038   1.5374061
  36.2644252  38.8726157   0.4491688  36.1443363  39.4523282   0.9639425
  23.7838444  42.7497497   5.5636720  23.0910240  42.2794477   5.8097452
  24.3998771  42.5235802   6.1378427  23.7722974  42.6464629   5.6845873
  30.8223215  56.4501541   3.6792324  30.0238461  56.2101041   3.9366193
  31.2709227  56.5015934   4.4259372  30.7697826  56.4223932   3.8277248
  39.2268094  49.2164026  -2.3997645  39.8884529  48.6554694  -2.5001736
  38.5859506  48.7216056  -2.0744953  39.2296962  49.0600435  -2.3665304
  19.4433251  49.9977898   0.1981457  19.2608824  49.9724784  -0.6546251
  20.1782920  50.4676836   0.2370365  19.5247315  50.0639260   0.0779375
  35.5132925  50.2329408  -2.6585656  35.7488514  50.3774607  -3.4858805
  35.6622489  50.9971816  -2.2654142  35.5698728  50.3668463  -2.7222052
  22.5079003  46.7162901   6.7063565  23.2318975  46.7015932   7.1928460
  22.6095139  47.4258256   6.2085534  22.6297212  46.8187604   6.7042352
  29.8823952  50.1961986  11.5712512  29.0896933  50.5105497  11.7565132
  29.9972879  50.4113454  10.7333297  29.7819363  50.2745822  11.4750847
  32.5555271  46.9195977  -4.1392472  32.6502125  47.6585271  -3.6852846
  31.9314115  46.4913452  -3.7057907  32.4764301  46.9657297  -4.0084324
  30.8107745  50.0982189   6.5097809  31.3846606  49.4609434   6.6646373
  30.7322549  50.0986272   5.6407467  30.8840980  50.0047301   6.4044220
  19.4104161  46.8771399   0.3480523  19.9877664  46.7407850   0.9872769
  18.7118223  46.4207183   0.6026108  19.3925183  46.7893665   0.4802813
  26.1671463  48.5305454  -1.4380994  25.9090708  47.6977189  -1.4649694
  26.2219946  48.7563067  -2.2788493  26.1371241  48.4403226  -1.5660857
  31.2472514  40.6333905  -1.3376901  30.5428840  40.1443091  -1.1792982
  31.2957488  40.6456380  -2.2088456  31.1502565  40.5623553  -1.4437561
  25.1406176  46.0843217  -0.9516099  24.5655767  46.2435385  -0.3152138
  24.7641852  45.4478626  -1.4147648  25.0008988  46.0141030  -0.9261540
  28.8079464  44.5566566   3.9076280  28.4193897  44.1320784   3.2528471
  28.1434163  44.8048716   4.4153306  28.6526392  44.5305287   3.8864148
  38.4502733  44.3141571  -3.3175890  38.1939298  43.5021512  -3.5078008
  39.2932047  44.3219138  -3.5445703  38.5368759  44.1953568  -3.3791073
  32.6305826  38.2541195   1.4200264  33.0116338  37.5719366   1.8068138
  31.8269110  37.9650797   1.2375928  32.5682288  38.1108244   1.4504320
  36.1327893  51.4691167   6.5182662  35.8966530  50.6379232   6.3994723
  36.7771122  51.4176774   7.1037506  36.1922563  51.3388855   6.5868556
  25.7826311  52.2586688  -2.7674601  26.4200258  52.0198436  -2.2222808
  26.2081382  52.4623847  -3.5021441  25.9402477  52.2537698  -2.7957444
  20.4738953  54.4975025   1.1159702  20.5143098  54.7689876   0.2879482
  21.0333477  55.0216933   1.5317490  20.5622299  54.6150780   1.0551591
  26.5897666  40.7595393  11.2862872  26.2751107  41.5294956  11.0232435
  26.2687599  40.1965649  10.7015099  26.4956585  40.7905662  11.1604222
  37.1564313  51.2535616   2.5810957  36.8510130  51.9863673   2.9424272
  36.4370529  50.8473545   2.3003743  37.0051656  51.3017349   2.5924094
  28.1647783  52.7359111  -1.0880815  28.2386791  52.5734283  -0.2338965
  28.9817289  52.9249300  -1.3320333  28.2964141  52.7395853  -0.9982789
  42.8566105  47.8928616   1.9079301  42.7890606  47.9124576   1.0381888
  42.8421768  48.7358944   2.1334972  42.8444862  48.0202351   1.8131778
  33.2662452  39.2963774   5.2320390  34.0116044  39.1073585   4.8183816
  32.8499757  39.8222012   4.6734247  33.3147426  39.3465920   5.0884964
  40.6424723  46.6673003   0.1825895  41.1932644  46.0341072   0.4222987
  40.6268838  47.1988395   0.8741400  40.7209919  46.6521951   0.3204754
  27.2947114  50.5011600   4.7285789  26.7958807  51.2127368   4.8070677
  28.1047338  50.8212266   4.6903951  27.3403220  50.6538448   4.7342357
  23.5575231  49.7634553  -1.0251490  23.2688480  49.1372024  -0.4905763
  24.4258579  49.7054840  -0.9586810  23.6435483  49.6622097  -0.9360536
  34.3453129  44.9069336  -0.7069508  34.0017895  44.1859671  -0.3562259
  34.4446172  44.6983187  -1.5491150  34.3095172  44.7693540  -0.7797828
  26.2214172  43.3592644  10.0248087  25.4113947  43.6650424   9.9137929
  26.6988858  44.0798227  10.1400671  26.1717650  43.5107245  10.0255158
  25.0805731  52.5738365   0.2730990  24.5586485  52.7138657   0.9582855
  25.4679751  51.8149030   0.4633108  25.0609432  52.4823889   0.4032067
  26.5072057  49.6042384  -4.3287519  26.3114839  50.2117119  -4.9227216
  26.7306402  48.9110328  -4.8095845  26.5106698  49.5919910  -4.4871438
  24.9050587  46.4897122  -4.2106650  25.6273239  46.6538280  -4.6702844
  24.4258580  47.2106787  -4.3167311  24.9414317  46.6195352  -4.2941036
  32.8644094  42.8260921   1.1690035  32.0255195  42.8522200   0.9328298
  32.9348462  43.4731656   1.7495381  32.7512488  42.9257047   1.2199151
  22.5558203  48.8955195   4.8947489  23.0679300  49.1739448   4.2456249
  22.2694546  49.6344489   5.2610302  22.5893067  49.0457548   4.8537367
  31.3113373  39.7246298  -4.0982350  32.0139725  39.5254046  -4.5762391
  31.0457561  38.9522240  -3.7913506  31.3760005  39.5809264  -4.1236908
  36.7401618  48.0328908  -1.5448724  36.6535593  48.1884334  -0.6913945
  36.2852098  48.6766983  -1.9189319  36.6604875  48.1504663  -1.4741617
  26.0741929  40.9881583   4.9548531  25.8825126  41.0036718   5.8047955
  26.9240525  41.1845258   4.9315186  26.1717651  41.0195934   5.0771826
  20.4588842  43.5172565   2.9332347  20.3174334  42.6656505   3.0576855
  20.7429405  43.5601225   2.1094553  20.4796688  43.3972315   2.8299972
  30.6127434  45.3539655  -2.9223164  30.3662149  45.2735406  -2.0886375
  30.9412557  44.5693123  -3.1160637  30.6248678  45.2265920  -2.8275641
  34.5075483  52.0623014   0.8663617  34.3689842  52.7604060   1.3712359
  33.7275481  51.9071671   0.5099799  34.3718710  52.1423181   0.8889891
  32.8453568  48.3619390   7.1185999  32.8401607  47.4899206   7.1228425
  33.5514562  48.5607559   6.6455454  32.9498572  48.2623264   7.0493034
  26.5724462  48.0896373   6.4899819  26.7167837  48.6697582   5.8542929
  26.9200110  48.4672670   7.1949673  26.6451923  48.2317078   6.4998814
  28.7444379  47.2886542   4.2724950  27.9967693  47.4817556   3.8673228
  28.8985904  46.4631761   4.0349072  28.6566807  47.1951653   4.1770356
  25.6452217  56.2799145   3.3560846  25.7941780  55.7202061   2.7034250
  26.4252219  56.3591147   3.7393364  25.7826310  56.2084711   3.3157795
  28.1705517  56.4513788   4.6345336  28.0949188  55.7822599   5.1896125
  28.0995376  57.1531576   5.1486003  28.1486124  56.4558696   4.7922185
  28.9846156  41.1837093   5.1620354  29.4418770  41.9161067   5.2893146
  29.0602485  40.7603558   5.9207610  29.0637126  41.2294331   5.2921431
  21.2279147  41.4302912   6.2509798  20.6921337  40.8183270   6.5670565
  21.2896912  42.0051048   6.9043464  21.1574780  41.4249840   6.3945225
  33.4573482  34.3626968  -0.9685803  33.5757050  34.8203431  -1.7018500
  33.2835658  33.5572229  -1.2549585  33.4492653  34.3120740  -1.1184869
  26.8628534  43.1739197   2.0062178  26.0724609  42.9930657   2.3279514
  27.2589157  42.3966149   1.9892473  26.8045410  43.0326657   2.0514727
  32.2472220  50.8081627  -0.2678376  31.5717222  50.5766859   0.2335011
  32.2564596  50.2002810  -0.8936271  32.1490725  50.6840552  -0.2862224
  29.3766364  45.6499456   6.4885677  29.3125505  46.5109412   6.3605814
  29.5163552  45.3331449   5.6881228  29.3881834  45.7299622   6.3513890
  28.0585458  48.3431595   0.6301880  27.6347707  48.5436094  -0.1059102
  27.8830313  47.4960443   0.7426180  27.9696339  48.2480376   0.5375570
  27.5597151  59.8582108   3.0923337  28.0493082  59.1592897   2.9099002
  26.9881384  59.5605978   3.6799395  27.5481681  59.7108332   3.1524378
  23.3467903  48.8383646  -3.9370147  23.5032522  48.7730449  -3.0814155
  23.6868496  49.6132199  -4.1491468  23.4201138  48.9432845  -3.8415553
  29.8847048  48.2141530  -5.0676784  30.4262593  47.7111911  -4.6038164
  30.1993607  48.1606725  -5.8787299  30.0111445  48.1320951  -5.1192972
  33.7564155  52.4244177  12.0450128  34.5699020  52.1529326  12.2055260
  33.5959121  52.1251717  11.2410324  33.8534104  52.3399103  11.9495534
  31.0336317  43.1077834   4.9845516  31.2478287  42.4688749   4.4308870
  30.4170216  43.5523658   4.5553378  30.9741646  43.0787978   4.8395947
  19.9202165  46.0218597  -3.6209380  20.3001129  46.4403142  -4.2849113
  19.3457529  46.6032053  -3.3140537  19.8913489  46.1696456  -3.6732639
  33.1975405  44.7166900   5.9228823  32.3852087  44.4092790   6.0041996
  33.6565340  44.2365900   6.4871535  33.1455790  44.6003392   6.0183417
  30.4251046  36.2177770  -0.0267141  29.5544604  36.1916491  -0.0733832
  30.6791387  36.0454962  -0.8441295  30.3344606  36.1887914  -0.1547004
  30.2928913  46.1226971  10.7057526  30.7628544  46.7469088  11.0925400
  30.3390793  45.4543947  11.2650740  30.3696788  46.1161651  10.8457597
  27.4500186  38.2283999   1.4306329  26.9338675  37.5364190   1.5557908
  26.8894115  38.8954776   1.3768928  27.2906699  38.2247256   1.4412395
  29.5192420  38.7676959   3.2599182  29.1324173  38.7925990   4.0412712
  29.0325357  38.2018637   2.8073699  29.3904929  38.6872709   3.3087086
  33.7685399  53.4850468   7.3172968  34.4065120  52.9910663   6.9835425
  33.1259491  53.4127868   6.7325195  33.7679626  53.4009476   7.1815323
  35.4942399  45.3339614   1.8838884  35.0670007  45.2465962   1.1286984
  34.8568452  45.4417389   2.4693728  35.3372006  45.3372273   1.8584326
  29.1849561  35.6543944   5.5509442  29.8142679  36.1904244   5.2730512
  29.3535424  35.5621303   6.4023008  29.3027356  35.7205306   5.6357970
  28.9863476  40.4415139   7.8235853  29.8136906  40.1700288   7.8794468
  29.0071322  41.2375981   8.1799672  29.1116326  40.5194893   7.8851036
  33.8239656  54.1770276   3.9578325  34.6132034  53.8259341   4.0780407
  33.9983253  54.9906664   3.6954959  33.9659937  54.2456133   3.9366193
  23.5632966  47.5879002   1.0106114  22.7220973  47.4882876   1.2185008
  23.7722974  48.3574482   1.3620435  23.4697659  47.6871045   1.0933429
  21.0408533  45.2098539  -1.1609135  20.6465231  45.2841550  -1.9359026
  20.4848650  45.5956485  -0.6100773  20.9011345  45.2780313  -1.1941475
  32.6773480  38.1879833  -1.4805256  32.8823073  38.1202140  -0.6348259
  32.3499904  38.9938654  -1.5484079  32.6588728  38.2965773  -1.3645601
  27.3749631  45.5160401   0.2603712  27.0712768  44.9616389   0.8614119
  26.6729052  45.6952611  -0.2268254  27.2265841  45.4605183   0.2773417
  25.4367982  52.7310122   4.9675809  25.3288337  52.7412184   5.8337867
  25.6463763  53.5564902   4.7780763  25.4518093  52.8551196   5.0679901
  35.9307168  38.7411597  -2.0002491  35.3181481  39.2281999  -1.6148759
  36.0271342  38.0655088  -1.4564840  35.8545065  38.7129906  -1.8623633
  23.4541774  49.9822764   2.4297747  22.8629707  50.6232262   2.4000762
  24.2162797  50.4060381   2.4029047  23.4790035  50.1398602   2.4212894
  23.8502397  41.1424762   3.0965765  24.3103878  41.2163691   3.8340888
  23.8958503  41.9406016   2.7465586  23.9252952  41.2718909   3.1538521
  25.4985746  41.8091457   7.6637792  25.1071312  41.1624804   8.0993570
  25.6671609  42.4002892   8.2832047  25.4656657  41.8005724   7.8200498
  39.5732195  49.8128534   3.4275025  39.6315319  50.2615182   4.1735002
  38.9398663  50.2227346   2.9905105  39.4883491  49.9402268   3.4727574
  33.2131290  55.4332076  -0.1370229  33.0150979  55.9222890  -0.8314017
  32.5919001  55.6373317   0.4413905  33.0918855  55.5348614  -0.1547005
  27.2739269  47.2016972  -5.7959984  28.0181313  47.5891249  -5.5577034
  27.4199965  46.3574398  -5.6319496  27.4049854  47.1347445  -5.7366015
  29.1918844  38.9967231  -0.7628123  28.3454889  39.1690039  -0.8886773
  29.1889976  38.1916575  -0.4262295  29.0665994  38.9028260  -0.7316996
  30.2617144  42.7742446   0.1033935  29.7877099  42.2484208   0.6139246
  30.6335280  42.2271919  -0.4651203  30.2467033  42.6158442   0.0949082
  20.6390175  44.7713952   5.4717481  21.5015788  44.6709662   5.3854811
  20.3081958  44.1908662   4.9103053  20.7175371  44.6705579   5.3762887
  36.5253875  47.8344821   1.5140716  36.2852098  46.9951236   1.5183142
  37.0045882  47.9144988   2.2381489  36.5606059  47.7226221   1.6215518
  38.5259062  44.6146279  -0.5330025  38.2868832  44.5742113  -1.3709241
  38.6892963  45.4617431  -0.4064304  38.5149365  44.7338364  -0.6376543
  35.1305092  48.9996228   5.3975020  35.8539291  48.5468754   5.2186040
  34.8655054  49.2800894   4.6147348  35.1986365  48.9747196   5.2553735
  23.9991960  43.5956401   2.1327899  23.3745031  43.6074793   1.5253852
  23.6637555  44.0716576   2.7819139  23.8577452  43.6674918   2.1384468
  20.7117636  51.6556861   3.5731663  20.1817561  50.9649300   3.6226638
  20.9842729  51.6467047   2.7444372  20.6742358  51.5523993   3.4579079
  30.9123882  49.0980106   3.5470035  30.2980875  48.5538156   3.8418670
  31.4291167  48.5844343   3.0675851  30.8979544  48.9416515   3.5194263
  30.1520179  50.1684376   1.2814334  29.7247787  49.5434095   0.8479769
  30.1445123  49.8859298   2.1073341  30.0879320  50.0337157   1.3394161
  23.2682706  45.2049549   4.3502768  23.4276193  44.4492873   4.7554489
  23.0875599  45.7540489   5.0043505  23.2648065  45.1743363   4.5065474
  31.2103009  37.3710785   4.9053557  30.7143570  37.5674459   4.2145124
  31.9672071  37.7703453   4.7342359  31.2489834  37.4588519   4.7773694
  28.4805888  41.0453131   1.4956868  28.5048376  40.5113243   0.8069648
  28.7317362  40.5370439   2.1582458  28.5215807  40.8914035   1.4921512
  24.7607211  39.7723949   0.8762612  24.8005582  40.2733155   1.5897319
  23.9356875  39.8634343   0.6068535  24.6446737  39.8605765   0.9413150
  26.9436824  49.3384689   8.9782906  26.0932454  49.4756403   9.1140551
  27.1064951  48.6048467   9.4230608  26.8420687  49.2498790   9.0638506
  26.1821574  46.2884459   3.1736511  25.3513504  46.4558277   2.9671759
  26.1273091  45.9120409   3.9585396  26.0510989  46.2574190   3.2585039
  23.9905357  39.7793352   8.8092922  24.6158061  39.2355484   9.0822354
  23.5355837  39.2988269   8.2400712  24.0153618  39.6282833   8.7654515
  37.5640406  47.9622639   3.9005570  38.1558246  48.6019889   3.9323768
  37.9999401  47.2645675   4.1897636  37.7158837  47.9540989   3.9486402
  29.3933796  52.3840011   4.5263464  28.8858887  52.9375858   4.9704094
  29.0960442  52.4448301   3.7082238  29.2738681  52.4746322   4.4711920
  31.5595978  40.7493331   3.3688126  31.9851050  40.2965857   2.7571653
  30.9452971  40.1953401   3.6452914  31.5324623  40.6007307   3.3193152
  34.5889547  45.1767857  -3.7991288  33.9180737  45.7197560  -3.9278222
  35.2829298  45.6462713  -4.0409593  34.5918415  45.3266128  -3.8535760
  28.6376281  57.3164569   1.4320470  28.4141936  56.5583399   1.8004497
  28.1486124  57.3462590   0.7100910  28.5319730  57.2086794   1.3797211
  34.7517675  41.6323741  -0.8900915  35.1045285  41.2053464  -0.2155116
  33.8932476  41.5474584  -0.7599838  34.6767120  41.5568482  -0.7705904
  23.4501360  44.2631261  -2.8318068  22.7313349  44.6795393  -2.5645205
  23.8213722  44.8285499  -3.3826430  23.3993292  44.4080542  -2.8735261
  32.7500941  44.8959109   3.0583928  32.7298868  44.7142405   3.9118706
  32.7980141  45.7671128   3.0343511  32.7535582  44.9975648   3.1807222
  30.6947271  51.4846301   8.9832404  30.6543125  50.8395978   8.3977560
  31.5070589  51.4282919   9.2957816  30.8090424  51.3805268   8.9429353
  27.2854738  57.5365027  -1.1142445  26.8715137  56.8739158  -1.5038603
  27.9702112  57.6842886  -1.6346751  27.3253110  57.4605686  -1.2485948
  30.6520032  56.6955113  -0.3618828  30.2536315  56.8057383  -1.1298008
  30.0371252  56.9037179   0.2207731  30.5018922  56.7428681  -0.3887529
  36.1841735  36.7542153   0.0383398  35.6772600  36.0471292  -0.0295425
  36.9809169  36.4235342   0.1684474  36.2268974  36.6015304   0.0482393
  32.1005751  43.2608765  -4.0642938  31.8719444  43.2841466  -4.9064580
  32.3603827  42.4366232  -3.9447928  32.1051939  43.1424845  -4.1717741
  26.3824979  45.1143238   5.5382162  25.8703882  44.5064421   5.8967193
  26.2104475  45.8299831   6.0056138  26.2814616  45.1306537   5.6598385
  21.2290694  43.5580813   8.1884524  21.0593284  44.2182188   7.6432730
  20.7856644  43.7687375   8.9097013  21.1390028  43.6866795   8.2146153
  25.1550513  41.7985311  -2.7688743  25.6307880  42.1602391  -3.4038562
  24.6539113  42.4541779  -2.4888600  25.1515872  41.9479500  -2.8212002
  30.2594050  43.0367483   7.9784417  30.8165480  42.8081292   7.3462883
  29.9355115  43.7973148   7.7019630  30.2940460  43.1151319   7.8440914
  18.1292758  46.4627679   3.4473013  17.5819478  45.7928324   3.5653882
  18.9185137  46.0957527   3.5116481  18.1644942  46.3092665   3.4741714
  27.9777167  46.1235136   8.9436424  28.7288494  46.4386813   9.2575979
  28.1699743  45.9214307   8.1170346  28.1168581  46.1402518   8.8679820
  34.8262457  42.2508702  -3.8139780  34.8256683  42.0957359  -2.9555504
  34.6218637  43.0971689  -3.8698395  34.7962235  42.3529323  -3.6951841
  16.8879728  45.6748487   0.6019036  16.7101489  45.2225096   1.3273952
  16.5998750  46.4774648   0.7857514  16.8192681  45.7271045   0.7362539
  32.5503309  46.9306204  -0.1603573  33.0456974  46.2129199  -0.1999553
  31.7403085  46.6277002  -0.2749086  32.5047202  46.7803850  -0.1829847
  34.6155128  49.6809892   2.5273555  35.0410199  49.1584313   1.9743981
  34.2512048  50.2790729   2.0062178  34.6241731  49.6920119   2.3682565
  24.2509208  57.9774109   1.2870901  24.5655767  58.7910498   1.2948683
  24.6602621  57.5924328   1.9553060  24.3577306  58.0402811   1.3874993
  33.2910712  55.0045469  11.0366785  33.4007677  54.2154030  11.3923532
  33.6201609  54.9151405  10.2341123  33.3563118  54.8751322  10.9709176
  28.1203222  38.1671626   5.8132808  28.2531128  37.3702620   6.1413783
  28.5048375  38.6938029   6.3931083  28.1959551  38.1271543   5.9476311
  31.8407674  53.1862090   5.6202406  31.2928620  52.5619974   5.3522471
  32.3020702  53.3756362   4.9046485  31.8274883  53.1221140   5.4752837
  31.1935578  35.0901953   2.4113901  30.3881541  34.9799682   2.7281739
  31.0642313  35.1914408   1.5543767  31.0555710  35.0885623   2.3321941
  34.6501538  41.2547444   3.0053598  34.0664527  41.7556651   2.5931165
  34.9705832  40.7477001   2.3717921  34.6114713  41.2539279   2.8512105
  25.7791669  38.1630801   4.0610701  26.3236082  37.8221928   4.6515043
  25.8328605  39.0216263   4.2031986  25.8680789  38.2386061   4.1692575
  21.5922228  51.9247218   0.9349509  22.1967085  51.8843052   0.3063330
  21.3849540  52.7718370   0.9653565  21.6511125  52.0435220   0.8465626
  31.4066000  54.1913163   2.1511747  32.2264374  54.0476129   2.4128042
  31.1260078  54.8159362   2.6928185  31.4862743  54.2623515   2.2699686
  32.2629496  62.2193074   2.6687768  32.1388193  62.8055520   3.3037587
  32.9147780  61.7253270   2.9700043  32.3403145  62.2331879   2.8073697
  35.7010704  62.1372496   8.0816792  35.8731208  62.0278390   8.9302074
  36.2380061  62.7826901   7.8447985  35.8055708  62.2164497   8.1721889
  41.6385405  70.0576747  10.0325869  42.4225822  70.1707594  10.3981611
  41.4382000  69.2317884  10.2284554  41.7251431  69.9523466  10.1160255
  34.7571027  58.2682805   5.5636720  34.0642824  57.7979785   5.8097452
  35.3731355  58.0421109   6.1378427  34.7455557  58.1649937   5.6845873
  33.4811586  62.2348209   6.7063565  34.2051559  62.2201240   7.1928460
  33.5827723  62.9443564   6.2085534  33.6029795  62.3372912   6.7042352
  40.8556536  65.7147294  11.5712512  40.0629516  66.0290805  11.7565132
  40.9705463  65.9298762  10.7333297  40.7551946  65.7931130  11.4750847
  39.7812048  60.0751874   3.9076280  39.3926481  59.6506092   3.2528471
  39.1166746  60.3234024   4.4153306  39.6258976  60.0490595   3.8864148
  43.6038409  53.7726503   1.4200264  43.9848921  53.0904674   1.8068138
  42.8001694  53.4836105   1.2375928  43.5414871  53.6293551   1.4504320
  37.5630250  56.2780701  11.2862872  37.2483691  57.0480264  11.0232435
  37.2420182  55.7150957  10.7015099  37.4689169  56.3090970  11.1604222
  44.2395035  54.8149082   5.2320390  44.9848627  54.6258892   4.8183816
  43.8232340  55.3407320   4.6734247  44.2880010  54.8651227   5.0884964
  37.1946755  58.8777952  10.0248087  36.3846531  59.1835732   9.9137929
  37.6721442  59.5983535  10.1400671  37.1450234  59.0292553  10.0255158
  33.5290787  64.4140503   4.8947489  34.0411884  64.6924756   4.2456249
  33.2427130  65.1529797   5.2610302  33.5625650  64.5642856   4.8537367
  37.0474512  56.5066891   4.9548531  36.8557709  56.5222026   5.8047955
  37.8973108  56.7030565   4.9315186  37.1450234  56.5381242   5.0771826
  31.4321425  59.0357873   2.9332347  31.2906917  58.1841813   3.0576855
  31.7161989  59.0786533   2.1094553  31.4529272  58.9157623   2.8299972
  37.5457045  63.6081681   6.4899819  37.6900421  64.1882890   5.8542929
  37.8932694  63.9857978   7.1949673  37.6184506  63.7502385   6.4998814
  39.9578740  56.7022401   5.1620354  40.4151354  57.4346375   5.2893146
  40.0335068  56.2788866   5.9207610  40.0369709  56.7479639   5.2921431
  32.2011731  56.9488220   6.2509798  31.6653920  56.3368578   6.5670565
  32.2629495  57.5236356   6.9043464  32.1307363  56.9435148   6.3945225
  37.8361117  58.6924504   2.0062178  37.0457192  58.5115965   2.3279514
  38.2321740  57.9151457   1.9892473  37.7777994  58.5511965   2.0514727
  40.3498948  61.1684764   6.4885677  40.2858089  62.0294720   6.3605814
  40.4896135  60.8516757   5.6881228  40.3614418  61.2484930   6.3513890
  44.7296739  67.9429485  12.0450128  45.5431604  67.6714634  12.2055260
  44.5691705  67.6437025  11.2410324  44.8266687  67.8584411  11.9495534
  42.0068901  58.6263142   4.9845516  42.2210870  57.9874057   4.4308870
  41.3902800  59.0708966   4.5553378  41.9474230  58.5973286   4.8395947
  44.1707989  60.2352208   5.9228823  43.3584670  59.9278098   6.0041996
  44.6297923  59.7551208   6.4871535  44.1188373  60.1188700   6.0183417
  41.2661496  61.6412279  10.7057526  41.7361127  62.2654395  11.0925400
  41.3123376  60.9729255  11.2650740  41.3429372  61.6346959  10.8457597
  38.4232770  53.7469307   1.4306329  37.9071258  53.0549498   1.5557908
  37.8626699  54.4140084   1.3768928  38.2639283  53.7432564   1.4412395
  40.4925003  54.2862267   3.2599182  40.1056756  54.3111298   4.0412712
  40.0057940  53.7203945   2.8073699  40.3637512  54.2058017   3.3087086
  40.1582145  51.1729252   5.5509442  40.7875263  51.7089552   5.2730512
  40.3268008  51.0806611   6.4023008  40.2759939  51.2390614   5.6357970
  39.9596060  55.9600447   7.8235853  40.7869489  55.6885596   7.8794468
  39.9803906  56.7561288   8.1799672  40.0848910  56.0380201   7.8851036
  34.8234980  56.6610070   3.0965765  35.2836462  56.7348999   3.8340888
  34.8691087  57.4591324   2.7465586  34.8985536  56.7904217   3.1538521
  36.4718330  57.3276764   7.6637792  36.0803895  56.6810112   8.0993570
  36.6404193  57.9188200   8.2832047  36.4389240  57.3191032   7.8200498
  31.6122758  60.2899260   5.4717481  32.4748371  60.1894969   5.3854811
  31.2814541  59.7093970   4.9103053  31.6907954  60.1890887   5.3762887
  34.9724544  59.1141709   2.1327899  34.3477614  59.1260101   1.5253852
  34.6370139  59.5901884   2.7819139  34.8310036  59.1860226   2.1384468
  34.2415289  60.7234857   4.3502768  34.4008776  59.9678181   4.7554489
  34.0608183  61.2725797   5.0043505  34.2380648  60.6928671   4.5065474
  42.1835592  52.8896093   4.9053557  41.6876154  53.0859767   4.2145124
  42.9404654  53.2888761   4.7342359  42.2222417  52.9773826   4.7773694
  35.7339794  55.2909257   0.8762612  35.7738166  55.7918463   1.5897319
  34.9089459  55.3819650   0.6068535  35.6179320  55.3791073   0.9413150
  37.9169407  64.8569997   8.9782906  37.0665038  64.9941711   9.1140551
  38.0797535  64.1233775   9.4230608  37.8153271  64.7684098   9.0638506
  34.9637941  55.2978660   8.8092922  35.5890644  54.7540792   9.0822354
  34.5088421  54.8173577   8.2400712  34.9886202  55.1468141   8.7654515
  42.5328562  56.2678639   3.3688126  42.9583633  55.8151165   2.7571653
  41.9185555  55.7138709   3.6452914  42.5057207  56.1192615   3.3193152
  41.6679854  67.0031609   8.9832404  41.6275709  66.3581286   8.3977560
  42.4803172  66.9468227   9.2957816  41.7823008  66.8990576   8.9429353
  37.3557563  60.6328546   5.5382162  36.8436466  60.0249729   5.8967193
  37.1837059  61.3485139   6.0056138  37.2547200  60.6491845   5.6598385
  32.2023278  59.0766121   8.1884524  32.0325868  59.7367496   7.6432730
  31.7589227  59.2872683   8.9097013  32.1122611  59.2052103   8.2146153
  41.2326633  58.5552791   7.9784417  41.7898063  58.3266600   7.3462883
  40.9087698  59.3158456   7.7019630  41.2673043  58.6336627   7.8440914
  29.1025342  61.9812987   3.4473013  28.5552062  61.3113632   3.5653882
  29.8917720  61.6142835   3.5116481  29.1377526  61.8277973   3.4741714
  38.9509750  61.6420444   8.9436424  39.7021077  61.9572121   9.2575979
  39.1432327  61.4399615   8.1170346  39.0901165  61.6587826   8.8679820
  27.8612312  61.1933795   0.6019036  27.6834073  60.7410404   1.3273952
  27.5731334  61.9959956   0.7857514  27.7925265  61.2456352   0.7362539
  39.0935806  53.6856934   5.8132808  39.2263712  52.8887928   6.1413783
  39.4780959  54.2123337   6.3931083  39.1692135  53.6456851   5.9476311
  42.1668161  50.6087260   2.4113901  41.3614125  50.4984990   2.7281739
  42.0374897  50.7099716   1.5543767  42.0288294  50.6070931   2.3321941
  36.7524253  53.6816109   4.0610701  37.2968666  53.3407236   4.6515043
  36.8061188  54.5401571   4.2031986  36.8413372  53.7571369   4.1692575
  35.3961528  39.0750627  -4.9843161  35.5682032  38.9656521  -4.1357879
  35.9330885  39.7205032  -5.2211968  35.5006532  39.1542628  -4.8938064
  41.3336229  46.9954878  -3.0334085  42.1176646  47.1085726  -2.6678343
  41.1332824  46.1696015  -2.8375399  41.4202255  46.8901597  -2.9499699
  40.5507360  42.6525425  -1.4947441  39.7580340  42.9668937  -1.3094821
  40.6656287  42.8676893  -2.3326656  40.4502770  42.7309261  -1.5909106
  37.2581074  33.2158832  -1.7797081  36.9434515  33.9858395  -2.0427518
  36.9371006  32.6529088  -2.3644854  37.1639993  33.2469101  -1.9055731
  36.8897579  35.8156083  -3.0411866  36.0797355  36.1213863  -3.1522024
  37.3672266  36.5361666  -2.9259282  36.8401058  35.9670685  -3.0404795
  37.2407869  40.5459813  -6.5760134  37.3851245  41.1261021  -7.2117024
  37.5883518  40.9236109  -5.8710280  37.3135330  40.6880517  -6.5661139
  40.0449772  38.1062895  -6.5774276  39.9808913  38.9672851  -6.7054139
  40.1846959  37.7894888  -7.3778725  40.0565242  38.1863061  -6.7146063
  44.4247563  44.8807616  -1.0209825  45.2382428  44.6092765  -0.8604693
  44.2642529  44.5815156  -1.8249629  44.5217511  44.7962542  -1.1164419
  43.8658813  37.1730339  -7.1431130  43.0535494  36.8656229  -7.0617957
  44.3248747  36.6929339  -6.5788418  43.8139197  37.0566831  -7.0476536
  40.9612320  38.5790410  -2.3602428  41.4311951  39.2032527  -1.9734553
  41.0074200  37.9107386  -1.8009213  41.0380196  38.5725091  -2.2202356
  37.6120231  41.7948128  -4.0877047  36.7615862  41.9319842  -3.9519402
  37.7748359  41.0611906  -3.6429345  37.5104095  41.7062229  -4.0021448
  41.3630678  43.9409741  -4.0827549  41.3226533  43.2959418  -4.6682393
  42.1753996  43.8846358  -3.7702137  41.4773832  43.8368707  -4.1230600
  40.9277457  35.4930922  -5.0875536  41.4848887  35.2644731  -5.7197070
  40.6038522  36.2536587  -5.3640324  40.9623867  35.5714758  -5.2219039
  38.6460574  38.5798575  -4.1223529  39.3971901  38.8950252  -3.8083975
  38.8383151  38.3777746  -4.9489607  38.7851989  38.5965957  -4.1980133
  79.1372932  79.1372932  79.1372932 109.4712190 109.4712190 109.4712190
